Membrane in water
40344
    1TMC1    C1    1   4.378   3.644  11.715 -0.7739  0.2150  0.0670
    1TMC1    C2    2   4.297   3.745  11.677 -0.4795  0.1115  0.4936
    1TMC1    C3    3   4.309   3.867  11.747  0.0595 -0.0182 -0.1112
    1TMC1    C4    4   4.474   3.657  11.810 -0.0853  0.4437  0.4256
    1TMC1    C5    5   4.471   3.778  11.881  0.6584 -0.1829  0.3161
    1TMC1    C6    6   4.384   3.876  11.856  0.7624  0.1131 -0.4942
    1TMC1     C    7   4.369   3.514  11.648 -0.6623  0.1591 -0.5434
    1TMC1     O    8   4.273   3.490  11.572 -0.0981 -0.1604  0.1721
    1TMC1     H    9   4.222   3.741  11.599  1.7876 -1.8594 -1.6039
    1TMC1    H1   10   4.530   3.574  11.850 -1.7142 -0.2661  1.2608
    1TMC1    H2   11   4.380   3.962  11.922  0.3815 -0.7206  0.5522
    1TMC1    C7   12   4.546   3.783  12.003 -0.1816 -0.4528  0.1800
    1TMC1    C8   13   4.254   3.988  11.696  0.3540  1.0897  0.8724
    1TMC1    O1   14   4.620   3.687  12.029  0.2199 -0.2704  0.2426
    1TMC1    O2   15   4.226   4.086  11.763  0.0065  0.2622 -0.3302
    1TMC1    O3   16   4.582   3.904  12.033 -0.2344 -0.0025  0.0252
    1TMC1    H3   17   4.564   3.978  11.970  0.4046 -1.3301 -1.7110
    1TMC1    O5   18   4.292   3.982  11.567  0.5567  0.6143  0.4554
    1TMC1    H5   19   4.353   3.913  11.533  0.0845  0.9172 -1.0031
    2MPD2     C   20   4.509   3.024  11.628 -0.3055 -0.1291 -0.0741
    2MPD2    C1   21   4.388   3.084  11.613  0.4367  0.1448 -0.7694
    2MPD2    C2   22   4.373   3.225  11.616  0.3848 -0.2274 -0.1895
    2MPD2    C3   23   4.480   3.304  11.643 -0.4437 -0.6072  0.2830
    2MPD2    C4   24   4.600   3.241  11.664 -0.6823  0.0901  0.1900
    2MPD2    C5   25   4.612   3.106  11.662  0.0173 -0.4518 -0.7784
    2MPD2     H   26   4.275   3.260  11.586  0.1634 -0.2463  0.4988
    2MPD2    H1   27   4.694   3.292  11.682 -0.2695 -0.5627 -0.1384
    2MPD2    H2   28   4.522   2.917  11.619  1.5347  0.2999 -2.4096
    2MPD2    H3   29   4.705   3.056  11.686 -1.8015 -3.2334  0.4530
    2MPD2     N   30   4.478   3.438  11.667  0.6995  0.1475 -0.0950
    2MPD2    H5   31   4.560   3.490  11.696  1.2478 -0.7506 -0.0619
    2MPD2    N1   32   4.263   3.011  11.588 -0.1020 -0.0066  0.9332
    2MPD2    H7   33   4.179   3.065  11.573  0.4973  0.9501  1.0598
    3TMC1    C1   34   3.547   1.047  10.306 -0.6706  0.0527 -0.3393
    3TMC1    C2   35   3.531   1.172  10.357  0.2201 -0.3035  0.3742
    3TMC1    C3   36   3.612   1.271  10.316  0.2295  0.3788 -0.3818
    3TMC1    C4   37   3.631   1.024  10.198  0.6840 -0.3240  0.2574
    3TMC1    C5   38   3.709   1.127  10.155 -0.4005  0.0447  0.0910
    3TMC1    C6   39   3.695   1.253  10.209  0.1916 -0.0416  0.0922
    3TMC1     C   40   3.445   0.947  10.326 -0.0220  0.7846 -0.2977
    3TMC1     O   41   3.432   0.867  10.232  0.5173  0.1931 -0.0698
    3TMC1     H   42   3.467   1.189  10.443 -0.8094 -1.3394 -0.1956
    3TMC1    H1   43   3.661   0.923  10.175 -2.6023 -1.5652  1.4541
    3TMC1    H2   44   3.771   1.325  10.178 -0.7758  1.2076  0.6279
    3TMC1    C7   45   3.799   1.108  10.038 -0.6264  0.1854 -0.7054
    3TMC1    C8   46   3.581   1.414  10.343 -0.2031 -0.4061 -0.1490
    3TMC1    O1   47   3.886   1.191  10.012  0.0187  0.2185 -0.3728
    3TMC1    O2   48   3.595   1.496  10.251 -0.4606 -0.3525 -0.0655
    3TMC1    O3   49   3.733   1.036   9.954 -0.1056 -0.1074 -0.5937
    3TMC1    H3   50   3.663   0.981   9.993  0.2642 -0.4738 -0.4398
    3TMC1    O5   51   3.557   1.429  10.476 -0.1788 -0.4110 -0.0791
    3TMC1    H5   52   3.596   1.349  10.518 -0.7257 -0.0171  1.1726
    4MPD2     C   53   3.076   0.695  10.556  0.1150 -0.4426 -0.5481
    4MPD2    C1   54   3.103   0.805  10.639  0.3108 -0.2079 -0.0993
    4MPD2    C2   55   3.200   0.895  10.587 -0.7099  0.3102  0.3945
    4MPD2    C3   56   3.269   0.870  10.475 -0.3695 -0.2969 -0.0930
    4MPD2    C4   57   3.244   0.758  10.405  0.1687  0.5828 -0.3764
    4MPD2    C5   58   3.143   0.671  10.434 -0.1576 -1.5494 -0.3790
    4MPD2     H   59   3.222   0.987  10.640  1.4529 -0.3330  0.6094
    4MPD2    H1   60   3.304   0.717  10.324 -1.3204  0.7895 -1.5714
    4MPD2    H2   61   2.981   0.644  10.571 -0.3839  1.0001  1.1966
    4MPD2    H3   62   3.125   0.583  10.373 -0.3118 -0.4804 -1.8652
    4MPD2     N   63   3.373   0.958  10.440  0.4898  0.4602  0.2583
    4MPD2    H5   64   3.401   1.028  10.508 -0.3159  0.0141  1.0367
    4MPD2    N1   65   3.035   0.830  10.758 -0.0973  0.5106 -0.6225
    4MPD2    H7   66   3.041   0.924  10.794 -0.4615  1.0399 -1.9336
    5TCq1    O1   67   2.233   1.744  11.465  0.0546  0.0461 -0.0459
    5TCq1    C1   68   2.340   1.670  11.429 -0.0413  0.9161  0.0350
    5TCq1    O2   69   2.395   1.589  11.498  0.0886  1.0587 -0.1773
    5TCq1    C2   70   2.411   1.717  11.308 -1.3140 -0.3956  0.5624
    5TCq1    C3   71   2.361   1.830  11.247  1.0238  0.4075 -0.2149
    5TCq1    C4   72   2.447   1.903  11.174 -0.0210  0.0333 -0.2553
    5TCq1    C5   73   2.573   1.860  11.143  0.5210  0.1329 -0.5585
    5TCq1    C6   74   2.618   1.744  11.200  0.8709  0.2441 -0.0536
    5TCq1    C7   75   2.540   1.669  11.280 -0.3284 -0.0148  0.0864
    5TCq1    C8   76   2.753   1.708  11.196  0.1446  0.2777  0.1276
    5TCq1    O4   77   2.784   1.590  11.224 -0.0447  0.0572  0.6019
    5TCq1    C9   78   2.403   2.036  11.131 -0.8639  0.1726 -0.7280
    5TCq1    O5   79   2.462   2.080  11.031 -0.3036  0.6743  0.0143
    5TCq1    O6   80   2.313   2.095  11.199  0.0226 -0.1921  0.0925
    5TCq1    H1   81   2.209   1.814  11.401 -1.9664 -1.1999 -0.6420
    5TCq1    H2   82   2.259   1.862  11.262  1.5900  2.1720 -0.1539
    5TCq1    H3   83   2.629   1.919  11.071  1.0496  2.9644  2.1598
    5TCq1    H4   84   2.583   1.593  11.344  1.3164  0.9839  0.1581
    6MPD2     C   85   3.041   1.928  11.151 -0.8362 -0.6349 -0.1524
    6MPD2    C1   86   2.974   1.810  11.161 -0.1551  0.0181 -0.2748
    6MPD2    C2   87   3.054   1.697  11.184 -0.5413  0.0139 -0.0679
    6MPD2    C3   88   3.194   1.712  11.182 -0.1078  0.5500  0.2255
    6MPD2    C4   89   3.261   1.832  11.163 -0.4472 -0.2201  0.1642
    6MPD2    C5   90   3.172   1.938  11.154 -0.1497 -0.0502 -0.6184
    6MPD2     H   91   3.011   1.597  11.183  2.2044 -1.1939  1.0543
    6MPD2    H1   92   3.367   1.833  11.182 -0.2068 -0.3995 -1.2132
    6MPD2    H2   93   2.989   2.022  11.139  1.4519  0.6614  0.1084
    6MPD2    H3   94   3.224   2.034  11.145 -1.1037  0.5650  0.5360
    6MPD2     N   95   3.268   1.593  11.204  0.3142  0.4411  0.0880
    6MPD2    H5   96   3.207   1.516  11.227  1.4600 -0.8608 -1.1906
    6MPD2    N1   97   2.834   1.811  11.160  0.7509 -0.4982 -0.1051
    6MPD2    H7   98   2.788   1.900  11.147  0.8297 -0.0882  2.4474
    7TCq1    O1   99   1.321   1.501  13.124 -0.8061 -0.3066 -0.2833
    7TCq1    C1  100   1.356   1.368  13.119 -0.1701 -0.2529  0.7889
    7TCq1    O2  101   1.404   1.311  13.022  0.2980  0.0931  0.6334
    7TCq1    C2  102   1.310   1.299  13.240 -0.1768  0.3691 -0.1053
    7TCq1    C3  103   1.225   1.364  13.329  0.7566  0.0980  0.4267
    7TCq1    C4  104   1.152   1.284  13.415  0.1245 -0.5825 -0.1056
    7TCq1    C5  105   1.164   1.148  13.416  0.0841  0.6205  0.2404
    7TCq1    C6  106   1.265   1.090  13.337 -0.4643 -0.5879 -0.1235
    7TCq1    C7  107   1.337   1.163  13.249 -0.2384 -0.0022 -0.1454
    7TCq1    C8  108   1.282   0.945  13.324  0.3327  0.4131  0.2783
    7TCq1    O4  109   1.394   0.900  13.317  0.1778 -0.6012 -0.2243
    7TCq1    C9  110   1.042   1.340  13.499 -0.6752 -0.1852 -0.1978
    7TCq1    O5  111   1.040   1.466  13.512  0.1159  0.9962  0.4445
    7TCq1    O6  112   0.964   1.260  13.556 -0.0305  0.2431 -0.2268
    7TCq1    H1  113   1.295   1.544  13.209 -0.7324 -1.2238  0.1986
    7TCq1    H2  114   1.197   1.469  13.326 -0.9382 -0.3850 -0.4455
    7TCq1    H3  115   1.095   1.091  13.477  0.2709  0.0401 -0.0899
    7TCq1    H4  116   1.378   1.112  13.163 -0.4160 -1.2566  0.5160
    8MPD2     C  117   1.106   0.476  13.213 -0.2163 -0.2471 -0.3563
    8MPD2    C1  118   1.195   0.510  13.315 -0.1883  0.8222 -0.1621
    8MPD2    C2  119   1.218   0.642  13.343  0.6548  0.1751  0.2744
    8MPD2    C3  120   1.151   0.744  13.276  0.1650 -0.0953  0.1295
    8MPD2    C4  121   1.059   0.701  13.187  0.1301 -0.4759 -0.0761
    8MPD2    C5  122   1.042   0.573  13.145  0.0362 -0.6678  0.4883
    8MPD2     H  123   1.294   0.674  13.414  0.0108 -0.6732  1.3483
    8MPD2    H1  124   0.992   0.771  13.139 -0.0874 -0.7133 -0.1233
    8MPD2    H2  125   1.083   0.373  13.188 -0.0509 -0.5739  0.8077
    8MPD2    H3  126   0.971   0.563  13.065 -0.5262 -1.1186  1.0480
    8MPD2     N  127   1.162   0.884  13.299 -0.0829 -0.5223  0.4857
    8MPD2    H5  128   1.085   0.946  13.279  1.9011  1.4268 -1.2068
    8MPD2    N1  129   1.248   0.407  13.398 -0.5632 -0.1896 -0.0754
    8MPD2    H7  130   1.238   0.310  13.373 -1.0646 -1.0614  3.4605
    9TMC1    C1  131   3.693   4.619  10.873  0.3079  0.5191  0.3423
    9TMC1    C2  132   3.753   4.648  10.754  0.2255 -0.6170 -0.0365
    9TMC1    C3  133   3.693   4.614  10.635  0.3178 -0.4257 -0.0895
    9TMC1    C4  134   3.586   4.526  10.872 -0.0531  0.0439  0.2433
    9TMC1    C5  135   3.528   4.497  10.755 -0.5715 -0.4716  0.3562
    9TMC1    C6  136   3.574   4.546  10.632 -0.5149  0.7390 -0.1871
    9TMC1     C  137   3.780   4.622  10.991  0.0886 -0.6785  1.0441
    9TMC1     O  138   3.864   4.710  11.003  0.7741 -0.4505  0.3324
    9TMC1     H  139   3.844   4.708  10.748 -0.0346 -0.5296 -3.5843
    9TMC1    H1  140   3.528   4.485  10.954  0.2328  2.4869  1.7006
    9TMC1    H2  141   3.519   4.532  10.540  3.2519 -0.5693 -2.2254
    9TMC1    C7  142   3.407   4.419  10.751  0.2545 -0.1800 -0.4493
    9TMC1    C8  143   3.727   4.680  10.514 -0.1918  0.0282  0.0557
    9TMC1    O1  144   3.306   4.432  10.819  0.2860 -0.0248 -0.2534
    9TMC1    O2  145   3.655   4.679  10.414  0.0440 -0.3008  0.3085
    9TMC1    O3  146   3.419   4.341  10.644  0.1004  0.4386  0.1134
    9TMC1    H3  147   3.510   4.332  10.608 -0.8162 -0.9034 -1.9130
    9TMC1    O5  148   3.861   4.647  10.500  0.3526  0.3045  0.3529
    9TMC1    H5  149   3.904   4.618  10.583  0.6716  2.9892  1.1132
   10MPD2     C  150   3.918   4.556  11.246  0.2002 -0.1287  0.1259
   10MPD2    C1  151   3.814   4.487  11.196 -0.0835  1.3235  0.0627
   10MPD2    C2  152   3.768   4.380  11.277 -0.4030 -0.6357 -0.2529
   10MPD2    C3  153   3.829   4.352  11.406 -0.6078 -0.6637  0.5932
   10MPD2    C4  154   3.932   4.438  11.446 -0.4300  0.0400  0.2135
   10MPD2    C5  155   3.975   4.538  11.370 -0.8055 -0.1646  0.1417
   10MPD2     H  156   3.684   4.322  11.240 -0.9338  1.0145 -1.6352
   10MPD2    H1  157   4.001   4.423  11.528  0.1687 -1.5071 -0.5609
   10MPD2    H2  158   3.957   4.647  11.202 -1.7360  1.2210  1.1678
   10MPD2    H3  159   4.058   4.602  11.396 -0.9159  0.7568 -1.7467
   10MPD2     N  160   3.792   4.236  11.489  0.6041 -0.3979  0.5067
   10MPD2    H5  161   3.848   4.230  11.573 -0.9897  1.9100  1.7387
   10MPD2    N1  162   3.756   4.521  11.076  0.3929  0.1313 -0.0811
   10MPD2    H7  163   3.679   4.460  11.049  0.9434 -0.7313  0.3301
   11TCq1    O1  164   4.242   4.183  14.220  0.1794 -0.4949  0.2621
   11TCq1    C1  165   4.197   4.154  14.094 -0.6630 -0.3915  0.7651
   11TCq1    O2  166   4.137   4.238  14.028  0.2691 -0.2719  0.3921
   11TCq1    C2  167   4.195   4.009  14.077 -0.5268  0.2021 -0.1251
   11TCq1    C3  168   4.289   3.923  14.128  0.0092  0.4183 -0.0931
   11TCq1    C4  169   4.270   3.790  14.100  0.4188 -0.7564  0.1760
   11TCq1    C5  170   4.175   3.746  14.014 -0.4471 -1.0590  0.1014
   11TCq1    C6  171   4.080   3.831  13.963  0.3303  0.0695 -1.0348
   11TCq1    C7  172   4.092   3.955  14.000 -0.4727 -0.1745  1.1838
   11TCq1    C8  173   3.963   3.796  13.887 -0.8504 -1.0356 -0.3762
   11TCq1    O4  174   3.867   3.871  13.913  0.2540  0.3088  0.2365
   11TCq1    C9  175   4.365   3.696  14.144  0.0825 -0.2794 -0.2370
   11TCq1    O5  176   4.383   3.602  14.067 -0.0627  0.0817  0.1335
   11TCq1    O6  177   4.448   3.740  14.230  0.3067  0.1606  0.4635
   11TCq1    H1  178   4.300   4.115  14.260  1.0480 -1.2344 -2.2219
   11TCq1    H2  179   4.380   3.958  14.176  0.9441 -0.7740 -0.9826
   11TCq1    H3  180   4.164   3.641  13.989  1.3727 -0.8783 -1.4393
   11TCq1    H4  181   4.027   4.027  13.950  1.4512  0.9981  0.3527
   12MPD2     C  182   3.758   3.616  13.772  0.6186 -0.2328 -0.4672
   12MPD2    C1  183   3.886   3.624  13.731 -0.6691  0.1777 -0.1946
   12MPD2    C2  184   3.929   3.540  13.626 -0.4507  0.1296 -0.5525
   12MPD2    C3  185   3.841   3.471  13.550 -0.0899  0.7093 -0.4231
   12MPD2    C4  186   3.711   3.476  13.587  0.2321 -0.5365 -0.2568
   12MPD2    C5  187   3.671   3.549  13.694  0.2217  0.1832  0.2496
   12MPD2     H  188   4.032   3.552  13.593  0.1756 -0.7451  1.0531
   12MPD2    H1  189   3.631   3.425  13.535  1.1888 -2.1144 -0.1700
   12MPD2    H2  190   3.720   3.684  13.848 -0.1779  0.8509 -1.8289
   12MPD2    H3  191   3.567   3.548  13.725 -0.6181  0.3014 -2.5909
   12MPD2     N  192   3.876   3.392  13.435 -0.0187  0.4264  0.2420
   12MPD2    H5  193   3.802   3.348  13.381 -1.7018  3.7198 -0.1768
   12MPD2    N1  194   3.985   3.688  13.797 -0.2353 -0.1178  0.6150
   12MPD2    H7  195   4.084   3.672  13.779 -1.0121 -3.4574 -0.5061
   13TCq1    O1  196   4.350   4.370  11.190  0.0423  0.3495  0.5664
   13TCq1    C1  197   4.223   4.337  11.214  0.0371 -0.5318 -0.6684
   13TCq1    O2  198   4.183   4.274  11.313  0.2424  0.0730  0.0613
   13TCq1    C2  199   4.153   4.337  11.085 -0.1137  0.2546 -0.3559
   13TCq1    C3  200   4.176   4.428  10.983  0.4621  0.7593 -0.1814
   13TCq1    C4  201   4.081   4.430  10.880 -0.0534 -0.2966  0.0935
   13TCq1    C5  202   3.971   4.345  10.881  0.0759  0.2721 -0.1114
   13TCq1    C6  203   3.969   4.252  10.977 -0.1087  0.2804 -0.0167
   13TCq1    C7  204   4.052   4.245  11.090  0.1026  0.0243  0.1976
   13TCq1    C8  205   3.850   4.168  10.985 -0.1826  0.0132  0.1757
   13TCq1    O4  206   3.741   4.211  10.948 -0.3617  0.2558 -0.0078
   13TCq1    C9  207   4.089   4.530  10.775  0.9851 -0.3061 -0.6332
   13TCq1    O5  208   4.005   4.534  10.686 -0.1091 -0.0959 -0.0272
   13TCq1    O6  209   4.186   4.608  10.784 -0.3229  0.2425  0.0803
   13TCq1    H1  210   4.367   4.418  11.106  0.2817  1.5417  1.2995
   13TCq1    H2  211   4.248   4.509  10.985  0.7099  0.5465 -0.7689
   13TCq1    H3  212   3.896   4.350  10.804 -0.3212 -0.8649  0.1997
   13TCq1    H4  213   4.043   4.170  11.168  1.9683  0.2003  0.5677
   14MPD2     C  214   3.820   3.805  11.021 -0.3684  0.0346  0.8146
   14MPD2    C1  215   3.783   3.937  11.026 -0.3465 -0.6753 -0.2368
   14MPD2    C2  216   3.660   3.969  11.068 -0.3923  0.1232  0.2998
   14MPD2    C3  217   3.563   3.864  11.087  0.2485 -0.6940  0.2138
   14MPD2    C4  218   3.603   3.733  11.067  0.2169 -0.1966  0.2099
   14MPD2    C5  219   3.732   3.706  11.034 -0.5089  0.3531  1.0028
   14MPD2     H  220   3.619   4.066  11.094  1.0616  0.6861  0.5073
   14MPD2    H1  221   3.546   3.645  11.093  1.3051 -1.3685 -1.4177
   14MPD2    H2  222   3.922   3.773  11.003 -0.1225  1.0908  0.3234
   14MPD2    H3  223   3.771   3.605  11.031  2.0630  1.4391 -1.9774
   14MPD2     N  224   3.437   3.905  11.134  0.4615 -0.0766  0.2717
   14MPD2    H5  225   3.429   4.006  11.131 -0.3029 -0.1293  0.3700
   14MPD2    N1  226   3.883   4.038  11.016  0.1158  0.1363  0.1474
   14MPD2    H7  227   3.982   4.021  11.024  0.0469 -1.7855 -3.2684
   15TCq1    O1  228   0.157   3.395   1.590 -0.0878  0.2136  0.2412
   15TCq1    C1  229   0.223   3.322   1.498 -0.5341  0.2240  0.4399
   15TCq1    O2  230   0.213   3.343   1.381 -0.4798 -0.3522  0.2757
   15TCq1    C2  231   0.285   3.205   1.557  0.0099 -0.2344 -0.0735
   15TCq1    C3  232   0.313   3.188   1.687 -0.0435 -0.2839 -0.8839
   15TCq1    C4  233   0.370   3.072   1.733 -0.1558 -0.4723 -0.2826
   15TCq1    C5  234   0.399   2.968   1.648  0.4999 -0.1356 -0.1285
   15TCq1    C6  235   0.382   2.993   1.519 -0.0816 -0.2335  0.1554
   15TCq1    C7  236   0.325   3.109   1.472 -0.4296 -0.8434  0.3304
   15TCq1    C8  237   0.438   2.900   1.423 -0.0294 -0.2951  0.1568
   15TCq1    O4  238   0.466   2.787   1.461 -0.1752 -0.4834 -0.7364
   15TCq1    C9  239   0.406   3.061   1.871  0.7289  0.4347 -0.6877
   15TCq1    O5  240   0.465   2.958   1.898 -0.3140  0.2257  0.1735
   15TCq1    O6  241   0.372   3.151   1.953  0.4712 -0.2523  0.0764
   15TCq1    H1  242   0.135   3.342   1.670  0.3315 -0.7036 -0.2543
   15TCq1    H2  243   0.282   3.263   1.758  0.1313  0.9501 -2.1058
   15TCq1    H3  244   0.457   2.881   1.676 -0.1835 -0.3175  0.6909
   15TCq1    H4  245   0.297   3.125   1.368  1.8611  1.7996  0.1340
   16MPD2     C  246   0.507   2.958   1.070  0.1510  0.3988  0.3588
   16MPD2    C1  247   0.507   2.889   1.185 -0.0876 -0.4373 -0.8235
   16MPD2    C2  248   0.557   2.764   1.184  0.5831 -0.3331 -0.7944
   16MPD2    C3  249   0.612   2.707   1.070  0.2954 -0.6536  0.1395
   16MPD2    C4  250   0.601   2.782   0.948  0.5891 -1.1646  0.0915
   16MPD2    C5  251   0.555   2.910   0.951 -0.4752  0.1304 -0.6318
   16MPD2     H  252   0.550   2.702   1.273  0.4284  0.7643 -0.0475
   16MPD2    H1  253   0.653   2.747   0.859 -0.9779 -1.2849 -0.7701
   16MPD2    H2  254   0.477   3.062   1.068  0.8145  0.5642 -1.7735
   16MPD2    H3  255   0.570   2.975   0.865 -1.8756 -0.4510 -1.3118
   16MPD2     N  256   0.667   2.579   1.077 -0.1125 -0.0350 -0.0867
   16MPD2    H5  257   0.690   2.544   1.170  0.7176 -1.1149 -0.6988
   16MPD2    N1  258   0.451   2.954   1.297  0.2218  0.0868  0.1600
   16MPD2    H7  259   0.424   3.049   1.274  3.4651  1.0059  0.1870
   17TMC1    C1  260   3.076   2.930  10.434 -0.6744 -0.8367  0.2809
   17TMC1    C2  261   3.087   3.010  10.323  0.3982  0.0024 -1.2043
   17TMC1    C3  262   2.972   3.071  10.284 -0.1234  0.6197  0.2765
   17TMC1    C4  263   2.956   2.932  10.503 -0.4413  0.1208 -0.2437
   17TMC1    C5  264   2.849   3.007  10.472  0.9554  0.1094  0.1820
   17TMC1    C6  265   2.852   3.074  10.352 -0.2147 -0.4795 -0.8534
   17TMC1     C  266   3.190   2.901  10.511  0.2925 -0.9295 -0.0437
   17TMC1     O  267   3.180   2.825  10.606 -0.1818  0.1515 -0.4390
   17TMC1     H  268   3.170   3.000  10.255 -0.4242 -2.8729 -1.7857
   17TMC1    H1  269   2.956   2.881  10.599 -0.3251  0.0590 -0.2772
   17TMC1    H2  270   2.770   3.131  10.309 -0.0245  1.2416  1.0531
   17TMC1    C7  271   2.739   2.993  10.563  0.2940 -0.4465 -0.6038
   17TMC1    C8  272   2.971   3.149  10.160  0.7309 -0.1278 -0.9671
   17TMC1    O1  273   2.708   2.888  10.616 -0.7768  0.2531 -0.2525
   17TMC1    O2  274   2.877   3.186  10.090  0.2206 -0.1004  0.0465
   17TMC1    O3  275   2.656   3.101  10.558 -0.1810 -0.0074 -0.0650
   17TMC1    H3  276   2.706   3.180  10.526  2.0366 -0.7228  1.6757
   17TMC1    O5  277   3.093   3.198  10.133 -0.1231 -0.6054 -0.0379
   17TMC1    H5  278   3.152   3.192  10.212  0.7711  1.5525 -0.5358
   18MPD2     C  279   3.471   2.865  10.610 -0.7026  0.7942 -0.2622
   18MPD2    C1  280   3.437   2.960  10.514 -0.3672 -0.3271 -0.1128
   18MPD2    C2  281   3.534   3.047  10.474 -0.0705 -0.9906  0.0854
   18MPD2    C3  282   3.663   3.035  10.518  0.0894 -0.7024  0.0596
   18MPD2    C4  283   3.699   2.935  10.606  0.5965  0.0845 -0.4000
   18MPD2    C5  284   3.602   2.853  10.651  0.0920  0.0701  0.2545
   18MPD2     H  285   3.506   3.119  10.398 -2.4006 -0.0753  1.8074
   18MPD2    H1  286   3.799   2.922  10.647  0.0147  0.4718  1.1590
   18MPD2    H2  287   3.392   2.808  10.659 -0.1218 -1.8253 -2.3734
   18MPD2    H3  288   3.628   2.775  10.721 -0.3496 -0.6576 -0.3999
   18MPD2     N  289   3.771   3.121  10.476  0.5602  0.6781  0.4229
   18MPD2    H5  290   3.864   3.104  10.513  0.8936  0.9269 -0.2862
   18MPD2    N1  291   3.302   2.972  10.470  0.0394 -0.2261  0.1404
   18MPD2    H7  292   3.295   3.047  10.401  2.0517  0.4733  0.6764
   19TMC2    C1  293   0.145   3.805  13.903  0.0787 -0.8630 -0.1399
   19TMC2    C2  294   0.034   3.870  13.850 -0.1464 -0.1367  0.1426
   19TMC2    C3  295   4.656   3.789  13.838  0.3382 -0.4003  0.5278
   19TMC2    C4  296   0.141   3.678  13.961 -0.1663  0.6394 -0.0026
   19TMC2    C5  297   0.021   3.624  13.975 -0.0342  0.2029 -0.1656
   19TMC2    C6  298   4.645   3.671  13.907 -0.0794 -0.3738  0.0952
   19TMC2     C  299   0.271   3.879  13.902 -0.0547 -0.1794 -0.1770
   19TMC2     O  300   0.271   3.976  13.826  0.0312  0.1021 -0.1067
   19TMC2     H  301   0.041   3.970  13.810  0.1559 -0.8381 -1.5852
   19TMC2    H1  302   0.218   3.646  14.031 -0.4708  0.1268  0.0964
   19TMC2    H2  303   4.556   3.610  13.903 -1.2010  1.4257 -2.8114
   19TMC2    C7  304   0.020   3.491  14.046 -0.5640  0.4832  0.0871
   19TMC2    C8  305   4.532   3.833  13.771  0.4106 -0.1468  0.4475
   19TMC2    O1  306   0.115   3.419  14.043  0.1307 -0.1277  0.2789
   19TMC2    O2  307   4.417   3.788  13.797  0.2761  0.1380 -0.6137
   19TMC2    O5  308   4.564   3.908  13.659 -0.1483 -0.1547 -0.3386
   19TMC2    H5  309   4.654   3.937  13.635 -0.7267  0.4424 -1.8035
   20MPD2     C  310   0.523   4.017  13.956  0.6230 -0.4764  0.0384
   20MPD2    C1  311   0.503   3.893  14.002 -0.3634  0.1658 -0.0125
   20MPD2    C2  312   0.606   3.816  14.055  0.7064  0.6199 -0.3392
   20MPD2    C3  313   0.736   3.867  14.065 -0.3641  0.2506 -0.3281
   20MPD2    C4  314   0.752   4.003  14.023 -0.4166  0.1877  0.1507
   20MPD2    C5  315   0.645   4.073  13.972  0.2196 -0.2064  0.0565
   20MPD2     H  316   0.588   3.711  14.075 -2.7773  1.0317 -1.1818
   20MPD2    H1  317   0.844   4.059  14.035 -1.0123  1.1987  0.0081
   20MPD2    H2  318   0.447   4.084  13.917  0.3476 -1.0599 -0.4295
   20MPD2    H3  319   0.654   4.180  13.958 -1.3176 -0.1297 -0.3146
   20MPD2     N  320   0.851   3.789  14.103  0.6957  0.2822 -0.6791
   20MPD2    H5  321   0.943   3.829  14.093  1.7862 -2.0432 -0.0058
   20MPD2    N1  322   0.376   3.830  13.983 -0.1080  0.4163  0.5256
   20MPD2    H7  323   0.356   3.743  14.032  1.4247  1.0305  2.2090
   21TMC2    C1  324   2.589   3.514  14.550  0.0956 -0.1591 -0.7391
   21TMC2    C2  325   2.604   3.411  14.644  0.4937 -0.1751  0.7382
   21TMC2    C3  326   2.633   3.443  14.773  0.1349 -0.2839  0.3465
   21TMC2    C4  327   2.595   3.643  14.594  0.3484  0.2689 -0.5034
   21TMC2    C5  328   2.627   3.670  14.729 -0.1531  0.1085 -0.3148
   21TMC2    C6  329   2.647   3.567  14.819  0.1374 -0.2968  0.2050
   21TMC2     C  330   2.665   3.507  14.426 -0.9601  0.6498 -0.7648
   21TMC2     O  331   2.748   3.595  14.413  0.2101 -0.0898 -0.0218
   21TMC2     H  332   2.618   3.307  14.616  0.3382 -0.0098  0.0442
   21TMC2    H1  333   2.570   3.717  14.520  2.1291  0.0317 -1.3448
   21TMC2    H2  334   2.689   3.585  14.917 -1.0125 -1.2716  0.8768
   21TMC2    C7  335   2.617   3.802  14.790  0.3122 -0.3983 -0.7668
   21TMC2    C8  336   2.710   3.339  14.844  0.6974 -0.5300  0.1202
   21TMC2    O1  337   2.630   3.814  14.908  1.0308 -0.4250 -0.5057
   21TMC2    O2  338   2.672   3.225  14.825  0.1388  0.1199  0.9221
   21TMC2    O5  339   2.833   3.381  14.879 -0.1521  0.0219  0.2551
   21TMC2    H5  340   2.849   3.476  14.899  0.6441  0.0167 -0.3598
   22MPD2     C  341   2.889   3.233  14.040  0.2593 -0.0679 -0.2312
   22MPD2    C1  342   2.937   3.346  14.110 -0.2137 -0.4196 -0.2075
   22MPD2    C2  343   2.866   3.391  14.220  0.7142 -0.1491  0.0064
   22MPD2    C3  344   2.745   3.335  14.260  0.0690  0.2587 -0.2666
   22MPD2    C4  345   2.708   3.220  14.196 -0.3091  0.4713  0.0445
   22MPD2    C5  346   2.785   3.162  14.094 -0.1358  0.2591  1.2604
   22MPD2     H  347   2.905   3.477  14.273  0.3273  1.2216 -1.9442
   22MPD2    H1  348   2.612   3.175  14.221  0.2460 -1.1775 -0.7847
   22MPD2    H2  349   2.946   3.200  13.954  2.5610 -1.4265  1.8348
   22MPD2    H3  350   2.746   3.077  14.040 -0.2976 -0.3044  2.2772
   22MPD2     N  351   2.659   3.386  14.364 -0.1758  0.5101  0.1527
   22MPD2    H5  352   2.566   3.347  14.378  0.2819 -0.9308 -0.8230
   22MPD2    N1  353   3.048   3.422  14.075  0.6320 -0.9676 -0.5479
   22MPD2    H7  354   3.069   3.504  14.131  0.3307 -2.3383  1.5526
   23TMC2    C1  355   3.621   1.090  14.501 -0.5910  0.6160 -0.5262
   23TMC2    C2  356   3.671   1.203  14.443  1.2037  0.1347 -0.0766
   23TMC2    C3  357   3.590   1.316  14.433 -0.3347 -0.4539 -1.0062
   23TMC2    C4  358   3.494   1.086  14.558 -0.4213 -0.4655  0.9784
   23TMC2    C5  359   3.414   1.201  14.543 -0.0193 -0.0039 -0.7504
   23TMC2    C6  360   3.465   1.320  14.493  0.4960  0.4627 -0.1880
   23TMC2     C  361   3.716   0.991  14.544  0.1879  0.2344  0.2059
   23TMC2     O  362   3.824   1.030  14.587  0.0929  0.0006  0.5324
   23TMC2     H  363   3.768   1.189  14.396  0.8634  0.4093 -0.8513
   23TMC2    H1  364   3.463   1.005  14.624 -1.5865 -0.2670  0.6814
   23TMC2    H2  365   3.403   1.409  14.497  0.5594  0.5804 -2.0159
   23TMC2    C7  366   3.303   1.211  14.630  0.5085  0.2287  0.4132
   23TMC2    C8  367   3.649   1.430  14.361  0.2590  0.1265  0.6591
   23TMC2    O1  368   3.277   1.322  14.670 -0.6065  1.1182  0.3870
   23TMC2    O2  369   3.766   1.439  14.350 -0.0631 -0.4922  0.9252
   23TMC2    O5  370   3.556   1.523  14.322 -0.9098 -0.0414 -0.2649
   23TMC2    H5  371   3.467   1.481  14.321 -0.5848 -0.7352  0.0612
   24MPD2     C  372   3.752   0.515  14.740 -0.4285  0.1838 -0.7496
   24MPD2    C1  373   3.831   0.626  14.759 -0.4433 -0.0530  0.3861
   24MPD2    C2  374   3.796   0.746  14.698 -0.2810 -0.0331 -0.4712
   24MPD2    C3  375   3.691   0.756  14.615  0.0977  0.4736  0.3604
   24MPD2    C4  376   3.624   0.641  14.579 -0.7606 -0.3218 -0.2475
   24MPD2    C5  377   3.650   0.519  14.646  0.1262  0.2353 -0.1590
   24MPD2     H  378   3.856   0.835  14.711 -0.2267  0.0885 -1.5589
   24MPD2    H1  379   3.548   0.645  14.502  0.1604 -0.6639 -1.1668
   24MPD2    H2  380   3.768   0.422  14.794 -1.4389  0.1500 -0.5148
   24MPD2    H3  381   3.602   0.426  14.620 -0.0515  0.2614  0.0774
   24MPD2     N  382   3.647   0.872  14.553 -0.1549  0.4416  0.5427
   24MPD2    H5  383   3.562   0.865  14.497 -0.2069  0.0202  0.6773
   24MPD2    N1  384   3.945   0.626  14.837 -0.0099 -1.2845  0.5499
   24MPD2    H7  385   3.979   0.719  14.856  1.3500 -1.7691  0.5060
   25TMC2    C1  386   3.202   3.194  11.638  0.1106  0.3226 -0.2666
   25TMC2    C2  387   3.280   3.302  11.654 -0.4698 -0.2083 -0.2652
   25TMC2    C3  388   3.334   3.323  11.777 -0.4960 -0.6918  0.2123
   25TMC2    C4  389   3.185   3.097  11.733  0.1847  0.0539 -0.1564
   25TMC2    C5  390   3.236   3.133  11.859 -1.0213  0.0265  0.6868
   25TMC2    C6  391   3.315   3.244  11.882  0.2348  0.1066  0.6038
   25TMC2     C  392   3.117   3.197  11.518 -0.0966  0.3869 -0.1091
   25TMC2     O  393   3.090   3.306  11.469  0.0210 -0.6826  0.1766
   25TMC2     H  394   3.289   3.383  11.582 -0.8512  0.3148  0.2681
   25TMC2    H1  395   3.104   3.025  11.733  0.5018 -0.2887  1.7870
   25TMC2    H2  396   3.354   3.271  11.979 -0.8740 -2.8440  1.8745
   25TMC2    C7  397   3.186   3.058  11.972  0.5899 -0.3182  0.9518
   25TMC2    C8  398   3.417   3.444  11.790 -0.2969 -0.3029 -0.7457
   25TMC2    O1  399   3.131   2.952  11.951 -0.2937 -0.2497 -0.8353
   25TMC2    O2  400   3.408   3.540  11.713  0.1805  0.6785  0.4671
   25TMC2    O5  401   3.533   3.389  11.839 -0.3316  0.1586  0.0293
   25TMC2    H5  402   3.538   3.297  11.873 -0.1256  0.0069 -0.4127
   26MPD2     C  403   2.841   2.997  11.145  0.0819  0.0431  0.3748
   26MPD2    C1  404   2.866   2.897  11.231  0.6250 -0.4538 -0.3636
   26MPD2    C2  405   2.939   2.924  11.341 -0.2486  0.1518 -0.2614
   26MPD2    C3  406   2.989   3.052  11.366 -0.1063 -0.3088 -0.1376
   26MPD2    C4  407   2.964   3.151  11.275  0.5449  0.4031  0.2570
   26MPD2    C5  408   2.896   3.123  11.161 -0.0930  0.0882  0.6759
   26MPD2     H  409   2.965   2.852  11.417  3.0355 -0.0153 -1.5410
   26MPD2    H1  410   3.007   3.250  11.280 -0.6005  0.8344  1.4279
   26MPD2    H2  411   2.788   2.977  11.053  1.2860  0.1706 -0.3431
   26MPD2    H3  412   2.878   3.198  11.085  0.1228 -1.8035 -1.2545
   26MPD2     N  413   3.077   3.073  11.477 -0.2368 -0.3922 -0.0540
   26MPD2    H5  414   3.103   2.994  11.535 -0.2844 -0.2583  0.1496
   26MPD2    N1  415   2.816   2.767  11.197 -0.2270 -0.8272  0.5204
   26MPD2    H7  416   2.767   2.754  11.109  2.6286  1.5042 -1.4342
   27TMC2    C1  417   2.256   0.627  12.406  0.0511 -0.0718  0.1331
   27TMC2    C2  418   2.383   0.676  12.389  0.0805 -0.0174 -0.3023
   27TMC2    C3  419   2.472   0.682  12.496 -0.3972 -0.0184  0.2304
   27TMC2    C4  420   2.220   0.581  12.533  0.0983  0.3381  0.0319
   27TMC2    C5  421   2.310   0.583  12.634 -0.0094 -0.3727 -0.3673
   27TMC2    C6  422   2.431   0.635  12.615 -0.0473  0.1694  0.4324
   27TMC2     C  423   2.179   0.571  12.298  0.3906 -0.3009 -0.5028
   27TMC2     O  424   2.206   0.615  12.190 -0.7870  0.0689  0.8388
   27TMC2     H  425   2.409   0.712  12.290 -2.8207  1.1114 -0.6623
   27TMC2    H1  426   2.116   0.561  12.555 -0.2808  1.6215 -0.5954
   27TMC2    H2  427   2.514   0.622  12.683 -0.3310  1.1218  0.9531
   27TMC2    C7  428   2.298   0.468  12.727 -0.4507  0.6512  0.2711
   27TMC2    C8  429   2.615   0.710  12.479 -0.2066  0.1097  0.1483
   27TMC2    O1  430   2.202   0.397  12.702 -0.0043  0.1825  0.3471
   27TMC2    O2  431   2.696   0.637  12.536  0.4374 -0.6152 -0.1639
   27TMC2    O5  432   2.637   0.778  12.366  0.4473 -0.6326 -0.0844
   27TMC2    H5  433   2.570   0.844  12.337  0.6213 -0.7876 -0.8365
   28MPD2     C  434   1.812   0.270  12.095  0.3585  0.1182 -0.2726
   28MPD2    C1  435   1.803   0.269  12.231 -0.7646  0.4680 -0.4394
   28MPD2    C2  436   1.906   0.330  12.302 -0.1707 -0.8917 -0.1644
   28MPD2    C3  437   2.013   0.393  12.249 -0.1004  0.0661 -0.0084
   28MPD2    C4  438   2.019   0.404  12.115 -0.0875  0.5455  0.6989
   28MPD2    C5  439   1.923   0.336  12.044 -0.3094  0.1868  0.5759
   28MPD2     H  440   1.894   0.350  12.408  1.6850 -0.5080 -0.0202
   28MPD2    H1  441   2.098   0.462  12.067 -2.4441  4.7262  1.8974
   28MPD2    H2  442   1.741   0.222  12.029 -2.0688  1.9366  1.0198
   28MPD2    H3  443   1.938   0.338  11.936  2.9097 -0.9541  1.0043
   28MPD2     N  444   2.101   0.464  12.337  0.2880  0.2197  0.3668
   28MPD2    H5  445   2.097   0.439  12.436  1.0738 -0.6648  0.1719
   28MPD2    N1  446   1.685   0.213  12.294  0.1024  0.8361  0.5433
   28MPD2    H7  447   1.607   0.192  12.232  1.1927  0.5283 -0.7404
   29TMC2    C1  448   1.415   2.615  14.217  0.1210 -0.0349  0.2095
   29TMC2    C2  449   1.338   2.726  14.183 -0.5367 -0.1012  0.0095
   29TMC2    C3  450   1.403   2.840  14.199 -0.0150 -0.3773  0.3092
   29TMC2    C4  451   1.543   2.619  14.268  0.0119 -0.0161 -0.4850
   29TMC2    C5  452   1.603   2.742  14.274  0.1850 -0.3749 -0.7504
   29TMC2    C6  453   1.538   2.858  14.238 -0.7718  0.5401 -0.0094
   29TMC2     C  454   1.360   2.480  14.196 -0.0996  0.6049 -0.6418
   29TMC2     O  455   1.434   2.387  14.213 -0.1216  0.8089  0.0614
   29TMC2     H  456   1.243   2.732  14.132 -0.7892 -1.7906  0.3008
   29TMC2    H1  457   1.600   2.527  14.267 -0.6173 -0.4083 -0.3251
   29TMC2    H2  458   1.603   2.942  14.220 -0.6348  0.2187 -1.0398
   29TMC2    C7  459   1.749   2.737  14.318 -0.2020 -0.6146 -0.1066
   29TMC2    C8  460   1.358   2.954  14.120 -0.0849  0.1749  0.6125
   29TMC2    O1  461   1.789   2.618  14.328  0.4105 -0.1540  0.4073
   29TMC2    O2  462   1.442   3.033  14.075 -0.2814 -0.3413 -0.0130
   29TMC2    O5  463   1.253   3.000  14.192 -0.5288  0.4503  0.3592
   29TMC2    H5  464   1.194   2.933  14.233 -0.3850 -0.7747 -1.4431
   30MPD2     C  465   0.979   2.166  14.073  0.2742 -0.5243 -0.5059
   30MPD2    C1  466   1.112   2.142  14.079  0.0003  0.8733 -0.4820
   30MPD2    C2  467   1.199   2.254  14.102 -0.7630 -0.3012  0.8405
   30MPD2    C3  468   1.145   2.371  14.134  0.0820  0.1597  1.1760
   30MPD2    C4  469   1.013   2.386  14.142  0.1085  0.3637  0.4061
   30MPD2    C5  470   0.925   2.293  14.094  0.1910 -0.8977 -0.5747
   30MPD2     H  471   1.307   2.249  14.103 -0.6862  1.4977  1.6418
   30MPD2    H1  472   0.980   2.482  14.180  1.8990  0.9888  0.4029
   30MPD2    H2  473   0.909   2.085  14.057 -0.7513  0.0250  1.2259
   30MPD2    H3  474   0.817   2.302  14.090  0.2846  0.4434 -0.2152
   30MPD2     N  475   1.220   2.486  14.179 -0.1592  0.0654  0.0581
   30MPD2    H5  476   1.176   2.575  14.199  0.9490  0.1592  2.0835
   30MPD2    N1  477   1.171   2.012  14.062  0.0950 -0.1982 -1.0351
   30MPD2    H7  478   1.271   1.999  14.066 -0.4043 -3.8614  0.1056
   31TMC2    C1  479   3.853   1.282  14.915  0.0450 -0.5384  0.1139
   31TMC2    C2  480   3.932   1.189  14.860 -0.1415 -0.4999  0.4081
   31TMC2    C3  481   4.009   1.109  14.939 -0.2830 -0.1503  0.7982
   31TMC2    C4  482   3.850   1.300  15.048  0.5977  0.4235 -0.3293
   31TMC2    C5  483   3.937   1.227  15.124 -0.0289 -0.1569  0.2837
   31TMC2    C6  484   4.003   1.124  15.071 -0.4559  0.0169 -0.0201
   31TMC2     C  485   3.822   1.399  14.833 -0.6078  0.0039 -0.8999
   31TMC2     O  486   3.909   1.425  14.752  0.1451  0.2925 -0.3785
   31TMC2     H  487   3.936   1.176  14.753 -0.4235  1.3411  0.1781
   31TMC2    H1  488   3.813   1.386  15.103 -2.1820 -1.5148  0.8120
   31TMC2    H2  489   4.076   1.074  15.134  1.4605  2.6688 -0.1431
   31TMC2    C7  490   3.929   1.227  15.272 -0.0804  0.9065 -0.2167
   31TMC2    C8  491   4.028   0.975  14.886  0.1916  0.2283  0.2976
   31TMC2    O1  492   4.022   1.178  15.333 -0.2659 -0.1685  0.5391
   31TMC2    O2  493   4.089   0.949  14.784  0.0145  0.8232  0.0633
   31TMC2    O5  494   3.931   0.903  14.947  0.2909  0.8909 -0.1801
   31TMC2    H5  495   3.888   0.945  15.024  0.9914  0.9370  0.1875
   32MPD2     C  496   3.500   1.746  14.639 -0.2596  0.1831  0.0838
   32MPD2    C1  497   3.630   1.717  14.617 -0.7532  0.2371 -0.9098
   32MPD2    C2  498   3.696   1.621  14.689 -0.2712  0.3647  0.1984
   32MPD2    C3  499   3.632   1.553  14.787  1.0854 -0.6023 -0.7559
   32MPD2    C4  500   3.493   1.579  14.803 -0.4104  0.2642  0.5157
   32MPD2    C5  501   3.433   1.688  14.739  0.7149 -0.6760 -0.0340
   32MPD2     H  502   3.800   1.595  14.673 -0.1955  0.8408 -0.0664
   32MPD2    H1  503   3.432   1.517  14.869 -0.8457 -0.4999 -0.5904
   32MPD2    H2  504   3.450   1.820  14.577  0.3726 -0.0077 -0.6553
   32MPD2    H3  505   3.335   1.726  14.767  1.4491 -0.3521  2.0248
   32MPD2     N  506   3.693   1.445  14.854  0.4822 -0.1865  0.9499
   32MPD2    H5  507   3.639   1.403  14.928 -0.6037  0.6589  0.6310
   32MPD2    N1  508   3.692   1.781  14.506  0.1288 -0.2017 -0.4982
   32MPD2    H7  509   3.631   1.826  14.439 -1.8364 -1.8442  0.1785
   33TMC2    C1  510   3.846   4.300  10.190 -0.0069  0.2933  0.7308
   33TMC2    C2  511   3.712   4.304  10.203  0.5983 -0.5320  0.8728
   33TMC2    C3  512   3.649   4.427  10.191 -0.5209  0.0107  0.4211
   33TMC2    C4  513   3.914   4.404  10.144 -0.2240  0.2394  1.0701
   33TMC2    C5  514   3.846   4.524  10.122  0.5316 -0.5255  0.0095
   33TMC2    C6  515   3.711   4.540  10.134 -0.6781  0.4440  0.0389
   33TMC2     C  516   3.894   4.165  10.222  0.1289 -0.1397  0.1098
   33TMC2     O  517   3.804   4.080  10.234  0.3680 -1.1997 -0.7645
   33TMC2     H  518   3.649   4.221  10.234 -1.2176  0.0173 -1.3630
   33TMC2    H1  519   4.018   4.389  10.120 -0.9146 -3.9098  0.5967
   33TMC2    H2  520   3.670   4.641  10.128 -0.8780  0.3970  0.5497
   33TMC2    C7  521   3.933   4.635  10.081  0.4133 -0.0607 -0.7521
   33TMC2    C8  522   3.505   4.431  10.210  0.2045  0.4065 -0.5060
   33TMC2    O1  523   4.053   4.616  10.106 -0.2213 -0.7952  0.7001
   33TMC2    O2  524   3.429   4.339  10.189  0.3273 -0.1156 -0.0816
   33TMC2    O5  525   3.479   4.556  10.256  0.3478  0.5727 -0.0925
   33TMC2    H5  526   3.552   4.602  10.302  0.5695 -0.0889  0.2146
   34MPD2     C  527   4.290   3.863  10.304 -0.7229 -0.2064  0.7862
   34MPD2    C1  528   4.161   3.824  10.280 -0.2034 -0.0099  0.4955
   34MPD2    C2  529   4.064   3.923  10.260 -0.6225  0.4161  0.4555
   34MPD2    C3  530   4.107   4.055  10.267 -0.4698  0.8706 -0.2601
   34MPD2    C4  531   4.239   4.089  10.268 -0.4193 -0.3018  0.2629
   34MPD2    C5  532   4.336   3.993  10.301 -0.1173  0.3710 -0.3941
   34MPD2     H  533   3.962   3.897  10.233  0.1500 -1.6496 -0.5289
   34MPD2    H1  534   4.269   4.193  10.258  1.7790 -0.9402  0.2908
   34MPD2    H2  535   4.366   3.786  10.309 -0.9554 -0.4621  0.4463
   34MPD2    H3  536   4.440   4.020  10.313 -0.0764  0.3860 -0.7801
   34MPD2     N  537   4.029   4.167  10.242 -0.4498 -0.1782 -0.1873
   34MPD2    H5  538   4.086   4.250  10.226 -1.7349  0.6153 -0.6676
   34MPD2    N1  539   4.133   3.686  10.288 -0.3382 -0.7910 -0.3179
   34MPD2    H7  540   4.216   3.630  10.303  0.1687  0.1842  0.5470
   35TMC2    C1  541   0.147   0.033  11.116  0.5588 -0.0037  0.7074
   35TMC2    C2  542   0.045   4.735  11.030  0.1349 -0.5954  0.3468
   35TMC2    C3  543   4.695   4.640  11.072  0.3066 -0.2586 -0.0123
   35TMC2    C4  544   0.161   4.712  11.241  0.4511 -0.2578  0.1024
   35TMC2    C5  545   0.074   4.613  11.276 -0.4303  0.1402 -0.5202
   35TMC2    C6  546   4.711   4.577  11.192 -0.6046 -0.3415 -0.2577
   35TMC2     C  547   0.229   0.148  11.078  0.4577 -0.2476 -0.5530
   35TMC2     O  548   0.209   0.201  10.971  0.2764 -0.0395  0.1271
   35TMC2     H  549   0.015   0.053  10.941 -1.6928 -0.4046  1.0806
   35TMC2    H1  550   0.251   4.726  11.301  0.3524  3.7348 -0.6661
   35TMC2    H2  551   4.641   4.497  11.208  0.5422 -1.7819 -2.4862
   35TMC2    C7  552   0.076   4.551  11.410  1.0128  0.3192 -0.1259
   35TMC2    C8  553   4.570   4.615  11.002 -0.0336  0.6598  0.2187
   35TMC2    O1  554   4.731   4.463  11.431 -0.4620  0.5387 -0.1843
   35TMC2    O2  555   4.515   4.507  11.019  0.3146  0.1844  0.8190
   35TMC2    O5  556   4.510   4.727  10.973  0.1872 -0.1181 -0.4165
   35TMC2    H5  557   4.535   0.061  11.036 -0.5557 -0.8098  0.6556
   36MPD2     C  558   0.683   0.377  11.132  0.5649  0.2038  0.1664
   36MPD2    C1  559   0.667   0.288  11.238 -0.8041 -0.1050  0.2614
   36MPD2    C2  560   0.547   0.219  11.244  0.3048  0.0464  0.5850
   36MPD2    C3  561   0.446   0.246  11.158 -0.0177  0.3826 -0.4572
   36MPD2    C4  562   0.460   0.335  11.057  0.3856  0.1769 -0.1490
   36MPD2    C5  563   0.582   0.399  11.044 -0.0038  0.5764 -0.6539
   36MPD2     H  564   0.518   0.147  11.319 -0.0987  1.1599  1.5077
   36MPD2    H1  565   0.387   0.355  10.979 -0.2902 -1.6680  0.0186
   36MPD2    H2  566   0.780   0.422  11.113  1.1399 -0.5524  1.3103
   36MPD2    H3  567   0.596   0.467  10.962  1.5776  0.6065 -0.3543
   36MPD2     N  568   0.332   0.167  11.169  0.6750 -0.0783 -0.1075
   36MPD2    H5  569   0.325   0.104  11.248  1.3151  2.4597  1.9666
   36MPD2    N1  570   0.772   0.270  11.338  0.2345 -0.2221  0.7227
   36MPD2    H7  571   0.848   0.337  11.340 -0.4582  0.5573  0.9365
   37TMC2    C1  572   2.489   0.140  12.049 -0.4806 -0.0555  0.4127
   37TMC2    C2  573   2.385   0.197  11.984  0.3269  0.1922 -0.4103
   37TMC2    C3  574   2.411   0.232  11.862 -0.0629  0.0407  0.2036
   37TMC2    C4  575   2.614   0.130  11.998 -0.8156 -0.0899  0.8877
   37TMC2    C5  576   2.631   0.172  11.870  0.3201 -0.7809 -0.4923
   37TMC2    C6  577   2.527   0.220  11.795 -0.7401 -0.0277 -0.3028
   37TMC2     C  578   2.454   0.058  12.164 -0.2556 -0.2960  0.3272
   37TMC2     O  579   2.335   0.063  12.187 -0.5864  0.8650  0.8773
   37TMC2     H  580   2.284   0.212  12.020 -0.3510 -1.3832 -1.6342
   37TMC2    H1  581   2.691   0.074  12.049  2.4701  0.7970 -3.0808
   37TMC2    H2  582   2.556   0.269  11.703  4.0203 -0.3696  0.9972
   37TMC2    C7  583   2.766   0.196  11.829 -0.4667  0.2948 -0.0093
   37TMC2    C8  584   2.306   0.308  11.803  0.0204  0.4227  0.5881
   37TMC2    O1  585   2.853   0.208  11.919 -0.2560 -0.6053 -0.4279
   37TMC2    O2  586   2.257   0.282  11.694 -0.2383 -0.5813  0.3148
   37TMC2    O5  587   2.298   0.418  11.879 -0.0828  0.0963  0.2712
   37TMC2    H5  588   2.369   0.432  11.945  0.8684  0.1749 -0.7654
   38MPD2     C  589   2.543   4.520  12.572  0.4246 -0.0197 -1.3916
   38MPD2    C1  590   2.657   4.525  12.510  0.0752 -0.7194 -0.7618
   38MPD2    C2  591   2.660   4.597  12.396  0.4754  0.7631 -0.1835
   38MPD2    C3  592   2.556   4.666  12.347 -0.3372  0.5050 -0.8933
   38MPD2    C4  593   2.434   4.653  12.411 -0.0966 -0.0279  0.1054
   38MPD2    C5  594   2.431   4.585  12.531  0.0031  0.2515  0.0787
   38MPD2     H  595   2.747   4.594  12.332  0.5196  0.4665 -0.1095
   38MPD2    H1  596   2.339   4.697  12.381 -0.1318 -0.3574 -0.2653
   38MPD2    H2  597   2.538   4.480  12.673 -0.6494  1.0598 -1.0298
   38MPD2    H3  598   2.336   4.591  12.583 -0.7617 -0.9105 -1.1701
   38MPD2     N  599   2.565   0.008  12.229  0.8610  0.8924  0.0223
   38MPD2    H5  600   2.659   0.024  12.194  0.2786  0.5477 -1.6571
   38MPD2    N1  601   2.771   4.446  12.539  0.1698 -0.0791 -0.3325
   38MPD2    H7  602   2.861   4.469  12.499  0.7433  0.4912  1.2901
   39TMC2    C1  603   1.452   2.055   1.415 -0.0386  0.3205 -0.5172
   39TMC2    C2  604   1.550   2.029   1.321 -0.0528 -0.0585  0.6080
   39TMC2    C3  605   1.678   2.076   1.338  0.0716 -0.3282 -0.6107
   39TMC2    C4  606   1.483   2.138   1.520 -0.7076 -0.3205  0.1915
   39TMC2    C5  607   1.608   2.186   1.530  0.1904 -0.0909 -0.0216
   39TMC2    C6  608   1.708   2.169   1.433 -0.5715 -0.5074  0.2754
   39TMC2     C  609   1.318   2.007   1.395 -0.4632 -0.6562 -0.4759
   39TMC2     O  610   1.233   2.047   1.472 -0.0550  0.2841  0.1407
   39TMC2     H  611   1.531   1.951   1.248 -0.4671  0.0568  0.5932
   39TMC2    H1  612   1.409   2.169   1.592  1.1598  2.2095  1.0405
   39TMC2    H2  613   1.809   2.207   1.443 -0.7465  0.1148 -0.2655
   39TMC2    C7  614   1.632   2.287   1.630 -0.3442  1.1266 -0.0770
   39TMC2    C8  615   1.790   2.029   1.260  0.2972 -0.0752 -0.7393
   39TMC2    O1  616   1.546   2.295   1.721  0.1292  0.2599 -0.8876
   39TMC2    O2  617   1.754   1.978   1.157  0.2617  0.8529 -0.0149
   39TMC2    O5  618   1.875   1.971   1.347 -0.0743 -0.3294  0.4463
   39TMC2    H5  619   1.887   2.014   1.435 -0.6435  0.3864  0.1803
   40MPD2     C  620   1.192   1.807   1.119  0.1852  0.8804  0.6128
   40MPD2    C1  621   1.181   1.897   1.229  0.4331 -0.2354  0.8651
   40MPD2    C2  622   1.056   1.925   1.280  0.3972  0.1247  0.7614
   40MPD2    C3  623   0.941   1.879   1.218  0.0194 -0.8875  0.7391
   40MPD2    C4  624   0.959   1.795   1.108 -1.2713 -0.0032 -0.8527
   40MPD2    C5  625   1.082   1.742   1.070 -0.1330 -0.5204  0.9140
   40MPD2     H  626   1.049   2.000   1.358 -3.0441 -0.3326  0.8630
   40MPD2    H1  627   0.875   1.743   1.063  0.2135 -1.4166 -1.9871
   40MPD2    H2  628   1.292   1.775   1.090 -0.4972 -0.2368 -0.4807
   40MPD2    H3  629   1.084   1.682   0.980  1.1047  0.2819  0.4017
   40MPD2     N  630   0.805   1.925   1.240 -0.4132  0.3358 -0.1764
   40MPD2    H5  631   0.723   1.885   1.194 -0.0917 -2.1798  1.4760
   40MPD2    N1  632   1.302   1.937   1.281 -0.9002  0.4374  0.0299
   40MPD2    H7  633   1.388   1.920   1.230 -0.7428 -0.9635  0.7550
   41TMC2    C1  634   0.491   0.026  13.768  0.2777 -0.1539  0.1000
   41TMC2    C2  635   0.369   4.721  13.719 -0.2693  0.0806  0.0774
   41TMC2    C3  636   0.363   4.666  13.592 -0.5583 -0.1995 -0.0485
   41TMC2    C4  637   0.603   0.014  13.692  0.0939 -0.4186 -0.5258
   41TMC2    C5  638   0.588   4.710  13.557 -0.0157 -0.1851 -0.9655
   41TMC2    C6  639   0.468   4.666  13.506 -0.0269  0.6527 -0.5252
   41TMC2     C  640   0.496   0.100  13.897 -0.2967 -0.0163 -0.2803
   41TMC2     O  641   0.600   0.103  13.961 -0.0714  0.2038  0.1276
   41TMC2     H  642   0.280   4.713  13.780 -1.5348 -0.8757 -1.9144
   41TMC2    H1  643   0.688   0.071  13.729 -0.2368  0.6093 -1.3581
   41TMC2    H2  644   0.437   4.666  13.402  1.0775  0.2295 -0.8555
   41TMC2    C7  645   0.711   4.672  13.492  0.4599 -0.1936  0.3971
   41TMC2    C8  646   0.238   4.609  13.554 -0.5500 -0.0181 -0.1362
   41TMC2    O1  647   0.807   4.693  13.565  0.3878  0.1610  0.4291
   41TMC2    O2  648   0.149   4.602  13.639  0.9714 -0.0252 -0.7156
   41TMC2    O5  649   0.287   4.499  13.494 -0.2038  0.0944 -0.4805
   41TMC2    H5  650   0.348   4.516  13.419  0.0849  0.6154 -0.1214
   42MPD2     C  651   0.434   0.274  14.121 -0.6313 -0.2623  0.1754
   42MPD2    C1  652   0.339   0.228  14.035  0.1950 -0.0551  0.0244
   42MPD2    C2  653   0.209   0.266  14.054  0.1165  0.4477  0.4578
   42MPD2    C3  654   0.175   0.348  14.153 -0.2758 -0.4493  0.4167
   42MPD2    C4  655   0.277   0.416  14.224  0.0657  0.0284  0.1550
   42MPD2    C5  656   0.406   0.378  14.199 -0.5682  0.4584 -0.1377
   42MPD2     H  657   0.130   0.240  13.984  0.3420  0.2691  0.2694
   42MPD2    H1  658   0.250   0.492  14.296 -0.4657  0.8631 -0.9218
   42MPD2    H2  659   0.538   0.246  14.107 -0.8856 -1.0149 -0.2092
   42MPD2    H3  660   0.489   0.428  14.248 -0.8504  0.8719 -0.0768
   42MPD2     N  661   0.041   0.384  14.180  0.2590 -0.1515 -0.1828
   42MPD2    H5  662   0.030   0.468  14.236  2.5822 -0.6559  1.0143
   42MPD2    N1  663   0.376   0.153  13.921 -0.0830  0.2807  0.5016
   42MPD2    H7  664   0.305   0.143  13.849 -0.6483  0.9162  0.9799
   43TMC2    C1  665   1.496   4.238   0.746  0.6463 -0.0894 -0.0785
   43TMC2    C2  666   1.476   4.337   0.648 -0.4227 -0.0749 -0.0949
   43TMC2    C3  667   1.517   4.465   0.675  0.6877 -0.3022  0.1066
   43TMC2    C4  668   1.558   4.267   0.861  0.1743  0.6454  0.0920
   43TMC2    C5  669   1.601   4.397   0.881 -0.0644 -0.6618 -0.8136
   43TMC2    C6  670   1.586   4.496   0.794 -0.4345  0.3113 -0.0982
   43TMC2     C  671   1.482   4.093   0.725  0.4329 -0.1150  1.0886
   43TMC2     O  672   1.534   4.009   0.797 -0.2508  0.5634  0.6673
   43TMC2     H  673   1.414   4.323   0.559 -0.4586  0.6783 -0.1827
   43TMC2    H1  674   1.568   4.197   0.943 -3.2224  1.4079  1.1561
   43TMC2    H2  675   1.637   4.589   0.811  0.8611 -0.6867  1.3856
   43TMC2    C7  676   1.698   4.427   0.979  0.1221  0.1387 -0.0516
   43TMC2    C8  677   1.504   4.575   0.586  0.7417  0.6307  0.0448
   43TMC2    O1  678   1.803   4.480   0.942 -0.2340  0.3620 -0.1326
   43TMC2    O2  679   1.490   4.691   0.623  0.1539  0.1377  0.4635
   43TMC2    O5  680   1.535   4.543   0.466 -0.0964 -0.5101  0.1923
   43TMC2    H5  681   1.551   4.447   0.456 -2.5213 -0.4961 -3.7167
   44MPD2     C  682   1.284   3.700   0.444 -0.1378 -0.3796  0.3116
   44MPD2    C1  683   1.385   3.697   0.537 -0.0661 -0.7139  0.0525
   44MPD2    C2  684   1.432   3.813   0.592 -0.6005  0.3037 -0.4030
   44MPD2    C3  685   1.364   3.933   0.572 -0.5291 -0.7455  0.2877
   44MPD2    C4  686   1.256   3.935   0.489 -0.3070 -0.0959 -0.1711
   44MPD2    C5  687   1.221   3.817   0.423  0.0526  0.9092 -0.4808
   44MPD2     H  688   1.514   3.818   0.664  0.8657 -1.3490 -1.9444
   44MPD2    H1  689   1.200   4.026   0.471  0.5706  0.1387 -1.7283
   44MPD2    H2  690   1.240   3.609   0.406  2.4756 -0.8539 -1.5586
   44MPD2    H3  691   1.127   3.816   0.368  1.3372 -0.8702 -2.6719
   44MPD2     N  692   1.395   4.058   0.625  0.0283  0.2895 -0.4213
   44MPD2    H5  693   1.339   4.135   0.590 -0.0344  0.6724  0.5256
   44MPD2    N1  694   1.463   3.582   0.565 -0.4744  0.1898 -0.2527
   44MPD2    H7  695   1.548   3.603   0.616 -0.6614  0.1850  0.0586
   45TMC2    C1  696   2.702   0.584   9.825 -0.4449  0.1043 -0.5018
   45TMC2    C2  697   2.807   0.510   9.765  0.7022  0.5175  0.1865
   45TMC2    C3  698   2.915   0.584   9.728  0.2393  0.0831  0.2683
   45TMC2    C4  699   2.705   0.718   9.856 -0.1829  0.2396  0.5244
   45TMC2    C5  700   2.822   0.787   9.823 -0.1875  0.2710 -0.2141
   45TMC2    C6  701   2.925   0.717   9.759  0.3904  0.1600  0.5441
   45TMC2     C  702   2.569   0.533   9.797 -0.1521  0.9002 -0.5058
   45TMC2     O  703   2.486   0.618   9.767  0.0114 -0.5063 -0.8657
   45TMC2     H  704   2.797   0.405   9.739 -0.2343  0.8382 -0.7658
   45TMC2    H1  705   2.618   0.765   9.901 -0.4750 -0.6469  0.8796
   45TMC2    H2  706   3.022   0.764   9.753  0.7843 -0.9813 -2.1874
   45TMC2    C7  707   2.820   0.932   9.843 -0.2877  0.4746 -0.2449
   45TMC2    C8  708   3.026   0.509   9.682  0.0683  0.8123 -0.3366
   45TMC2    O1  709   2.717   0.980   9.894  0.0379  0.3055 -0.4503
   45TMC2    O2  710   3.141   0.537   9.706  0.7829 -0.2058 -0.9444
   45TMC2    O5  711   2.979   0.421   9.601  0.7904  0.8813  0.0923
   45TMC2    H5  712   2.888   0.441   9.571 -0.9473 -4.3940  1.8386
   46MPD2     C  713   2.421   0.187   9.786 -0.1663 -0.0381  0.3081
   46MPD2    C1  714   2.430   0.328   9.762  0.4196 -0.1855 -0.3175
   46MPD2    C2  715   2.324   0.376   9.685  0.3368 -0.3293  0.3368
   46MPD2    C3  716   2.209   0.300   9.658 -0.4942 -0.6112 -0.8556
   46MPD2    C4  717   2.212   0.165   9.693  0.7375 -0.3005 -0.5704
   46MPD2    C5  718   2.320   0.109   9.755 -0.0500 -0.3005  0.8586
   46MPD2     H  719   2.322   0.480   9.656 -2.1768 -0.7198 -0.8836
   46MPD2    H1  720   2.123   0.102   9.686  0.3523  0.1200  0.6677
   46MPD2    H2  721   2.508   0.134   9.823  0.3929 -1.5796 -3.1697
   46MPD2    H3  722   2.327   0.009   9.797  1.8630 -0.5279 -0.0302
   46MPD2     N  723   2.093   0.357   9.589 -0.0292 -0.1498 -0.0389
   46MPD2    H5  724   2.099   0.451   9.550  0.6004  0.2012  0.8846
   46MPD2    N1  725   2.555   0.397   9.795  0.1273  0.5056 -0.3306
   46MPD2    H7  726   2.633   0.340   9.829 -0.4748  0.4062  0.8950
   47TMC2    C1  727   0.427   2.012   9.578  1.1226 -0.5610 -0.8589
   47TMC2    C2  728   0.343   1.956   9.489  0.4186  0.2279 -0.3403
   47TMC2    C3  729   0.210   1.988   9.498 -0.0259  0.3280 -0.0609
   47TMC2    C4  730   0.381   2.084   9.686 -0.4775 -0.6555  0.6432
   47TMC2    C5  731   0.245   2.118   9.692 -0.0350  0.4861 -0.2501
   47TMC2    C6  732   0.155   2.068   9.598 -0.4363 -0.7496 -0.0773
   47TMC2     C  733   0.556   1.944   9.598 -0.3183  0.0693 -0.2423
   47TMC2     O  734   0.638   2.007   9.667 -0.2933  0.0079  0.4583
   47TMC2     H  735   0.383   1.906   9.402 -1.5291  1.0936 -1.7214
   47TMC2    H1  736   0.458   2.125   9.750 -0.5434 -0.4520  0.5920
   47TMC2    H2  737   0.048   2.086   9.596 -0.4132 -0.5844  0.1465
   47TMC2    C7  738   0.194   2.199   9.800  0.3750  0.1862 -0.2092
   47TMC2    C8  739   0.117   1.943   9.402 -0.0225  0.0478 -1.0226
   47TMC2    O1  740   0.073   2.196   9.825 -0.5985 -0.4846  0.4863
   47TMC2    O2  741   0.001   1.925   9.426  0.3526 -0.0096 -0.2229
   47TMC2    O5  742   0.157   1.981   9.279  0.1996  0.3816 -0.9746
   47TMC2    H5  743   0.246   2.018   9.262 -1.3271  3.1389 -2.9523
   48MPD2     C  744   0.779   1.754   9.638 -0.4388 -0.3234  0.2730
   48MPD2    C1  745   0.657   1.715   9.580 -0.8325  0.0449 -0.0961
   48MPD2    C2  746   0.635   1.581   9.549 -0.3099 -0.1362 -0.0572
   48MPD2    C3  747   0.729   1.485   9.577  0.1707 -0.0414  0.1232
   48MPD2    C4  748   0.847   1.527   9.632 -0.2039 -0.5941  0.2725
   48MPD2    C5  749   0.875   1.657   9.654 -0.2710 -0.4893  0.1417
   48MPD2     H  750   0.538   1.546   9.514 -0.1393 -2.0808  1.4739
   48MPD2    H1  751   0.927   1.455   9.639  0.6124  0.0168 -2.8939
   48MPD2    H2  752   0.810   1.850   9.678  0.4162 -0.0834 -0.9684
   48MPD2    H3  753   0.975   1.674   9.692  0.6417  0.2124 -2.5549
   48MPD2     N  754   0.710   1.352   9.533  0.4614 -0.3576  0.3334
   48MPD2    H5  755   0.638   1.331   9.465  0.6279  0.1144  0.0109
   48MPD2    N1  756   0.557   1.807   9.559 -0.0720 -0.7052 -0.0206
   48MPD2    H7  757   0.470   1.761   9.534 -1.4978  1.0795  1.6171
   49TMC2    C1  758   3.331   4.714   9.903  0.2784 -0.1688 -0.2782
   49TMC2    C2  759   3.245   4.621   9.959  0.2749 -0.5207  0.5870
   49TMC2    C3  760   3.169   4.551   9.877  0.0336 -0.4961 -0.2903
   49TMC2    C4  761   3.341   4.733   9.770 -0.0870 -0.0969 -0.9380
   49TMC2    C5  762   3.259   4.664   9.694  0.2900  0.6045  0.4603
   49TMC2    C6  763   3.166   4.576   9.747 -0.3491  0.1479  0.2646
   49TMC2     C  764   3.416   0.045   9.994  0.0074 -0.2361  0.0992
   49TMC2     O  765   3.521   0.079   9.946 -0.0741  0.4171  0.1559
   49TMC2     H  766   3.233   4.597  10.064  0.5179  3.5086  1.5314
   49TMC2    H1  767   3.422   0.057   9.731  1.7009  0.0060  2.8736
   49TMC2    H2  768   3.099   4.528   9.676  0.2082 -0.0715 -0.1114
   49TMC2    C7  769   3.247   4.692   9.557  0.2203  0.3276  0.3391
   49TMC2    C8  770   3.068   4.462   9.942 -0.0736 -0.0528  0.2784
   49TMC2    O1  771   3.226   4.595   9.481 -0.4186 -0.5346 -0.3312
   49TMC2    O2  772   3.084   4.421  10.057 -0.1463 -0.1007  0.4752
   49TMC2    O5  773   2.955   4.468   9.860 -0.9387 -0.3903 -0.5236
   49TMC2    H5  774   2.968   4.528   9.784  0.6164  2.1050  1.7133
   50MPD2     C  775   3.552   0.199  10.199  0.8859  0.4955 -0.0402
   50MPD2    C1  776   3.435   0.129  10.227 -0.1556  0.4683 -0.1539
   50MPD2    C2  777   3.378   0.122  10.345 -0.5814  0.1558 -0.8400
   50MPD2    C3  778   3.446   0.178  10.458  0.0715 -0.1166 -0.5855
   50MPD2    C4  779   3.546   0.258  10.424 -0.2956  0.1363  0.5206
   50MPD2    C5  780   3.603   0.257  10.304 -0.2895 -0.1052  0.5039
   50MPD2     H  781   3.293   0.058  10.366 -0.1257 -0.4287 -0.7961
   50MPD2    H1  782   3.605   0.302  10.504 -1.1123  1.0232  0.6396
   50MPD2    H2  783   3.591   0.223  10.100  0.6807  1.6752  0.1583
   50MPD2    H3  784   3.683   0.328  10.286 -0.9951  0.2290 -1.3367
   50MPD2     N  785   3.406   0.148  10.593 -0.6732  0.3517  0.2447
   50MPD2    H5  786   3.458   0.181  10.673 -1.5603 -0.5924  1.2205
   50MPD2    N1  787   3.362   0.066  10.121  0.0905  0.4241  0.0633
   50MPD2    H7  788   3.266   0.040  10.138  0.1652  0.7859  1.0470
   51TMC2    C1  789   3.909   2.398   1.996  0.2033 -0.1360 -0.4512
   51TMC2    C2  790   4.002   2.471   2.073  0.2946  0.2696  0.3904
   51TMC2    C3  791   3.989   2.610   2.069  0.4657 -0.1517 -0.7278
   51TMC2    C4  792   3.801   2.456   1.943 -0.1711  0.1048 -0.2105
   51TMC2    C5  793   3.773   2.589   1.960  0.4414 -0.8420  0.6632
   51TMC2    C6  794   3.880   2.667   2.007  0.0106 -0.3428 -0.2347
   51TMC2     C  795   3.937   2.262   1.961 -0.6228 -0.2069 -0.3321
   51TMC2     O  796   3.869   2.210   1.874  0.3474 -0.1199  0.0842
   51TMC2     H  797   4.095   2.426   2.106  0.6344 -1.0466 -2.3445
   51TMC2    H1  798   3.735   2.397   1.881  1.4033  0.0226 -1.8116
   51TMC2    H2  799   3.870   2.774   1.993  2.2881  0.0160  0.9651
   51TMC2    C7  800   3.680   2.657   1.872 -0.3965 -0.3198  0.4350
   51TMC2    C8  801   4.086   2.695   2.128 -0.5032  0.1023 -0.9717
   51TMC2    O1  802   3.697   2.779   1.837  0.3911 -0.2601 -0.6277
   51TMC2    O2  803   4.069   2.819   2.126 -0.4209  0.3421  0.1831
   51TMC2    O5  804   4.154   2.631   2.229 -0.7300  0.3698 -0.1084
   51TMC2    H5  805   4.124   2.541   2.255  0.6191  0.4628  1.8064
   52MPD2     C  806   4.185   1.817   1.980 -0.4885  0.1737 -1.0243
   52MPD2    C1  807   4.121   1.882   1.876  0.0769  0.7456  0.0570
   52MPD2    C2  808   4.072   2.014   1.891  0.0410  0.4455  0.1173
   52MPD2    C3  809   4.072   2.067   2.020 -0.2318 -0.2116 -0.0678
   52MPD2    C4  810   4.146   2.006   2.119 -0.4485  0.2206 -0.0281
   52MPD2    C5  811   4.214   1.885   2.095 -0.7989  0.3145 -0.4816
   52MPD2     H  812   4.018   2.063   1.811 -0.7451  0.2774  0.5459
   52MPD2    H1  813   4.169   2.067   2.205 -0.5775  1.1204 -0.6329
   52MPD2    H2  814   4.237   1.723   1.965 -3.2401 -1.3572 -0.9363
   52MPD2    H3  815   4.283   1.837   2.164 -0.6282 -1.0312 -1.5872
   52MPD2     N  816   4.021   2.192   2.047  0.1372 -0.1211  0.0620
   52MPD2    H5  817   4.028   2.238   2.138 -0.9171  0.3578 -0.1014
   52MPD2    N1  818   4.111   1.825   1.750  0.0832  0.0358 -0.4169
   52MPD2    H7  819   4.069   1.890   1.684  0.2674 -0.1035 -0.6755
   53TMC2    C1  820   3.501   0.263  11.754  0.2331  0.6396  0.6328
   53TMC2    C2  821   3.633   0.292  11.710  0.3241  0.8115 -0.8026
   53TMC2    C3  822   3.737   0.264  11.795  0.4014  0.4520 -0.7686
   53TMC2    C4  823   3.475   0.237  11.886  0.5164  0.4253  0.4461
   53TMC2    C5  824   3.581   0.227  11.974  0.0006 -0.2114 -0.1958
   53TMC2    C6  825   3.713   0.235  11.930  0.0059 -0.2331 -0.1667
   53TMC2     C  826   3.398   0.273  11.657  1.1813  0.4898  0.4940
   53TMC2     O  827   3.438   0.260  11.544 -0.0832 -0.0462 -0.1962
   53TMC2     H  828   3.653   0.304  11.604 -3.0611 -2.9956 -1.9005
   53TMC2    H1  829   3.382   0.204  11.932  0.1245  2.1536  0.8676
   53TMC2    H2  830   3.783   0.224  12.012  3.2372  0.6294 -2.8089
   53TMC2    C7  831   3.545   0.198  12.117  0.1986 -0.0946  0.3184
   53TMC2    C8  832   3.876   0.274  11.745 -0.6007 -0.3663  0.7769
   53TMC2    O1  833   3.434   0.242  12.144 -0.2381  0.4753  0.4875
   53TMC2    O2  834   3.915   0.307  11.637  0.0395 -0.5439  0.1357
   53TMC2    O5  835   3.931   0.176  11.821  0.5360 -0.0202  0.4290
   53TMC2    H5  836   3.855   0.145  11.875  0.7429 -2.2612 -0.5917
   54MPD2     C  837   3.146   0.268  11.491 -0.0478 -0.8585  0.0643
   54MPD2    C1  838   3.151   0.268  11.630  0.3214 -0.3471  0.5628
   54MPD2    C2  839   3.032   0.250  11.694 -0.3952  0.2490  0.4383
   54MPD2    C3  840   2.908   0.221  11.628  0.0674  1.0514  0.3913
   54MPD2    C4  841   2.906   0.223  11.492  1.0252 -0.3610  0.3097
   54MPD2    C5  842   3.025   0.247  11.429 -0.1420  0.3883 -0.3825
   54MPD2     H  843   3.044   0.228  11.800 -2.1291  1.9959  0.9880
   54MPD2    H1  844   2.816   0.219  11.431  1.1342 -1.6171  0.2249
   54MPD2    H2  845   3.234   0.277  11.428  0.9542  1.1606  1.7431
   54MPD2    H3  846   3.030   0.243  11.320 -0.2161 -1.1189 -0.3287
   54MPD2     N  847   2.782   0.212  11.693  0.2759 -0.1140 -0.5019
   54MPD2    H5  848   2.703   0.206  11.630 -1.3766 -0.7757  1.6513
   54MPD2    N1  849   3.266   0.276  11.707 -0.8664  0.0241 -0.1398
   54MPD2    H7  850   3.253   0.272  11.808 -0.8563  1.8906 -0.0674
   55TMC2    C1  851   4.205   3.488  17.743  0.2014  0.4537 -0.2466
   55TMC2    C2  852   4.280   3.461  17.628 -0.0263  0.0415 -0.3018
   55TMC2    C3  853   4.370   3.358  17.642 -0.0561 -0.2547 -0.0141
   55TMC2    C4  854   4.205   3.407   0.105 -0.0833 -0.2247 -0.9711
   55TMC2    C5  855   4.290   3.300   0.104 -0.2445 -0.7616  0.5017
   55TMC2    C6  856   4.378   3.274   0.002 -0.2140  0.2513 -0.0713
   55TMC2     C  857   4.111   3.602   0.012  0.7020 -0.1045 -0.3511
   55TMC2     O  858   4.031   3.599   0.106 -0.4286  0.3254 -0.4813
   55TMC2     H  859   4.272   3.527  17.542 -0.1099 -0.7433 -0.8965
   55TMC2    H1  860   4.118   3.407   0.171  1.3860  0.4175  0.9787
   55TMC2    H2  861   4.426   3.177  17.742 -2.3957 -0.7285 -1.2320
   55TMC2    C7  862   4.302   3.219   0.219 -0.2089  0.0104  0.0273
   55TMC2    C8  863   4.449   3.307  17.535 -0.4970 -0.0469  0.8433
   55TMC2    O1  864   4.379   3.125   0.221 -0.4312 -0.2480 -0.5674
   55TMC2    O2  865   4.551   3.242  17.549 -0.3841  0.5041 -0.2444
   55TMC2    O5  866   4.388   3.328  17.418  0.3948  0.2791 -0.0205
   55TMC2    H5  867   4.304   3.378  17.419 -0.1641 -0.6803  0.8336
   56MPD2     C  868   4.141   3.915  17.593 -0.0968 -0.1966 -0.4661
   56MPD2    C1  869   4.077   3.817  17.662 -0.3047 -0.4166  0.6784
   56MPD2    C2  870   3.950   3.838  17.708 -0.2201  0.2868  0.0317
   56MPD2    C3  871   3.886   3.966  17.687  0.1073  0.7984 -0.7782
   56MPD2    C4  872   3.953   4.066  17.617  0.2620 -0.6583 -0.2792
   56MPD2    C5  873   4.077   4.035  17.572  0.0391  0.0202  0.5407
   56MPD2     H  874   3.899   3.755   0.006 -0.0002  1.7470  2.9470
   56MPD2    H1  875   3.917   4.169  17.620 -0.2911 -0.8571 -0.1544
   56MPD2    H2  876   4.243   3.906  17.558  0.2067 -2.5214  0.9792
   56MPD2    H3  877   4.125   4.109  17.509 -1.3088  0.1801 -0.3144
   56MPD2     N  878   3.754   3.975  17.739  0.7039 -0.8876 -0.4626
   56MPD2    H5  879   3.711   3.892   0.032 -4.0282  1.2071 -1.1775
   56MPD2    N1  880   4.151   3.698  17.677 -0.2861 -0.3316 -0.0590
   56MPD2    H7  881   4.234   3.683  17.621  0.1663 -2.4016  1.1471
   57TMC2    C1  882   3.540   3.546  12.730  0.3474 -0.3888 -0.0910
   57TMC2    C2  883   3.500   3.623  12.624  0.0830 -0.2964  0.6734
   57TMC2    C3  884   3.586   3.688  12.542  0.1911  0.6168 -0.3129
   57TMC2    C4  885   3.665   3.562  12.786  0.5927 -1.1214  0.6309
   57TMC2    C5  886   3.745   3.646  12.711 -0.8835  0.4069 -0.5441
   57TMC2    C6  887   3.711   3.696  12.587 -0.4075  0.3381  0.3360
   57TMC2     C  888   3.447   3.479  12.819  0.4058  0.5620  0.2798
   57TMC2     O  889   3.484   3.386  12.883 -0.3058  0.3559  0.8646
   57TMC2     H  890   3.398   3.622  12.587 -0.2168 -0.5578  1.5154
   57TMC2    H1  891   3.694   3.525  12.884 -0.3845  0.0302  1.3606
   57TMC2    H2  892   3.787   3.744  12.527 -1.9153  2.5339  0.1740
   57TMC2    C7  893   3.881   3.674  12.755  0.5840  0.8411 -0.2290
   57TMC2    C8  894   3.535   3.773  12.437 -0.5033 -0.6561  0.3798
   57TMC2    O1  895   3.919   3.784  12.726 -0.3110 -0.2569 -0.0187
   57TMC2    O2  896   3.442   3.749  12.360  0.0396  0.0340  0.0031
   57TMC2    O5  897   3.601   3.892  12.443 -0.1822 -0.2193  0.4058
   57TMC2    H5  898   3.657   3.916  12.520  1.5131  2.2575 -1.5489
   58MPD2     C  899   3.013   3.478  13.101 -0.4436  0.1161  0.0413
   58MPD2    C1  900   3.034   3.606  13.049  0.2297 -0.3194  0.1884
   58MPD2    C2  901   3.142   3.618  12.969  0.3308 -0.1405 -0.4941
   58MPD2    C3  902   3.232   3.515  12.938  0.2976  0.1206  0.3812
   58MPD2    C4  903   3.212   3.390  12.996 -0.1143 -0.2134 -0.4295
   58MPD2    C5  904   3.099   3.375  13.075 -0.2580  0.0864  0.2704
   58MPD2     H  905   3.157   3.716  12.925 -1.1057  0.8306  1.2077
   58MPD2    H1  906   3.280   3.309  12.974  2.3603  1.4981  0.9721
   58MPD2    H2  907   2.931   3.468  13.170  1.6281  1.5245  2.7008
   58MPD2    H3  908   3.093   3.283  13.131  2.7617  0.1928  0.7893
   58MPD2     N  909   3.334   3.556  12.851  0.1511 -0.3903 -0.5910
   58MPD2    H5  910   3.316   3.648  12.811  0.7714  0.5452  1.2900
   58MPD2    N1  911   2.945   3.713  13.081 -0.6488 -0.2849 -0.9374
   58MPD2    H7  912   2.977   3.799  13.038  1.2581 -0.3655  0.2854
   59TMC2    C1  913   1.206   4.237  12.582 -0.7994  0.5330 -0.3448
   59TMC2    C2  914   1.335   4.262  12.559 -0.6312  0.3470 -0.5381
   59TMC2    C3  915   1.372   4.284  12.428 -0.3519 -0.4762  0.1538
   59TMC2    C4  916   1.112   4.232  12.487  0.3406  0.0690  0.2229
   59TMC2    C5  917   1.146   4.267  12.358 -0.7130 -0.0643 -0.0523
   59TMC2    C6  918   1.280   4.289  12.332  0.1919 -0.5551  0.7894
   59TMC2     C  919   1.150   4.243  12.716 -0.1165  0.4078  0.4253
   59TMC2     O  920   1.041   4.298  12.737 -0.5125  0.2544  0.5711
   59TMC2     H  921   1.406   4.270  12.640 -2.6529 -0.5277  1.3220
   59TMC2    H1  922   1.013   4.194  12.506  0.7783 -0.7739  0.8283
   59TMC2    H2  923   1.318   4.293  12.230  1.0350  0.9937  1.1765
   59TMC2    C7  924   1.051   4.263  12.256  0.6632 -0.5907 -0.5339
   59TMC2    C8  925   1.507   4.329  12.406 -0.0556 -0.3235  0.8682
   59TMC2    O1  926   0.953   4.200  12.289  0.0396  0.1573 -0.1732
   59TMC2    O2  927   1.598   4.319  12.489 -0.1115  0.2315 -0.2429
   59TMC2    O5  928   1.488   4.443  12.339  0.1237 -0.1127  0.2418
   59TMC2    H5  929   1.406   4.436  12.285 -1.3020 -0.8149  2.4906
   60MPD2     C  930   1.161   4.317  13.023 -0.3777  0.4808  0.1075
   60MPD2    C1  931   1.245   4.227  12.961  0.2416 -0.3777  0.4388
   60MPD2    C2  932   1.340   4.154  13.040 -0.0456 -0.8436 -0.5120
   60MPD2    C3  933   1.366   4.184  13.165  0.8219 -0.1850  0.1354
   60MPD2    C4  934   1.286   4.283  13.220  1.1022 -0.2668  0.1961
   60MPD2    C5  935   1.177   4.338  13.153 -0.1855 -0.2034 -0.0110
   60MPD2     H  936   1.402   4.084  12.985  0.0147 -2.3452  1.4601
   60MPD2    H1  937   1.307   4.313  13.322 -0.6277 -1.1165  0.8115
   60MPD2    H2  938   1.094   4.380  12.964 -0.0552  1.6399  0.9865
   60MPD2    H3  939   1.108   4.403  13.206  0.8423 -1.3306  2.7264
   60MPD2     N  940   1.457   4.114  13.243  0.4559  0.1637 -0.5982
   60MPD2    H5  941   1.476   4.150  13.336 -2.4820 -1.1063  0.4896
   60MPD2    N1  942   1.242   4.196  12.819 -0.1061 -0.5817  0.7317
   60MPD2    H7  943   1.310   4.133  12.778  2.0626  2.0920  0.1574
   61TMC2    C1  944   0.067   0.491  15.689 -0.1731  0.4010  0.3361
   61TMC2    C2  945   4.670   0.506  15.679  0.5213  0.3476 -0.2978
   61TMC2    C3  946   4.617   0.627  15.703 -0.2408  0.1688  0.4791
   61TMC2    C4  947   0.148   0.591  15.735  0.3032  0.0467  0.2477
   61TMC2    C5  948   0.099   0.717  15.744 -0.2390  0.2928  0.0773
   61TMC2    C6  949   4.699   0.737  15.742  0.3155 -0.0675 -0.3025
   61TMC2     C  950   0.142   0.397  15.605 -0.3257  0.3837 -0.0569
   61TMC2     O  951   0.226   0.333  15.665 -0.1090  0.2674 -0.1837
   61TMC2     H  952   4.605   0.432  15.634  0.4045  1.8063 -2.5360
   61TMC2    H1  953   0.254   0.574  15.752  0.7123  2.0233 -0.3117
   61TMC2    H2  954   4.652   0.833  15.760  2.3641  1.0600 -0.9577
   61TMC2    C7  955   0.175   0.817  15.666  0.4739  0.6424  0.0639
   61TMC2    C8  956   4.486   0.668  15.662 -0.3356 -0.5695  0.0113
   61TMC2    O1  957   0.100   0.887  15.597  0.2645  0.1631 -0.2466
   61TMC2    O2  958   4.422   0.740  15.737 -0.1232  0.2521  0.0098
   61TMC2    O5  959   4.469   0.636  15.534 -0.0327  0.1928 -0.1922
   61TMC2    H5  960   4.545   0.595  15.488  0.1351 -0.0340  0.2933
   62MPD2     C  961   0.368   0.347  15.430 -0.3972  0.2140  0.0179
   62MPD2    C1  962   0.277   0.445  15.404  0.4240 -0.1058  0.1828
   62MPD2    C2  963   0.298   0.542  15.308  0.1556  0.7996 -0.4621
   62MPD2    C3  964   0.418   0.551  15.245  0.7098 -0.8757 -0.3380
   62MPD2    C4  965   0.510   0.452  15.265 -0.2165  0.3377 -0.6223
   62MPD2    C5  966   0.487   0.359  15.364  0.1499 -0.3041 -1.0390
   62MPD2     H  967   0.228   0.624  15.315 -0.4721  0.2399 -0.2112
   62MPD2    H1  968   0.604   0.449  15.213  1.1155  0.3494  1.7769
   62MPD2    H2  969   0.364   0.264  15.499 -1.7587  0.5274  0.3096
   62MPD2    H3  970   0.557   0.278  15.380  0.5898  0.2721 -0.0715
   62MPD2     N  971   0.439   0.650  15.147  0.5169 -0.6625  0.4217
   62MPD2    H5  972   0.533   0.657  15.110  0.6081 -1.8148  0.4184
   62MPD2    N1  973   0.154   0.460  15.482 -0.2936 -0.0143 -0.1482
   62MPD2    H7  974   0.086   0.528  15.449 -0.0008  0.8297  0.9770
   63TMC2    C1  975   0.661   0.872  10.915 -0.0777  0.4545  0.3146
   63TMC2    C2  976   0.760   0.958  10.959 -0.1386 -0.5085 -0.3636
   63TMC2    C3  977   0.800   1.073  10.883 -0.0123  1.0104 -0.1693
   63TMC2    C4  978   0.616   0.890  10.788  0.5103  0.5549 -0.7548
   63TMC2    C5  979   0.672   0.994  10.709  0.0050 -0.5613 -0.3446
   63TMC2    C6  980   0.768   1.083  10.753  0.5684  0.9250  0.4036
   63TMC2     C  981   0.581   0.798  11.014 -0.2029 -0.2847 -0.2434
   63TMC2     O  982   0.592   0.826  11.130 -0.1592  0.0522  0.1276
   63TMC2     H  983   0.799   0.949  11.060  0.1330 -0.5409 -0.4699
   63TMC2    H1  984   0.546   0.820  10.744 -2.8523  1.6278  2.9169
   63TMC2    H2  985   0.816   1.162  10.696  0.4408  0.9559  0.3382
   63TMC2    C7  986   0.599   1.018  10.588 -0.1017  0.4982 -0.2901
   63TMC2    C8  987   0.878   1.172  10.939 -0.1058 -0.9712  0.1906
   63TMC2    O1  988   0.497   0.953  10.572 -0.2905 -0.0786  0.3892
   63TMC2    O2  989   0.912   1.275  10.881 -0.1043  0.1384  0.4792
   63TMC2    O5  990   0.917   1.142  11.066  0.2480 -0.3558 -0.1302
   63TMC2    H5  991   0.957   1.217  11.116  0.1608 -0.3335 -0.0938
   64MPD2     C  992   0.113   0.594  11.124  0.1076 -0.2514  0.2348
   64MPD2    C1  993   0.144   0.588  10.986 -0.6896  0.3154  0.1220
   64MPD2    C2  994   0.264   0.634  10.938  0.0677 -0.6566 -0.6339
   64MPD2    C3  995   0.363   0.696  11.015  0.4971  0.6660  0.8883
   64MPD2    C4  996   0.328   0.709  11.146  0.7103 -0.4036  0.4982
   64MPD2    C5  997   0.209   0.658  11.199  0.4464 -0.0591 -0.3120
   64MPD2     H  998   0.288   0.622  10.833  0.7764  0.8493 -0.6391
   64MPD2    H1  999   0.399   0.744  11.220  0.0716 -0.6610  1.2328
   64MPD2    H2 1000   0.024   0.556  11.173  1.0873 -2.4093  0.3471
   64MPD2    H3 1001   0.186   0.669  11.304 -1.1384 -1.4017 -0.5178
   64MPD2     N 1002   0.479   0.735  10.951 -0.1853 -0.2788 -0.1134
   64MPD2    H5 1003   0.485   0.716  10.851 -0.1456  0.4418 -0.2503
   64MPD2    N1 1004   0.062   0.525  10.893  0.5868 -0.5015  0.4427
   64MPD2    H7 1005   0.097   0.530  10.798 -1.1533  1.9480 -0.0655
   65TMC2    C1 1006   1.350   0.286  16.059  0.0055  0.9982  0.0696
   65TMC2    C2 1007   1.418   0.336  16.166  0.2242 -0.7051 -0.5900
   65TMC2    C3 1008   1.423   0.472  16.172  0.1204  0.6115  0.7855
   65TMC2    C4 1009   1.300   0.370  15.960  0.3493 -0.3129  0.2412
   65TMC2    C5 1010   1.308   0.507  15.970 -0.2697 -0.3011 -0.3150
   65TMC2    C6 1011   1.356   0.556  16.087  0.3871  0.3693  0.0437
   65TMC2     C 1012   1.311   0.148  16.053 -0.0405 -0.3302  0.1964
   65TMC2     O 1013   1.307   0.095  16.163 -0.3397  0.1989 -0.3698
   65TMC2     H 1014   1.469   0.277  16.241  0.7033 -0.5549 -0.7996
   65TMC2    H1 1015   1.223   0.334  15.893  1.7973  0.3022 -1.7890
   65TMC2    H2 1016   1.364   0.664  16.095 -0.4350  0.3062  1.6966
   65TMC2    C7 1017   1.252   0.588  15.867  0.1673 -0.3467 -0.1987
   65TMC2    C8 1018   1.505   0.527  16.279 -0.2827  0.2249  0.3397
   65TMC2    O1 1019   1.236   0.536  15.755  0.0026  0.2963 -0.0759
   65TMC2    O2 1020   1.513   0.478  16.389 -0.5225  0.1056 -0.2199
   65TMC2    O5 1021   1.571   0.636  16.240  0.0089  0.3428 -0.5674
   65TMC2    H5 1022   1.558   0.651  16.144 -0.3175  0.4552 -0.5041
   66MPD2     C 1023   1.252   4.597  16.015 -0.1142 -0.3426 -0.7927
   66MPD2    C1 1024   1.234   4.695  15.918  0.1359 -0.5191 -0.5653
   66MPD2    C2 1025   1.178   4.650  15.797  0.7351  0.0029 -0.8737
   66MPD2    C3 1026   1.139   4.524  15.775 -0.0067 -0.4433 -0.5034
   66MPD2    C4 1027   1.153   4.429  15.872 -0.3366  0.4671  0.1773
   66MPD2    C5 1028   1.212   4.468  15.993 -0.1947 -0.1799 -0.6145
   66MPD2     H 1029   1.178   4.720  15.714  0.9890 -0.8931 -1.6322
   66MPD2    H1 1030   1.132   4.323  15.870  1.4252  0.1374 -1.8006
   66MPD2    H2 1031   1.296   4.616  16.113 -0.6313  1.1366 -0.8483
   66MPD2    H3 1032   1.233   4.391  16.066 -1.3710 -1.1439 -1.2907
   66MPD2     N 1033   1.081   4.476  15.654 -0.1947 -0.0975 -0.2409
   66MPD2    H5 1034   1.053   4.379  15.656  1.3063 -0.5407 -0.7731
   66MPD2    N1 1035   1.263   0.095  15.935 -0.5666 -0.3391  0.7041
   66MPD2    H7 1036   1.259   0.147  15.848 -3.6706 -0.4253  0.7958
   67TMC2    C1 1037   1.453   4.520  14.629 -0.6629 -0.5839 -0.1193
   67TMC2    C2 1038   1.378   4.635  14.649  0.3076  0.1675 -0.6033
   67TMC2    C3 1039   1.417   4.707  14.762 -0.2611 -0.1183 -0.3930
   67TMC2    C4 1040   1.533   4.471  14.727  0.1202  0.2385  0.4342
   67TMC2    C5 1041   1.556   4.536  14.841  0.3128 -0.8327  0.4607
   67TMC2    C6 1042   1.499   4.656  14.862 -0.9835  0.2969 -0.3264
   67TMC2     C 1043   1.453   4.458  14.497 -0.4561 -0.6871 -0.7378
   67TMC2     O 1044   1.553   4.396  14.463 -0.0637  0.3643 -0.2471
   67TMC2     H 1045   1.313   4.685  14.577  0.7010 -0.8497 -1.6645
   67TMC2    H1 1046   1.578   4.374  14.709 -0.7901 -0.0759 -0.1216
   67TMC2    H2 1047   1.531   4.732  14.932  1.1539 -0.0111 -0.9399
   67TMC2    C7 1048   1.671   4.496  14.920  0.4598  0.5864 -0.4839
   67TMC2    C8 1049   1.414   0.119  14.760  0.0325 -0.3778  0.3258
   67TMC2    O1 1050   1.745   4.416  14.865  0.3009  0.2849  0.2944
   67TMC2    O2 1051   1.409   0.192  14.857 -0.0519 -0.0144 -1.0655
   67TMC2    O5 1052   1.399   0.157  14.627  0.1115 -0.2691 -0.2890
   67TMC2    H5 1053   1.433   0.090  14.564  0.4398 -0.3252 -0.0518
   68MPD2     C 1054   1.420   4.387  14.210  0.1749 -1.0497 -0.1438
   68MPD2    C1 1055   1.324   4.437  14.291 -0.8892  0.1792  0.1594
   68MPD2    C2 1056   1.195   4.457  14.238 -0.6644 -0.3606 -0.5821
   68MPD2    C3 1057   1.163   4.427  14.108 -0.5574  0.0916 -0.0385
   68MPD2    C4 1058   1.264   4.383  14.031  0.3037  0.3869  0.0178
   68MPD2    C5 1059   1.392   4.361  14.080 -0.2011 -0.4372  0.0026
   68MPD2     H 1060   1.122   4.512  14.297 -0.9396 -0.8572 -0.4553
   68MPD2    H1 1061   1.244   4.358  13.927 -1.9036  0.2726  0.4653
   68MPD2    H2 1062   1.523   4.381  14.241  0.5033  2.0388 -0.6708
   68MPD2    H3 1063   1.472   4.331  14.012  1.2693  0.9152  1.1381
   68MPD2     N 1064   1.041   4.463  14.040 -0.4034  0.4313 -0.2661
   68MPD2    H5 1065   1.049   4.437  13.942  0.0935  1.6159 -0.5403
   68MPD2    N1 1066   1.338   4.472  14.425 -0.4670 -0.7962 -0.1502
   68MPD2    H7 1067   1.259   4.518  14.471  1.2120  1.2658  0.6819
   69TMC2    C1 1068   3.724   0.445  12.581 -0.0534  0.0537 -0.1179
   69TMC2    C2 1069   3.595   0.469  12.609 -0.5260  0.2690  0.3797
   69TMC2    C3 1070   3.509   0.513  12.507  0.1167 -0.7962  0.4307
   69TMC2    C4 1071   3.773   0.441  12.450 -0.1603  0.0186  0.2560
   69TMC2    C5 1072   3.678   0.462  12.352  0.3017  0.0015 -0.3684
   69TMC2    C6 1073   3.552   0.508  12.377  0.2957  0.4666 -0.1186
   69TMC2     C 1074   3.789   0.377  12.688  0.8724  0.8723 -0.5320
   69TMC2     O 1075   3.742   0.390  12.803 -0.3438  0.5835  0.0256
   69TMC2     H 1076   3.561   0.466  12.711 -2.7893  1.5356 -0.3280
   69TMC2    H1 1077   3.872   0.403  12.427  0.5138  1.1758  1.2367
   69TMC2    H2 1078   3.474   0.527  12.305  1.2447 -0.2209 -1.3244
   69TMC2    C7 1079   3.731   0.479  12.219 -0.2243 -0.2977  0.3042
   69TMC2    C8 1080   3.371   0.471  12.527 -0.7838 -0.5367 -0.0782
   69TMC2    O1 1081   3.852   0.459  12.198 -0.2114 -0.1776  0.3268
   69TMC2    O2 1082   3.312   0.404  12.443 -0.7228  0.7623  0.3710
   69TMC2    O5 1083   3.323   0.499  12.650 -0.2072  0.3063  0.0445
   69TMC2    H5 1084   3.373   0.573  12.691  0.7424 -0.2086 -0.1955
   70MPD2     C 1085   4.108   0.184  12.691  0.5689  0.1957 -0.5262
   70MPD2    C1 1086   3.989   0.231  12.739  0.6930  0.2573 -0.0583
   70MPD2    C2 1087   3.957   0.195  12.872 -0.0604  0.6720  0.2827
   70MPD2    C3 1088   4.023   0.099  12.950 -0.6495  0.3982  0.4988
   70MPD2    C4 1089   4.149   0.060  12.897  0.3365  0.3409 -0.2244
   70MPD2    C5 1090   4.189   0.112  12.777 -0.3728 -0.0672  0.2045
   70MPD2     H 1091   3.875   0.243  12.926 -1.1411 -0.9415  0.0846
   70MPD2    H1 1092   4.210   4.728  12.954 -1.6342  0.3688  1.9242
   70MPD2    H2 1093   4.150   0.212  12.595  0.6046  3.9307  0.5952
   70MPD2    H3 1094   4.284   0.081  12.734 -0.9374  0.7533 -1.6484
   70MPD2     N 1095   3.978   0.026  13.060 -0.0760 -0.0990  0.5374
   70MPD2    H5 1096   4.047   4.716  13.117 -0.5416 -1.4056  0.0127
   70MPD2    N1 1097   3.904   0.311  12.653  0.8048 -0.3406  0.0325
   70MPD2    H7 1098   3.931   0.334  12.557  1.5629 -0.8188  0.1334
   71TMC2    C1 1099   0.663   1.238   1.635  0.1692 -0.0620 -0.1348
   71TMC2    C2 1100   0.798   1.272   1.633  0.2355 -0.8920 -0.2155
   71TMC2    C3 1101   0.856   1.335   1.741 -0.7330  0.1757 -0.6664
   71TMC2    C4 1102   0.590   1.282   1.743  0.3139  0.0219 -0.6658
   71TMC2    C5 1103   0.650   1.351   1.849 -0.0585  0.1113  0.1703
   71TMC2    C6 1104   0.786   1.368   1.858 -0.4305 -0.3754  0.0536
   71TMC2     C 1105   0.596   1.231   1.506 -0.2766  0.2250 -0.0274
   71TMC2     O 1106   0.675   1.228   1.411 -0.0460  0.0526  0.0472
   71TMC2     H 1107   0.855   1.242   1.547 -0.7971  0.6317 -1.4291
   71TMC2    H1 1108   0.483   1.262   1.743  0.5707 -1.2403  2.1606
   71TMC2    H2 1109   0.840   1.400   1.947  1.2438 -1.8382 -0.4345
   71TMC2    C7 1110   0.565   1.404   1.948  0.3289  0.2806 -0.3326
   71TMC2    C8 1111   0.997   1.366   1.725 -0.8098  0.2785  0.2434
   71TMC2    O1 1112   0.612   1.426   2.063  0.0235  0.0126  0.4859
   71TMC2    O2 1113   1.065   1.301   1.642  0.2314  0.1786  0.0350
   71TMC2    O5 1114   1.026   1.487   1.773  0.0769  0.1841  0.2208
   71TMC2    H5 1115   0.950   1.526   1.822  1.0350  1.1590  0.9135
   72MPD2     C 1116   0.200   1.241   1.171  0.1812  0.5809  0.5206
   72MPD2    C1 1117   0.336   1.270   1.160 -0.4853 -0.6508  0.2754
   72MPD2    C2 1118   0.420   1.272   1.268  0.0799 -0.8944  0.7648
   72MPD2    C3 1119   0.369   1.247   1.393  0.3071  0.0847  0.3839
   72MPD2    C4 1120   0.235   1.242   1.406 -0.0613  0.2921  0.2682
   72MPD2    C5 1121   0.150   1.231   1.298  0.4511 -0.4347 -0.0831
   72MPD2     H 1122   0.526   1.292   1.258  0.1534 -3.4880 -3.5557
   72MPD2    H1 1123   0.188   1.236   1.503 -1.3534  0.2046 -0.3591
   72MPD2    H2 1124   0.121   1.250   1.098 -1.3366  3.0635  2.4941
   72MPD2    H3 1125   0.045   1.209   1.314  0.2072 -0.4998 -1.7659
   72MPD2     N 1126   0.456   1.230   1.508  0.2573 -0.2741  0.3498
   72MPD2    H5 1127   0.396   1.228   1.589  1.4501 -0.1206  1.2334
   72MPD2    N1 1128   0.400   1.280   1.034 -0.1725  0.0812 -0.4089
   72MPD2    H7 1129   0.496   1.312   1.026  0.2539 -1.4201 -1.3692
   73TMC2    C1 1130   0.432   3.018  13.892 -0.3776 -0.0867 -0.5894
   73TMC2    C2 1131   0.361   3.022  14.007  0.1535  0.7088 -0.0590
   73TMC2    C3 1132   0.410   2.949  14.111 -0.3905  0.3550 -0.0737
   73TMC2    C4 1133   0.556   2.970  13.885  0.1012  0.2424  0.0386
   73TMC2    C5 1134   0.612   2.923  14.000 -0.0914 -0.2830 -0.0923
   73TMC2    C6 1135   0.542   2.907  14.116 -0.1695  0.3312 -0.9669
   73TMC2     C 1136   0.420   3.134  13.804  0.4342  0.1076  0.4041
   73TMC2     O 1137   0.524   3.178  13.760 -0.0563 -0.3656  0.0954
   73TMC2     H 1138   0.259   3.059  14.012  0.1432  0.6301  0.2962
   73TMC2    H1 1139   0.611   2.975  13.792  0.6935  0.3635  0.3939
   73TMC2    H2 1140   0.586   2.841  14.190  0.5209  1.6182 -0.2250
   73TMC2    C7 1141   0.743   2.983  14.012  1.3477  0.2752  0.6184
   73TMC2    C8 1142   0.314   2.893  14.199  0.2430 -0.1941 -0.1996
   73TMC2    O1 1143   0.828   2.929  14.084  0.0883 -0.4606  0.6005
   73TMC2    O2 1144   0.241   2.807  14.150 -0.6325 -0.1125 -0.0132
   73TMC2    O5 1145   0.383   2.877  14.315 -0.4374 -0.0672 -0.0872
   73TMC2    H5 1146   0.437   2.957  14.331 -1.2849  0.6340 -0.7010
   74MPD2     C 1147   0.219   3.586  13.633  0.3854  0.3837  0.1188
   74MPD2    C1 1148   0.349   3.547  13.664 -0.5769  0.5321  0.6190
   74MPD2    C2 1149   0.371   3.419  13.718 -1.0526 -0.3955 -0.0862
   74MPD2    C3 1150   0.268   3.325  13.741  0.1376  0.0572 -0.0865
   74MPD2    C4 1151   0.137   3.365  13.727  0.3597 -0.1125 -0.2620
   74MPD2    C5 1152   0.118   3.488  13.662  0.3468  0.4424  0.5314
   74MPD2     H 1153   0.469   3.387  13.750 -1.1763  0.2155  0.8822
   74MPD2    H1 1154   0.054   3.299  13.752 -1.3574  1.7925 -0.9379
   74MPD2    H2 1155   0.184   3.666  13.569  1.1581 -1.7449 -2.9999
   74MPD2    H3 1156   0.015   3.519  13.653 -0.4108 -2.0675  0.6657
   74MPD2     N 1157   0.295   3.197  13.798  0.2839 -0.9841  0.0003
   74MPD2    H5 1158   0.212   3.150  13.833  0.6999 -1.4003  0.4292
   74MPD2    N1 1159   0.453   3.643  13.663  0.0073  0.0888 -0.4274
   74MPD2    H7 1160   0.441   3.739  13.632 -0.6292  0.2821  0.4115
   75TMC2    C1 1161   0.815   4.505  13.995  0.2161  0.0959  0.2712
   75TMC2    C2 1162   0.692   4.515  14.047  0.1711  0.2623  0.2016
   75TMC2    C3 1163   0.585   4.488  13.975 -0.5702 -0.2301  0.0983
   75TMC2    C4 1164   0.833   4.461  13.866 -0.2988 -0.3537  0.5203
   75TMC2    C5 1165   0.720   4.428  13.792  0.4120 -1.0621 -0.5025
   75TMC2    C6 1166   0.592   4.450  13.842 -0.4756  0.2898  0.3081
   75TMC2     C 1167   0.923   4.509  14.092  0.0298 -0.0539  0.0692
   75TMC2     O 1168   0.899   4.553  14.205 -0.0132 -0.4656  0.6624
   75TMC2     H 1169   0.686   4.550  14.149  0.8217  0.4943  0.1586
   75TMC2    H1 1170   0.931   4.467  13.820  0.5048  0.2049  2.3022
   75TMC2    H2 1171   0.512   4.444  13.769 -0.5257  1.1609  0.2835
   75TMC2    C7 1172   0.729   4.388  13.652  0.1197 -0.7624  0.2755
   75TMC2    C8 1173   0.461   4.531  14.026  0.1429  0.2160  0.4491
   75TMC2    O1 1174   0.625   4.402  13.587  0.1682  0.1395 -0.0627
   75TMC2    O2 1175   0.450   4.599  14.129  0.0561 -0.3799 -0.3350
   75TMC2    O5 1176   0.353   4.489  13.950  0.4185  0.2435  0.5823
   75TMC2    H5 1177   0.373   4.419  13.884 -1.9834 -0.3374  0.4935
   76TMC2    C1 1178   4.627   4.547  11.798 -0.5861 -0.2821  0.9806
   76TMC2    C2 1179   4.598   4.426  11.754 -0.2748  0.1597 -0.4821
   76TMC2    C3 1180   4.613   4.316  11.833 -0.2042 -0.0107  0.1923
   76TMC2    C4 1181   4.650   4.572  11.930  0.8241  0.5958 -0.6068
   76TMC2    C5 1182   4.650   4.465  12.010  0.6291 -0.3017  0.0203
   76TMC2    C6 1183   4.631   4.336  11.968  0.2807  0.9825  0.2310
   76TMC2     C 1184   4.576   4.655  11.722  0.3171 -0.3646  0.2337
   76TMC2     O 1185   4.575   0.030  11.775  0.8081  0.0096  0.4552
   76TMC2     H 1186   4.580   4.405  11.649 -2.2146 -3.2126  0.5371
   76TMC2    H1 1187   4.681   4.665  11.977  0.9634  0.8046 -1.1019
   76TMC2    H2 1188   4.619   4.252  12.035 -1.2917  1.1487  0.1609
   76TMC2    C7 1189   4.640   4.493  12.156 -0.2297 -0.4913  0.0360
   76TMC2    C8 1190   4.568   4.182  11.797  0.6783  0.2214  0.1433
   76TMC2    O1 1191   4.557   4.430  12.220  0.1424 -0.6445 -0.1991
   76TMC2    O2 1192   4.597   4.090  11.869  0.4012  0.2060 -0.4786
   76TMC2    O5 1193   4.574   4.178  11.663  0.2182  0.9572 -0.6208
   76TMC2    H5 1194   4.518   4.249  11.625 -0.4936  0.4910 -0.4348
   77MPD2     C 1195   4.295   0.096  11.322 -0.4372 -0.5884 -0.1947
   77MPD2    C1 1196   4.332   0.164  11.438  0.8824  0.4542  0.2864
   77MPD2    C2 1197   4.410   0.089  11.531  0.1922 -0.1773 -0.3520
   77MPD2    C3 1198   4.450   4.692  11.508 -0.8129 -0.8497 -0.2308
   77MPD2    C4 1199   4.397   4.632  11.397  0.8632  0.3198  0.3390
   77MPD2    C5 1200   4.321   4.700  11.308  0.3410 -0.6998 -1.0277
   77MPD2     H 1201   4.450   0.137  11.620  1.1354 -0.2012 -0.7579
   77MPD2    H1 1202   4.413   4.527  11.379 -1.0742  0.1383 -0.3101
   77MPD2    H2 1203   4.228   0.144  11.252 -0.1524 -0.6027 -0.4739
   77MPD2    H3 1204   4.271   4.648  11.227 -0.3254  0.8986 -1.6380
   77MPD2     N 1205   4.528   4.617  11.601  0.3871 -0.7478 -0.0336
   77MPD2    H5 1206   4.553   4.524  11.569  0.4006  0.0481 -2.3490
   77MPD2    N1 1207   4.305   0.297  11.466  0.0859  0.5695 -0.3140
   77MPD2    H7 1208   4.333   0.338  11.555  1.0913  3.3029 -1.8853
   78TMC2    C1 1209   0.794   1.593   1.411 -0.7058 -0.1085  0.6469
   78TMC2    C2 1210   0.738   1.516   1.317  0.4629 -0.5281 -0.1247
   78TMC2    C3 1211   0.827   1.434   1.245  0.2412  0.3836 -0.5341
   78TMC2    C4 1212   0.926   1.591   1.448  0.3390  0.5178  0.3746
   78TMC2    C5 1213   1.011   1.512   1.375 -0.0645 -0.6181 -0.2723
   78TMC2    C6 1214   0.958   1.435   1.275  0.6483 -0.7923 -0.4430
   78TMC2     C 1215   0.688   1.648   1.502 -0.4549 -0.4039  0.1797
   78TMC2     O 1216   0.577   1.595   1.501  0.0890 -0.5945  0.2043
   78TMC2     H 1217   0.632   1.521   1.293  0.4648 -1.5041 -0.3649
   78TMC2    H1 1218   0.954   1.647   1.537 -1.5985  1.1759  0.5809
   78TMC2    H2 1219   1.022   1.378   1.209  1.5794  1.8314 -1.8201
   78TMC2    C7 1220   1.157   1.519   1.382 -0.3228  0.2679 -0.7377
   78TMC2    C8 1221   0.789   1.362   1.131 -0.7218  0.1759 -1.0044
   78TMC2    O1 1222   1.221   1.444   1.309 -0.0455  0.1626 -0.3296
   78TMC2    O2 1223   0.684   1.378   1.068 -0.0170 -0.4842  0.3387
   78TMC2    O5 1224   0.847   1.234   1.142 -0.3435  0.3433  1.0460
   78TMC2    H5 1225   0.916   1.208   1.207 -0.8262 -1.8613  0.6693
   79MPD1     C 1226   0.591   1.978   1.885 -0.2257  0.4977  0.5125
   79MPD1    C1 1227   0.523   1.864   1.847  0.3439 -0.1121  0.4665
   79MPD1    C2 1228   0.576   1.785   1.748  0.0842  0.0737 -0.0254
   79MPD1    C3 1229   0.673   1.841   1.660 -0.3614 -0.3761 -0.0298
   79MPD1    C4 1230   0.726   1.965   1.689  0.0099  0.2081  0.4527
   79MPD1    C5 1231   0.688   2.029   1.804 -0.3690  0.2510 -0.1659
   79MPD1     H 1232   0.528   1.689   1.728 -0.0294 -0.2948  2.0257
   79MPD1    H1 1233   0.814   2.001   1.636 -1.2733  1.2536 -0.9291
   79MPD1    H2 1234   0.568   2.038   1.973 -0.2006 -1.2165  1.6849
   79MPD1    H3 1235   0.743   2.110   1.851 -0.2258 -0.0796  0.2335
   79MPD1     N 1236   0.730   1.767   1.550 -0.8274 -0.4118  0.3602
   79MPD1    H5 1237   0.819   1.802   1.515 -0.4043 -0.2013  1.6422
   79MPD1    N1 1238   0.423   1.811   1.933  0.0863 -0.5818  0.4129
   79MPD1    H6 1239   0.376   1.890   1.977 -1.2868 -0.1758 -1.8059
   79MPD1    H7 1240   0.353   1.759   1.881 -0.7480  1.1277 -0.1638
   80TMC2    C1 1241   3.929   4.468  12.505  0.0316  0.2278 -0.7224
   80TMC2    C2 1242   4.045   4.536  12.500  0.3275  0.8061  0.0681
   80TMC2    C3 1243   4.101   4.574  12.381  0.0124 -0.6288 -0.1186
   80TMC2    C4 1244   3.866   4.426  12.392  1.1946 -0.0741  0.4371
   80TMC2    C5 1245   3.917   4.471  12.267 -0.5458  0.3585 -0.3765
   80TMC2    C6 1246   4.029   4.547  12.265  0.9762  0.4947 -0.2348
   80TMC2     C 1247   3.872   4.436  12.637  0.5768  0.1645  0.1934
   80TMC2     O 1248   3.946   4.432  12.735 -0.0255 -0.1196  0.0757
   80TMC2     H 1249   4.097   4.550  12.594 -0.5419  0.9466  0.5319
   80TMC2    H1 1250   3.783   4.357  12.393  1.0488  0.0668 -1.6436
   80TMC2    H2 1251   4.078   4.554  12.168  2.2732  1.3303  0.4746
   80TMC2    C7 1252   3.876   4.415  12.141  1.0590 -0.3449  0.2733
   80TMC2    C8 1253   4.224   4.655  12.395  0.1830  0.7683 -0.4664
   80TMC2    O1 1254   3.897   4.482  12.042  0.2493  1.2163  0.4796
   80TMC2    O2 1255   4.245   4.714  12.498  0.3811 -0.1202  0.9476
   80TMC2    O5 1256   4.293   4.660  12.280 -0.3081  0.0908 -0.1653
   80TMC2    H5 1257   4.269   4.586  12.220  1.4376  0.0556 -0.8256
   81MPD2     C 1258   3.715   4.388  12.888  0.8317  0.4284  0.6016
   81MPD2    C1 1259   3.668   4.384  12.763  0.4718  0.1972 -0.0404
   81MPD2    C2 1260   3.531   4.359  12.741  0.1638  0.6940  0.0329
   81MPD2    C3 1261   3.454   4.322  12.849  0.5953 -0.3920  0.3496
   81MPD2    C4 1262   3.509   4.310  12.975  0.1308 -0.4108 -0.3044
   81MPD2    C5 1263   3.642   4.340  12.995 -1.3792  0.1143 -0.4289
   81MPD2     H 1264   3.484   4.378  12.645 -0.2812 -1.9182 -0.2587
   81MPD2    H1 1265   3.448   4.293  13.063  1.2021  2.7752  1.0403
   81MPD2    H2 1266   3.810   4.435  12.910  0.4322  1.7596 -0.5697
   81MPD2    H3 1267   3.681   4.342  13.096 -2.7936  1.9323  0.0903
   81MPD2     N 1268   3.312   4.289  12.841 -0.6718 -0.0092  0.6400
   81MPD2    H5 1269   3.270   4.258  12.928  0.0181 -0.4477  0.8202
   81MPD2    N1 1270   3.737   4.421  12.645  0.3125  0.1501  0.0207
   81MPD2    H7 1271   3.677   4.422  12.563 -0.4554  2.4915  0.6314
   82TMC2    C1 1272   1.717   4.293  11.373 -0.3818 -0.3324 -0.9824
   82TMC2    C2 1273   1.651   4.375  11.461 -0.7824  0.5394  0.1708
   82TMC2    C3 1274   1.650   4.341  11.593  0.0061 -0.5962 -0.4759
   82TMC2    C4 1275   1.789   4.183  11.413 -0.5697  0.3247  0.2067
   82TMC2    C5 1276   1.788   4.150  11.549 -0.2159 -0.2202 -0.0929
   82TMC2    C6 1277   1.724   4.233  11.639  0.1309  0.3887  0.3163
   82TMC2     C 1278   1.734   4.333  11.239  0.1273 -0.7776  0.1427
   82TMC2     O 1279   1.820   4.274  11.169  0.0904  0.6187  0.2617
   82TMC2     H 1280   1.596   4.464  11.434  0.6279  0.7348 -1.9882
   82TMC2    H1 1281   1.842   4.136  11.331  1.5186  0.7578  1.2950
   82TMC2    H2 1282   1.705   4.187  11.735  1.2590  3.1404  1.8376
   82TMC2    C7 1283   1.754   4.013  11.564 -1.0833 -0.6776 -0.3904
   82TMC2    C8 1284   1.599   4.442  11.684  0.3427  0.3942 -0.0562
   82TMC2    O1 1285   1.644   3.995  11.616 -0.7436  0.5792  0.2556
   82TMC2    O2 1286   1.533   4.530  11.645 -0.1731  0.0793  0.3828
   82TMC2    O5 1287   1.685   4.462  11.786 -0.0790 -0.1004 -0.0456
   82TMC2    H5 1288   1.747   4.387  11.801  1.6841  1.5218  0.8050
   83MPD2     C 1289   1.582   4.530  10.796 -0.2647 -0.7092 -0.3335
   83MPD2    C1 1290   1.472   4.507  10.872  0.7205  0.0751  0.3688
   83MPD2    C2 1291   1.487   4.458  11.001 -0.0236 -0.1102  0.0451
   83MPD2    C3 1292   1.613   4.431  11.052  0.2687  0.6466  0.0219
   83MPD2    C4 1293   1.722   4.461  10.971 -1.0220 -0.5284  0.3978
   83MPD2    C5 1294   1.705   4.500  10.839  0.7886  0.0674 -0.1189
   83MPD2     H 1295   1.405   4.443  11.070 -0.3554 -0.1037 -0.3490
   83MPD2    H1 1296   1.824   4.451  11.007 -0.4831 -1.6814 -1.4479
   83MPD2    H2 1297   1.570   4.565  10.694 -0.2998  2.9630  0.9355
   83MPD2    H3 1298   1.783   4.526  10.768  0.5878 -0.2416 -0.4576
   83MPD2     N 1299   1.619   4.391  11.189 -0.2564 -0.1380  0.1270
   83MPD2    H5 1300   1.543   4.397  11.257  1.1671  0.4622  1.6659
   83MPD2    N1 1301   1.348   4.542  10.813 -0.3264 -0.3359 -0.2109
   83MPD2    H7 1302   1.361   4.602  10.733  0.3417  0.8767  0.8136
   84TMC2    C1 1303   3.105   4.735  10.932  0.5269  0.0083 -0.0328
   84TMC2    C2 1304   3.117   0.119  10.996 -0.6266 -0.0682 -0.2263
   84TMC2    C3 1305   3.197   0.216  10.943  0.9646  0.4394 -0.6300
   84TMC2    C4 1306   3.169   4.705  10.815  0.1689  0.2905 -0.0969
   84TMC2    C5 1307   3.250   0.074  10.767  0.0161  0.1485 -1.0863
   84TMC2    C6 1308   3.259   0.203  10.822  0.2308  0.3719 -0.1400
   84TMC2     C 1309   3.034   4.643  11.016  0.1548 -0.5483  0.1692
   84TMC2     O 1310   2.959   4.687  11.104  0.1605  0.4128 -0.1083
   84TMC2     H 1311   3.070   0.146  11.090  0.6212 -0.3637  0.5012
   84TMC2    H1 1312   3.153   4.608  10.768 -1.7435 -0.2547  1.6936
   84TMC2    H2 1313   3.318   0.281  10.776  2.0705 -0.7777  0.2990
   84TMC2    C7 1314   3.307   0.056  10.634  0.6005  0.7049 -0.1614
   84TMC2    C8 1315   3.202   0.339  11.009 -0.1742  0.4607 -0.0136
   84TMC2    O1 1316   3.276   4.689  10.582  0.6354 -0.3512 -0.3489
   84TMC2    O2 1317   3.162   0.348  11.123  0.4596  0.0784 -0.5633
   84TMC2    O5 1318   3.182   0.431  10.916 -0.0520 -0.5730  0.1513
   84TMC2    H5 1319   3.220   0.414  10.827 -2.1236  1.6412 -1.1751
   85TMC2    C1 1320   3.078   1.869  16.068  0.1673 -0.3380 -0.2080
   85TMC2    C2 1321   3.001   1.805  15.975  0.2287  0.3963 -0.3708
   85TMC2    C3 1322   3.022   1.827  15.843 -0.2846 -0.3524 -0.5764
   85TMC2    C4 1323   3.174   1.959  16.037  0.1925  0.2746  0.3839
   85TMC2    C5 1324   3.190   1.987  15.901 -0.5972 -0.0929  0.3368
   85TMC2    C6 1325   3.118   1.919  15.808  0.1216 -0.0052  0.5888
   85TMC2     C 1326   3.085   1.809  16.200  0.2921  0.4198 -0.8906
   85TMC2     O 1327   3.134   1.880  16.288 -0.4345  0.0094 -0.0304
   85TMC2     H 1328   2.921   1.738  16.002 -0.9494  2.0438  0.2268
   85TMC2    H1 1329   3.238   2.002  16.114 -0.5635  0.7678  0.7333
   85TMC2    H2 1330   3.139   1.928  15.702 -0.7917 -0.0184  0.4067
   85TMC2    C7 1331   3.329   2.016  15.875  0.1501  0.1541 -0.1550
   85TMC2    C8 1332   2.922   1.797  15.740 -0.1579  0.1534  0.2024
   85TMC2    O1 1333   3.415   1.986  15.957  0.5549 -0.0885  0.4252
   85TMC2    O2 1334   2.943   1.839  15.628  0.0907 -0.0554 -0.4208
   85TMC2    O5 1335   2.845   1.692  15.771  0.1229  0.1598 -0.4216
   85TMC2    H5 1336   2.853   1.661  15.863  2.5640  0.1683 -0.6260
   86MPD2     C 1337   2.968   1.435  16.531 -0.3016 -0.3203 -0.1050
   86MPD2    C1 1338   2.976   1.381  16.403 -0.8316  0.4206  1.7761
   86MPD2    C2 1339   3.001   1.467  16.297 -0.2527  0.3612  0.5030
   86MPD2    C3 1340   3.019   1.604  16.315  1.1172  0.4391  0.0924
   86MPD2    C4 1341   3.006   1.658  16.441  0.6587 -0.4251  0.1227
   86MPD2    C5 1342   2.976   1.567  16.544  0.6377 -0.7168 -0.1017
   86MPD2     H 1343   3.002   1.436  16.193 -0.6512 -0.6357  0.7975
   86MPD2    H1 1344   3.006   1.764  16.459  0.5492 -0.7484  2.0246
   86MPD2    H2 1345   2.934   1.392  16.625 -2.3505  0.8758 -0.2803
   86MPD2    H3 1346   2.964   1.618  16.638 -0.0966  0.5455 -0.8725
   86MPD2     N 1347   3.041   1.677  16.200 -0.3583  0.6887  0.0871
   86MPD2    H5 1348   3.015   1.627  16.115 -0.4253  1.5355 -0.3903
   86MPD2    N1 1349   2.949   1.252  16.367 -0.4221  0.3974  0.2186
   86MPD2    H7 1350   2.961   1.240  16.267  1.4059  0.3491  0.4418
   87TMC2    C1 1351   1.074   4.658   0.655  0.1020  0.7673  0.0990
   87TMC2    C2 1352   1.093   4.547   0.736  0.1617 -0.3628 -0.2467
   87TMC2    C3 1353   1.156   4.573   0.852  0.3943 -0.0077  0.2809
   87TMC2    C4 1354   1.120   0.045   0.686 -0.2262 -0.2713 -0.2283
   87TMC2    C5 1355   1.190   0.059   0.804 -0.2832  0.5268 -0.1072
   87TMC2    C6 1356   1.218   4.690   0.889 -0.0934 -0.3391  0.1436
   87TMC2     C 1357   1.020   4.640   0.522 -0.6794  0.3442 -0.3759
   87TMC2     O 1358   1.023   4.524   0.484 -0.4118  0.2661 -0.3196
   87TMC2     H 1359   1.056   4.446   0.716  0.3577 -0.6194  0.6937
   87TMC2    H1 1360   1.097   0.137   0.634 -1.1585 -1.1042 -1.2840
   87TMC2    H2 1361   1.251   4.702   0.992 -0.5420  1.2654  0.1046
   87TMC2    C7 1362   1.149   0.185   0.870  0.5772 -0.1506 -0.5621
   87TMC2    C8 1363   1.185   4.460   0.938 -0.2720 -0.4863  0.3716
   87TMC2    O1 1364   1.054   0.247   0.823 -0.3165 -0.2296  0.0323
   87TMC2    O2 1365   1.262   4.484   1.028 -0.6873  0.1910 -0.1306
   87TMC2    O5 1366   1.153   4.336   0.893  0.0512 -0.1081  0.0896
   87TMC2    H5 1367   1.058   4.336   0.866  1.0010 -3.5664 -3.1582
   88MPD2     C 1368   1.281   0.333   1.182  0.0681  0.4143 -0.4554
   88MPD2    C1 1369   1.207   0.326   1.063  0.1723  1.0259  1.0234
   88MPD2    C2 1370   1.148   0.438   1.018 -0.3258 -0.2138  0.0263
   88MPD2    C3 1371   1.165   0.561   1.081 -0.0047 -0.0484 -0.1012
   88MPD2    C4 1372   1.244   0.570   1.196 -0.7814  1.0655 -0.7559
   88MPD2    C5 1373   1.293   0.454   1.249  0.9956 -0.1028 -0.5579
   88MPD2     H 1374   1.099   0.444   0.922  1.8319  1.4715 -0.9600
   88MPD2    H1 1375   1.264   0.664   1.247 -0.3964  1.0050 -0.8001
   88MPD2    H2 1376   1.329   0.248   1.228 -0.2933  0.7495  0.5315
   88MPD2    H3 1377   1.348   0.472   1.341  1.3703 -3.1178 -0.1868
   88MPD2     N 1378   1.105   0.673   1.025 -0.1035  0.0291  0.2885
   88MPD2    H5 1379   1.026   0.662   0.963  0.1607  0.4978 -0.1343
   88MPD2    N1 1380   1.222   0.214   0.979  1.0753  0.1975  0.4020
   88MPD2    H7 1381   1.281   0.137   1.011 -0.1007 -1.5391 -1.5851
   89TMC2    C1 1382   2.058   2.968   1.520 -0.7702  0.0912 -0.4896
   89TMC2    C2 1383   2.174   3.038   1.537  0.4922 -0.5133 -0.1868
   89TMC2    C3 1384   2.199   3.131   1.443  0.1699  0.0599 -0.8985
   89TMC2    C4 1385   1.970   2.984   1.424  0.4933  0.1149 -1.2604
   89TMC2    C5 1386   1.983   3.096   1.342 -0.0385  0.4688  0.5254
   89TMC2    C6 1387   2.103   3.165   1.350 -0.5611 -0.2011 -0.1858
   89TMC2     C 1388   2.021   2.894   1.636  0.2592  0.4250  0.4036
   89TMC2     O 1389   2.039   2.947   1.744  0.1593  0.1493  0.1538
   89TMC2     H 1390   2.232   3.014   1.625 -0.7892 -0.9215  0.5436
   89TMC2    H1 1391   1.870   2.943   1.431  0.0611  1.1426 -1.3303
   89TMC2    H2 1392   2.124   3.233   1.269 -0.5067  0.6871  0.5785
   89TMC2    C7 1393   1.885   3.128   1.237 -0.1054 -0.1857  0.0997
   89TMC2    C8 1394   2.337   3.169   1.412 -0.1069 -0.0078 -0.4893
   89TMC2    O1 1395   1.804   3.042   1.209 -0.4086  0.0309  0.0770
   89TMC2    O2 1396   2.371   3.214   1.303  0.1167  0.1185 -0.0519
   89TMC2    O5 1397   2.426   3.117   1.502 -0.0518 -0.0705  0.2191
   89TMC2    H5 1398   2.405   3.134   1.596  0.8866 -0.6355  0.5362
   90MPD2     C 1399   1.737   2.508   1.809  0.6058  0.4297  0.4783
   90MPD2    C1 1400   1.765   2.491   1.672 -0.7378 -0.5736  0.1259
   90MPD2    C2 1401   1.823   2.596   1.608  0.0013  0.2148  0.3576
   90MPD2    C3 1402   1.867   2.706   1.682 -0.7379 -0.2239 -0.5781
   90MPD2    C4 1403   1.831   2.725   1.812  0.6558 -0.3443  0.6958
   90MPD2    C5 1404   1.765   2.622   1.876  0.5339  0.0023 -0.1062
   90MPD2     H 1405   1.851   2.588   1.504  0.2374 -1.3028  0.5310
   90MPD2    H1 1406   1.857   2.817   1.863 -0.3714  0.7294 -0.7269
   90MPD2    H2 1407   1.682   2.430   1.861 -0.8494  0.4337 -1.0523
   90MPD2    H3 1408   1.752   2.629   1.983  0.7799 -0.7331 -0.0256
   90MPD2     N 1409   1.941   2.792   1.597  0.5211  0.0086 -0.0176
   90MPD2    H5 1410   1.936   2.773   1.498  2.2421 -1.7125  0.2009
   90MPD2    N1 1411   1.730   2.377   1.599  0.6873  0.8772 -0.1662
   90MPD2    H7 1412   1.780   2.371   1.511 -0.2207 -3.3953 -0.3853
   91TMC2    C1 1413   3.036   2.575  16.007 -0.1603 -0.1195  0.5717
   91TMC2    C2 1414   3.047   2.661  16.112  0.1400 -0.6448 -0.3900
   91TMC2    C3 1415   2.932   2.701  16.166  0.2126  0.1059  0.5927
   91TMC2    C4 1416   2.921   2.521  15.964 -0.2511 -0.4831 -0.0782
   91TMC2    C5 1417   2.808   2.567  16.022  0.3778 -1.1476  0.2472
   91TMC2    C6 1418   2.814   2.661  16.119 -0.4719 -0.0658 -1.4719
   91TMC2     C 1419   3.159   2.507  15.951  0.1047  0.9267  0.3140
   91TMC2     O 1420   3.146   2.457  15.841 -0.2940  0.5356 -0.2542
   91TMC2     H 1421   3.146   2.690  16.145 -0.3553  1.3621 -0.6508
   91TMC2    H1 1422   2.923   2.441  15.890  1.9499 -0.4214 -0.0660
   91TMC2    H2 1423   2.723   2.705  16.159  0.1946  1.4987 -1.7008
   91TMC2    C7 1424   2.677   2.516  15.980  0.0982 -0.7738  0.2985
   91TMC2    C8 1425   2.924   2.732  16.310  1.0717 -0.7039 -0.6170
   91TMC2    O1 1426   2.587   2.526  16.062 -0.4754  0.1877 -0.1104
   91TMC2    O2 1427   2.823   2.764  16.368  0.0739  0.3933  0.1358
   91TMC2    O5 1428   3.041   2.786  16.345  0.2089 -0.1422  0.5911
   91TMC2    H5 1429   3.122   2.762  16.296  0.2696  0.5051  0.3730
   92MPD2     C 1430   3.423   2.406  15.879 -0.3013 -0.9264  0.1625
   92MPD2    C1 1431   3.399   2.469  15.997  0.8331  0.4158  0.5424
   92MPD2    C2 1432   3.498   2.488  16.099 -0.4430 -0.0519  0.2382
   92MPD2    C3 1433   3.622   2.439  16.069  0.0111 -0.6692  0.7511
   92MPD2    C4 1434   3.656   2.388  15.942 -0.1977  0.0114  0.2497
   92MPD2    C5 1435   3.551   2.374  15.852 -0.0742 -0.3775  0.5280
   92MPD2     H 1436   3.474   2.524  16.198 -0.2704  1.1847 -0.1648
   92MPD2    H1 1437   3.755   2.354  15.913 -0.1863 -0.7706  1.2168
   92MPD2    H2 1438   3.352   2.389  15.799 -1.9422  2.2188  0.9822
   92MPD2    H3 1439   3.576   2.326  15.759 -2.6824  0.2843 -0.5036
   92MPD2     N 1440   3.718   2.431  16.168 -0.4819  0.6512 -0.5684
   92MPD2    H5 1441   3.712   2.496  16.245  0.8679 -0.0334  0.1330
   92MPD2    N1 1442   3.269   2.512  16.034 -0.3705 -0.4153 -0.0169
   92MPD2    H7 1443   3.252   2.547  16.128 -0.2213 -1.6620  0.4798
   93TMC2    C1 1444   0.676   2.294  13.587  0.3897 -0.2083  0.1356
   93TMC2    C2 1445   0.552   2.358  13.595 -0.4790  0.0210  0.5576
   93TMC2    C3 1446   0.547   2.463  13.685  0.2176  0.2285 -0.4021
   93TMC2    C4 1447   0.779   2.324  13.667 -0.3168 -0.6452  0.2211
   93TMC2    C5 1448   0.773   2.434  13.742  0.1038  0.4416  0.0700
   93TMC2    C6 1449   0.657   2.505  13.754 -0.1451 -0.5030  0.7802
   93TMC2     C 1450   0.699   2.168  13.530 -0.5029 -0.0363 -0.0747
   93TMC2     O 1451   0.814   2.147  13.494  0.6453  0.1734  0.5005
   93TMC2     H 1452   0.470   2.317  13.537 -0.3508  1.7105 -0.8356
   93TMC2    H1 1453   0.865   2.258  13.673 -0.0729 -0.2375  1.2089
   93TMC2    H2 1454   0.638   2.587  13.822  1.0455  1.6782 -1.5159
   93TMC2    C7 1455   0.903   2.484  13.805  0.8174 -0.1224  0.8988
   93TMC2    C8 1456   0.419   2.540  13.689 -0.2925 -0.0379  0.6221
   93TMC2    O1 1457   0.994   2.407  13.801 -0.1044  0.0473  0.0167
   93TMC2    O2 1458   0.415   2.650  13.744 -0.6822 -0.1639 -0.1538
   93TMC2    O5 1459   0.315   2.453  13.669 -0.1771 -0.5501  0.6905
   93TMC2    H5 1460   0.347   2.360  13.672  2.0066  0.1878  0.3811
   94MPD2     C 1461   0.652   1.933  13.346 -1.0633  0.3428  0.3378
   94MPD2    C1 1462   0.554   1.986  13.432  0.3534  0.6216  0.1496
   94MPD2    C2 1463   0.424   1.940  13.429  0.9312  0.0374  0.3661
   94MPD2    C3 1464   0.398   1.830  13.348  0.4594 -0.0225 -0.2205
   94MPD2    C4 1465   0.494   1.788  13.258  0.3003 -0.4681 -0.0230
   94MPD2    C5 1466   0.618   1.839  13.259  0.1798 -0.2215 -0.1239
   94MPD2     H 1467   0.350   1.995  13.487  0.6456 -0.3253  0.3467
   94MPD2    H1 1468   0.481   1.709  13.184  1.2566  0.3068 -1.0256
   94MPD2    H2 1469   0.755   1.964  13.352 -0.3602 -1.7332 -1.3342
   94MPD2    H3 1470   0.692   1.802  13.188  2.5456  1.6600  1.3437
   94MPD2     N 1471   0.267   1.775  13.336  0.0967 -0.3121 -0.3562
   94MPD2    H5 1472   0.244   1.735  13.245 -0.2833 -0.9109  0.0083
   94MPD2    N1 1473   0.575   2.106  13.509  0.5086 -0.3095  0.1424
   94MPD2    H7 1474   0.500   2.139  13.568 -0.6940  0.0102 -1.5648
   95TMC2    C1 1475   1.275   3.511  15.254 -0.3924 -0.0332 -0.1331
   95TMC2    C2 1476   1.347   3.442  15.163 -0.6193 -0.5252 -0.8135
   95TMC2    C3 1477   1.417   3.333  15.208  0.0380  0.4353  0.4293
   95TMC2    C4 1478   1.289   3.480  15.387  0.4003  0.1932  0.4923
   95TMC2    C5 1479   1.368   3.374  15.426 -0.8679  0.6049 -0.9402
   95TMC2    C6 1480   1.429   3.303  15.339  0.4460 -0.2728 -0.4659
   95TMC2     C 1481   1.235   3.650  15.220 -0.5225  0.7286  0.2127
   95TMC2     O 1482   1.247   3.736  15.307 -0.0215 -0.2854  0.4295
   95TMC2     H 1483   1.344   3.469  15.058  2.8215  1.9680 -0.2691
   95TMC2    H1 1484   1.248   3.544  15.465 -1.1455  0.2882 -0.3901
   95TMC2    H2 1485   1.491   3.220  15.370  1.8640  0.6076 -0.9254
   95TMC2    C7 1486   1.368   3.338  15.568 -0.0352 -0.4002  0.3445
   95TMC2    C8 1487   1.481   3.252  15.110 -0.1360 -0.6168  0.8523
   95TMC2    O1 1488   1.311   3.413  15.645 -0.3461 -0.1724 -0.0394
   95TMC2    O2 1489   1.463   3.274  14.991  0.3702  0.1176  0.1590
   95TMC2    O5 1490   1.510   3.129  15.160 -0.0904 -0.0812 -0.4125
   95TMC2    H5 1491   1.524   3.118  15.256 -1.2055  1.3897 -0.0890
   96MPD2     C 1492   1.070   4.012  14.901  0.1534 -0.5073 -0.0348
   96MPD2    C1 1493   1.086   4.020  15.037 -0.4895 -0.4356 -0.1283
   96MPD2    C2 1494   1.122   3.901  15.102  0.6524 -0.4684  0.2335
   96MPD2    C3 1495   1.132   3.779  15.036 -0.8075  0.7247 -0.0477
   96MPD2    C4 1496   1.110   3.772  14.901  0.1980  0.3503 -0.3901
   96MPD2    C5 1497   1.086   3.893  14.839  0.4295  0.3255  0.6802
   96MPD2     H 1498   1.161   3.905  15.203 -0.2210  2.0484  0.4647
   96MPD2    H1 1499   1.108   3.674  14.855 -1.4400 -0.0828  0.6107
   96MPD2    H2 1500   1.036   4.090  14.834  1.8225 -1.2572 -1.7618
   96MPD2    H3 1501   1.064   3.889  14.733  0.3811  1.1098  0.6651
   96MPD2     N 1502   1.192   3.664  15.096 -0.0618 -0.4201 -0.4848
   96MPD2    H5 1503   1.186   3.580  15.040 -0.6175 -0.9388  0.3632
   96MPD2    N1 1504   1.055   4.143  15.102 -0.1569 -0.1766 -0.2953
   96MPD2    H7 1505   1.031   4.222  15.044  0.3178 -0.1014 -0.3930
   97TMC2    C1 1506   3.133   2.032   0.123 -0.1651  0.4160 -0.4702
   97TMC2    C2 1507   3.081   1.947   0.031  0.1880  0.5565 -0.3668
   97TMC2    C3 1508   2.999   1.996  17.685 -0.2364  0.5176  0.2905
   97TMC2    C4 1509   3.091   2.163   0.128  1.0268  0.0796  0.0585
   97TMC2    C5 1510   2.995   2.198   0.038  0.0558  0.0245 -0.8494
   97TMC2    C6 1511   2.948   2.121  17.684 -0.1952  0.2596 -0.1299
   97TMC2     C 1512   3.176   1.966   0.240 -0.1245  0.1407 -0.3649
   97TMC2     O 1513   3.202   1.844   0.238 -0.0949  0.2436 -0.9362
   97TMC2     H 1514   3.095   1.840   0.027  1.7666  0.7038  1.1889
   97TMC2    H1 1515   3.113   2.238   0.203  3.4540 -0.7638  0.2083
   97TMC2    H2 1516   2.877   2.153  17.608 -0.2699  3.4708  1.3086
   97TMC2    C7 1517   2.927   2.327   0.074  0.1805 -0.5446 -0.4832
   97TMC2    C8 1518   2.952   1.899  17.589  0.1220  0.7770  0.2095
   97TMC2    O1 1519   2.974   2.402   0.154  0.1318  0.1084  0.1778
   97TMC2    O2 1520   3.014   1.799  17.569 -0.4064  0.4778  0.3753
   97TMC2    O5 1521   2.816   1.904  17.594 -0.3005  0.0290  0.1476
   97TMC2    H5 1522   2.774   1.975  17.648 -0.5136  0.1698 -0.2068
   98MPD2     C 1523   3.105   2.031   0.720 -0.4431 -1.1660  0.0987
   98MPD2    C1 1524   3.077   1.921   0.638 -0.0584 -0.3033 -0.2080
   98MPD2    C2 1525   3.122   1.919   0.510  0.3890  0.3308 -1.1241
   98MPD2    C3 1526   3.201   2.026   0.468 -0.3195 -0.7364 -0.2410
   98MPD2    C4 1527   3.246   2.124   0.554 -0.3782 -0.6540  0.3417
   98MPD2    C5 1528   3.193   2.132   0.682  0.5131 -0.3291  0.1203
   98MPD2     H 1529   3.072   1.857   0.437 -1.9446  2.6753 -1.4932
   98MPD2    H1 1530   3.313   2.202   0.520 -1.9991  1.1382  1.2492
   98MPD2    H2 1531   3.051   2.033   0.814 -2.6011 -3.0987 -1.1050
   98MPD2    H3 1532   3.233   2.203   0.754  1.6343  0.8167 -1.6427
   98MPD2     N 1533   3.220   2.051   0.326 -0.7139  0.0299 -0.5974
   98MPD2    H5 1534   3.262   2.139   0.299 -2.5559  0.3638 -2.3809
   98MPD2    N1 1535   2.972   1.840   0.686 -0.9047 -0.0116 -0.2267
   98MPD2    H7 1536   2.921   1.862   0.771  2.7994  0.2487  1.9220
   99TMC2    C1 1537   1.639   4.088   1.723  0.1292  0.0972  0.3869
   99TMC2    C2 1538   1.658   3.955   1.743 -0.0274  0.8897  0.1274
   99TMC2    C3 1539   1.541   3.882   1.765 -0.4339  0.4596 -0.4652
   99TMC2    C4 1540   1.519   4.148   1.709 -0.9115  0.3698  0.2629
   99TMC2    C5 1541   1.409   4.069   1.731  0.2553  1.0372 -0.5746
   99TMC2    C6 1542   1.413   3.935   1.758  0.1205 -0.5602  0.6485
   99TMC2     C 1543   1.743   4.154   1.650  0.2384  0.0876 -0.0645
   99TMC2     O 1544   1.860   4.139   1.697  0.2411 -0.1763 -0.2225
   99TMC2     H 1545   1.763   3.928   1.749 -0.6184 -1.5740 -0.5938
   99TMC2    H1 1546   1.510   4.255   1.701 -0.3410  0.3389 -0.9122
   99TMC2    H2 1547   1.328   3.874   1.787 -0.3416  0.3485  1.2016
   99TMC2    C7 1548   1.290   4.132   1.710 -1.0004 -0.2541  0.7080
   99TMC2    C8 1549   1.542   3.739   1.798  0.1628  0.0136  0.3139
   99TMC2    O1 1550   1.284   4.250   1.731  0.2745  0.0280 -0.1219
   99TMC2    O2 1551   1.444   3.669   1.772 -0.2734 -0.5192  0.3394
   99TMC2    O5 1552   1.653   3.708   1.875  0.2948  0.3613 -0.3535
   99TMC2    H5 1553   1.717   3.780   1.896 -0.3996  0.7455  0.4211
  100MPD2     C 1554   1.905   4.310   1.450  0.2471  0.4475 -0.5658
  100MPD2    C1 1555   1.781   4.263   1.433  0.2571 -0.7847  0.1688
  100MPD2    C2 1556   1.720   4.270   1.312  0.2260  1.2227  0.9082
  100MPD2    C3 1557   1.775   4.341   1.206  0.8756 -0.7764  0.1195
  100MPD2    C4 1558   1.905   4.391   1.216 -0.0139 -0.3448 -1.1662
  100MPD2    C5 1559   1.961   4.379   1.339 -0.1108  0.8836  0.5141
  100MPD2     H 1560   1.621   4.227   1.309 -0.0016  1.9037 -1.6706
  100MPD2    H1 1561   1.960   4.456   1.150  2.4931 -0.2211  1.0422
  100MPD2    H2 1562   1.950   4.299   1.547 -0.8240  1.7570  0.0766
  100MPD2    H3 1563   2.056   4.430   1.352  0.4437 -0.1209  0.4440
  100MPD2     N 1564   1.684   4.349   1.091  0.5044  0.3261  0.6505
  100MPD2    H5 1565   1.597   4.298   1.099  0.9328 -0.5282 -0.2295
  100MPD2    N1 1566   1.703   4.208   1.530 -0.0230 -0.2792  0.2740
  100MPD2    H7 1567   1.613   4.181   1.491  1.8616 -3.2670 -2.0084
  101TMC2    C1 1568   2.467   4.537  13.603 -0.0783  0.2086 -0.2836
  101TMC2    C2 1569   2.452   4.577  13.730 -0.0565  0.4006  0.2760
  101TMC2    C3 1570   2.495   4.698  13.763 -0.8135 -0.3644 -0.1552
  101TMC2    C4 1571   2.511   4.631  13.512  0.1553 -0.1597  0.1251
  101TMC2    C5 1572   2.562   0.014  13.546 -0.1161  0.5003  0.3277
  101TMC2    C6 1573   2.557   0.047  13.673  0.3388 -0.1327 -0.1126
  101TMC2     C 1574   2.376   4.434  13.552  0.5055 -0.2043 -0.2421
  101TMC2     O 1575   2.290   4.400  13.632  0.3070  0.0382  0.3341
  101TMC2     H 1576   2.407   4.518  13.809 -0.1540 -0.6265 -0.5517
  101TMC2    H1 1577   2.516   4.610  13.406 -1.6916  1.0467 -0.1981
  101TMC2    H2 1578   2.589   0.149  13.694  0.1186  0.2045 -1.4035
  101TMC2    C7 1579   2.655   0.067  13.452 -0.7135 -0.2077 -0.0160
  101TMC2    C8 1580   2.470   0.014  13.893 -0.7338  0.2845  0.2075
  101TMC2    O1 1581   2.625   0.066  13.333  0.0576 -1.0504 -0.5064
  101TMC2    O2 1582   2.546   0.093  13.946  0.1465  0.2009 -0.2769
  101TMC2    O5 1583   2.349   4.723  13.933  0.1424  0.2902 -0.3622
  101TMC2    H5 1584   2.296   4.693  13.856  0.5904 -1.9488  0.2132
  102MPD2     C 1585   2.373   4.292  13.222 -0.3580 -0.4429  0.3741
  102MPD2    C1 1586   2.338   4.296  13.355  0.1565 -0.4680  0.9705
  102MPD2    C2 1587   2.238   4.207  13.402 -0.3466 -0.6217  0.5737
  102MPD2    C3 1588   2.184   4.115  13.315  0.3782  0.5912  0.7679
  102MPD2    C4 1589   2.225   4.107  13.187 -0.3359 -0.0093 -0.3141
  102MPD2    C5 1590   2.324   4.190  13.139  0.0714  0.1660  0.6545
  102MPD2     H 1591   2.196   4.214  13.502  1.3649 -1.1470  1.3299
  102MPD2    H1 1592   2.190   4.024  13.127  0.0628  0.7953 -1.6442
  102MPD2    H2 1593   2.447   4.361  13.182  0.8597 -1.6951  0.4522
  102MPD2    H3 1594   2.363   4.183  13.039 -0.9860 -1.3505  0.3535
  102MPD2     N 1595   2.071   4.044  13.366 -0.2154  0.1709  0.2701
  102MPD2    H5 1596   2.051   4.065  13.463  1.1211 -1.1303  0.8120
  102MPD2    N1 1597   2.406   4.390  13.425 -0.0225  0.3420 -0.0990
  102MPD2    H7 1598   2.485   4.433  13.379 -0.8410  0.7596 -1.1099
  103TMC2    C1 1599   0.574   0.001  12.512 -0.2293  0.1119  0.2092
  103TMC2    C2 1600   0.659   0.084  12.449  0.3265  0.2700  0.3516
  103TMC2    C3 1601   0.770   0.124  12.526 -0.5722  0.2516  0.3739
  103TMC2    C4 1602   0.590   4.688  12.637 -0.1184 -1.0431 -0.5195
  103TMC2    C5 1603   0.704   4.719  12.706 -0.4555 -0.3211  0.1114
  103TMC2    C6 1604   0.791   0.072  12.650 -0.1612 -0.8145  0.4147
  103TMC2     C 1605   0.449   4.723  12.441 -0.1838 -0.3569  0.6444
  103TMC2     O 1606   0.446   0.028  12.327 -0.3067 -0.9625  0.0889
  103TMC2     H 1607   0.653   0.097  12.342  0.9791  0.3408  0.3213
  103TMC2    H1 1608   0.529   4.608  12.678 -2.2154 -0.8410 -3.3281
  103TMC2    H2 1609   0.872   0.106  12.715  0.3303 -0.5762 -0.3274
  103TMC2    C7 1610   0.725   4.657  12.835  0.0772  0.6721 -0.1417
  103TMC2    C8 1611   0.886   0.176  12.468 -0.3548  0.7639  0.1076
  103TMC2    O1 1612   0.620   4.619  12.890 -0.2128 -0.4184 -0.2078
  103TMC2    O2 1613   0.983   0.208  12.537 -0.8396 -0.2472  0.3003
  103TMC2    O5 1614   0.846   0.252  12.361  0.3153 -0.0689 -0.0420
  103TMC2    H5 1615   0.770   0.222  12.307 -1.8505  1.0939  2.3879
  104MPD2     C 1616   0.123   4.629  12.597 -0.7800  0.2338 -0.1175
  104MPD2    C1 1617   0.216   4.649  12.491 -0.0752  0.0666  0.1889
  104MPD2    C2 1618   0.173   4.623  12.363  0.2772 -0.1423  0.1706
  104MPD2    C3 1619   0.044   4.583  12.334 -1.0431  0.3964 -0.4051
  104MPD2    C4 1620   4.688   4.577  12.438  0.3914  0.7325 -0.0049
  104MPD2    C5 1621   4.726   4.608  12.563 -0.0289  0.3829 -0.7284
  104MPD2     H 1622   0.237   4.622  12.275  1.6081  2.2710  1.1045
  104MPD2    H1 1623   4.584   4.550  12.421  0.4899 -0.7244  1.7028
  104MPD2    H2 1624   0.166   4.654  12.693  0.8352  0.0301 -0.7841
  104MPD2    H3 1625   4.657   4.617  12.646  1.6970 -0.4981  0.8043
  104MPD2     N 1626   0.018   4.555  12.196  0.3564  0.0903  0.5593
  104MPD2    H5 1627   0.093   4.572  12.130 -0.2320  0.4859 -0.0090
  104MPD2    N1 1628   0.352   4.677  12.524  0.2680 -0.6043 -0.0466
  104MPD2    H7 1629   0.385   4.685  12.619  1.8606  2.2353 -0.8348
  105TMC2    C1 1630   1.079   4.211  17.581  0.0485 -0.2455 -0.0360
  105TMC2    C2 1631   0.963   4.143  17.554  0.1342  0.3775 -0.3593
  105TMC2    C3 1632   0.843   4.198  17.598 -0.7814 -0.0342  0.1769
  105TMC2    C4 1633   1.072   4.343  17.638 -0.5024  0.3539 -0.0338
  105TMC2    C5 1634   0.949   4.400  17.666 -0.0122 -0.0196  0.0616
  105TMC2    C6 1635   0.834   4.320  17.659  0.1969  0.1785  0.4367
  105TMC2     C 1636   1.203   4.140  17.559  0.8673 -0.3688 -0.2417
  105TMC2     O 1637   1.190   4.023  17.536  0.2311 -0.4426  0.4730
  105TMC2     H 1638   0.967   4.047  17.503 -1.5823  0.5964 -0.9077
  105TMC2    H1 1639   1.159   4.407  17.643  0.7880 -1.5086  1.5104
  105TMC2    H2 1640   0.737   4.359  17.686  0.3772  1.3637 -0.6050
  105TMC2    C7 1641   0.954   4.509   0.010 -0.5082 -0.1642 -0.3209
  105TMC2    C8 1642   0.728   4.118  17.568  0.1902 -0.0458 -0.9533
  105TMC2    O1 1643   1.061   4.547   0.052 -0.3098  0.2119  0.5065
  105TMC2    O2 1644   0.744   4.023  17.492 -0.1020 -0.4027  0.3898
  105TMC2    O5 1645   0.642   4.124  17.677 -0.0750  0.0054 -0.2862
  105TMC2    H5 1646   0.668   4.188  17.747 -4.8441  0.8203  0.6939
  106MPD2     C 1647   1.715   4.068  17.530 -0.2564 -0.0647  0.1884
  106MPD2    C1 1648   1.685   4.205  17.553 -0.5696  0.8517  0.3375
  106MPD2    C2 1649   1.557   4.253  17.573 -0.3518  0.5294  0.0114
  106MPD2    C3 1650   1.447   4.164  17.554  0.2406  0.9605 -0.1558
  106MPD2    C4 1651   1.480   4.028  17.542 -0.5038  0.1535 -0.0800
  106MPD2    C5 1652   1.609   3.981  17.535 -0.2181 -0.1740  0.3834
  106MPD2     H 1653   1.553   4.358  17.597 -1.4730  0.5400 -0.2175
  106MPD2    H1 1654   1.404   3.950  17.542  0.1834 -0.4913 -2.0997
  106MPD2    H2 1655   1.808   4.022  17.498  0.3615  1.8307 -0.7053
  106MPD2    H3 1656   1.622   3.877  17.510 -1.9077 -0.7545  1.9069
  106MPD2     N 1657   1.318   4.221  17.568 -0.1603  0.0147  0.1656
  106MPD2    H5 1658   1.304   4.321  17.557 -0.9279 -0.1864 -0.7330
  106MPD2    N1 1659   1.785   4.307  17.538  0.5175 -0.4951  0.0170
  106MPD2    H7 1660   1.750   4.402  17.536 -0.4261 -0.8132  1.5919
  107TMC2    C1 1661   2.399   4.244  11.582 -0.3728 -0.1992  0.1626
  107TMC2    C2 1662   2.419   4.360  11.651 -0.4775 -0.8082 -0.3051
  107TMC2    C3 1663   2.536   4.429  11.618 -0.2494 -0.2481 -0.2839
  107TMC2    C4 1664   2.495   4.192  11.499  0.2175  0.6135 -0.7611
  107TMC2    C5 1665   2.609   4.265  11.476 -0.6303 -0.9072  0.5163
  107TMC2    C6 1666   2.633   4.387  11.528 -0.0770  0.0775  0.0417
  107TMC2     C 1667   2.296   4.161  11.627  0.0206 -0.4196  0.5414
  107TMC2     O 1668   2.224   4.201  11.719  0.0879 -0.3271  0.0621
  107TMC2     H 1669   2.342   4.410  11.709  1.0543  1.5565 -0.3250
  107TMC2    H1 1670   2.482   4.100  11.444 -1.6476  1.1927 -1.3105
  107TMC2    H2 1671   2.731   4.433  11.528 -0.8769  1.7875  2.1515
  107TMC2    C7 1672   2.693   4.217  11.370 -0.3778  0.0220 -0.3271
  107TMC2    C8 1673   2.549   4.554  11.685 -0.1440 -0.8116  0.0891
  107TMC2    O1 1674   2.672   4.104  11.331  0.5003  0.2472 -0.4979
  107TMC2    O2 1675   2.502   4.573  11.796 -0.5138  0.2512 -0.0552
  107TMC2    O5 1676   2.635   4.632  11.622  0.2534 -0.1886  0.6702
  107TMC2    H5 1677   2.656   4.606  11.530 -0.2645  0.3959  0.3864
  108MPD2     C 1678   2.228   3.816  11.540  0.0103  0.1106  0.2768
  108MPD2    C1 1679   2.212   3.929  11.615 -0.1145  0.1106  0.2037
  108MPD2    C2 1680   2.123   3.929  11.720  0.4864  0.2117  0.6134
  108MPD2    C3 1681   2.057   3.812  11.753 -1.8612  0.3254 -0.4858
  108MPD2    C4 1682   2.076   3.696  11.679  0.2073 -0.1596 -0.7225
  108MPD2    C5 1683   2.160   3.701  11.566 -0.4544  0.0412 -0.1263
  108MPD2     H 1684   2.122   4.021  11.777 -2.1200 -1.5406  3.3680
  108MPD2    H1 1685   2.033   3.601  11.706 -1.3271  0.0872 -2.3031
  108MPD2    H2 1686   2.296   3.817  11.456 -0.0574  0.6621  0.2307
  108MPD2    H3 1687   2.187   3.621  11.499  0.5667  0.2373  0.0532
  108MPD2     N 1688   1.958   3.812  11.859 -0.2802  0.0667  0.1914
  108MPD2    H5 1689   1.917   3.724  11.887 -0.0058 -0.6379 -1.6005
  108MPD2    N1 1690   2.282   4.037  11.566 -0.0550 -0.6630 -0.0902
  108MPD2    H7 1691   2.337   4.019  11.483 -0.4261  0.0900 -0.5035
  109TMC2    C1 1692   1.946   1.031   0.240  0.6033 -0.8914  0.6414
  109TMC2    C2 1693   1.951   1.010   0.104 -0.0627 -1.0332 -0.0576
  109TMC2    C3 1694   2.069   1.003   0.038 -0.1375 -0.6129  0.2771
  109TMC2    C4 1695   2.060   1.044   0.312 -0.0490 -0.2046  0.0475
  109TMC2    C5 1696   2.179   1.032   0.241  0.5952  0.7198 -0.2274
  109TMC2    C6 1697   2.185   1.004   0.107 -0.4569 -0.1278  0.3631
  109TMC2     C 1698   1.830   1.092   0.293 -0.6893  0.1603  0.4520
  109TMC2     O 1699   1.722   1.049   0.253 -0.2414  0.5243  0.1311
  109TMC2     H 1700   1.857   0.988   0.055 -0.7597  1.9088 -0.0537
  109TMC2    H1 1701   2.062   1.068   0.418 -1.4380 -0.3579  0.1045
  109TMC2    H2 1702   2.275   0.995   0.048 -1.8301 -0.6976 -1.6411
  109TMC2    C7 1703   2.285   1.084   0.308 -0.1829 -0.3002  0.1480
  109TMC2    C8 1704   2.070   1.000  17.640 -0.7926 -0.3390 -0.5467
  109TMC2    O1 1705   2.258   1.170   0.392 -0.1724 -0.3621  0.1024
  109TMC2    O2 1706   2.180   0.993  17.586 -0.5153  0.6479  0.0994
  109TMC2    O5 1707   1.974   1.076  17.600 -0.3553  0.3607 -0.5017
  109TMC2    H5 1708   1.978   1.093  17.503  0.6536 -0.4832 -0.6025
  110MPD2     C 1709   1.562   1.415   0.578  0.0038  1.0167  0.0528
  110MPD2    C1 1710   1.692   1.415   0.613 -0.3083 -0.0573 -0.6049
  110MPD2    C2 1711   1.790   1.354   0.536  0.1744 -0.4242  0.2028
  110MPD2    C3 1712   1.755   1.265   0.437  0.3679  0.1387 -0.4235
  110MPD2    C4 1713   1.621   1.268   0.394  1.0463 -0.0555  0.0147
  110MPD2    C5 1714   1.524   1.346   0.461  0.7600 -0.2974 -0.3781
  110MPD2     H 1715   1.895   1.345   0.562  0.1492  0.5933  0.6382
  110MPD2    H1 1716   1.583   1.221   0.304  0.1407  3.8135 -1.6032
  110MPD2    H2 1717   1.486   1.469   0.634  0.6154  2.9148 -0.9307
  110MPD2    H3 1718   1.426   1.357   0.414  0.0355  2.3999  1.7365
  110MPD2     N 1719   1.860   1.196   0.369  0.3336  0.0983  0.1030
  110MPD2    H5 1720   1.958   1.212   0.390  0.8271 -0.8133 -1.4819
  110MPD2    N1 1721   1.721   1.495   0.729  0.2873  0.2359 -0.5427
  110MPD2    H7 1722   1.656   1.552   0.783 -0.0248 -1.3991  0.7856
  111TMC2    C1 1723   2.606   0.822  11.848 -0.1768  0.0898  0.1879
  111TMC2    C2 1724   2.696   0.907  11.914  0.1893  0.9396 -0.4237
  111TMC2    C3 1725   2.754   0.849  12.029  0.2194  0.1776  0.2836
  111TMC2    C4 1726   2.591   0.687  11.893 -0.8091 -0.3714  0.0689
  111TMC2    C5 1727   2.648   0.641  12.014 -0.1912  0.4247  0.5462
  111TMC2    C6 1728   2.720   0.729  12.083 -0.2277 -0.3416  0.3332
  111TMC2     C 1729   2.533   0.864  11.724 -0.5356  0.6722 -0.1825
  111TMC2     O 1730   2.584   0.939  11.642  0.2535  0.8367  0.1151
  111TMC2     H 1731   2.729   1.001  11.873  1.7778 -0.0949 -1.5066
  111TMC2    H1 1732   2.527   0.616  11.843  3.0196 -2.3569 -2.0219
  111TMC2    H2 1733   2.770   0.708  12.177  0.8638 -1.3030 -0.4494
  111TMC2    C7 1734   2.600   0.522  12.074  0.3371  0.0681 -0.2147
  111TMC2    C8 1735   2.816   0.937  12.128 -0.6046 -0.0782 -0.4783
  111TMC2    O1 1736   2.508   0.462  12.027 -1.2213 -0.6834 -0.2608
  111TMC2    O2 1737   2.908   0.898  12.198  0.5899 -0.4000 -0.2707
  111TMC2    O5 1738   2.732   1.036  12.152  0.1821 -0.6581 -0.7233
  111TMC2    H5 1739   2.648   1.034  12.101  0.5612 -0.8131 -1.3435
  112MPD2     C 1740   2.113   0.828  11.429  0.3080  0.7465 -0.4807
  112MPD2    C1 1741   2.232   0.890  11.404  0.1129  0.3813  0.3917
  112MPD2    C2 1742   2.333   0.882  11.497  0.1844  0.3805 -0.0934
  112MPD2    C3 1743   2.316   0.811  11.614  0.5225 -0.1965  0.1554
  112MPD2    C4 1744   2.202   0.736  11.633  0.0981  0.2318 -0.0069
  112MPD2    C5 1745   2.102   0.746  11.536  0.3833  0.3909  0.6054
  112MPD2     H 1746   2.423   0.936  11.468  0.9689  0.2838  2.0922
  112MPD2    H1 1747   2.204   0.661  11.712 -0.4942 -0.8430 -1.0162
  112MPD2    H2 1748   2.033   0.831  11.357  1.2318 -1.1579 -1.5640
  112MPD2    H3 1749   2.017   0.680  11.546  0.1247  0.7610  0.8426
  112MPD2     N 1750   2.416   0.793  11.717  0.2684  0.0123  0.7057
  112MPD2    H5 1751   2.385   0.730  11.790  2.8152 -0.7204  1.1599
  112MPD2    N1 1752   2.252   0.960  11.281 -0.2674  0.2178  0.2073
  112MPD2    H7 1753   2.345   0.999  11.273  0.3756 -1.1478  1.0818
  113TMC2    C1 1754   0.454   3.552   0.868 -0.1008  0.6353 -0.0501
  113TMC2    C2 1755   0.427   3.617   0.752  0.5195  0.3949  0.3520
  113TMC2    C3 1756   0.339   3.551   0.671  0.1426 -0.8013 -0.4562
  113TMC2    C4 1757   0.407   3.421   0.896 -0.3330  0.3241  0.2000
  113TMC2    C5 1758   0.315   3.364   0.810 -0.2045 -0.4975  0.2731
  113TMC2    C6 1759   0.277   3.432   0.695  0.6828  0.5280 -0.1203
  113TMC2     C 1760   0.566   3.609   0.941 -0.4449 -0.3797  0.5059
  113TMC2     O 1761   0.619   3.710   0.890 -0.1538 -0.5049 -0.4390
  113TMC2     H 1762   0.470   3.715   0.734 -0.9358  0.8691 -0.5539
  113TMC2    H1 1763   0.444   3.357   0.975  0.4536  0.5252 -0.0084
  113TMC2    H2 1764   0.198   3.402   0.627  0.3431  1.2719 -0.0488
  113TMC2    C7 1765   0.254   3.231   0.825 -0.4090 -0.1768  0.6899
  113TMC2    C8 1766   0.295   3.624   0.556 -0.7001 -0.5414  0.8557
  113TMC2    O1 1767   0.235   3.168   0.721 -0.6000  0.6280 -0.5276
  113TMC2    O2 1768   0.275   3.743   0.554 -0.2536 -0.3592 -0.1657
  113TMC2    O5 1769   0.289   3.537   0.452  0.9504 -0.2037 -0.1416
  113TMC2    H5 1770   0.356   3.471   0.480  0.2603 -0.5135  0.7779
  114MPD2     C 1771   0.961   3.626   1.250  0.2870 -0.1644  0.1067
  114MPD2    C1 1772   0.896   3.726   1.188  0.2873 -0.0241 -0.1642
  114MPD2    C2 1773   0.782   3.698   1.130 -0.4001  0.5664  0.0734
  114MPD2    C3 1774   0.726   3.570   1.117 -0.1801 -0.0625 -0.2775
  114MPD2    C4 1775   0.788   3.468   1.185 -0.3126 -0.3011  0.3884
  114MPD2    C5 1776   0.900   3.502   1.255 -0.0963  0.6528  0.1854
  114MPD2     H 1777   0.718   3.782   1.106  0.3894  0.8916 -0.8475
  114MPD2    H1 1778   0.739   3.372   1.184 -0.8726  0.0291 -2.3881
  114MPD2    H2 1779   1.060   3.649   1.287  1.4182 -2.7046 -1.3946
  114MPD2    H3 1780   0.954   3.429   1.315 -1.8347 -0.0733  0.8437
  114MPD2     N 1781   0.609   3.535   1.046  0.7606  0.1373  0.0788
  114MPD2    H5 1782   0.556   3.448   1.057  1.2581 -0.5208 -2.6932
  114MPD2    N1 1783   0.939   3.855   1.188 -0.2859  0.5443  0.4421
  114MPD2    H7 1784   0.879   3.922   1.142 -0.5574  0.9699  1.4217
  115TMC2    C1 1785   1.098   1.818  17.635 -0.3550  0.3109  0.3468
  115TMC2    C2 1786   1.223   1.783  17.661  0.1478  0.2128 -0.0021
  115TMC2    C3 1787   1.320   1.871  17.623  0.7607  0.1023 -0.2260
  115TMC2    C4 1788   1.064   1.940  17.585 -0.2589 -0.2250  0.6726
  115TMC2    C5 1789   1.163   2.026  17.552  0.2370  0.2321 -0.8416
  115TMC2    C6 1790   1.298   1.998  17.571 -0.0475 -0.1800  0.3274
  115TMC2     C 1791   1.000   1.709  17.648  0.1515  0.1612 -0.0353
  115TMC2     O 1792   1.035   1.597  17.613 -0.4056  0.2350  0.2168
  115TMC2     H 1793   1.242   1.682  17.695  0.7406  0.3282  0.0049
  115TMC2    H1 1794   0.961   1.963  17.560 -0.0009 -2.0250 -2.0004
  115TMC2    H2 1795   1.376   2.068  17.546 -1.7009  1.4632 -0.2253
  115TMC2    C7 1796   1.120   2.154  17.506  0.5135 -0.3045 -0.1437
  115TMC2    C8 1797   1.450   1.824  17.676  0.2226  1.0007  0.8125
  115TMC2    O1 1798   1.000   2.169  17.508 -0.3928 -0.1455  0.0759
  115TMC2    O2 1799   1.488   1.711  17.704  0.5118  0.2835 -0.1738
  115TMC2    O5 1800   1.524   1.938  17.707  0.1427  0.0731  0.4862
  115TMC2    H5 1801   1.477   2.022  17.725 -0.4659  0.0643 -1.0824
  116MPD2     C 1802   0.518   1.516  17.717  0.1743 -0.0311  0.6467
  116MPD2    C1 1803   0.635   1.459  17.672 -0.2932 -0.0787  0.0770
  116MPD2    C2 1804   0.752   1.537  17.675  0.1652 -0.1539  0.0902
  116MPD2    C3 1805   0.763   1.670  17.707  0.0789 -0.1468 -0.7377
  116MPD2    C4 1806   0.640   1.722  17.747  0.2129 -0.3892  0.1115
  116MPD2    C5 1807   0.526   1.652   0.010  0.0687 -0.0849 -0.6630
  116MPD2     H 1808   0.843   1.486  17.645  1.3607  2.6186 -0.9697
  116MPD2    H1 1809   0.628   1.826   0.027 -0.7792 -1.0994  2.3412
  116MPD2    H2 1810   0.424   1.464  17.707  1.1271 -2.2497  3.3871
  116MPD2    H3 1811   0.430   1.698   0.034 -0.3370  0.2463 -2.8898
  116MPD2     N 1812   0.878   1.749  17.692 -0.0494 -0.9167  0.7368
  116MPD2    H5 1813   0.874   1.848  17.716  0.3368 -0.7225  0.0133
  116MPD2    N1 1814   0.627   1.334  17.617 -0.8893 -0.0142 -0.4438
  116MPD2    H7 1815   0.532   1.299  17.612 -0.7755 -0.6584  1.9060
  117TMC2    C1 1816   4.562   2.649  13.820 -0.5303  0.8491  0.1042
  117TMC2    C2 1817   4.661   2.560  13.855 -0.1020 -0.1540 -0.0312
  117TMC2    C3 1818   0.048   2.606  13.886  0.3581 -0.0598  0.1382
  117TMC2    C4 1819   4.582   2.786  13.814  0.2186 -0.1689 -0.6002
  117TMC2    C5 1820   4.711   2.826  13.855 -0.2538 -0.1343 -0.7104
  117TMC2    C6 1821   0.076   2.740  13.894 -0.0844 -0.2476  0.3474
  117TMC2     C 1822   4.472   2.590  13.723 -0.4917  0.0309 -0.6110
  117TMC2     O 1823   4.442   2.470  13.730  0.0437  0.0987  0.8897
  117TMC2     H 1824   4.648   2.454  13.838 -1.9160  0.0845 -0.1682
  117TMC2    H1 1825   4.500   2.854  13.793  1.0921  1.0270 -0.1147
  117TMC2    H2 1826   0.175   2.778  13.916  0.5701  0.0295 -3.0634
  117TMC2    C7 1827   4.708   2.969  13.906  0.1362  0.3523 -0.0628
  117TMC2    C8 1828   0.129   2.508  13.937 -0.5381  0.1033 -0.5682
  117TMC2    O1 1829   0.070   3.041  13.881  0.3221  0.5575  0.2882
  117TMC2    O2 1830   0.096   2.394  13.922 -0.4716 -0.3692 -0.1800
  117TMC2    O5 1831   0.168   2.556  14.059 -0.0374 -0.0461  0.2125
  117TMC2    H5 1832   0.166   2.654  14.069 -4.4430 -0.2254  1.2985
  118MPD2     C 1833   4.456   3.084  14.147  0.1342 -0.2973  0.3302
  118MPD2    C1 1834   4.565   3.096  14.065  0.2720  0.4254 -0.8838
  118MPD2    C2 1835   4.622   3.218  14.045 -0.1161 -0.0523 -1.2646
  118MPD2    C3 1836   4.577   3.331  14.110  0.4190 -0.3684 -0.9347
  118MPD2    C4 1837   4.467   3.315  14.191  0.2479 -0.1031  0.2363
  118MPD2    C5 1838   4.397   3.193  14.199 -0.3244 -0.4680  0.0812
  118MPD2     H 1839   4.714   3.224  13.988  1.5486 -0.2047  1.4486
  118MPD2    H1 1840   4.416   3.401  14.234 -0.9639  0.3536 -2.0925
  118MPD2    H2 1841   4.407   2.989  14.164  0.1032 -0.1445  1.1234
  118MPD2    H3 1842   4.300   3.184  14.246 -0.0710 -0.0617  0.6767
  118MPD2     N 1843   4.630   3.461  14.087 -0.5414 -0.0173  0.1693
  118MPD2    H5 1844   4.565   3.539  14.098  1.7171  1.4233  3.3947
  118MPD2    N1 1845   4.604   2.980  13.993  0.0716 -0.3056  0.2568
  118MPD2    H7 1846   4.549   2.895  14.002 -2.6187  1.4528  0.5031
  119TMC2    C1 1847   2.365   3.627  13.344 -0.3111 -0.3413  0.2713
  119TMC2    C2 1848   2.376   3.494  13.306  0.2495 -0.2870 -0.5933
  119TMC2    C3 1849   2.382   3.398  13.400  0.1242  0.0435 -0.1215
  119TMC2    C4 1850   2.343   3.649  13.478 -0.1355 -0.5290  0.5811
  119TMC2    C5 1851   2.329   3.549  13.570 -0.0382 -0.8998  0.4996
  119TMC2    C6 1852   2.346   3.426  13.528 -0.1509 -0.3740  0.0329
  119TMC2     C 1853   2.395   3.738  13.260  0.1180  0.1425  0.3251
  119TMC2     O 1854   2.442   3.826  13.331  0.0855  0.1091 -0.0344
  119TMC2     H 1855   2.394   3.473  13.202  0.2808 -1.4710 -0.3476
  119TMC2    H1 1856   2.310   3.745  13.514 -0.0379  0.7618 -2.7327
  119TMC2    H2 1857   2.345   3.340  13.595  0.0148 -2.1922 -2.2913
  119TMC2    C7 1858   2.351   3.572  13.709 -0.2377  0.1659 -0.7188
  119TMC2    C8 1859   2.468   3.286  13.352 -0.1114 -0.0670  0.4507
  119TMC2    O1 1860   2.409   3.682  13.730 -0.0657  0.4507 -0.2304
  119TMC2    O2 1861   2.514   3.286  13.239 -0.1417  0.3960  0.6973
  119TMC2    O5 1862   2.469   3.188  13.451 -0.4159  0.2098 -0.3943
  119TMC2    H5 1863   2.452   3.224  13.540 -0.6941 -0.7482 -0.0516
  120MPD2     C 1864   2.480   3.943  12.783 -0.2178 -0.6079 -0.1266
  120MPD2    C1 1865   2.539   3.972  12.898  0.4178 -0.1127  0.2677
  120MPD2    C2 1866   2.497   3.903  13.015  0.9534  0.0469  0.1278
  120MPD2    C3 1867   2.422   3.791  13.010 -0.3430  0.4378  0.4420
  120MPD2    C4 1868   2.375   3.753  12.882  0.2857 -0.1301 -0.0579
  120MPD2    C5 1869   2.397   3.836  12.777 -0.4804 -0.0143  0.0960
  120MPD2     H 1870   2.528   3.942  13.111  3.0231  0.0443 -0.5323
  120MPD2    H1 1871   2.323   3.658  12.869  0.0535  0.3121 -2.4268
  120MPD2    H2 1872   2.503   4.007  12.698  0.3373  0.1211  0.5644
  120MPD2    H3 1873   2.353   3.805  12.683 -0.7771  1.7581 -0.3589
  120MPD2     N 1874   2.378   3.715  13.122  1.1320 -0.4763  0.0418
  120MPD2    H5 1875   2.335   3.627  13.093 -0.0019  0.0466  0.1087
  120MPD2    N1 1876   2.621   4.083  12.886  0.1706 -0.1867  0.4033
  120MPD2    H7 1877   2.625   4.118  12.791  1.6771  1.6488  1.1325
  121TMC2    C1 1878   4.177   0.944  13.874 -0.0016 -0.1422 -0.1801
  121TMC2    C2 1879   4.261   0.839  13.893  0.0942 -0.2963  0.3602
  121TMC2    C3 1880   4.207   0.724  13.936  0.1126 -0.0860 -0.0253
  121TMC2    C4 1881   4.038   0.936  13.876 -0.1799  0.9194  0.0974
  121TMC2    C5 1882   3.988   0.815  13.907 -0.3797 -0.1528 -0.2051
  121TMC2    C6 1883   4.070   0.713  13.946 -0.4580  0.4399  0.3002
  121TMC2     C 1884   4.231   1.073  13.834 -0.0962  0.4164 -0.1832
  121TMC2     O 1885   4.156   1.169  13.825 -0.6881  0.3390  0.3542
  121TMC2     H 1886   4.368   0.853  13.881  0.3982 -1.4387  1.7425
  121TMC2    H1 1887   3.982   1.028  13.866  0.7642  1.5243  0.3376
  121TMC2    H2 1888   4.031   0.620  13.985  1.2693 -0.2234  0.4401
  121TMC2    C7 1889   3.848   0.795  13.913 -0.0494  0.4685  0.4773
  121TMC2    C8 1890   4.292   0.605  13.958  0.0597 -0.7276  0.4034
  121TMC2    O1 1891   3.816   0.692  13.974 -0.7029  0.0645 -0.3264
  121TMC2    O2 1892   4.262   0.482  13.965  0.0159  0.4355  0.0248
  121TMC2    O5 1893   4.394   0.656  14.029  0.7328 -0.0804 -0.1630
  121TMC2    H5 1894   4.387   0.751  14.049 -0.8619 -0.3460  0.5432
  122MPD2     C 1895   4.417   1.309  13.848  0.7339  0.8301  0.6011
  122MPD2    C1 1896   4.439   1.192  13.779 -0.8653 -0.2108 -0.3726
  122MPD2    C2 1897   4.554   1.189  13.699 -0.1114  0.3276  0.5203
  122MPD2    C3 1898   4.637   1.294  13.681 -0.1999  0.1961  0.0176
  122MPD2    C4 1899   4.613   1.407  13.757 -0.1777  0.0371 -0.3750
  122MPD2    C5 1900   4.500   1.415  13.829  0.4558 -0.6412  0.0648
  122MPD2     H 1901   4.572   1.091  13.656 -0.1708  0.4085  0.3137
  122MPD2    H1 1902   4.670   1.499  13.743  1.5989 -0.9130  0.6226
  122MPD2    H2 1903   4.332   1.318  13.915 -0.8078 -0.9524 -1.1226
  122MPD2    H3 1904   4.472   1.515  13.861 -2.4325 -0.6633 -2.3023
  122MPD2     N 1905   0.019   1.299  13.605 -0.6920 -0.3729  0.0795
  122MPD2    H5 1906   0.072   1.386  13.599 -3.9867  1.5039 -1.3196
  122MPD2    N1 1907   4.361   1.078  13.794  0.1078 -0.2924 -0.0034
  122MPD2    H7 1908   4.408   0.993  13.766  1.9644  0.0727  1.9334
  123TMC2    C1 1909   2.663   0.361  11.258 -0.1317  0.1067  0.3982
  123TMC2    C2 1910   2.757   0.438  11.314 -0.0348  0.1191  0.0317
  123TMC2    C3 1911   2.861   0.462  11.227  0.2247 -0.2803 -0.3464
  123TMC2    C4 1912   2.663   0.325  11.127  0.6510  1.1748 -0.8981
  123TMC2    C5 1913   2.763   0.357  11.042  0.0817 -0.3115  0.0446
  123TMC2    C6 1914   2.872   0.425  11.095  1.0010 -0.2443  0.5805
  123TMC2     C 1915   2.586   0.282  11.354 -0.1217  0.1787  0.6196
  123TMC2     O 1916   2.596   0.304  11.473 -0.2196 -0.5829 -0.4542
  123TMC2     H 1917   2.771   0.457  11.420  0.3364 -0.0091  0.0049
  123TMC2    H1 1918   2.580   0.271  11.082 -0.5120  1.0938  1.3419
  123TMC2    H2 1919   2.957   0.438  11.029 -1.0595 -1.2511 -2.2716
  123TMC2    C7 1920   2.766   0.280  10.916  0.3314  0.1681 -0.4752
  123TMC2    C8 1921   2.960   0.550  11.288  0.4689  0.5666 -0.0760
  123TMC2    O1 1922   2.683   0.192  10.897  0.2794 -0.1287 -0.8019
  123TMC2    O2 1923   2.917   0.635  11.366  0.2353 -0.5641  0.5445
  123TMC2    O5 1924   3.057   0.564  11.197  1.0150 -0.2036  0.4285
  123TMC2    H5 1925   3.078   0.473  11.167  2.7972  0.0840  0.8009
  124MPD2     C 1926   2.300   4.614  11.472 -0.0851 -0.1077  0.0300
  124MPD2    C1 1927   2.370   4.583  11.357 -0.0056 -0.0798 -0.1151
  124MPD2    C2 1928   2.452   4.677  11.302 -0.1966 -0.1729 -0.3238
  124MPD2    C3 1929   2.470   0.064  11.364  0.3028 -0.1261  0.2708
  124MPD2    C4 1930   2.404   0.092  11.483  0.3918 -0.1812 -0.4231
  124MPD2    C5 1931   2.312   4.736  11.531 -0.6189 -0.6107 -0.2836
  124MPD2     H 1932   2.517   4.655  11.219  1.0333  1.7573  0.1177
  124MPD2    H1 1933   2.394   0.190  11.529  1.3285  0.1324 -0.8888
  124MPD2    H2 1934   2.227   4.543  11.510  1.4714 -0.9791  1.3926
  124MPD2    H3 1935   2.267   0.025  11.626  1.2091  1.4144  0.0132
  124MPD2     N 1936   2.546   0.161  11.302  0.1474 -0.6173  0.0502
  124MPD2    H5 1937   2.593   0.122  11.220 -0.0495 -1.2245  0.2237
  124MPD2    N1 1938   2.349   4.457  11.290  0.0976  0.1851  0.1427
  124MPD2    H7 1939   2.276   4.397  11.326 -0.0078  0.6942  0.7843
  125TMC2    C1 1940   4.349   2.615  10.264  0.6098  0.1194 -0.2453
  125TMC2    C2 1941   4.320   2.716  10.356 -0.4707  0.5467  0.4154
  125TMC2    C3 1942   4.434   2.765  10.416  0.3045  0.1133  0.5943
  125TMC2    C4 1943   4.476   2.561  10.239 -0.0973  0.2462 -0.0594
  125TMC2    C5 1944   4.581   2.625  10.299  0.1556  0.2618 -0.6074
  125TMC2    C6 1945   4.567   2.721  10.397 -0.2116  0.3676 -0.2223
  125TMC2     C 1946   4.238   2.583  10.180 -0.0376 -0.3585 -0.2297
  125TMC2     O 1947   4.149   2.664  10.162  0.3712  0.5848 -0.4242
  125TMC2     H 1948   4.220   2.758  10.358 -0.7139 -0.0035 -0.3212
  125TMC2    H1 1949   4.493   2.498  10.152  2.0287 -0.7202  1.0406
  125TMC2    H2 1950   4.645   2.788  10.430 -2.9355  2.9854  0.8440
  125TMC2    C7 1951   4.720   2.624  10.252  0.3471  0.2925  0.3696
  125TMC2    C8 1952   4.415   2.823  10.549 -0.3384  0.4562 -0.3066
  125TMC2    O1 1953   0.048   2.717  10.293  0.2495  0.3268 -0.0944
  125TMC2    O2 1954   4.500   2.826  10.637  0.8976  0.3690 -0.2872
  125TMC2    O5 1955   4.326   2.923  10.522  0.2649 -0.3137  0.1024
  125TMC2    H5 1956   4.263   2.907  10.448 -1.7922 -0.7328  1.9387
  126MPD1     C 1957   4.089   2.336   9.755  0.3206  0.0643  0.7945
  126MPD1    C1 1958   4.137   2.244   9.845  0.2213  0.5402  0.2381
  126MPD1    C2 1959   4.211   2.290   9.955  0.0054 -0.2335  0.8939
  126MPD1    C3 1960   4.202   2.419   9.997  0.5790  0.8428 -0.1022
  126MPD1    C4 1961   4.129   2.506   9.915 -0.4723 -0.2455  0.1559
  126MPD1    C5 1962   4.081   2.465   9.796  0.5933  0.0975  0.0757
  126MPD1     H 1963   4.270   2.216  10.009  2.1969  0.9795  0.1813
  126MPD1    H1 1964   4.122   2.611   9.941 -2.2583 -0.5197  0.7703
  126MPD1    H2 1965   4.054   2.306   9.657  0.1446 -0.5020  1.0372
  126MPD1    H3 1966   4.030   2.539   9.736  2.0570  3.5114  3.0496
  126MPD1     N 1967   4.262   2.461  10.121  0.5341  0.5757 -0.1617
  126MPD1    H5 1968   4.318   2.396  10.175 -0.5845 -1.1296 -1.0615
  126MPD1    N1 1969   4.153   2.113   9.794  0.2419 -0.7957  0.1426
  126MPD1    H6 1970   4.156   2.056   9.878  0.1674 -1.9997 -0.6736
  126MPD1    H7 1971   4.072   2.089   9.737  0.1692  0.6790 -0.3817
  127TMC2    C1 1972   4.685   0.435   9.807 -0.1815  0.0878  0.1170
  127TMC2    C2 1973   4.730   0.400   9.933  0.8431  0.2140  0.7420
  127TMC2    C3 1974   4.638   0.359  10.023  0.0887 -0.1642 -1.1609
  127TMC2    C4 1975   4.549   0.433   9.770  0.6527 -0.0554 -0.1796
  127TMC2    C5 1976   4.459   0.395   9.872 -0.1804  0.3637  0.1799
  127TMC2    C6 1977   4.504   0.352   9.996 -0.0394  0.4048  0.0393
  127TMC2     C 1978   0.038   0.527   9.732  0.0859 -0.2253  0.2876
  127TMC2     O 1979   0.140   0.570   9.788 -0.2463 -0.4271  0.6916
  127TMC2     H 1980   0.098   0.405   9.958  0.9188 -0.0812  0.4741
  127TMC2    H1 1981   4.511   0.457   9.672 -0.9761  1.7368  0.9083
  127TMC2    H2 1982   4.430   0.333  10.073 -1.6577 -3.1349 -2.3956
  127TMC2    C7 1983   4.323   0.385   9.838 -0.1881 -0.3335 -0.0512
  127TMC2    C8 1984   4.691   0.339  10.161  1.0242 -0.1106 -0.2942
  127TMC2    O1 1985   4.281   0.466   9.756 -0.2588  0.4048 -0.1684
  127TMC2    O2 1986   0.059   0.377  10.204  0.2934 -0.1202 -0.1854
  127TMC2    O5 1987   4.629   0.231  10.210 -0.0778 -0.3425 -0.4541
  127TMC2    H5 1988   4.549   0.195  10.164  1.6192 -1.7354 -2.3293
  128MPD2     C 1989   0.009   0.676   9.391  0.4069 -0.1913  0.0404
  128MPD2    C1 1990   0.064   0.655   9.517  0.4311 -0.0398  0.2075
  128MPD2    C2 1991   0.199   0.707   9.538  0.2953 -0.1667 -0.5894
  128MPD2    C3 1992   0.255   0.796   9.442 -0.2126 -0.4321 -0.6119
  128MPD2    C4 1993   0.191   0.818   9.321  0.7497 -0.4864 -0.1273
  128MPD2    C5 1994   0.076   0.754   9.295 -0.3505  0.0393  0.4561
  128MPD2     H 1995   0.257   0.684   9.627  3.2764 -0.7045 -2.6424
  128MPD2    H1 1996   0.226   0.889   9.246  0.4321 -0.8017 -0.5781
  128MPD2    H2 1997   4.663   0.614   9.361 -0.4644  0.0222  1.9881
  128MPD2    H3 1998   0.022   0.772   9.203  0.5277  2.6953  0.4698
  128MPD2     N 1999   0.378   0.858   9.471 -0.6672  0.4366  0.2702
  128MPD2    H5 2000   0.432   0.810   9.542  0.0945 -1.1175 -1.3438
  128MPD2    N1 2001   4.732   0.570   9.611 -0.2383 -0.0469 -0.1132
  128MPD2    H7 2002   4.647   0.526   9.578  0.1891 -0.7400 -0.2957
  129TMC2    C1 2003   3.692   0.792   1.261 -0.0027  0.1160 -0.4144
  129TMC2    C2 2004   3.632   0.896   1.328  0.1415 -0.6651 -0.2359
  129TMC2    C3 2005   3.507   0.872   1.378 -0.2459 -0.7475 -0.4642
  129TMC2    C4 2006   3.628   0.674   1.229  0.2571 -0.3882  0.7356
  129TMC2    C5 2007   3.507   0.653   1.299  0.0908  0.0953 -0.2995
  129TMC2    C6 2008   3.451   0.748   1.380 -0.3066 -0.5755  0.0364
  129TMC2     C 2009   3.819   0.817   1.193 -0.5094 -0.5507 -0.4299
  129TMC2     O 2010   3.860   0.735   1.111 -0.4236 -0.2550  0.2849
  129TMC2     H 2011   3.668   0.998   1.331  0.0475 -0.6344 -0.1227
  129TMC2    H1 2012   3.659   0.605   1.151  1.0522  0.4774  0.2789
  129TMC2    H2 2013   3.353   0.732   1.425 -0.6339 -2.3362 -1.3079
  129TMC2    C7 2014   3.420   0.539   1.267  0.1663 -0.1700 -0.2087
  129TMC2    C8 2015   3.434   0.984   1.429 -0.4138 -0.2793  0.5239
  129TMC2    O1 2016   3.302   0.544   1.287 -0.0342  0.4090  0.4246
  129TMC2    O2 2017   3.438   1.096   1.384 -0.2378  0.4176 -0.2944
  129TMC2    O5 2018   3.363   0.951   1.535 -0.4245 -0.4230  0.0748
  129TMC2    H5 2019   3.383   0.861   1.569  1.8274 -0.0143 -0.1558
  130MPD2     C 2020   4.042   0.960   1.067  0.2937  0.7579  0.1036
  130MPD2    C1 2021   3.978   1.002   1.178 -0.1991  0.2294 -0.2611
  130MPD2    C2 2022   4.012   1.123   1.233 -0.3923 -0.2027  0.0038
  130MPD2    C3 2023   4.105   1.212   1.186  0.2258  0.3715  0.2730
  130MPD2    C4 2024   4.170   1.166   1.069 -0.2934  0.2613 -0.2943
  130MPD2    C5 2025   4.142   1.043   1.012  0.5300 -0.8228  0.3515
  130MPD2     H 2026   3.961   1.141   1.328  1.5750  0.4187  0.9417
  130MPD2    H1 2027   4.235   1.243   1.027  1.3414 -1.7171 -1.3938
  130MPD2    H2 2028   4.037   0.863   1.019  2.2077 -0.2724  1.9901
  130MPD2    H3 2029   4.196   1.012   0.924 -0.7122 -0.6453 -0.4713
  130MPD2     N 2030   4.134   1.342   1.244 -0.0215  0.1369  0.2552
  130MPD2    H5 2031   4.212   1.396   1.208  1.9459 -3.7577 -1.3453
  130MPD2    N1 2032   3.879   0.928   1.246  0.0633  0.4972  0.2277
  130MPD2    H7 2033   3.847   0.967   1.334  0.2319  2.7252 -0.7236
  131TMC2    C1 2034   2.584   0.177  10.333 -0.2117  0.5157 -0.0480
  131TMC2    C2 2035   2.571   0.242  10.453  0.6016  0.5801  0.4312
  131TMC2    C3 2036   2.660   0.338  10.482  0.0377  0.3031 -0.7991
  131TMC2    C4 2037   2.670   0.218  10.237 -0.6480  0.2857  0.0577
  131TMC2    C5 2038   2.754   0.323  10.274  0.2846  0.5467  0.0138
  131TMC2    C6 2039   2.753   0.380  10.395  0.4359 -0.1276 -0.1572
  131TMC2     C 2040   2.523   0.041  10.312  0.3757  0.2754 -0.2160
  131TMC2     O 2041   2.494   0.006  10.197  0.0481  0.2880 -0.0957
  131TMC2     H 2042   2.505   0.210  10.533 -0.2648 -3.5387 -1.9221
  131TMC2    H1 2043   2.676   0.174  10.138  0.5065  0.0902  0.2069
  131TMC2    H2 2044   2.829   0.456  10.410 -0.3545  0.9338 -1.4966
  131TMC2    C7 2045   2.870   0.337  10.182 -0.4940 -0.5411 -1.2082
  131TMC2    C8 2046   2.619   0.433  10.582  0.0425  0.6675 -0.5117
  131TMC2    O1 2047   2.912   0.232  10.135 -0.8822 -0.1953  0.7628
  131TMC2    O2 2048   2.517   0.415  10.646  0.5101  0.3213  0.4053
  131TMC2    O5 2049   2.660   0.550  10.542 -0.3057  0.0620 -0.5774
  131TMC2    H5 2050   2.610   0.622  10.587  1.9368  0.0892  1.8302
  132MPD2     C 2051   2.408   4.507  10.330  0.0141 -1.0392 -0.1978
  132MPD2    C1 2052   2.465   4.572  10.435 -0.3163  0.0717  0.3467
  132MPD2    C2 2053   2.465   4.507  10.559 -1.1629 -0.2683 -0.0422
  132MPD2    C3 2054   2.412   4.381  10.578  0.1125  0.1439  0.2693
  132MPD2    C4 2055   2.347   4.323  10.471  0.0740  0.2626  0.1045
  132MPD2    C5 2056   2.353   4.382  10.346  0.0683 -0.0501 -0.7593
  132MPD2     H 2057   2.506   4.560  10.645  1.0387 -1.4426 -0.3603
  132MPD2    H1 2058   2.304   4.224  10.481 -0.5434  0.5602  0.4733
  132MPD2    H2 2059   2.394   4.553  10.232 -0.6074  2.0398  1.3460
  132MPD2    H3 2060   2.295   4.339  10.265 -1.3165 -1.4927  0.9970
  132MPD2     N 2061   2.423   4.320  10.706  0.6882  0.2353 -0.1971
  132MPD2    H5 2062   2.479   4.359  10.781 -0.6917 -1.7570  1.8495
  132MPD2    N1 2063   2.504   4.714  10.433  0.3525  0.1890  0.3801
  132MPD2    H7 2064   2.526   0.012  10.526  0.0131 -0.7864  0.8412
  133TMC2    C1 2065   2.238   1.281   9.502 -0.6552  0.0871  0.0498
  133TMC2    C2 2066   2.279   1.282   9.634 -0.0747 -0.3679  0.6891
  133TMC2    C3 2067   2.358   1.385   9.671 -0.2940  0.5014  0.3308
  133TMC2    C4 2068   2.293   1.360   9.406 -0.1917 -0.2242 -0.3026
  133TMC2    C5 2069   2.387   1.453   9.451 -0.0691 -0.2284 -0.6470
  133TMC2    C6 2070   2.415   1.473   9.581 -0.3306  0.1981 -0.6385
  133TMC2     C 2071   2.154   1.167   9.466 -0.1862 -0.2698  0.4559
  133TMC2     O 2072   2.155   1.066   9.541 -0.7744  0.1939 -0.3754
  133TMC2     H 2073   2.231   1.218   9.708  0.1883 -0.2521  0.9603
  133TMC2    H1 2074   2.262   1.363   9.302 -1.1945 -1.5959 -0.0505
  133TMC2    H2 2075   2.483   1.550   9.618 -0.5100 -0.6586  1.4260
  133TMC2    C7 2076   2.432   1.555   9.363  0.0599 -0.1925 -0.4455
  133TMC2    C8 2077   2.442   1.341   9.784  0.1187 -0.0433 -0.6179
  133TMC2    O1 2078   2.362   1.570   9.263 -0.3815  0.4160  0.2161
  133TMC2    O2 2079   2.497   1.425   9.857 -0.3484  0.2635 -0.0228
  133TMC2    O5 2080   2.512   1.244   9.717  0.2057 -0.0977  0.2168
  133TMC2    H5 2081   2.473   1.216   9.631 -2.1111  1.8432  0.6358
  134MPD2     C 2082   1.893   1.195   9.192  0.0857 -0.4601  0.5017
  134MPD2    C1 2083   1.974   1.132   9.292 -0.1750 -0.2872 -0.4616
  134MPD2    C2 2084   1.947   1.002   9.325 -0.2189  0.0920 -0.5482
  134MPD2    C3 2085   1.853   0.928   9.257 -0.9685  0.2894  0.6405
  134MPD2    C4 2086   1.770   0.989   9.168  0.0571 -0.2963 -0.1643
  134MPD2    C5 2087   1.792   1.120   9.128  0.0820 -0.9644 -0.3104
  134MPD2     H 2088   2.005   0.957   9.405 -0.7964  0.6819  0.2031
  134MPD2    H1 2089   1.688   0.931   9.127 -1.5303  0.8249  1.4104
  134MPD2    H2 2090   1.914   1.297   9.164  0.0523 -0.4624  0.4678
  134MPD2    H3 2091   1.726   1.168   9.057 -0.3561  0.0185  0.7584
  134MPD2     N 2092   1.822   0.790   9.290 -0.3507 -0.2061  0.0840
  134MPD2    H5 2093   1.739   0.750   9.247 -1.4260  0.4701  1.5020
  134MPD2    N1 2094   2.073   1.209   9.356  0.6114  0.1260  0.5458
  134MPD2    H7 2095   2.085   1.304   9.324  1.4234  0.5393  2.0637
  135TMC2    C1 2096   3.906   1.802   9.809  0.3133  0.2773  0.0269
  135TMC2    C2 2097   3.936   1.676   9.839 -0.6172 -0.5853 -0.6339
  135TMC2    C3 2098   3.901   1.630   9.963 -0.3297 -0.4096 -0.1778
  135TMC2    C4 2099   3.812   1.866   9.890 -0.3334  0.1217  0.0558
  135TMC2    C5 2100   3.774   1.815  10.009  0.2985  0.4737 -0.7030
  135TMC2    C6 2101   3.824   1.694  10.051  0.1624 -0.1672  0.1697
  135TMC2     C 2102   3.953   1.871   9.693  0.4321  0.3855  0.2027
  135TMC2     O 2103   3.903   1.979   9.665  0.0421  0.4644 -0.1874
  135TMC2     H 2104   3.987   1.607   9.773  0.0730 -0.8645  0.1815
  135TMC2    H1 2105   3.774   1.965   9.871  0.1171  0.2864  0.0187
  135TMC2    H2 2106   3.803   1.660  10.152  0.4574 -1.2871 -0.1387
  135TMC2    C7 2107   3.692   1.894  10.098 -0.2049 -0.0793  0.5781
  135TMC2    C8 2108   3.964   1.510  10.025  0.5913  0.5358  0.6970
  135TMC2    O1 2109   3.690   2.015  10.081 -0.1173 -0.3857 -0.7175
  135TMC2    O2 2110   3.952   1.489  10.144  0.0816  0.3995 -0.3241
  135TMC2    O5 2111   4.041   1.450   9.936 -0.0654 -0.0564  0.2219
  135TMC2    H5 2112   4.101   1.386   9.978  0.7312  1.1686  0.9503
  136MPD2     C 2113   4.140   1.989   9.488  0.9197 -0.3010  0.1153
  136MPD2    C1 2114   4.144   1.854   9.531  0.0892 -0.3911  0.3415
  136MPD2    C2 2115   4.240   1.775   9.477  0.3030 -0.1667  0.0199
  136MPD2    C3 2116   4.338   1.819   9.390 -0.6319 -0.2025 -0.0292
  136MPD2    C4 2117   4.321   1.942   9.333 -0.3486  0.6065  0.1872
  136MPD2    C5 2118   4.224   2.028   9.375  0.2902  0.6435 -0.3172
  136MPD2     H 2119   4.247   1.677   9.523  1.2587 -1.5439 -3.0617
  136MPD2    H1 2120   4.379   1.976   9.248  2.6645  0.6931  2.3117
  136MPD2    H2 2121   4.075   2.062   9.537  1.1378  0.2882 -0.4715
  136MPD2    H3 2122   4.221   2.132   9.343  1.3771  1.3416  1.8282
  136MPD2     N 2123   4.448   1.734   9.349  0.1538  0.1906  0.2878
  136MPD2    H5 2124   4.517   1.779   9.289  0.7579 -2.1705 -0.7782
  136MPD2    N1 2125   4.061   1.806   9.632 -0.2886  0.2296  0.4953
  136MPD2    H7 2126   4.079   1.714   9.671 -0.3838 -0.0238 -0.0474
  137TMC2    C1 2127   4.172   1.092   9.779  0.1737 -0.3798  0.9210
  137TMC2    C2 2128   4.297   1.136   9.807  0.3326  0.8122  0.0507
  137TMC2    C3 2129   4.335   1.246   9.734  0.3113  0.4521 -1.1079
  137TMC2    C4 2130   4.078   1.164   9.705 -0.5031  0.1335 -1.4722
  137TMC2    C5 2131   4.123   1.282   9.645  0.3261  0.6130  0.4252
  137TMC2    C6 2132   4.251   1.326   9.657 -0.9817  0.5987 -0.3465
  137TMC2     C 2133   4.126   0.964   9.839  0.9997  0.2415  0.5450
  137TMC2     O 2134   4.195   0.929   9.934 -0.7263 -0.2385  0.0229
  137TMC2     H 2135   4.369   1.073   9.857  0.7016  0.6988 -0.6166
  137TMC2    H1 2136   3.984   1.122   9.671 -1.4864  0.9134  0.2845
  137TMC2    H2 2137   4.274   1.429   9.635 -2.3906  1.1118  0.5940
  137TMC2    C7 2138   4.027   1.389   9.614 -0.1570 -0.1468  0.4451
  137TMC2    C8 2139   4.479   1.250   9.738 -0.3792 -0.2667  0.0777
  137TMC2    O1 2140   4.054   1.497   9.565  0.1989 -0.7205 -0.2990
  137TMC2    O2 2141   4.552   1.187   9.811  0.5842 -0.4145  0.2444
  137TMC2    O5 2142   4.511   1.314   9.622  0.3203 -0.1540  0.1982
  137TMC2    H5 2143   4.453   1.388   9.595 -0.0121 -0.8835 -1.0475
  138MPD2     C 2144   3.834   0.737   9.768  0.2891 -0.2659  0.1346
  138MPD2    C1 2145   3.931   0.800   9.841 -0.3563  0.5481 -0.0491
  138MPD2    C2 2146   3.946   0.777   9.977  0.4361 -0.2960  0.2094
  138MPD2    C3 2147   3.862   0.689  10.045 -0.5671  0.3883 -0.2837
  138MPD2    C4 2148   3.767   0.621   9.966  0.4736 -0.4292 -1.0102
  138MPD2    C5 2149   3.761   0.645   9.837  0.2395 -0.2831 -0.0225
  138MPD2     H 2150   4.021   0.835  10.030  0.3631  0.3005 -0.3441
  138MPD2    H1 2151   3.705   0.539  10.002  1.7703 -1.7951 -1.9016
  138MPD2    H2 2152   3.802   0.762   9.668 -2.2198 -2.2195  0.4485
  138MPD2    H3 2153   3.678   0.596   9.788 -1.3969  1.4313  1.0381
  138MPD2     N 2154   3.884   0.667  10.184 -0.2938  0.1483  0.2210
  138MPD2    H5 2155   3.970   0.702  10.225  0.3698 -1.1432 -0.0595
  138MPD2    N1 2156   4.012   0.906   9.782 -0.0742 -0.0058  0.6615
  138MPD2    H7 2157   3.989   0.933   9.687  0.7356  0.9391  0.7277
  139TMC2    C1 2158   4.400   3.701  13.347 -0.5548  0.2631  0.2672
  139TMC2    C2 2159   4.470   3.805  13.286 -0.1353  0.0893  0.0375
  139TMC2    C3 2160   4.420   3.929  13.275 -0.0584 -0.0632  0.9927
  139TMC2    C4 2161   4.277   3.734  13.408 -0.0116 -0.5810 -0.0510
  139TMC2    C5 2162   4.233   3.863  13.394 -0.1490 -0.0277 -0.8764
  139TMC2    C6 2163   4.299   3.963  13.333  1.1059 -0.0052 -0.0178
  139TMC2     C 2164   4.467   3.573  13.366  0.2298  0.2787 -0.2605
  139TMC2     O 2165   4.561   3.552  13.285 -0.1769  0.8050 -0.6141
  139TMC2     H 2166   4.565   3.781  13.239  0.7573 -1.9769  2.8939
  139TMC2    H1 2167   4.219   3.657  13.457  0.6585 -2.4022 -2.1343
  139TMC2    H2 2168   4.269   4.067  13.323  0.7645  0.0509  1.4817
  139TMC2    C7 2169   4.112   3.910  13.459  0.5200 -0.2831  0.5763
  139TMC2    C8 2170   4.495   4.010  13.177 -0.0234  0.4362  0.8356
  139TMC2    O1 2171   4.131   4.007  13.530 -0.8146  0.1895 -0.2380
  139TMC2    O2 2172   4.545   3.973  13.071  0.5734 -0.3694 -0.2583
  139TMC2    O5 2173   4.504   4.132  13.233  0.3858  0.3663 -0.3476
  139TMC2    H5 2174   4.477   4.121  13.327  0.4777  1.0106 -0.2458
  140MPD2     C 2175   4.384   3.285  13.573 -0.5442 -0.1392 -0.4612
  140MPD2    C1 2176   4.468   3.374  13.502  0.1466 -0.4703 -0.0234
  140MPD2    C2 2177   4.598   3.328  13.482  0.4621  0.4639  0.6939
  140MPD2    C3 2178   4.642   3.199  13.527 -0.2053 -0.4474  1.0135
  140MPD2    C4 2179   4.554   3.117  13.599  0.0114  0.0695  0.8028
  140MPD2    C5 2180   4.425   3.157  13.609 -0.4063  0.6870  0.2293
  140MPD2     H 2181   4.679   3.396  13.456  1.0610 -0.2969  0.5763
  140MPD2    H1 2182   4.578   3.015  13.628  1.0751 -0.0190 -0.4159
  140MPD2    H2 2183   4.279   3.302  13.592 -0.8026  0.5383 -2.4619
  140MPD2    H3 2184   4.355   3.084  13.649 -1.9209  0.7113 -2.3528
  140MPD2     N 2185   0.040   3.157  13.497  0.1354 -0.5467 -0.3525
  140MPD2    H5 2186   0.100   3.230  13.462 -0.0223 -0.0826  0.3431
  140MPD2    N1 2187   4.415   3.500  13.465 -0.5506  0.5036  1.0486
  140MPD2    H7 2188   4.323   3.521  13.502 -1.1134  0.0790 -0.1099
  141TMC2    C1 2189   4.540   0.364  14.202 -0.0533 -0.3140  0.0990
  141TMC2    C2 2190   4.428   0.300  14.158  0.4747 -0.8387  0.2456
  141TMC2    C3 2191   4.309   0.352  14.215 -0.5593 -0.2044  0.0005
  141TMC2    C4 2192   4.537   0.473  14.279 -0.0764 -0.4525 -0.4391
  141TMC2    C5 2193   4.421   0.511  14.337 -0.5458  0.3451 -0.4355
  141TMC2    C6 2194   4.303   0.456  14.304  0.0466  0.4718 -0.8770
  141TMC2     C 2195   4.664   0.316  14.150 -0.4900 -0.2220 -0.2759
  141TMC2     O 2196   4.660   0.211  14.085 -0.6345  0.1217  0.4410
  141TMC2     H 2197   4.425   0.215  14.091  0.2674 -0.7380  0.1252
  141TMC2    H1 2198   4.631   0.527  14.284 -1.6728  2.1296  1.6400
  141TMC2    H2 2199   4.215   0.507  14.342 -0.5510  0.7051 -2.5656
  141TMC2    C7 2200   4.427   0.643  14.404  0.1099 -0.1516  0.7866
  141TMC2    C8 2201   4.198   0.260  14.224  0.7209 -0.2561 -0.3718
  141TMC2    O1 2202   4.332   0.717  14.385  0.0435 -0.0756 -0.1898
  141TMC2    O2 2203   4.193   0.158  14.161  0.7577 -0.0356 -0.2803
  141TMC2    O5 2204   4.112   0.301  14.322 -0.0984 -0.9987  0.6274
  141TMC2    H5 2205   4.146   0.384  14.362 -0.0136 -0.2762 -0.9668
  142TMC2    C1 2206   2.750   4.227  10.519  0.3294  0.1387 -1.0941
  142TMC2    C2 2207   2.717   4.233  10.386  0.1887 -0.1198 -0.2217
  142TMC2    C3 2208   2.726   4.360  10.336 -0.7841  0.1334 -0.0301
  142TMC2    C4 2209   2.794   4.332  10.595 -0.0233  0.0265 -0.3662
  142TMC2    C5 2210   2.806   4.456  10.535 -0.1869  0.1314  0.1674
  142TMC2    C6 2211   2.764   4.477  10.405 -0.3781 -0.1347 -0.2369
  142TMC2     C 2212   2.707   4.101  10.579 -0.4187 -0.6536 -0.0114
  142TMC2     O 2213   2.680   4.003  10.507 -0.2533  0.1832 -0.0781
  142TMC2     H 2214   2.699   4.149  10.320  0.2806  0.4954 -1.0355
  142TMC2    H1 2215   2.813   4.319  10.701 -0.3868  0.4635 -0.2504
  142TMC2    H2 2216   2.764   4.576  10.360 -2.3185  0.0920  0.2441
  142TMC2    C7 2217   2.842   4.568  10.619 -0.7087 -0.6098  0.4515
  142TMC2    C8 2218   2.719   4.369  10.194 -0.0262  0.1907 -0.6087
  142TMC2    O1 2219   2.835   4.568  10.739 -0.1320 -0.4111  0.7010
  142TMC2    O2 2220   2.753   4.464  10.125  0.4563  0.1011 -0.0380
  142TMC2    O5 2221   2.645   4.269  10.138  0.1445  0.3418 -0.5139
  142TMC2    H5 2222   2.585   4.213  10.192  0.6558 -0.6821 -1.0197
  143MPD2     C 2223   2.614   3.766  10.972 -0.2418 -0.2814  0.3054
  143MPD2    C1 2224   2.577   3.759  10.841  0.2870 -0.2255 -0.1923
  143MPD2    C2 2225   2.600   3.870  10.756  0.4235  0.3127  0.1316
  143MPD2    C3 2226   2.672   3.985  10.796 -0.6107  0.0620  0.4411
  143MPD2    C4 2227   2.701   3.988  10.930 -0.0836  0.6900 -0.2775
  143MPD2    C5 2228   2.682   3.880  11.018  0.1656 -0.8994 -0.3758
  143MPD2     H 2229   2.567   3.866  10.653  2.0936  0.7582 -0.4304
  143MPD2    H1 2230   2.754   4.073  10.972  0.2377 -0.6524  2.0310
  143MPD2    H2 2231   2.602   3.682  11.040  0.8819  0.8210  1.8484
  143MPD2    H3 2232   2.688   3.894  11.125  3.4518  2.6244 -1.0379
  143MPD2     N 2233   2.713   4.094  10.718 -0.2432 -0.4297 -0.2963
  143MPD2    H5 2234   2.744   4.176  10.769 -0.8237 -0.3696 -0.0415
  143MPD2    N1 2235   2.525   3.633  10.804  0.4987 -0.5053 -0.1673
  143MPD2    H7 2236   2.530   3.561  10.875 -0.8634 -0.9494 -0.5259
  144TMC2    C1 2237   0.988   2.877   1.001  0.1421 -0.0925  0.6285
  144TMC2    C2 2238   1.092   2.792   0.976  0.4805  0.3226 -0.4579
  144TMC2    C3 2239   1.121   2.705   1.084 -0.6051 -0.3628  0.6054
  144TMC2    C4 2240   0.913   2.874   1.119  0.3780  0.5678  0.0285
  144TMC2    C5 2241   0.952   2.788   1.218  0.4430 -0.0551  0.3814
  144TMC2    C6 2242   1.051   2.699   1.201 -0.2675  0.3488 -0.1343
  144TMC2     C 2243   0.945   2.959   0.889 -0.1245 -0.5555  0.0781
  144TMC2     O 2244   0.945   2.905   0.780 -0.0063  0.1911 -0.2123
  144TMC2     H 2245   1.144   2.802   0.881  0.9162  3.4494  0.0907
  144TMC2    H1 2246   0.831   2.944   1.131 -1.0226 -1.5586  2.8381
  144TMC2    H2 2247   1.092   2.632   1.275 -0.5689  1.3056  0.9099
  144TMC2    C7 2248   0.916   2.815   1.357 -0.0523 -0.0142  0.8983
  144TMC2    C8 2249   1.258   2.664   1.094 -0.2632  0.3659  0.1889
  144TMC2    O1 2250   0.998   2.771   1.437 -0.2340 -0.0253  0.6347
  144TMC2    O2 2251   1.333   2.727   1.169 -0.2898 -0.2965  0.6573
  144TMC2    O5 2252   1.278   2.644   0.966  0.1267 -0.4418  0.3749
  144TMC2    H5 2253   1.215   2.576   0.933 -1.9489  1.7234 -0.1301
  145MPD2     C 2254   0.714   3.337   0.654  0.1011 -0.1002 -0.3826
  145MPD2    C1 2255   0.705   3.205   0.619  0.9157 -1.1420 -0.2979
  145MPD2    C2 2256   0.771   3.115   0.700 -0.0914 -0.1573 -0.2694
  145MPD2    C3 2257   0.828   3.163   0.823  0.1534 -0.5693 -0.1409
  145MPD2    C4 2258   0.813   3.291   0.865  0.5430  0.2006  0.5169
  145MPD2    C5 2259   0.756   3.380   0.776 -0.4092  0.4301  0.5784
  145MPD2     H 2260   0.783   3.010   0.676 -0.8905 -0.4450  0.5917
  145MPD2    H1 2261   0.850   3.322   0.962 -0.2632 -0.0716  0.9177
  145MPD2    H2 2262   0.676   3.409   0.581 -0.5133  1.0370  1.0649
  145MPD2    H3 2263   0.750   3.486   0.799  0.5089  0.6701 -0.3022
  145MPD2     N 2264   0.885   3.074   0.925 -0.1494  0.3168  0.0767
  145MPD2    H5 2265   0.902   3.117   1.015  2.4341 -2.1284  0.7543
  145MPD2    N1 2266   0.625   3.162   0.508  0.2087 -0.5086 -0.1077
  145MPD2    H7 2267   0.628   3.062   0.488 -1.0925 -0.7506  0.9405
  146TMC2    C1 2268   1.979   1.269  12.718  0.0425 -0.1511 -0.7573
  146TMC2    C2 2269   1.900   1.299  12.611  0.6102 -0.8134 -0.7713
  146TMC2    C3 2270   1.952   1.266  12.489 -0.2182 -0.1615 -0.4604
  146TMC2    C4 2271   2.097   1.195  12.705  0.0734  0.2711 -1.0626
  146TMC2    C5 2272   2.138   1.163  12.581 -0.7120  0.0882  0.4856
  146TMC2    C6 2273   2.070   1.199  12.463  0.4630  0.4558 -0.1626
  146TMC2     C 2274   1.919   1.276  12.849 -0.2257  0.1676  0.1654
  146TMC2     O 2275   1.821   1.349  12.862  0.2569  0.2524 -0.1847
  146TMC2     H 2276   1.802   1.344  12.620  0.7412 -0.6592 -0.0994
  146TMC2    H1 2277   2.159   1.192  12.794 -0.0876 -0.8188 -0.9884
  146TMC2    H2 2278   2.106   1.165  12.367 -0.3232  0.5791 -0.4997
  146TMC2    C7 2279   2.283   1.134  12.563 -0.3307 -0.2262  0.5230
  146TMC2    C8 2280   1.879   1.312  12.366  0.6743 -0.0933 -0.0826
  146TMC2    O1 2281   2.332   1.158  12.455  0.6737 -0.3582 -0.1672
  146TMC2    O2 2282   1.928   1.339  12.261  0.0183  0.2367 -0.1362
  146TMC2    O5 2283   1.746   1.308  12.382  0.3311 -0.2905 -0.1781
  146TMC2    H5 2284   1.707   1.282  12.468  0.4371 -0.1127 -0.0762
  147MPD2     C 2285   2.740   0.961  12.699 -0.0498 -0.0890  0.3257
  147MPD2    C1 2286   2.648   0.922  12.794 -0.1590  0.0938  0.4381
  147MPD2    C2 2287   2.520   0.960  12.776  0.7506  0.6235 -0.2126
  147MPD2    C3 2288   2.481   1.041  12.674  0.2498  0.3104 -0.3251
  147MPD2    C4 2289   2.578   1.088  12.584 -0.6882 -0.0692  0.3834
  147MPD2    C5 2290   2.707   1.048  12.601 -0.5215  0.2595 -0.3084
  147MPD2     H 2291   2.446   0.925  12.847  0.8426 -2.3358 -1.5677
  147MPD2    H1 2292   2.569   1.154  12.498 -3.5570 -0.7516  0.1814
  147MPD2    H2 2293   2.844   0.929  12.704  0.0086 -0.0901 -0.9030
  147MPD2    H3 2294   2.777   1.075  12.523 -0.3033 -2.0351 -0.9118
  147MPD2     N 2295   2.341   1.075  12.672 -0.7516  0.2838  0.2192
  147MPD2    H5 2296   2.278   1.053  12.749 -0.1680  0.3771  0.7225
  147MPD2    N1 2297   2.695   0.828  12.892  0.0671  0.3995 -0.0597
  147MPD2    H7 2298   2.795   0.813  12.902  0.0060 -0.4899 -0.7633
  148TMC2    C1 2299   2.096   0.633  10.423 -0.6868 -0.0835 -0.2201
  148TMC2    C2 2300   2.123   0.730  10.516 -0.6174  0.0517  1.3312
  148TMC2    C3 2301   2.188   0.697  10.631  0.2881  0.8244  0.7590
  148TMC2    C4 2302   2.133   0.502  10.445 -0.1249  0.3898  0.5896
  148TMC2    C5 2303   2.208   0.478  10.566  1.0988  0.2552  0.0654
  148TMC2    C6 2304   2.241   0.574  10.650 -0.0788  0.7579  0.2199
  148TMC2     C 2305   1.997   0.661  10.321 -0.3659 -0.3021 -0.1597
  148TMC2     O 2306   1.992   0.775  10.274  0.7977  0.6921  0.1186
  148TMC2     H 2307   2.072   0.825  10.504  2.5326  1.4080 -1.1918
  148TMC2    H1 2308   2.119   0.421  10.375  1.1393  2.4063 -2.0139
  148TMC2    H2 2309   2.308   0.549  10.731  1.8238  1.7068 -1.0753
  148TMC2    C7 2310   2.219   0.342  10.609  0.9509  0.9960  0.5398
  148TMC2    C8 2311   2.226   0.805  10.713  0.3899  0.2026  0.1313
  148TMC2    O1 2312   2.205   0.262  10.519 -0.8191  0.3639 -0.1474
  148TMC2    O2 2313   2.219   0.924  10.678 -0.3194 -0.0097  0.6431
  148TMC2    O5 2314   2.242   0.763  10.835 -0.3548 -0.4292 -0.3221
  148TMC2    H5 2315   2.213   0.669  10.841 -1.3569 -0.0025  1.2362
  149MPD2     C 2316   1.743   0.662  10.149 -0.1700  0.0761 -0.1302
  149MPD2    C1 2317   1.797   0.558  10.217  0.1736  0.0819 -0.4689
  149MPD2    C2 2318   1.722   0.441  10.218  0.1469 -0.5004  0.0490
  149MPD2    C3 2319   1.598   0.429  10.152  0.1077 -0.2975  0.6410
  149MPD2    C4 2320   1.560   0.535  10.067 -0.6059 -0.0856  0.0447
  149MPD2    C5 2321   1.629   0.652  10.071 -0.3374  0.4093 -0.1267
  149MPD2     H 2322   1.763   0.352  10.265 -1.9128 -0.6994  1.4325
  149MPD2    H1 2323   1.473   0.529  10.002 -0.0842  1.9409 -0.8488
  149MPD2    H2 2324   1.798   0.755  10.139 -0.6714  0.2027 -1.8534
  149MPD2    H3 2325   1.589   0.734  10.011 -0.7442 -0.6449 -1.2825
  149MPD2     N 2326   1.524   0.307  10.148  0.7801  0.2150  0.2878
  149MPD2    H5 2327   1.462   0.288  10.070  2.9476  0.2864 -1.4708
  149MPD2    N1 2328   1.915   0.555  10.299 -0.1289  0.4017 -0.4857
  149MPD2    H7 2329   1.926   0.467  10.347 -0.2171  1.2869  1.1518
  150TMC2    C1 2330   4.390   3.939  12.331  0.0708  0.2853 -0.4371
  150TMC2    C2 2331   4.315   4.045  12.354  0.3171  0.0861  0.0753
  150TMC2    C3 2332   4.378   4.160  12.366  0.2596 -0.4390 -0.0466
  150TMC2    C4 2333   4.526   3.944  12.329 -0.3895 -0.5777 -0.4418
  150TMC2    C5 2334   4.588   4.061  12.336  0.0479  0.3633 -1.0175
  150TMC2    C6 2335   4.513   4.172  12.346 -0.0944  0.2484  0.1242
  150TMC2     C 2336   4.326   3.818  12.286  0.3620  0.3486  0.0421
  150TMC2     O 2337   4.371   3.712  12.312  0.6868  0.2974  0.1773
  150TMC2     H 2338   4.207   4.037  12.355  0.3089  0.0583 -0.9837
  150TMC2    H1 2339   4.583   3.851  12.326  2.0082  0.8938 -0.9142
  150TMC2    H2 2340   4.560   4.262  12.385 -1.5500  0.0279  2.3979
  150TMC2    C7 2341   4.734   4.077  12.353 -0.3441  0.5171  0.4128
  150TMC2    C8 2342   4.297   4.267  12.413 -0.7587  0.0273 -0.0785
  150TMC2    O1 2343   0.046   4.187  12.317  0.6002 -0.1817  0.2671
  150TMC2    O2 2344   4.188   4.260  12.474 -0.2150  0.0543 -0.3979
  150TMC2    O5 2345   4.353   4.380  12.371  0.0441 -0.2062  0.1557
  150TMC2    H5 2346   4.433   4.368  12.314  0.9585  2.9878  0.7882
  151MPD2     C 2347   3.964   3.577  11.998 -0.0870  0.1323  0.3021
  151MPD2    C1 2348   3.981   3.713  11.964  0.0069  0.2120  1.0630
  151MPD2    C2 2349   4.076   3.801  12.019  0.0127 -0.1624  0.0855
  151MPD2    C3 2350   4.158   3.752  12.116  0.4389  0.5508 -0.3211
  151MPD2    C4 2351   4.147   3.616  12.154 -0.7188  0.0999  0.6849
  151MPD2    C5 2352   4.050   3.533  12.098  0.2195  0.0870  0.2582
  151MPD2     H 2353   4.069   3.906  11.993  0.5059 -0.4001 -0.9992
  151MPD2    H1 2354   4.211   3.574  12.231 -1.2103  0.4289  1.2772
  151MPD2    H2 2355   3.890   3.513  11.952 -1.5010  1.1512  1.1944
  151MPD2    H3 2356   4.036   3.432  12.134  0.3017 -1.1663 -3.2278
  151MPD2     N 2357   4.236   3.846  12.189 -0.0650  0.4635 -0.4565
  151MPD2    H5 2358   4.215   3.944  12.177 -0.8675  0.6021  1.9608
  151MPD2    N1 2359   3.888   3.753  11.861  0.0900 -0.7706 -0.0987
  151MPD2    H7 2360   3.832   3.680  11.818 -1.1485 -1.2953  2.4263
  152TMC2    C1 2361   4.316   3.580  12.626  0.8159 -0.9725 -0.6524
  152TMC2    C2 2362   4.413   3.492  12.664  0.0864  0.5987 -0.4156
  152TMC2    C3 2363   4.530   3.544  12.714 -0.8076 -0.4313 -0.2499
  152TMC2    C4 2364   4.327   3.711  12.660 -0.4443 -0.1050 -0.0452
  152TMC2    C5 2365   4.448   3.759  12.710 -0.4970 -0.4858 -0.3161
  152TMC2    C6 2366   4.553   3.679  12.729  0.3260  0.5386 -0.0844
  152TMC2     C 2367   4.202   3.543  12.547 -0.1426  0.1582 -0.3605
  152TMC2     O 2368   4.128   3.627  12.507 -0.1990 -0.1452 -0.5670
  152TMC2     H 2369   4.390   3.387  12.677 -2.8981  1.3397  0.2430
  152TMC2    H1 2370   4.245   3.777  12.633  0.0095 -0.4346 -2.2125
  152TMC2    H2 2371   4.656   3.708  12.743  0.9052 -0.8340 -1.6336
  152TMC2    C7 2372   4.464   3.900  12.711 -0.1999  0.2467  0.3497
  152TMC2    C8 2373   4.633   3.450  12.762 -0.1195 -0.5257  0.1429
  152TMC2    O1 2374   4.366   3.963  12.673 -0.4339 -0.4538  0.1890
  152TMC2    O2 2375   4.618   3.330  12.746  0.3345  0.2491 -0.5013
  152TMC2    O5 2376   4.653   3.485  12.894 -0.3977  0.0415 -0.6342
  152TMC2    H5 2377   4.674   3.581  12.901  1.2528 -0.1807 -2.5073
  153MPD2     C 2378   4.072   3.194  12.491  0.4405 -0.0828 -0.9464
  153MPD2    C1 2379   4.081   3.333  12.476 -0.4775 -0.1877  0.2076
  153MPD2    C2 2380   3.975   3.395  12.416 -0.2085  0.1712  0.0229
  153MPD2    C3 2381   3.874   3.321  12.359 -0.3195 -0.3121 -0.5594
  153MPD2    C4 2382   3.866   3.187  12.366 -0.3519 -0.2130  0.4701
  153MPD2    C5 2383   3.975   3.122  12.417  0.3513 -0.0761  0.1465
  153MPD2     H 2384   3.970   3.503  12.409 -1.4930  0.0641 -0.8113
  153MPD2    H1 2385   3.786   3.131  12.318 -3.1526  2.4279  2.1094
  153MPD2    H2 2386   4.153   3.135  12.533 -0.9067 -0.7211  0.7415
  153MPD2    H3 2387   3.967   3.014  12.421  0.0897 -0.0925 -0.8494
  153MPD2     N 2388   3.788   3.395  12.281  0.4262  0.4056 -0.0529
  153MPD2    H5 2389   3.802   3.493  12.258  0.2518  0.0769 -1.5549
  153MPD2    N1 2390   4.186   3.405  12.540  0.1167 -0.7357 -0.3592
  153MPD2    H7 2391   4.259   3.351  12.586 -1.0219 -2.4448 -0.5686
  154TMC2    C1 2392   0.340   4.054  17.690  0.4181  1.0606  0.1111
  154TMC2    C2 2393   0.352   3.943   0.012 -0.0889  0.6282  0.1369
  154TMC2    C3 2394   0.369   3.825  17.689 -0.5076  0.7504  0.2611
  154TMC2    C4 2395   0.355   4.051  17.554  0.7901 -0.7883 -0.1957
  154TMC2    C5 2396   0.383   3.936  17.481 -0.2815 -0.2605  0.7103
  154TMC2    C6 2397   0.383   3.822  17.551 -0.3959  0.5906 -0.0188
  154TMC2     C 2398   0.341   4.178   0.015  0.1674  0.2574  0.4314
  154TMC2     O 2399   0.379   4.168   0.126  0.5112  0.2132 -0.2732
  154TMC2     H 2400   0.336   3.944   0.119 -2.6804 -2.6630 -0.1963
  154TMC2    H1 2401   0.354   4.143  17.496 -0.8232  1.2657  3.1189
  154TMC2    H2 2402   0.378   3.725  17.502  0.4712  0.4858  0.0861
  154TMC2    C7 2403   0.375   3.929  17.334  0.0295 -0.1025 -0.1790
  154TMC2    C8 2404   0.379   3.698   0.010  0.1846 -0.5517  0.1057
  154TMC2    O1 2405   0.340   4.038  17.285 -0.2024 -0.1513  0.5054
  154TMC2    O2 2406   0.333   3.696   0.120  0.2558 -0.2441  0.2491
  154TMC2    O5 2407   0.507   3.657  17.727 -0.3015  0.3753  0.6670
  154TMC2    H5 2408   0.540   3.677  17.637 -1.5258  1.4892  0.4699
  155MPD2     C 2409   0.167   4.490  17.673  0.2816  0.4264  0.2285
  155MPD2    C1 2410   0.251   4.410  17.747 -0.3244 -0.3881 -0.1319
  155MPD2    C2 2411   0.310   4.458   0.107  0.2692  0.2945 -0.9354
  155MPD2    C3 2412   0.287   4.590   0.144 -0.0759 -0.2260  0.3279
  155MPD2    C4 2413   0.211   4.676   0.068  0.4421  0.3935  0.1726
  155MPD2    C5 2414   0.145   4.617  17.713  0.5323 -0.4227 -0.7342
  155MPD2     H 2415   0.366   4.388   0.167  0.0055 -0.1323 -1.1860
  155MPD2    H1 2416   0.193   0.042   0.093  0.2427  0.8413 -1.8302
  155MPD2    H2 2417   0.113   4.457  17.585 -0.7932 -0.7875  1.3272
  155MPD2    H3 2418   0.072   4.680  17.663  1.5482  1.5951  0.3489
  155MPD2     N 2419   0.340   4.649   0.265 -0.1263 -0.2380  0.6005
  155MPD2    H5 2420   0.297   4.737   0.291 -0.1673 -0.0212 -0.1826
  155MPD2    N1 2421   0.265   4.275  17.703 -0.3267 -0.7007  0.4865
  155MPD2    H7 2422   0.235   4.249  17.610  0.4165  1.5122 -0.3740
  156TMC2    C1 2423   3.910   1.268  11.648  0.4574  0.1477 -0.9144
  156TMC2    C2 2424   3.883   1.149  11.589  0.3827 -0.1394 -0.3490
  156TMC2    C3 2425   3.756   1.137  11.535  0.7148 -0.3343 -0.4065
  156TMC2    C4 2426   3.825   1.378  11.662 -0.3289  0.4578 -0.2091
  156TMC2    C5 2427   3.704   1.355  11.598 -0.0161  0.4765 -0.1319
  156TMC2    C6 2428   3.668   1.236  11.540 -0.0946 -0.2712  0.1788
  156TMC2     C 2429   4.035   1.271  11.718  0.8540  0.0416  0.2801
  156TMC2     O 2430   4.037   1.336  11.823  0.2506 -0.3906 -0.1185
  156TMC2     H 2431   3.956   1.069  11.592  0.3145 -0.1341  1.2642
  156TMC2    H1 2432   3.836   1.467  11.723 -0.2798  0.5070 -0.2901
  156TMC2    H2 2433   3.575   1.232  11.484  0.7201 -1.0888 -1.1128
  156TMC2    C7 2434   3.610   1.464  11.573  0.1150  0.3392 -0.4023
  156TMC2    C8 2435   3.728   1.022  11.449 -0.3431  0.4054 -0.1613
  156TMC2    O1 2436   3.491   1.425  11.575  0.1410  0.2999 -0.5499
  156TMC2    O2 2437   3.673   1.023  11.339 -0.3620 -0.2067  0.5043
  156TMC2    O5 2438   3.760   0.907  11.517  0.1402 -0.4521  0.2610
  156TMC2    H5 2439   3.808   0.934  11.598  0.1401  1.0609 -0.2378
  157MPD2     C 2440   4.372   1.174  11.614 -0.1282 -0.0681 -0.0564
  157MPD2    C1 2441   4.267   1.188  11.702  0.2837 -0.1529  0.6333
  157MPD2    C2 2442   4.285   1.178  11.840  0.2804  0.4911  0.4836
  157MPD2    C3 2443   4.410   1.152  11.887 -0.4093  0.1429  1.1181
  157MPD2    C4 2444   4.515   1.159  11.800  0.1213 -0.5993  0.4622
  157MPD2    C5 2445   4.497   1.160  11.662  0.3176  0.2378  0.3344
  157MPD2     H 2446   4.199   1.200  11.902  2.2437  1.7645  2.7352
  157MPD2    H1 2447   4.619   1.148  11.830  0.5754 -3.3825 -2.2351
  157MPD2    H2 2448   4.350   1.162  11.509  0.0949  0.2529 -0.1379
  157MPD2    H3 2449   4.581   1.152  11.594 -0.5106 -1.7232 -0.4705
  157MPD2     N 2450   4.447   1.147  12.021  0.0864  0.4391  0.3670
  157MPD2    H5 2451   4.547   1.151  12.038  0.0963  0.8323  0.2124
  157MPD2    N1 2452   4.140   1.207  11.650  0.2224 -0.0584 -0.5955
  157MPD2    H7 2453   4.131   1.201  11.549 -0.4661 -2.0865 -0.4331
  158TMC2    C1 2454   4.219   0.459  13.358  0.2326  0.0749  0.2746
  158TMC2    C2 2455   4.231   0.563  13.271 -0.5023 -0.3879 -0.1812
  158TMC2    C3 2456   4.124   0.603  13.206 -0.5634  0.3829  0.2594
  158TMC2    C4 2457   4.096   0.398  13.379  0.7710  0.0237 -0.0282
  158TMC2    C5 2458   3.985   0.439  13.301 -0.4145  0.1222  0.2712
  158TMC2    C6 2459   4.006   0.535  13.204 -0.6182 -0.0620  0.4666
  158TMC2     C 2460   4.345   0.402  13.417  0.3409 -0.2081  0.8257
  158TMC2     O 2461   4.452   0.455  13.391  0.0867  0.5634  0.3003
  158TMC2     H 2462   4.326   0.616  13.266 -1.9689  2.1480 -0.8813
  158TMC2    H1 2463   4.086   0.321  13.455 -0.1418  1.0798  0.9254
  158TMC2    H2 2464   3.929   0.554  13.131  0.7092 -1.4728 -1.3125
  158TMC2    C7 2465   3.857   0.382  13.311 -0.8059 -0.2049  0.2228
  158TMC2    C8 2466   4.155   0.693  13.092  0.0986 -0.0652  1.3646
  158TMC2    O1 2467   3.776   0.431  13.234 -0.3031  0.0514  0.5694
  158TMC2    O2 2468   4.271   0.728  13.073  0.5094  0.2746 -0.0375
  158TMC2    O5 2469   4.043   0.767  13.078 -0.0066  0.0024 -0.0151
  158TMC2    H5 2470   3.959   0.748  13.125 -0.7323  2.4018 -0.3713
  159MPD2     C 2471   4.637   0.098  13.723 -0.3127 -0.1835 -0.1317
  159MPD2    C1 2472   4.506   0.078  13.756  0.4213 -0.1832  0.4555
  159MPD2    C2 2473   4.396   0.131  13.682 -0.4553 -0.9302  0.1950
  159MPD2    C3 2474   4.425   0.223  13.576 -0.2984  0.3358  0.3381
  159MPD2    C4 2475   4.559   0.235  13.546 -0.1832  0.3106 -0.4837
  159MPD2    C5 2476   4.662   0.177  13.619  0.1597  0.1855 -0.2132
  159MPD2     H 2477   4.290   0.116  13.702 -0.2941 -2.7556 -0.3360
  159MPD2    H1 2478   4.598   0.299  13.467 -0.0804  1.4917  0.5290
  159MPD2    H2 2479   4.723   0.053  13.772 -1.1419 -1.2127  0.3637
  159MPD2    H3 2480   0.028   0.187  13.586 -0.1972  3.3013 -0.4344
  159MPD2     N 2481   4.324   0.288  13.505 -0.3929  0.0522  0.5827
  159MPD2    H5 2482   4.230   0.253  13.523 -0.7278  0.7702  0.2513
  159MPD2    N1 2483   4.482   4.730  13.864  0.2260  0.3332  0.6685
  159MPD2    H7 2484   4.561   4.695  13.917  1.3412  0.2072 -1.0805
  160TMC2    C1 2485   3.926   3.359   1.431  0.3768 -0.7054 -0.3276
  160TMC2    C2 2486   3.929   3.372   1.570 -0.2855  0.0123 -0.2340
  160TMC2    C3 2487   4.053   3.384   1.623  0.1782  0.3037  0.5794
  160TMC2    C4 2488   4.038   3.350   1.351 -0.2293  0.2540  0.2046
  160TMC2    C5 2489   4.159   3.335   1.416  0.3912 -1.1856  0.1225
  160TMC2    C6 2490   4.168   3.364   1.554 -0.1170  0.3445  0.2626
  160TMC2     C 2491   3.809   3.378   1.349  0.3961 -0.1133 -0.1390
  160TMC2     O 2492   3.826   3.425   1.240 -0.0871  0.0439 -0.0987
  160TMC2     H 2493   3.839   3.374   1.630  0.1301 -1.8311  0.4616
  160TMC2    H1 2494   4.028   3.307   1.251 -1.0477 -1.8856  1.1942
  160TMC2    H2 2495   4.255   3.339   1.613 -0.6768  0.0745  0.9821
  160TMC2    C7 2496   4.280   3.305   1.350  0.6683 -0.1650  0.6763
  160TMC2    C8 2497   4.057   3.382   1.769 -0.0923  0.0971  0.0916
  160TMC2    O1 2498   4.369   3.255   1.410  0.5181  0.3023  0.1106
  160TMC2    O2 2499   3.966   3.335   1.841 -0.2110 -1.0931  0.0147
  160TMC2    O5 2500   4.175   3.436   1.807  0.1595  0.3526 -0.3460
  160TMC2    H5 2501   4.209   3.507   1.748 -0.7774  0.9802 -0.1227
  161MPD2     C 2502   3.469   3.284   1.352 -0.0017 -0.0027 -0.0488
  161MPD2    C1 2503   3.576   3.376   1.329  0.3898  0.1884  0.5560
  161MPD2    C2 2504   3.559   3.473   1.238  0.0538 -0.2247  0.6639
  161MPD2    C3 2505   3.439   3.488   1.166  0.2409  0.1634  0.5753
  161MPD2    C4 2506   3.342   3.396   1.186 -0.4754 -0.6212 -0.3578
  161MPD2    C5 2507   3.356   3.300   1.279 -0.0340 -0.4338 -0.1716
  161MPD2     H 2508   3.638   3.547   1.231 -1.2478  1.0535 -0.6675
  161MPD2    H1 2509   3.241   3.394   1.147 -1.0171  2.4325  0.8885
  161MPD2    H2 2510   3.477   3.203   1.424  1.8635  1.9943  1.9703
  161MPD2    H3 2511   3.271   3.236   1.300 -1.2264  1.3237  0.3251
  161MPD2     N 2512   3.406   3.596   1.075 -0.6894 -0.1500 -0.0328
  161MPD2    H5 2513   3.316   3.588   1.028 -0.2324  0.5254 -1.0204
  161MPD2    N1 2514   3.690   3.353   1.405  0.1694  0.1450  0.3378
  161MPD2    H7 2515   3.687   3.287   1.482 -1.1613  1.6131  1.5486
  162TMC2    C1 2516   2.093   0.939   1.040 -0.2978 -0.5387 -0.0297
  162TMC2    C2 2517   2.045   1.046   1.112 -0.3684  0.5281 -0.3358
  162TMC2    C3 2518   2.143   1.117   1.178  0.1057 -0.2572  0.0024
  162TMC2    C4 2519   2.223   0.894   1.047  0.3602 -0.2883  0.0535
  162TMC2    C5 2520   2.309   0.963   1.128 -0.5129  0.0587  0.3934
  162TMC2    C6 2521   2.274   1.077   1.197  0.2202  0.8317 -0.2060
  162TMC2     C 2522   2.006   0.879   0.941 -0.7972 -0.1004  0.4618
  162TMC2     O 2523   2.045   0.777   0.895 -0.4571  0.3053  0.1291
  162TMC2     H 2524   1.943   1.082   1.109 -0.4919  0.2021  0.0093
  162TMC2    H1 2525   2.260   0.808   0.991  1.7577 -0.6228  1.4909
  162TMC2    H2 2526   2.346   1.139   1.249 -0.0823  0.8489  0.1974
  162TMC2    C7 2527   2.458   0.940   1.109  1.0374 -0.1085  0.0956
  162TMC2    C8 2528   2.087   1.235   1.245  1.1070  0.7413 -0.1457
  162TMC2    O1 2529   2.524   1.040   1.138 -0.2435 -0.4540 -0.1726
  162TMC2    O2 2530   2.128   1.282   1.350 -0.6921  0.2471  0.0485
  162TMC2    O5 2531   2.037   1.305   1.140  0.0486 -0.4141 -0.4307
  162TMC2    H5 2532   2.034   1.263   1.052  0.1191 -0.6891 -0.3006
  163MPD2     C 2533   1.664   0.917   0.566  0.1839 -0.1664  0.4809
  163MPD2    C1 2534   1.748   0.819   0.601  0.3171  0.2821  0.4266
  163MPD2    C2 2535   1.830   0.830   0.708  0.5774  0.1933  0.5629
  163MPD2    C3 2536   1.816   0.936   0.793 -0.0341  0.2753  0.6731
  163MPD2    C4 2537   1.726   1.037   0.763  0.2233 -0.8977  0.2194
  163MPD2    C5 2538   1.658   1.023   0.650 -0.2722 -0.3851  0.5857
  163MPD2     H 2539   1.894   0.746   0.732 -0.6049 -1.1720 -1.0197
  163MPD2    H1 2540   1.714   1.126   0.824 -3.2961 -0.4262 -1.1250
  163MPD2    H2 2541   1.602   0.913   0.478 -1.1532 -2.0049  1.5079
  163MPD2    H3 2542   1.583   1.096   0.621 -1.9494 -1.8680  1.2388
  163MPD2     N 2543   1.901   0.964   0.903 -0.6514 -0.0236 -0.1353
  163MPD2    H5 2544   1.876   1.048   0.954  0.5269  0.1444  0.1475
  163MPD2    N1 2545   1.747   0.712   0.509  0.2898  0.0050  0.4297
  163MPD2    H7 2546   1.694   0.724   0.424  1.2855 -1.0971 -0.3452
  164TMC2    C1 2547   2.874   0.782  10.926 -0.0625 -0.8558 -0.2536
  164TMC2    C2 2548   2.904   0.902  10.978  0.5393 -0.1308  0.1806
  164TMC2    C3 2549   2.818   0.942  11.081  0.0497  0.1006  0.2170
  164TMC2    C4 2550   2.778   0.693  10.966  0.6464  0.5076  0.3953
  164TMC2    C5 2551   2.691   0.740  11.061 -0.3552 -0.2777  0.3596
  164TMC2    C6 2552   2.709   0.865  11.118  0.8659  0.0261 -0.2268
  164TMC2     C 2553   2.942   0.735  10.807  0.1735  0.0820  0.6322
  164TMC2     O 2554   2.927   0.613  10.790 -0.6197  0.2371 -0.0704
  164TMC2     H 2555   2.981   0.972  10.945  0.9695 -1.3595 -1.4444
  164TMC2    H1 2556   2.757   0.604  10.909 -1.3878  1.7012 -0.7333
  164TMC2    H2 2557   2.643   0.905  11.194  1.5221  0.8615 -0.0918
  164TMC2    C7 2558   2.564   0.674  11.074  0.0895 -0.3123 -0.8899
  164TMC2    C8 2559   2.826   1.069  11.140  0.2718 -0.0398 -0.1585
  164TMC2    O1 2560   2.522   0.605  10.981  0.7277 -0.1909 -0.4642
  164TMC2    O2 2561   2.734   1.144  11.162  0.5143  0.2514  0.2234
  164TMC2    O5 2562   2.949   1.085  11.178 -0.3282 -0.5646  0.4035
  164TMC2    H5 2563   3.002   1.003  11.168  0.4120  0.1268 -1.3154
  165TMC2    C1 2564   3.643   2.891   1.243  0.1143 -0.7122  0.0465
  165TMC2    C2 2565   3.651   2.799   1.142 -0.6468  0.5078 -0.2239
  165TMC2    C3 2566   3.776   2.785   1.084  0.5070 -0.3359 -0.2149
  165TMC2    C4 2567   3.748   2.977   1.265 -0.0437 -0.0762  0.1230
  165TMC2    C5 2568   3.872   2.958   1.213 -0.1929 -0.3363 -0.6478
  165TMC2    C6 2569   3.891   2.853   1.122 -0.5287  0.0841 -0.2146
  165TMC2     C 2570   3.614   2.834   1.367 -0.9028  0.1613 -0.0737
  165TMC2     O 2571   3.706   2.854   1.444 -0.3870  0.9445 -0.3375
  165TMC2     H 2572   3.575   2.723   1.128 -2.2220  1.6282  2.1466
  165TMC2    H1 2573   3.725   3.054   1.338 -0.5508  1.2235 -1.4074
  165TMC2    H2 2574   3.990   2.832   1.084 -0.2920  1.5067 -0.3838
  165TMC2    C7 2575   3.986   2.985   1.306 -0.2364  0.7511 -0.1334
  165TMC2    C8 2576   3.784   2.707   0.960 -1.0397 -0.5432 -0.5577
  165TMC2    O1 2577   4.103   2.986   1.271 -0.5804 -0.4260  0.1516
  165TMC2    O2 2578   3.894   2.692   0.906 -0.3588  0.2365  0.7272
  165TMC2    O5 2579   3.671   2.664   0.907 -0.1608  0.1157 -0.1129
  165TMC2    H5 2580   3.593   2.709   0.945  0.7191  0.1163  1.6901
  166MPD2     C 2581   3.389   2.509   1.705 -0.4380 -0.2545 -0.2680
  166MPD2    C1 2582   3.498   2.593   1.717 -0.4537 -0.4096  0.1140
  166MPD2    C2 2583   3.526   2.678   1.614 -0.5086  0.4279 -0.3993
  166MPD2    C3 2584   3.453   2.681   1.494 -1.1136 -0.0191 -0.2742
  166MPD2    C4 2585   3.331   2.612   1.487 -0.2400  0.1610 -0.4416
  166MPD2    C5 2586   3.301   2.526   1.597  0.1258  0.5335 -0.1341
  166MPD2     H 2587   3.616   2.738   1.622 -0.0887 -0.2653  0.0957
  166MPD2    H1 2588   3.260   2.628   1.408 -0.5875 -1.2896 -0.4288
  166MPD2    H2 2589   3.366   2.446   1.790  2.4520 -0.3313  0.4583
  166MPD2    H3 2590   3.200   2.485   1.598 -0.1670  1.2844  0.6022
  166MPD2     N 2591   3.499   2.758   1.377 -0.7741  0.1604 -0.1708
  166MPD2    H5 2592   3.454   2.755   1.286  0.3528  0.1937 -0.7288
  166MPD2    N1 2593   3.586   2.571   1.829  0.1914 -0.2847  0.2005
  166MPD2    H7 2594   3.587   2.487   1.886 -0.6160  0.0884  0.7697
  167TMC2    C1 2595   2.135   4.573  13.106 -0.6457 -0.7239  0.6140
  167TMC2    C2 2596   2.073   4.528  13.211 -0.4364  0.0512  0.0063
  167TMC2    C3 2597   1.991   4.424  13.205  0.3401  0.2311  0.7829
  167TMC2    C4 2598   2.106   4.521  12.982  0.1504 -0.7751  0.2105
  167TMC2    C5 2599   2.020   4.416  12.976  0.1774 -0.4128  0.8308
  167TMC2    C6 2600   1.961   4.362  13.085 -0.3272  0.5992  0.5156
  167TMC2     C 2601   2.241   4.669  13.118  0.2369  0.2006  0.1307
  167TMC2     O 2602   2.322   4.663  13.216 -0.1580  0.4016 -0.1714
  167TMC2     H 2603   2.109   4.563  13.307  0.2690  0.7295 -0.5076
  167TMC2    H1 2604   2.164   4.554  12.897 -0.3523  0.7774  0.4657
  167TMC2    H2 2605   1.894   4.276  13.083  1.0022 -0.4089 -0.5314
  167TMC2    C7 2606   2.029   4.347  12.850  0.1038 -0.9448  0.1640
  167TMC2    C8 2607   1.913   4.389  13.315  0.2042  0.9508 -0.7795
  167TMC2    O1 2608   2.092   4.407  12.764 -0.4535 -0.2127 -0.4097
  167TMC2    O2 2609   1.842   4.289  13.322  0.1115  0.0506  0.0223
  167TMC2    O5 2610   1.869   4.509  13.364 -0.0361  0.1777 -0.4217
  167TMC2    H5 2611   1.914   4.590  13.333 -0.1198  0.4665  0.2219
  168MPD2     C 2612   2.469   0.111  13.054 -0.3195 -0.2871 -0.7134
  168MPD2    C1 2613   2.350   0.115  12.988  0.2244 -0.3304 -0.4933
  168MPD2    C2 2614   2.329   0.216  12.891 -0.4097  0.6505 -1.0970
  168MPD2    C3 2615   2.414   0.324  12.891 -0.1995  0.0555  0.5739
  168MPD2    C4 2616   2.527   0.327  12.970 -0.3148 -0.1423  0.2370
  168MPD2    C5 2617   2.555   0.221  13.052  0.9674  0.3292  0.2317
  168MPD2     H 2618   2.249   0.202  12.819 -0.2266  0.8570 -1.3444
  168MPD2    H1 2619   2.596   0.410  12.971  0.2255 -0.5811 -1.0998
  168MPD2    H2 2620   2.496   0.036  13.127 -4.4877  0.5057  1.6460
  168MPD2    H3 2621   2.647   0.223  13.110  0.1573 -1.6947  1.5949
  168MPD2     N 2622   2.405   0.441  12.809 -0.3838  0.0940  0.2017
  168MPD2    H5 2623   2.476   0.513  12.818  0.0725 -0.5160  1.5121
  168MPD2    N1 2624   2.248   0.018  13.011 -0.2740 -0.2328 -0.2853
  168MPD2    H7 2625   2.165   0.027  12.955 -1.2983  0.6779  1.3772
  169MPD1     C 2626   3.526   0.779   9.528 -1.1419 -0.5930 -0.9918
  169MPD1    C1 2627   3.475   0.678   9.604 -0.9097 -0.8674  0.7440
  169MPD1    C2 2628   3.526   0.548   9.586 -0.1783  0.1667 -0.0101
  169MPD1    C3 2629   3.632   0.530   9.497 -0.0602  0.1636  0.0956
  169MPD1    C4 2630   3.675   0.633   9.418 -0.0412  0.2176 -0.4630
  169MPD1    C5 2631   3.626   0.759   9.435 -0.7857 -0.3328 -0.1765
  169MPD1     H 2632   3.494   0.475   9.659  0.2325 -1.2445 -1.2643
  169MPD1    H1 2633   3.759   0.632   9.349 -0.7845 -1.4855 -1.3410
  169MPD1    H2 2634   3.482   0.876   9.546  1.9056  0.3507  1.4136
  169MPD1    H3 2635   3.677   0.842   9.388  0.3751 -1.0655 -0.2025
  169MPD1     N 2636   3.694   0.402   9.499 -0.7480  0.4154  0.4265
  169MPD1    H5 2637   3.652   0.332   9.559 -0.3172  0.1123  0.3732
  169MPD1    N1 2638   3.385   0.696   9.718  0.0511  0.5290  0.1076
  169MPD1    H6 2639   3.322   0.617   9.730  0.7037 -0.1953 -1.0917
  169MPD1    H7 2640   3.330   0.781   9.717  1.9549  1.7650  3.3823
  170MPD1     C 2641   3.307   1.442  12.929 -0.4932  0.0377 -0.4068
  170MPD1    C1 2642   3.168   1.444  12.917 -0.5223 -0.5141  0.3911
  170MPD1    C2 2643   3.100   1.508  13.023 -0.4434 -0.1268 -0.3458
  170MPD1    C3 2644   3.162   1.587  13.119  0.3709 -0.0958 -0.4049
  170MPD1    C4 2645   3.295   1.596  13.119  0.1960 -0.1512  0.0201
  170MPD1    C5 2646   3.363   1.523  13.025  0.2639 -0.7543 -0.8305
  170MPD1     H 2647   2.993   1.518  13.035 -0.2913 -1.7600  2.3020
  170MPD1    H1 2648   3.357   1.656  13.185  2.8503 -1.6985 -1.0207
  170MPD1    H2 2649   3.373   1.374  12.875  0.1204 -1.2395  1.9488
  170MPD1    H3 2650   3.468   1.513  13.050  0.5824  0.6010 -1.6731
  170MPD1     N 2651   3.084   1.683  13.186  0.5542 -0.2596 -0.1447
  170MPD1    H5 2652   2.983   1.672  13.176  0.5764 -0.2092 -0.4268
  170MPD1    N1 2653   3.089   1.367  12.825 -0.4465  0.0936  0.1988
  170MPD1    H6 2654   3.138   1.348  12.737 -0.7288 -2.5131  0.6036
  170MPD1    H7 2655   3.005   1.413  12.792 -0.4468 -0.7030 -0.9131
  171MPD1     C 2656   1.650   3.607  15.465  0.6659 -0.2291  0.1868
  171MPD1    C1 2657   1.711   3.500  15.407  0.5580  0.7819 -0.4773
  171MPD1    C2 2658   1.731   3.390  15.492 -0.4666 -0.0974 -1.2190
  171MPD1    C3 2659   1.718   3.395  15.630 -0.4147  0.4847 -0.4032
  171MPD1    C4 2660   1.670   3.510  15.684  0.0126 -0.7115 -0.2314
  171MPD1    C5 2661   1.628   3.611  15.599 -0.3581  0.2479 -0.2633
  171MPD1     H 2662   1.787   3.307  15.452  0.9756  0.4403 -0.3259
  171MPD1    H1 2663   1.649   3.522  15.790 -1.8475  1.3574 -0.8330
  171MPD1    H2 2664   1.611   3.693  15.413  0.3373 -0.5303 -0.0707
  171MPD1    H3 2665   1.588   3.700  15.646  0.1502 -0.1643  0.9668
  171MPD1     N 2666   1.736   3.283  15.718 -0.1932 -0.1201  0.0774
  171MPD1    H5 2667   1.755   3.305  15.815 -0.9557  1.9370 -0.2242
  171MPD1    N1 2668   1.736   3.491  15.265 -0.3337  0.4706  0.6982
  171MPD1    H6 2669   1.726   3.572  15.204 -0.4315 -0.0549  0.0190
  171MPD1    H7 2670   1.827   3.455  15.237 -1.0716  0.6752 -2.0077
  172MPD1     C 2671   1.289   3.089   0.956  0.2579 -0.0627  0.8908
  172MPD1    C1 2672   1.240   3.187   1.028 -0.1804  0.1152 -0.1961
  172MPD1    C2 2673   1.185   3.299   0.961  0.2191 -0.1580  0.2280
  172MPD1    C3 2674   1.194   3.318   0.824 -0.3108  0.0576 -0.0428
  172MPD1    C4 2675   1.266   3.223   0.757  0.3863  0.0276 -0.6759
  172MPD1    C5 2676   1.306   3.105   0.819 -0.6864  0.1771  0.2853
  172MPD1     H 2677   1.117   3.370   1.006 -0.4950 -0.6725 -0.0340
  172MPD1    H1 2678   1.292   3.230   0.652  0.7641  1.1585 -0.5093
  172MPD1    H2 2679   1.306   2.993   1.004 -0.0241  0.4921  2.1127
  172MPD1    H3 2680   1.361   3.032   0.761 -0.8604  0.1873  0.1052
  172MPD1     N 2681   1.155   3.429   0.743  0.0742 -0.3258  0.1333
  172MPD1    H5 2682   1.173   3.409   0.645  1.4114 -0.5626  0.4266
  172MPD1    N1 2683   1.204   3.167   1.163  0.0083 -0.2525 -0.6028
  172MPD1    H6 2684   1.206   3.256   1.213  1.8021 -1.3715  1.3318
  172MPD1    H7 2685   1.269   3.101   1.205  0.5087  0.7169  0.1540
  173MPD1     C 2686   1.807   1.779  14.177  0.3299 -0.2098 -0.1159
  173MPD1    C1 2687   1.922   1.753  14.247  0.1613  0.8205 -0.3011
  173MPD1    C2 2688   1.950   1.838  14.351  0.4475 -0.8464  0.8151
  173MPD1    C3 2689   1.855   1.923  14.409 -0.9589 -0.0664 -1.0001
  173MPD1    C4 2690   1.736   1.938  14.344 -0.2435  0.1085  0.3562
  173MPD1    C5 2691   1.725   1.876  14.225  0.1380  1.0399  0.3878
  173MPD1     H 2692   2.045   1.822  14.400 -0.0742  0.6684  2.3236
  173MPD1    H1 2693   1.658   2.005  14.377  0.5831  1.0217  0.4605
  173MPD1    H2 2694   1.790   1.754  14.073 -3.7398  1.8246  0.0871
  173MPD1    H3 2695   1.639   1.896  14.162 -2.0126  0.2236  3.0201
  173MPD1     N 2696   1.886   1.976  14.537 -0.6175 -0.4692 -0.1571
  173MPD1    H5 2697   1.984   1.981  14.564 -0.4873  3.1188 -1.3714
  173MPD1    N1 2698   2.023   1.678  14.183 -0.4376  0.8143  0.0856
  173MPD1    H6 2699   1.991   1.611  14.113 -3.8803  0.6163  1.8193
  173MPD1    H7 2700   2.091   1.638  14.248 -1.6377 -1.1255  0.1474
  174MPD1     C 2701   2.537   2.481  14.501  0.6321  0.3605  0.4056
  174MPD1    C1 2702   2.467   2.551  14.594 -0.2340  0.4447 -0.0603
  174MPD1    C2 2703   2.356   2.499  14.651  0.3341  0.4088  0.4990
  174MPD1    C3 2704   2.330   2.359  14.640  0.3106 -0.1343 -0.2052
  174MPD1    C4 2705   2.411   2.285  14.557  0.2760 -0.1802  0.6294
  174MPD1    C5 2706   2.509   2.350  14.478  0.4394 -0.2141 -0.7846
  174MPD1     H 2707   2.295   2.554  14.722 -1.7187 -2.0056  0.5792
  174MPD1    H1 2708   2.391   2.181  14.536  0.6140  0.0469 -0.8239
  174MPD1    H2 2709   2.602   2.533  14.431 -2.7167 -0.2328 -3.1518
  174MPD1    H3 2710   2.574   2.297  14.409  1.4736 -0.9710  0.7632
  174MPD1     N 2711   2.220   2.300  14.698  0.4095 -0.1694 -0.2069
  174MPD1    H5 2712   2.211   2.201  14.681 -0.5898 -0.3390  1.2924
  174MPD1    N1 2713   2.495   2.688  14.603  0.3566 -0.7128 -0.5953
  174MPD1    H6 2714   2.452   2.729  14.687  1.3471  3.0450 -1.9187
  174MPD1    H7 2715   2.594   2.709  14.606  0.3309 -1.0184  2.4575
  175MPD1     C 2716   0.072   4.329  15.848 -0.7919 -0.6494  0.5789
  175MPD1    C1 2717   0.192   4.271  15.867  0.3773  0.1678 -0.2656
  175MPD1    C2 2718   0.193   4.139  15.925 -0.2204 -0.0576 -0.1050
  175MPD1    C3 2719   0.083   4.063  15.943  0.6461  0.0891  0.2149
  175MPD1    C4 2720   4.709   4.126  15.899  0.4728  0.0530  0.2335
  175MPD1    C5 2721   4.693   4.255  15.862 -0.2385  0.4841 -0.3147
  175MPD1     H 2722   0.287   4.088  15.944 -1.1907 -2.4687 -1.7490
  175MPD1    H1 2723   4.611   4.084  15.916  0.3758  0.4266  0.6059
  175MPD1    H2 2724   0.063   4.434  15.824 -1.3687 -1.0185 -0.8421
  175MPD1    H3 2725   4.590   4.286  15.847 -0.5260  0.3789  1.4434
  175MPD1     N 2726   0.063   3.931  15.995 -0.1259  0.0444 -0.0106
  175MPD1    H5 2727   4.705   3.896  15.996 -0.6632  1.5291  0.2473
  175MPD1    N1 2728   0.304   4.348  15.848  0.0247 -0.1609 -0.6581
  175MPD1    H6 2729   0.384   4.286  15.846  1.2410  1.4216 -0.9470
  175MPD1    H7 2730   0.298   4.410  15.767 -0.9708  0.6359  0.0235
  176MPD1     C 2731   1.397   1.098  17.261  1.1765 -0.4144  0.8105
  176MPD1    C1 2732   1.535   1.089  17.240  0.3095  1.1124  0.4425
  176MPD1    C2 2733   1.618   1.128  17.345  1.0493 -0.2604 -0.1051
  176MPD1    C3 2734   1.572   1.185  17.461 -0.3844 -0.2304 -0.1094
  176MPD1    C4 2735   1.433   1.196  17.479 -0.1502  0.9523 -0.3197
  176MPD1    C5 2736   1.353   1.154  17.378  0.0763 -0.4436  0.2297
  176MPD1     H 2737   1.726   1.114  17.338  1.2227  0.6023  0.7982
  176MPD1    H1 2738   1.377   1.228  17.566 -0.0300  0.7224 -0.1598
  176MPD1    H2 2739   1.325   1.078  17.183  0.4121  3.4353  0.5390
  176MPD1    H3 2740   1.246   1.164  17.392 -0.2846 -0.5552 -2.4075
  176MPD1     N 2741   1.665   1.233  17.555 -0.0454 -0.1487 -0.2975
  176MPD1    H5 2742   1.760   1.235  17.520 -0.2709  2.3962 -0.7359
  176MPD1    N1 2743   1.588   1.031  17.121  0.0462 -0.0588  0.6565
  176MPD1    H6 2744   1.683   1.066  17.110 -0.4785  1.3858  0.6932
  176MPD1    H7 2745   1.535   1.059  17.038  0.6019 -1.3973 -0.1477
  177MPD1     C 2746   1.285   0.548   9.311 -0.1772 -0.5032  0.4325
  177MPD1    C1 2747   1.301   0.682   9.290  1.1624  0.0071 -0.2992
  177MPD1    C2 2748   1.195   0.761   9.339 -0.2985 -0.6244 -0.3977
  177MPD1    C3 2749   1.079   0.712   9.397  0.3087 -0.5966 -0.3405
  177MPD1    C4 2750   1.064   0.575   9.413  0.5760 -0.1541  0.4679
  177MPD1    C5 2751   1.171   0.498   9.369  0.2034 -0.0560 -0.4575
  177MPD1     H 2752   1.213   0.867   9.349 -1.4254 -0.5450  0.7413
  177MPD1    H1 2753   0.976   0.524   9.451  0.7996 -1.4625 -0.7761
  177MPD1    H2 2754   1.368   0.480   9.294 -2.7699 -3.8114  1.0054
  177MPD1    H3 2755   1.161   0.391   9.387  1.3033  0.1992  1.5866
  177MPD1     N 2756   0.978   0.802   9.442  0.1374  0.6714  0.9809
  177MPD1    H5 2757   0.984   0.902   9.429  1.1006  0.4842 -0.0764
  177MPD1    N1 2758   1.428   0.733   9.252  0.0960 -0.4856  0.0476
  177MPD1    H6 2759   1.477   0.659   9.202 -0.0826  0.0656 -0.9385
  177MPD1    H7 2760   1.406   0.813   9.194  1.6186  0.2095  0.4370
  178MPD1     C 2761   2.620   1.585   0.250  0.2332 -0.1286 -0.2397
  178MPD1    C1 2762   2.564   1.493   0.157 -0.3330  0.1287 -0.1118
  178MPD1    C2 2763   2.607   1.494   0.025 -0.1098 -0.0354  0.0858
  178MPD1    C3 2764   2.711   1.580  17.731  0.0417 -0.1518  0.7757
  178MPD1    C4 2765   2.765   1.659   0.079  0.5741  0.5016  0.1996
  178MPD1    C5 2766   2.722   1.667   0.206 -0.6160 -0.0138  0.1268
  178MPD1     H 2767   2.565   1.434  17.693  2.5617 -0.7900 -0.7516
  178MPD1    H1 2768   2.848   1.725   0.059  0.8626 -0.8940 -3.2044
  178MPD1    H2 2769   2.596   1.598   0.354 -1.9724  0.2872 -0.7907
  178MPD1    H3 2770   2.755   1.744   0.275  0.9408  0.4149 -1.0960
  178MPD1     N 2771   2.771   1.581  17.597  0.6802 -0.4171  0.2483
  178MPD1    H5 2772   2.843   1.651  17.582 -1.5912  1.8530 -0.0819
  178MPD1    N1 2773   2.450   1.408   0.183 -0.0415 -0.8715  0.0682
  178MPD1    H6 2774   2.460   1.318   0.137 -0.7048 -0.5404 -0.7211
  178MPD1    H7 2775   2.458   1.395   0.284  0.8800 -0.2852  0.0735
  179MPD1     C 2776   3.291   4.508  15.763 -0.7668 -0.1942  0.6430
  179MPD1    C1 2777   3.190   4.567  15.685  0.4771  0.8378  0.8630
  179MPD1    C2 2778   3.073   4.498  15.660  0.3846  0.7067 -0.3486
  179MPD1    C3 2779   3.060   4.367  15.701 -0.2123 -0.4097 -0.2330
  179MPD1    C4 2780   3.163   4.309  15.771 -0.2524 -0.3169  0.3208
  179MPD1    C5 2781   3.274   4.377  15.814  0.2851  0.3637  0.4945
  179MPD1     H 2782   2.988   4.546  15.612 -0.8179  1.9735  3.0617
  179MPD1    H1 2783   3.169   4.209  15.813 -1.2337 -0.8713 -0.8471
  179MPD1    H2 2784   3.372   4.573  15.795 -1.9646  0.9670  1.3059
  179MPD1    H3 2785   3.356   4.338  15.873  1.4644  1.4594 -0.4386
  179MPD1     N 2786   2.937   4.296  15.674 -0.1524 -0.2172  0.0423
  179MPD1    H5 2787   2.865   4.355  15.632 -0.2148 -0.3737 -0.0740
  179MPD1    N1 2788   3.202   4.707  15.671  0.5634  0.1504 -0.8661
  179MPD1    H6 2789   3.297   0.003  15.686 -0.2239  0.0014  4.3268
  179MPD1    H7 2790   3.168   4.731  15.578  0.1642 -2.0233 -1.2752
  180MPD1     C 2791   1.569   1.593  14.561  0.0667  0.2309  0.0285
  180MPD1    C1 2792   1.586   1.523  14.447 -0.3302 -0.3740  0.6911
  180MPD1    C2 2793   1.609   1.389  14.459  0.7667 -0.2458  0.5404
  180MPD1    C3 2794   1.626   1.324  14.578  0.5509  0.3075 -0.9070
  180MPD1    C4 2795   1.600   1.388  14.702 -0.2791 -0.0735  0.0914
  180MPD1    C5 2796   1.566   1.526  14.685  0.2890 -0.0189 -0.5301
  180MPD1     H 2797   1.618   1.323  14.373  1.1725 -1.0206  1.1872
  180MPD1    H1 2798   1.614   1.355  14.805 -0.7677 -0.3184  0.0804
  180MPD1    H2 2799   1.529   1.693  14.554 -0.6549 -0.1413 -1.2710
  180MPD1    H3 2800   1.560   1.587  14.775 -0.8243 -1.7542  0.5784
  180MPD1     N 2801   1.666   1.189  14.572 -0.6140 -0.2526 -0.1800
  180MPD1    H5 2802   1.679   1.140  14.484 -0.3799 -0.7794  0.1494
  180MPD1    N1 2803   1.588   1.586  14.322 -0.1034  0.2864  0.1586
  180MPD1    H6 2804   1.684   1.598  14.290 -0.4531 -1.9890 -1.6936
  180MPD1    H7 2805   1.548   1.679  14.332 -1.5995 -0.4391  0.9828
  181MPD1     C 2806   3.697   3.186   9.577 -0.0177  0.5330  0.5352
  181MPD1    C1 2807   3.685   3.258   9.690  0.0120  0.1304 -0.3741
  181MPD1    C2 2808   3.811   3.270   9.759  0.1598  0.2231 -0.4701
  181MPD1    C3 2809   3.920   3.191   9.736 -0.3141 -0.2009 -0.3342
  181MPD1    C4 2810   3.911   3.105   9.638 -0.7586 -0.4120 -0.7236
  181MPD1    C5 2811   3.803   3.107   9.556  0.0713 -0.2829 -0.3429
  181MPD1     H 2812   3.815   3.344   9.838 -0.3364 -0.9821  0.6852
  181MPD1    H1 2813   3.985   3.027   9.624  0.2036  0.1921  0.9700
  181MPD1    H2 2814   3.627   3.193   9.495 -0.9121  1.5095  1.3827
  181MPD1    H3 2815   3.812   3.042   9.469 -0.7928  1.6248 -1.8614
  181MPD1     N 2816   4.037   3.199   9.811 -0.2951 -0.3229 -0.2556
  181MPD1    H5 2817   4.115   3.149   9.770 -1.6160 -3.6639  1.2940
  181MPD1    N1 2818   3.585   3.355   9.708  0.1439 -0.2212 -0.2538
  181MPD1    H6 2819   3.491   3.322   9.689 -0.2576  1.0584 -0.5017
  181MPD1    H7 2820   3.575   3.382   9.805 -0.5504 -0.8494 -0.1481
  182MPD1     C 2821   0.255   1.626   1.306  0.7469  0.3617  0.2370
  182MPD1    C1 2822   0.315   1.748   1.303  0.4694  0.1084 -0.0799
  182MPD1    C2 2823   0.243   1.850   1.241 -0.0077  0.3019 -0.3167
  182MPD1    C3 2824   0.114   1.832   1.191 -0.3087  0.4887  0.6143
  182MPD1    C4 2825   0.059   1.710   1.194 -0.3130  0.1427  0.4828
  182MPD1    C5 2826   0.124   1.610   1.258  0.1264 -0.5812  0.1937
  182MPD1     H 2827   0.285   1.950   1.243 -1.1725  0.7969 -0.5075
  182MPD1    H1 2828   4.699   1.684   1.154 -0.5809  1.8053  0.0655
  182MPD1    H2 2829   0.308   1.542   1.349  0.4051  0.6987  1.2936
  182MPD1    H3 2830   0.079   1.513   1.272 -1.1782  0.1928  1.2730
  182MPD1     N 2831   0.031   1.934   1.134  0.1762  0.4201  0.3668
  182MPD1    H5 2832   4.676   1.896   1.115  0.9446 -0.7166 -1.0998
  182MPD1    N1 2833   0.442   1.775   1.352  0.1150  0.2818  0.1189
  182MPD1    H6 2834   0.488   1.698   1.400  3.1863  1.8201 -0.3707
  182MPD1    H7 2835   0.445   1.853   1.418 -0.5022  1.0549 -0.7812
  183MPD1     C 2836   2.083   3.545   9.125  0.0022 -0.3983 -0.0547
  183MPD1    C1 2837   2.117   3.451   9.220  0.3261  0.5460  0.0514
  183MPD1    C2 2838   2.011   3.418   9.301 -0.7667 -0.0744 -0.6108
  183MPD1    C3 2839   1.880   3.425   9.258 -0.4832 -0.2319  0.7716
  183MPD1    C4 2840   1.849   3.501   9.148  0.2581 -0.3164  0.0409
  183MPD1    C5 2841   1.953   3.560   9.086  0.0720 -0.5227 -0.6449
  183MPD1     H 2842   2.029   3.372   9.397 -0.1792  1.4426  0.0033
  183MPD1    H1 2843   1.745   3.519   9.125  1.0768 -0.9984 -4.2660
  183MPD1    H2 2844   2.162   3.596   9.071 -1.3833 -0.4740 -2.1535
  183MPD1    H3 2845   1.925   3.632   9.010 -1.0199 -0.2310  0.0400
  183MPD1     N 2846   1.783   3.370   9.344 -0.1194  0.2273 -0.0848
  183MPD1    H5 2847   1.822   3.320   9.423 -0.9663 -1.5360 -0.7907
  183MPD1    N1 2848   2.242   3.427   9.266  0.4517  0.1830 -0.1728
  183MPD1    H6 2849   2.248   3.335   9.310 -1.4185  0.2795  0.2856
  183MPD1    H7 2850   2.321   3.424   9.202 -0.1523 -0.4881 -0.8733
  184MPD1     C 2851   4.461   0.604  10.185  0.2614  0.1811 -0.5774
  184MPD1    C1 2852   4.368   0.630  10.089  0.3344 -0.3358  0.0756
  184MPD1    C2 2853   4.408   0.692   9.977  0.6104  1.1519  0.0917
  184MPD1    C3 2854   4.539   0.742   9.964 -0.3407  0.0435  0.3811
  184MPD1    C4 2855   4.631   0.723  10.064 -0.5200 -0.4087  0.1372
  184MPD1    C5 2856   4.588   0.654  10.171 -0.1398 -0.3372 -0.9248
  184MPD1     H 2857   4.338   0.711   9.897  0.0793 -0.6887  0.1075
  184MPD1    H1 2858   4.731   0.765  10.062 -0.8069  0.1596 -2.2034
  184MPD1    H2 2859   4.430   0.559  10.279 -1.1126  1.8197 -0.2523
  184MPD1    H3 2860   4.668   0.639  10.243 -0.1182 -0.5699 -0.9977
  184MPD1     N 2861   4.574   0.815   9.847 -0.3361  0.0098  0.0896
  184MPD1    H5 2862   4.667   0.853   9.835 -0.6966  0.3142 -1.6382
  184MPD1    N1 2863   4.233   0.594  10.107  0.4998 -0.1845 -0.4302
  184MPD1    H6 2864   4.220   0.515  10.171  1.5284  1.0036  1.2148
  184MPD1    H7 2865   4.189   0.560  10.022 -2.7751  0.8127  0.8546
  185MPD1     C 2866   4.255   1.502   9.089  0.0561  0.3216 -0.5700
  185MPD1    C1 2867   4.205   1.467   9.211  0.3461 -0.7122  0.0925
  185MPD1    C2 2868   4.273   1.364   9.275 -0.0936  0.1994 -0.3087
  185MPD1    C3 2869   4.397   1.321   9.233  0.2210 -0.1867 -0.1316
  185MPD1    C4 2870   4.454   1.383   9.122 -0.2336  0.1475 -0.5932
  185MPD1    C5 2871   4.378   1.471   9.049 -0.1364  0.0194  0.2419
  185MPD1     H 2872   4.225   1.318   9.360 -0.2686  1.2411  0.1585
  185MPD1    H1 2873   4.552   1.360   9.084  1.0643  3.5190  0.6711
  185MPD1    H2 2874   4.189   1.558   9.023  0.5970  2.6501  0.8810
  185MPD1    H3 2875   4.413   1.488   8.948 -0.3503  1.3281  0.3909
  185MPD1     N 2876   4.476   1.221   9.289  0.3927  0.1553  0.2449
  185MPD1    H5 2877   4.569   1.202   9.252 -0.9616  1.8901 -4.0726
  185MPD1    N1 2878   4.069   1.495   9.250 -0.0770 -0.0013 -0.5173
  185MPD1    H6 2879   4.055   1.472   9.348  0.8600 -1.0917 -0.6433
  185MPD1    H7 2880   4.056   1.596   9.242 -0.6871 -0.0747 -0.4372
  186MPD1     C 2881   2.548   4.436  15.769  0.0614 -0.2710 -0.8071
  186MPD1    C1 2882   2.657   4.512  15.759 -0.2394  0.2179  0.4555
  186MPD1    C2 2883   2.708   4.587  15.864 -0.7479 -0.5565  0.3074
  186MPD1    C3 2884   2.636   4.593  15.982  0.1129 -0.1950 -1.3203
  186MPD1    C4 2885   2.519   4.518  15.992 -0.0615  0.2711  0.1238
  186MPD1    C5 2886   2.472   4.439  15.883 -0.3545  0.8459 -0.0113
  186MPD1     H 2887   2.812   4.618  15.853 -1.3389  0.2887 -2.8410
  186MPD1    H1 2888   2.453   4.516  16.077  0.6504 -1.5469  0.6268
  186MPD1    H2 2889   2.515   4.378  15.684  2.0843 -0.5335 -1.4258
  186MPD1    H3 2890   2.384   4.376  15.895 -0.7485  0.9476 -2.3515
  186MPD1     N 2891   2.685   4.660  16.097  0.3133 -0.1133  0.1816
  186MPD1    H5 2892   2.624   4.676  16.177 -1.1728 -1.5623 -0.6938
  186MPD1    N1 2893   2.736   4.499  15.648 -0.1430 -0.0493 -0.1240
  186MPD1    H6 2894   2.669   4.469  15.577  1.1072  1.7484 -2.0635
  186MPD1    H7 2895   2.774   4.587  15.614  0.1036 -0.1469 -0.0996
  187MPD1     C 2896   2.216   1.998   0.329 -0.5462  0.3371 -0.8455
  187MPD1    C1 2897   2.249   2.119   0.276 -0.0904  0.2442  0.7878
  187MPD1    C2 2898   2.202   2.154   0.150  0.1951 -0.2112 -0.7642
  187MPD1    C3 2899   2.128   2.065   0.075  0.7128 -0.5479 -0.8573
  187MPD1    C4 2900   2.097   1.950   0.139  0.1676 -0.3734 -0.3763
  187MPD1    C5 2901   2.132   1.918   0.262 -0.0108  0.2655 -0.7188
  187MPD1     H 2902   2.232   2.246   0.100  0.8509 -1.2294 -2.2545
  187MPD1    H1 2903   2.029   1.880   0.091  0.4546 -1.7551  1.2406
  187MPD1    H2 2904   2.252   1.973   0.428  3.0931  2.9454 -1.5080
  187MPD1    H3 2905   2.105   1.819   0.297  2.9686 -0.5264 -0.7087
  187MPD1     N 2906   2.074   2.090  17.699 -0.3874  0.1855 -0.3021
  187MPD1    H5 2907   2.016   2.017  17.657  0.5398 -1.6746  1.6309
  187MPD1    N1 2908   2.354   2.190   0.331 -0.4243 -0.1212 -0.2774
  187MPD1    H6 2909   2.362   2.283   0.291 -1.5053 -0.1697 -0.6154
  187MPD1    H7 2910   2.355   2.192   0.433  2.4781 -1.5676 -0.2636
  188MPD1     C 2911   2.540   1.985  10.467  0.1958  0.1717  0.0177
  188MPD1    C1 2912   2.553   1.863  10.524 -0.5270  0.2901  0.2306
  188MPD1    C2 2913   2.521   1.747  10.460 -0.1797  0.5074 -0.4836
  188MPD1    C3 2914   2.485   1.754  10.325 -0.5509 -0.2764  0.1343
  188MPD1    C4 2915   2.483   1.872  10.260  0.2771 -0.4773 -0.5141
  188MPD1    C5 2916   2.501   1.983  10.334 -0.5537 -0.7561  0.0218
  188MPD1     H 2917   2.534   1.653  10.512  0.4305  0.4396 -0.7614
  188MPD1    H1 2918   2.442   1.882  10.160  1.6509  0.0220 -1.0232
  188MPD1    H2 2919   2.573   2.081  10.505 -1.3978  0.8860 -0.4224
  188MPD1    H3 2920   2.493   2.080  10.285  2.7482 -0.7609 -0.5040
  188MPD1     N 2921   2.457   1.638  10.243  0.3130 -0.0357  0.0147
  188MPD1    H5 2922   2.444   1.647  10.143 -0.6181  0.8725  0.2145
  188MPD1    N1 2923   2.565   1.856  10.667 -0.1120  0.2893 -0.3638
  188MPD1    H6 2924   2.585   1.762  10.698  2.1008  1.4536  1.7296
  188MPD1    H7 2925   2.616   1.934  10.708 -0.9280  0.4859  0.2870
  189MPD1     C 2926   3.354   2.721   0.639  0.0043 -1.0748 -0.2145
  189MPD1    C1 2927   3.223   2.676   0.638 -0.6706  0.2441 -0.5022
  189MPD1    C2 2928   3.128   2.768   0.595 -0.3261 -0.0357 -0.2291
  189MPD1    C3 2929   3.167   2.883   0.527 -0.1356  0.0658  0.0405
  189MPD1    C4 2930   3.297   2.922   0.529 -0.3385 -0.7844  0.2022
  189MPD1    C5 2931   3.386   2.847   0.592 -0.5850 -0.2703 -0.1216
  189MPD1     H 2932   3.022   2.744   0.606 -0.2289  0.6388  2.3112
  189MPD1    H1 2933   3.324   3.018   0.487 -1.3030 -0.3843  0.5071
  189MPD1    H2 2934   3.423   2.670   0.705  0.1603  0.4691  0.8144
  189MPD1    H3 2935   3.489   2.877   0.605 -0.1958 -2.0938  0.9529
  189MPD1     N 2936   3.080   2.949   0.444 -0.4594 -0.1730 -0.0817
  189MPD1    H5 2937   2.994   2.899   0.427  0.1901 -1.4429  0.3510
  189MPD1    N1 2938   3.188   2.557   0.708  0.1291  0.4868 -0.0837
  189MPD1    H6 2939   3.260   2.487   0.723 -0.4881  0.3013  2.0161
  189MPD1    H7 2940   3.106   2.510   0.673 -0.3978 -0.6716  2.7289
  190MPD1     C 2941   2.682   0.462  16.131  0.0313  0.6506  0.0499
  190MPD1    C1 2942   2.773   0.496  16.033  0.1212  0.3613  0.2547
  190MPD1    C2 2943   2.777   0.630  15.986 -0.5174 -0.1850  0.3687
  190MPD1    C3 2944   2.691   0.726  16.028  1.0528 -0.5158 -0.0499
  190MPD1    C4 2945   2.597   0.687  16.125  0.3201 -0.5083  0.5465
  190MPD1    C5 2946   2.595   0.559  16.176 -0.2080  0.5310  0.4961
  190MPD1     H 2947   2.855   0.660  15.916  0.1162 -1.0155  0.7273
  190MPD1    H1 2948   2.530   0.755  16.177 -2.0936 -2.6775  0.2612
  190MPD1    H2 2949   2.679   0.364  16.177  0.7061  1.0292  0.8974
  190MPD1    H3 2950   2.525   0.534  16.254  0.3787 -0.2464  0.7717
  190MPD1     N 2951   2.699   0.858  15.979 -0.1156  0.1372 -0.2556
  190MPD1    H5 2952   2.768   0.873  15.906  1.1673  0.5855  1.0563
  190MPD1    N1 2953   2.867   0.399  15.999 -0.0326 -0.2553 -0.8434
  190MPD1    H6 2954   2.910   0.418  15.909 -1.1909  1.9376 -0.9306
  190MPD1    H7 2955   2.808   0.317  15.995 -0.0160 -0.4209  1.9847
  191MPD1     C 2956   1.337   3.131  13.057  0.4834 -0.2404  0.1884
  191MPD1    C1 2957   1.280   3.209  12.954 -0.0310  0.1320  0.4198
  191MPD1    C2 2958   1.329   3.206  12.823 -0.8735  0.2214 -0.2049
  191MPD1    C3 2959   1.446   3.141  12.795 -0.3438 -1.0881  0.4700
  191MPD1    C4 2960   1.503   3.045  12.897 -0.7182  0.7039 -0.7833
  191MPD1    C5 2961   1.442   3.047  13.024 -0.3018  0.5120 -0.5018
  191MPD1     H 2962   1.277   3.262  12.745  2.0476 -1.3077 -3.2797
  191MPD1    H1 2963   1.584   2.975  12.881  1.3368  2.7315  0.7974
  191MPD1    H2 2964   1.294   3.134  13.157 -0.3358  0.8711 -0.1922
  191MPD1    H3 2965   1.478   2.982  13.103 -0.5972  0.4166 -0.4460
  191MPD1     N 2966   1.504   3.151  12.673 -0.3409 -0.0163  0.1058
  191MPD1    H5 2967   1.458   3.207  12.601 -1.0004  0.1086  0.6316
  191MPD1    N1 2968   1.177   3.306  12.978  0.0401  0.0120 -0.3836
  191MPD1    H6 2969   1.150   3.293  13.075  0.6926  0.9786 -0.0724
  191MPD1    H7 2970   1.101   3.278  12.917  0.6605 -2.5575  0.0188
  192MPD1     C 2971   1.357   3.164  11.704 -0.1731  0.1486  0.1924
  192MPD1    C1 2972   1.287   3.133  11.819  0.3691 -0.3437 -0.6353
  192MPD1    C2 2973   1.350   3.136  11.941  0.3709  0.5140 -0.0895
  192MPD1    C3 2974   1.482   3.175  11.942  0.2984 -0.2255  0.2568
  192MPD1    C4 2975   1.547   3.217  11.825 -0.0950  0.4443  0.1189
  192MPD1    C5 2976   1.482   3.208  11.705  0.2224 -0.1255  0.5395
  192MPD1     H 2977   1.301   3.103  12.032 -1.4329 -0.3549 -1.3661
  192MPD1    H1 2978   1.649   3.252  11.828 -0.5236  1.9305 -3.3830
  192MPD1    H2 2979   1.308   3.142  11.610 -3.8202  1.7039  1.7109
  192MPD1    H3 2980   1.536   3.229  11.613 -1.8202 -1.7779 -1.0312
  192MPD1     N 2981   1.556   3.183  12.059  0.2389 -0.2012 -0.0352
  192MPD1    H5 2982   1.652   3.217  12.050  1.0132 -1.9244  1.8124
  192MPD1    N1 2983   1.151   3.084  11.812 -0.5025  0.3528  0.4502
  192MPD1    H6 2984   1.105   3.130  11.734 -0.4158  0.2581  0.3442
  192MPD1    H7 2985   1.103   3.114  11.897  2.7406  0.0162  2.4080
  193MPD1     C 2986   1.708   2.392  16.381  0.5305 -0.6367  0.0656
  193MPD1    C1 2987   1.707   2.439  16.508 -0.0198 -0.0712 -0.8784
  193MPD1    C2 2988   1.721   2.581  16.530  0.1841 -0.4544  0.3882
  193MPD1    C3 2989   1.732   2.668  16.418 -0.2788 -0.2068  0.4412
  193MPD1    C4 2990   1.717   2.620  16.291 -0.8181 -0.4250 -0.5737
  193MPD1    C5 2991   1.710   2.478  16.268 -0.3389  0.2626  0.3595
  193MPD1     H 2992   1.737   2.627  16.627 -0.8490  0.5759  0.0709
  193MPD1    H1 2993   1.719   2.687  16.205 -0.3468  1.1789  0.7022
  193MPD1    H2 2994   1.708   2.286  16.358 -3.6659 -0.6110 -0.0643
  193MPD1    H3 2995   1.706   2.444  16.165 -2.0377  1.2358  0.1093
  193MPD1     N 2996   1.765   2.808  16.436 -0.0245 -0.1270  0.2046
  193MPD1    H5 2997   1.791   2.862  16.354 -0.7639 -0.4150 -0.2281
  193MPD1    N1 2998   1.708   2.349  16.622 -0.2114  0.0283 -0.4968
  193MPD1    H6 2999   1.687   2.402  16.706  3.0537  1.2931 -0.4628
  193MPD1    H7 3000   1.629   2.287  16.604 -0.3536  1.0033 -3.1913
  194MPD1     C 3001   0.791   0.578  16.765  0.2273  0.4751 -0.2125
  194MPD1    C1 3002   0.777   0.444  16.730  0.4305  1.0140 -0.0352
  194MPD1    C2 3003   0.669   0.381  16.793  0.1104 -0.8518 -0.2487
  194MPD1    C3 3004   0.601   0.433  16.903 -0.3899  0.2356 -0.1200
  194MPD1    C4 3005   0.640   0.556  16.953  0.1657  0.3737 -0.6575
  194MPD1    C5 3006   0.734   0.621  16.882  0.4432 -0.3788 -0.3520
  194MPD1     H 3007   0.634   0.291  16.743  4.1527 -2.1197 -0.7662
  194MPD1    H1 3008   0.621   0.591  17.054 -0.3647  1.0306 -0.9945
  194MPD1    H2 3009   0.860   0.642  16.711  0.6898 -1.0657 -1.4285
  194MPD1    H3 3010   0.779   0.711  16.923 -4.2697  1.8827 -0.1633
  194MPD1     N 3011   0.499   0.363  16.965 -0.2639  0.1005 -0.5812
  194MPD1    H5 3012   0.443   0.414  17.032  0.7009  0.6279 -0.1812
  194MPD1    N1 3013   0.819   0.403  16.602 -0.0307  0.9756 -1.2781
  194MPD1    H6 3014   0.909   0.444  16.581  1.0274 -0.3866  0.6491
  194MPD1    H7 3015   0.837   0.303  16.608  1.4667  1.4877  2.5591
  195MPD1     C 3016   0.395   2.549   0.452  0.1270 -0.5087  0.5117
  195MPD1    C1 3017   0.489   2.534   0.552  0.3606  0.4381  0.3397
  195MPD1    C2 3018   0.586   2.433   0.543  0.8214  0.5345 -0.3123
  195MPD1    C3 3019   0.585   2.341   0.441  0.2918  0.1341 -0.0389
  195MPD1    C4 3020   0.487   2.362   0.342 -0.1799 -0.6099 -0.7231
  195MPD1    C5 3021   0.390   2.459   0.351 -0.0523 -0.4556  0.2165
  195MPD1     H 3022   0.661   2.425   0.621 -0.6061  3.6311  1.3909
  195MPD1    H1 3023   0.480   2.296   0.256  2.9312 -2.3144  0.3256
  195MPD1    H2 3024   0.333   2.638   0.444 -0.9946 -1.3056  0.3654
  195MPD1    H3 3025   0.316   2.474   0.273 -0.8006 -3.6783  0.3051
  195MPD1     N 3026   0.674   2.228   0.426 -0.1135  0.2007 -0.2733
  195MPD1    H5 3027   0.646   2.160   0.356  1.2691 -0.1020 -0.5275
  195MPD1    N1 3028   0.503   2.638   0.647  0.4042 -0.4132  0.5914
  195MPD1    H6 3029   0.553   2.599   0.726 -2.1856 -1.5723  1.6578
  195MPD1    H7 3030   0.415   2.672   0.686 -0.1598 -1.2867  0.0695
  196MPD1     C 3031   0.671   0.652   0.389  0.0026  0.5883 -0.4471
  196MPD1    C1 3032   0.773   0.740   0.423  0.2137  0.1140 -0.9612
  196MPD1    C2 3033   0.737   0.867   0.467  0.0843  0.3189  0.1272
  196MPD1    C3 3034   0.604   0.895   0.483 -0.9299 -0.1381  0.0666
  196MPD1    C4 3035   0.506   0.801   0.449  0.5515 -0.7659 -0.2149
  196MPD1    C5 3036   0.541   0.686   0.408  1.1780  0.1043  0.2660
  196MPD1     H 3037   0.815   0.937   0.494  1.5105 -1.0378 -0.4783
  196MPD1    H1 3038   0.400   0.818   0.464  0.8560  1.0368 -0.0090
  196MPD1    H2 3039   0.687   0.553   0.348  0.6764  1.9480 -3.4521
  196MPD1    H3 3040   0.474   0.609   0.371  2.8305 -0.2257 -2.0146
  196MPD1     N 3041   0.551   1.020   0.521 -0.4624  0.2900  0.3566
  196MPD1    H5 3042   0.454   1.027   0.549 -0.3590  2.2299  0.2231
  196MPD1    N1 3043   0.906   0.699   0.442  0.0789  0.9121 -0.2725
  196MPD1    H6 3044   0.973   0.776   0.449  0.4794  0.6485 -1.2509
  196MPD1    H7 3045   0.941   0.638   0.368  0.0972  1.3031 -0.5840
  197MPD1     C 3046   0.126   3.562  17.548 -0.1977 -0.8067 -0.5368
  197MPD1    C1 3047   0.060   3.681  17.576 -0.7697 -0.5274 -0.6736
  197MPD1    C2 3048   0.035   3.769  17.479 -0.4811 -1.1377 -0.1178
  197MPD1    C3 3049   0.087   3.750  17.347 -0.7608  0.5257 -0.9643
  197MPD1    C4 3050   0.170   3.639  17.329 -0.0228  0.4719  0.0671
  197MPD1    C5 3051   0.188   3.544  17.425  0.2656  0.0171  0.0857
  197MPD1     H 3052   4.707   3.854  17.496  1.0663 -0.1609  1.0049
  197MPD1    H1 3053   0.205   3.617  17.229  1.5437  1.8330  0.3201
  197MPD1    H2 3054   0.141   3.478  17.614 -2.4768 -1.0033 -0.2609
  197MPD1    H3 3055   0.229   3.448  17.396 -0.2001 -0.2841  0.4197
  197MPD1     N 3056   0.068   3.835  17.232 -0.4045 -0.0360  0.0141
  197MPD1    H5 3057   0.107   3.812  17.141  0.6852  0.3452  0.3842
  197MPD1    N1 3058   4.728   3.686  17.697  0.3355  0.4198  0.0260
  197MPD1    H6 3059   4.701   3.779  17.728 -1.2919 -0.2730  0.6990
  197MPD1    H7 3060   0.027   3.621   0.019  1.1991  0.0949 -0.7268
  198MPD1     C 3061   2.270   1.481  14.706 -0.5284  0.6422  0.5810
  198MPD1    C1 3062   2.412   1.468  14.708 -0.4535  0.4809 -0.3966
  198MPD1    C2 3063   2.475   1.540  14.812 -0.4682  0.0208  0.1226
  198MPD1    C3 3064   2.406   1.596  14.922  0.4324 -0.2789 -0.5589
  198MPD1    C4 3065   2.267   1.591  14.916 -0.2696 -0.2444 -0.0024
  198MPD1    C5 3066   2.200   1.540  14.808 -0.1898  0.0981 -0.0187
  198MPD1     H 3067   2.582   1.557  14.819 -0.1568 -1.5963 -0.8848
  198MPD1    H1 3068   2.206   1.634  14.995  1.4480  1.4978  0.3934
  198MPD1    H2 3069   2.210   1.429  14.632 -0.5680 -0.8559  1.6589
  198MPD1    H3 3070   2.092   1.528  14.815 -0.4015  1.8058 -0.2668
  198MPD1     N 3071   2.479   1.679  15.007 -0.6828 -0.1863 -0.2735
  198MPD1    H5 3072   2.579   1.683  14.988 -0.7161 -1.0119 -0.6118
  198MPD1    N1 3073   2.490   1.419  14.602 -0.2820 -0.6192 -0.5727
  198MPD1    H6 3074   2.463   1.331  14.559 -1.6090 -0.8100  0.6339
  198MPD1    H7 3075   2.581   1.384  14.630 -1.0670 -1.4194  0.9840
  199MPD1     C 3076   4.457   3.280   9.604  0.0641  0.6822 -0.3452
  199MPD1    C1 3077   4.320   3.263   9.576 -0.0333 -0.5990 -0.2027
  199MPD1    C2 3078   4.229   3.363   9.611 -0.7363  0.7864 -0.0453
  199MPD1    C3 3079   4.269   3.477   9.673 -0.0259 -0.4719 -0.3441
  199MPD1    C4 3080   4.410   3.500   9.699 -0.0857  0.6163 -1.2644
  199MPD1    C5 3081   4.495   3.398   9.667 -0.2367  0.1577  0.3022
  199MPD1     H 3082   4.121   3.360   9.599 -0.7025 -0.1298 -0.1308
  199MPD1    H1 3083   4.453   3.593   9.734  1.4037 -0.8100  0.6693
  199MPD1    H2 3084   4.528   3.199   9.588  0.6470  2.0132 -4.5259
  199MPD1    H3 3085   4.601   3.416   9.682  0.5799 -2.1509 -2.6553
  199MPD1     N 3086   4.166   3.566   9.721 -0.4287  0.7695  0.6994
  199MPD1    H5 3087   4.072   3.550   9.684 -0.1916  1.4779 -0.2164
  199MPD1    N1 3088   4.258   3.143   9.543 -0.3237  0.1563  0.1269
  199MPD1    H6 3089   4.173   3.159   9.489 -1.8708 -0.9187  2.2148
  199MPD1    H7 3090   4.320   3.079   9.493 -1.5677  1.5663 -3.2410
  200MPD1     C 3091   4.425   4.017  15.131 -0.7137 -0.1608 -0.6608
  200MPD1    C1 3092   4.400   3.902  15.052  0.1397 -1.1899  0.1603
  200MPD1    C2 3093   4.306   3.906  14.953  0.5030  0.1214  0.0761
  200MPD1    C3 3094   4.236   4.025  14.924 -0.1609  0.0984  0.0910
  200MPD1    C4 3095   4.275   4.137  15.000  0.7405  0.8423  0.6079
  200MPD1    C5 3096   4.350   4.128  15.110 -0.0867 -0.5891  0.0348
  200MPD1     H 3097   4.272   3.817  14.902  1.7964  0.3413 -1.1573
  200MPD1    H1 3098   4.228   4.234  14.990  1.5293  1.0654 -0.9472
  200MPD1    H2 3099   4.498   4.018  15.211 -0.4674 -1.7035 -0.8545
  200MPD1    H3 3100   4.359   4.214  15.175 -2.2446  1.4460 -2.3429
  200MPD1     N 3101   4.139   4.026  14.819 -0.0612  0.0807 -0.3749
  200MPD1    H5 3102   4.130   3.944  14.759 -1.5092  0.8059 -1.1476
  200MPD1    N1 3103   4.448   3.777  15.096  0.0969  1.2959 -0.3122
  200MPD1    H6 3104   4.446   3.698  15.032 -0.5240 -1.2115  2.8108
  200MPD1    H7 3105   4.541   3.783  15.137 -0.1272 -0.0772  0.4058
  201MPD1     C 3106   1.203   2.835  12.896  0.6968  0.1485 -0.2310
  201MPD1    C1 3107   1.180   2.774  13.014  0.4724 -0.1420  0.1899
  201MPD1    C2 3108   1.220   2.649  13.035  0.6937  0.6001  0.2493
  201MPD1    C3 3109   1.273   2.567  12.932 -0.1479 -0.7033  0.4394
  201MPD1    C4 3110   1.291   2.629  12.810 -0.4070  0.4075  0.2234
  201MPD1    C5 3111   1.263   2.758  12.796 -0.2955  0.0893  0.3272
  201MPD1     H 3112   1.209   2.609  13.135 -1.0629  0.2586 -0.0850
  201MPD1    H1 3113   1.313   2.570  12.722 -0.4669 -0.2512  0.6495
  201MPD1    H2 3114   1.174   2.939  12.880 -1.5757 -0.4953 -0.3003
  201MPD1    H3 3115   1.268   2.804  12.698 -2.1628  0.1500  0.2555
  201MPD1     N 3116   1.289   2.427  12.949 -0.3756  0.6484  0.1899
  201MPD1    H5 3117   1.272   2.396  13.043 -1.1528 -1.3039 -0.6044
  201MPD1    N1 3118   1.144   2.854  13.121  0.8584  0.8779  0.7529
  201MPD1    H6 3119   1.120   2.948  13.090 -0.9978  0.1108 -0.0651
  201MPD1    H7 3120   1.073   2.819  13.184  1.8053 -1.5791  0.4564
  202MPD1     C 3121   1.305   1.942   9.086  0.3453  0.7195 -0.0563
  202MPD1    C1 3122   1.251   2.003   9.199  0.5177 -0.0779 -0.5706
  202MPD1    C2 3123   1.355   2.059   9.274 -0.2483 -0.5130  0.2899
  202MPD1    C3 3124   1.476   1.996   9.275 -1.0573  0.3745  0.1461
  202MPD1    C4 3125   1.514   1.903   9.185 -0.4144 -0.4738 -0.7432
  202MPD1    C5 3126   1.430   1.880   9.080  0.2516 -0.0801  0.2980
  202MPD1     H 3127   1.317   2.106   9.364  0.7551  1.0694 -0.1202
  202MPD1    H1 3128   1.615   1.863   9.186 -0.2660 -0.0792 -0.2446
  202MPD1    H2 3129   1.246   1.924   8.997 -1.2992  0.5389  1.0890
  202MPD1    H3 3130   1.455   1.831   8.986 -0.5966 -0.7919  0.4464
  202MPD1     N 3131   1.571   2.022   9.380 -0.3068 -0.0433 -0.0499
  202MPD1    H5 3132   1.639   1.950   9.399 -1.8137 -1.7108 -0.9829
  202MPD1    N1 3133   1.131   2.075   9.184  0.0908  0.1784  0.4068
  202MPD1    H6 3134   1.093   2.120   9.266 -2.5153  2.9822 -2.3245
  202MPD1    H7 3135   1.058   2.020   9.140  0.7733 -1.9957  2.0248
  203MPD1     C 3136   0.156   2.594  12.615  0.8128  0.1159  0.4127
  203MPD1    C1 3137   0.193   2.527  12.501 -0.0448  0.3694  0.1585
  203MPD1    C2 3138   0.318   2.462  12.506 -0.3234 -0.6210  0.1152
  203MPD1    C3 3139   0.410   2.475  12.612  0.1598 -0.3622  0.2077
  203MPD1    C4 3140   0.366   2.552  12.724  0.3027  0.3983  0.2645
  203MPD1    C5 3141   0.236   2.601  12.723 -0.6756 -0.3015 -0.5538
  203MPD1     H 3142   0.357   2.390  12.435  0.4248 -0.6471  0.5576
  203MPD1    H1 3143   0.429   2.562  12.812  2.4478  0.9796 -1.3346
  203MPD1    H2 3144   0.065   2.651  12.632  0.1189 -0.8400 -0.1569
  203MPD1    H3 3145   0.192   2.653  12.807  0.5065 -0.1077 -0.0515
  203MPD1     N 3146   0.533   2.391  12.609  0.6792 -0.1550  0.7017
  203MPD1    H5 3147   0.535   2.321  12.536 -0.1020  0.7514 -0.1749
  203MPD1    N1 3148   0.099   2.517  12.400  0.4493  0.6887  0.0765
  203MPD1    H6 3149   0.139   2.498  12.308 -0.5859 -0.0534 -0.2329
  203MPD1    H7 3150   0.052   2.607  12.388 -0.9228 -0.1834 -1.1523
  204MPD1     C 3151   3.449   4.247  17.396  0.3411  0.4765  0.8412
  204MPD1    C1 3152   3.574   4.269  17.359 -0.2365  0.6724  0.3194
  204MPD1    C2 3153   3.670   4.164  17.360  0.4367  0.1496  0.6495
  204MPD1    C3 3154   3.632   4.038  17.391 -0.7706 -0.4806 -1.4982
  204MPD1    C4 3155   3.500   4.016  17.426  0.0010 -0.2587  0.1859
  204MPD1    C5 3156   3.408   4.119  17.418 -0.3552 -0.2403 -0.1508
  204MPD1     H 3157   3.777   4.181  17.347  0.4835  0.9187  2.1012
  204MPD1    H1 3158   3.462   3.917  17.448 -0.3098  0.2287  1.8496
  204MPD1    H2 3159   3.372   4.324  17.393  0.0365  0.1524  0.1941
  204MPD1    H3 3160   3.303   4.095  17.431 -0.2647 -1.0147 -0.8654
  204MPD1     N 3161   3.719   3.924  17.383 -0.0256 -0.0554 -0.0738
  204MPD1    H5 3162   3.809   3.940  17.340 -0.2332 -0.3588 -0.6292
  204MPD1    N1 3163   3.614   4.400  17.344  0.1583  0.0033 -0.6078
  204MPD1    H6 3164   3.690   4.399  17.277  0.5077 -2.1383 -0.1756
  204MPD1    H7 3165   3.546   4.460  17.297 -0.4058 -0.1471 -0.0045
  205MPD1     C 3166   4.702   2.989   0.679 -0.4340 -0.0875  0.1935
  205MPD1    C1 3167   4.713   2.858   0.633  0.4453 -0.3819  0.3722
  205MPD1    C2 3168   4.661   2.829   0.509  0.3670  0.0277 -0.3826
  205MPD1    C3 3169   4.596   2.932   0.435 -0.7350 -0.9128 -0.0649
  205MPD1    C4 3170   4.587   3.052   0.489  0.4630  0.5554 -0.3175
  205MPD1    C5 3171   4.634   3.082   0.609  0.2188  1.0423 -0.4506
  205MPD1     H 3172   4.679   2.729   0.471 -1.5884 -0.3456 -0.2907
  205MPD1    H1 3173   4.549   3.140   0.438  1.0089  0.8509 -0.2237
  205MPD1    H2 3174   4.713   3.011   0.784 -1.8995 -1.2552  0.5865
  205MPD1    H3 3175   4.601   3.180   0.643 -1.0280  0.7169 -0.7416
  205MPD1     N 3176   4.547   2.908   0.305  0.9136  0.2446 -0.1892
  205MPD1    H5 3177   4.506   2.990   0.262 -1.7181 -2.1316 -2.2527
  205MPD1    N1 3178   0.055   2.760   0.705  0.3095  0.7136  0.1512
  205MPD1    H6 3179   0.047   2.776   0.805  2.1220  1.8772  0.1133
  205MPD1    H7 3180   0.031   2.667   0.672  4.0112 -0.3337  0.4482
  206MPD1     C 3181   3.631   0.707  16.682  0.1032  0.1939 -0.2872
  206MPD1    C1 3182   3.730   0.621  16.627 -0.2474 -0.2441  0.1570
  206MPD1    C2 3183   3.774   0.645  16.500 -0.0693  0.2801  0.1507
  206MPD1    C3 3184   3.728   0.751  16.422 -0.0702 -0.6319 -1.1374
  206MPD1    C4 3185   3.635   0.838  16.480 -0.0215 -0.2230  0.5149
  206MPD1    C5 3186   3.585   0.814  16.609  0.1716  0.3584  0.0225
  206MPD1     H 3187   3.857   0.588  16.461  0.6447  0.3713  1.5555
  206MPD1    H1 3188   3.600   0.924  16.425 -2.0548 -0.8470  0.8419
  206MPD1    H2 3189   3.573   0.685  16.771  0.8303  0.7816  0.3375
  206MPD1    H3 3190   3.507   0.878  16.649  0.5278  1.4019 -0.9469
  206MPD1     N 3191   3.774   0.783  16.290 -0.6412  0.2108 -0.1140
  206MPD1    H5 3192   3.745   0.872  16.252  0.8248  1.7277  2.2742
  206MPD1    N1 3193   3.794   0.532  16.710 -0.0305 -0.6189  0.1357
  206MPD1    H6 3194   3.795   0.443  16.661 -0.4475 -1.2983  1.3389
  206MPD1    H7 3195   3.746   0.535  16.800  1.1551 -0.8902  0.7865
  207MPD1     C 3196   1.879   2.989  10.178  0.1378  0.0370 -0.4889
  207MPD1    C1 3197   1.914   3.122  10.161  0.3188 -0.4166 -0.2082
  207MPD1    C2 3198   1.990   3.187  10.259  0.1467 -0.3478 -0.1872
  207MPD1    C3 3199   2.057   3.106  10.350 -0.3170 -0.1143 -0.5745
  207MPD1    C4 3200   2.042   2.972  10.350 -0.4317 -0.1607 -0.4785
  207MPD1    C5 3201   1.950   2.913  10.269 -0.8190 -0.4344 -0.1663
  207MPD1     H 3202   2.003   3.294  10.260  3.7959 -0.7621 -1.1998
  207MPD1    H1 3203   2.099   2.908  10.417 -0.6720 -2.3692 -2.3668
  207MPD1    H2 3204   1.797   2.943  10.125 -0.5871  1.5524 -0.6803
  207MPD1    H3 3205   1.932   2.806  10.274 -0.7800 -0.5260 -2.1454
  207MPD1     N 3206   2.152   3.155  10.443 -0.8001  0.3680 -0.3927
  207MPD1    H5 3207   2.207   3.080  10.483  1.1330  1.9943 -0.0734
  207MPD1    N1 3208   1.844   3.205  10.069  0.0849 -0.0213 -0.1809
  207MPD1    H6 3209   1.821   3.156   9.982 -1.0643 -0.7288  0.5176
  207MPD1    H7 3210   1.906   3.281  10.043 -0.5022  1.6036  3.1242
  208MPD1     C 3211   4.413   1.038  17.529 -0.4839  0.0443  0.3505
  208MPD1    C1 3212   4.418   1.141  17.442 -0.4107 -0.4665 -0.4948
  208MPD1    C2 3213   4.447   1.276  17.483 -0.4408  0.3838  0.3018
  208MPD1    C3 3214   4.443   1.307  17.616  0.1298  0.2801 -0.2092
  208MPD1    C4 3215   4.422   1.194  17.705  0.7671  0.4682  0.6537
  208MPD1    C5 3216   4.415   1.069  17.664 -0.4468  0.3956  0.0694
  208MPD1     H 3217   4.452   1.347  17.401 -0.9077  0.4662  0.3475
  208MPD1    H1 3218   4.422   1.202   0.065  0.3019  0.0878  0.6824
  208MPD1    H2 3219   4.405   0.933  17.505  2.8343 -0.0959 -0.2139
  208MPD1    H3 3220   4.413   0.983  17.729 -1.2298  0.7427  0.5013
  208MPD1     N 3221   4.446   1.440  17.660 -0.2621 -0.2266  0.0401
  208MPD1    H5 3222   4.478   1.508  17.592 -0.2935  1.5976  1.8559
  208MPD1    N1 3223   4.434   1.109  17.303 -0.0159 -0.4563 -0.8752
  208MPD1    H6 3224   4.428   1.187  17.238 -1.6716 -0.9782 -1.3504
  208MPD1    H7 3225   4.369   1.037  17.273  0.5933  0.0263 -3.2957
  209MPD1     C 3226   2.921   3.464  11.853 -0.1466  0.1962 -0.3924
  209MPD1    C1 3227   2.859   3.462  11.730  0.7828 -0.6737  0.2344
  209MPD1    C2 3228   2.831   3.340  11.680 -0.7226 -0.4653  0.2015
  209MPD1    C3 3229   2.830   3.220  11.750  0.0834 -0.6862 -0.2357
  209MPD1    C4 3230   2.890   3.219  11.873  0.3300 -0.1111 -0.2530
  209MPD1    C5 3231   2.936   3.341  11.921  0.3786  0.0626 -0.0090
  209MPD1     H 3232   2.794   3.341  11.578 -0.9866 -1.8446  0.2775
  209MPD1    H1 3233   2.900   3.128  11.931  1.4065 -0.3922 -0.8845
  209MPD1    H2 3234   2.964   3.556  11.891  0.4841 -0.1369 -0.2883
  209MPD1    H3 3235   2.979   3.342  12.021  0.5142  0.4184 -0.0697
  209MPD1     N 3236   2.766   3.114  11.692 -0.6136  0.5712  0.0525
  209MPD1    H5 3237   2.708   3.130  11.610  0.0283  2.4332 -0.0344
  209MPD1    N1 3238   2.894   3.571  11.650 -0.1376  0.0586 -0.0258
  209MPD1    H6 3239   2.816   3.572  11.583  1.2436  0.1290 -1.6321
  209MPD1    H7 3240   2.901   3.654  11.708 -0.4927  1.5828 -2.1276
  210MPD1     C 3241   2.440   2.297  12.105  0.6081 -0.5135 -0.4670
  210MPD1    C1 3242   2.489   2.270  11.980 -1.1591  0.1597 -0.0756
  210MPD1    C2 3243   2.476   2.367  11.883  0.5158  0.0848 -0.0822
  210MPD1    C3 3244   2.431   2.495  11.923  0.1968  0.2153 -0.2926
  210MPD1    C4 3245   2.379   2.514  12.048  0.5984  0.2388  0.4490
  210MPD1    C5 3246   2.382   2.416  12.139  0.1580  0.1477 -0.0026
  210MPD1     H 3247   2.512   2.347  11.783  1.3390 -1.9381  0.6061
  210MPD1    H1 3248   2.353   2.617  12.069  0.4613  0.1389  0.7723
  210MPD1    H2 3249   2.439   2.210  12.170 -1.0647 -0.6688 -0.7012
  210MPD1    H3 3250   2.344   2.428  12.240  1.4373 -1.1667  0.6385
  210MPD1     N 3251   2.426   2.615  11.842  0.2630  0.0255  0.1147
  210MPD1    H5 3252   2.408   2.702  11.889 -1.4196 -0.3772  0.1915
  210MPD1    N1 3253   2.569   2.156  11.957 -0.0217  0.0277  0.4394
  210MPD1    H6 3254   2.523   2.071  11.988  1.6687 -0.9819  0.2028
  210MPD1    H7 3255   2.588   2.144  11.857 -1.6794 -2.5864  0.4302
  211MPD1     C 3256   4.707   2.006  16.301  0.1189 -0.4982 -0.4158
  211MPD1    C1 3257   4.701   2.147  16.287 -0.5910  0.6652 -0.2450
  211MPD1    C2 3258   4.584   2.211  16.307 -0.8078  0.6367 -0.0029
  211MPD1    C3 3259   4.463   2.140  16.329  0.4202 -0.5049 -0.0526
  211MPD1    C4 3260   4.469   2.005  16.345  0.0120  0.1350 -0.2906
  211MPD1    C5 3261   4.588   1.943  16.335  0.1217 -0.0787  0.3963
  211MPD1     H 3262   4.567   2.318  16.293  0.2646  0.7475 -0.4074
  211MPD1    H1 3263   4.389   1.932  16.345 -0.8289  1.0591 -0.6614
  211MPD1    H2 3264   0.056   1.943  16.282 -0.6395 -1.5001 -0.4950
  211MPD1    H3 3265   4.588   1.836  16.347  2.8330 -0.1520 -0.0718
  211MPD1     N 3266   4.346   2.223  16.323 -0.6826  0.1659  0.5099
  211MPD1    H5 3267   4.357   2.321  16.301 -1.7458  0.2537  0.3750
  211MPD1    N1 3268   0.071   2.217  16.227  0.3484  0.8719  0.5441
  211MPD1    H6 3269   0.067   2.314  16.255  0.3763  0.7093  1.1196
  211MPD1    H7 3270   0.160   2.177  16.254  1.3936  1.5088 -1.9636
  212MPD1     C 3271   3.860   0.974  17.022  1.4742  0.4288  1.0050
  212MPD1    C1 3272   3.904   0.846  16.991  0.1281 -0.6119 -0.0590
  212MPD1    C2 3273   3.816   0.742  16.994  0.4928 -0.5288 -0.8903
  212MPD1    C3 3274   3.685   0.761  17.016 -0.6125  0.4727 -0.1806
  212MPD1    C4 3275   3.637   0.890  17.023  0.1624 -0.2985  0.3032
  212MPD1    C5 3276   3.726   0.995  17.034 -0.3354  0.2341  0.5921
  212MPD1     H 3277   3.856   0.642  16.986  1.8305 -0.2651  2.2651
  212MPD1    H1 3278   3.530   0.907  17.023  0.0119 -1.2734 -1.1613
  212MPD1    H2 3279   3.930   1.057  17.032  1.2636  0.5886  1.1523
  212MPD1    H3 3280   3.685   1.095  17.043 -0.0900  0.1905  2.1180
  212MPD1     N 3281   3.584   0.662  17.026  0.4999  0.1017  0.3955
  212MPD1    H5 3282   3.488   0.693  17.039  0.7954  1.6452 -1.0577
  212MPD1    N1 3283   4.044   0.829  17.000 -0.1454  0.2566 -0.6348
  212MPD1    H6 3284   4.078   0.911  16.951 -0.7714  1.6986  1.3733
  212MPD1    H7 3285   4.063   0.749  16.939 -0.1045 -0.6334  0.5570
  213MPD1     C 3286   1.627   1.538  16.153 -0.1484 -0.1403 -0.2700
  213MPD1    C1 3287   1.625   1.411  16.097 -0.3904  0.7110 -0.2068
  213MPD1    C2 3288   1.585   1.399  15.969  0.0332 -0.4167  0.3740
  213MPD1    C3 3289   1.559   1.505  15.897  0.2353 -1.1144  0.0963
  213MPD1    C4 3290   1.573   1.632  15.944  0.2608 -0.0348 -0.1092
  213MPD1    C5 3291   1.601   1.650  16.075 -0.3633  0.5526  0.1652
  213MPD1     H 3292   1.566   1.300  15.929  0.3206 -0.9564  1.5876
  213MPD1    H1 3293   1.550   1.719  15.885 -1.6889 -0.7392 -0.3858
  213MPD1    H2 3294   1.621   1.555  16.259 -1.0981 -0.6452 -0.2425
  213MPD1    H3 3295   1.620   1.742  16.129 -2.1270  0.4624  0.9395
  213MPD1     N 3296   1.520   1.482  15.765  0.2257  0.4806 -0.1823
  213MPD1    H5 3297   1.522   1.386  15.732  3.0600  1.0852 -1.7364
  213MPD1    N1 3298   1.616   1.302  16.178  0.6439  0.0999 -0.0813
  213MPD1    H6 3299   1.643   1.211  16.140 -2.1295 -0.8913  0.3211
  213MPD1    H7 3300   1.679   1.315  16.257 -0.7908 -2.0836  1.4346
  214MPD1     C 3301   0.996   1.004  15.068  0.9738  0.1634  0.0949
  214MPD1    C1 3302   1.015   0.982  15.199 -0.7288 -0.1258  0.7086
  214MPD1    C2 3303   1.131   1.048  15.255 -0.2945 -0.6775 -0.5117
  214MPD1    C3 3304   1.224   1.116  15.177 -0.4913 -0.3110  0.1680
  214MPD1    C4 3305   1.207   1.119  15.041 -0.6623 -0.1134 -0.6754
  214MPD1    C5 3306   1.088   1.063  14.990 -0.1572 -0.9767  0.7625
  214MPD1     H 3307   1.132   1.038  15.363  0.5770  0.7492 -0.3970
  214MPD1    H1 3308   1.272   1.177  14.977 -0.3405  0.5460  0.2516
  214MPD1    H2 3309   0.910   0.955  15.022  1.5782 -0.9915  0.2030
  214MPD1    H3 3310   1.073   1.066  14.883  0.8184 -2.9301  0.5658
  214MPD1     N 3311   1.331   1.189  15.230 -0.7701 -0.3622  0.2279
  214MPD1    H5 3312   1.403   1.230  15.171 -0.8441 -2.6878 -1.4448
  214MPD1    N1 3313   0.922   0.928  15.281 -0.0733  0.0659 -0.0101
  214MPD1    H6 3314   0.952   0.884  15.368  0.0578 -0.6748 -0.4231
  214MPD1    H7 3315   0.862   0.860  15.235 -2.5551  3.1734 -1.3405
  215MPD1     C 3316   2.203   2.080  10.629  0.3743  1.3053 -0.1895
  215MPD1    C1 3317   2.263   2.092  10.750 -0.5683  0.6731  0.8769
  215MPD1    C2 3318   2.240   2.207  10.821  1.3115 -0.2380  0.3773
  215MPD1    C3 3319   2.159   2.306  10.781 -0.3174 -0.0096 -0.6651
  215MPD1    C4 3320   2.110   2.301  10.652 -0.2714 -0.1487  0.4378
  215MPD1    C5 3321   2.119   2.179  10.585 -0.3020  0.0431  0.7654
  215MPD1     H 3322   2.298   2.222  10.911  2.6750 -1.3808 -0.3112
  215MPD1    H1 3323   2.052   2.376  10.598 -0.1321 -0.5217 -0.2354
  215MPD1    H2 3324   2.217   1.993  10.566 -2.0056 -0.5361  1.7916
  215MPD1    H3 3325   2.079   2.178  10.485  3.1323 -1.4817 -0.6198
  215MPD1     N 3326   2.165   2.429  10.862 -0.2807 -0.1605  0.6057
  215MPD1    H5 3327   2.226   2.440  10.942  1.3058 -0.7763 -0.5202
  215MPD1    N1 3328   2.318   1.980  10.810  0.4023  0.3716 -0.4223
  215MPD1    H6 3329   2.367   1.923  10.741  0.9980  1.3152 -0.7848
  215MPD1    H7 3330   2.384   2.019  10.877 -0.2198  0.3608  0.1966
  216MPD1     C 3331   3.967   4.620  16.142 -0.3752  0.3332  0.1717
  216MPD1    C1 3332   3.977   4.485  16.177  0.5817  0.4799 -0.3026
  216MPD1    C2 3333   3.938   4.444  16.306 -0.9710  0.3928  0.5539
  216MPD1    C3 3334   3.881   4.538  16.395  0.1871 -0.5917  0.8005
  216MPD1    C4 3335   3.866   4.666  16.348 -0.2522  0.0555 -0.2722
  216MPD1    C5 3336   3.907   4.703  16.224  0.5068  0.3969 -0.7034
  216MPD1     H 3337   3.944   4.340  16.335 -0.1034  0.0772 -0.7456
  216MPD1    H1 3338   3.808   0.006  16.396 -1.2365 -1.2384  0.6202
  216MPD1    H2 3339   3.987   4.648  16.039  0.2167 -1.2868 -0.1631
  216MPD1    H3 3340   3.892   0.070  16.198  1.4035  0.1660 -2.1707
  216MPD1     N 3341   3.828   4.504  16.521  0.5733 -0.2155  0.7047
  216MPD1    H5 3342   3.829   4.406  16.547 -3.1152 -0.8322 -1.6225
  216MPD1    N1 3343   4.038   4.385  16.090 -0.1478 -0.4618  0.3042
  216MPD1    H6 3344   4.036   4.414  15.993 -0.6466  3.3350  1.4277
  216MPD1    H7 3345   3.993   4.296  16.109 -0.9711  0.3801  2.4107
  217MPD1     C 3346   0.363   1.331   8.747 -0.2228  0.0179 -0.5048
  217MPD1    C1 3347   0.311   1.459   8.748  0.8854 -0.8168  0.6793
  217MPD1    C2 3348   0.268   1.512   8.867  0.1049 -0.2724 -0.0910
  217MPD1    C3 3349   0.284   1.448   8.993 -0.0022  0.5290 -0.2306
  217MPD1    C4 3350   0.344   1.323   8.988  0.0966 -0.1135  0.4843
  217MPD1    C5 3351   0.379   1.269   8.867 -0.3838  0.3852  0.9008
  217MPD1     H 3352   0.216   1.608   8.862 -0.1608 -0.4102  0.0288
  217MPD1    H1 3353   0.363   1.257   9.072  1.5535 -2.3168 -1.5869
  217MPD1    H2 3354   0.385   1.275   8.657 -0.2909 -2.3648  0.9771
  217MPD1    H3 3355   0.398   1.163   8.868  0.3887  0.5227  0.7439
  217MPD1     N 3356   0.217   1.487   9.109 -0.6616  0.1083 -0.4357
  217MPD1    H5 3357   0.236   1.429   9.190  3.6894 -1.7564 -2.8216
  217MPD1    N1 3358   0.285   1.524   8.625 -0.2327  0.0019 -0.3891
  217MPD1    H6 3359   0.370   1.535   8.569 -0.3973  0.3885 -0.5609
  217MPD1    H7 3360   0.265   1.619   8.654 -1.7775 -0.2864 -0.5233
  218MPD1     C 3361   2.376   2.629  13.072  0.2571  0.4468  0.0663
  218MPD1    C1 3362   2.332   2.498  13.073  0.1094  0.2492  0.1785
  218MPD1    C2 3363   2.223   2.470  12.987  0.7796 -0.6179  0.1118
  218MPD1    C3 3364   2.181   2.548  12.883  0.4815 -0.3101  0.9370
  218MPD1    C4 3365   2.234   2.677  12.873  0.8004 -0.2099 -0.0195
  218MPD1    C5 3366   2.333   2.706  12.966 -0.2652 -0.1971 -0.5071
  218MPD1     H 3367   2.175   2.374  13.002 -0.6204  0.2920  1.3856
  218MPD1    H1 3368   2.210   2.752  12.799 -0.0545 -3.7173 -3.2890
  218MPD1    H2 3369   2.438   2.660  13.155 -0.4175 -1.8057  1.4085
  218MPD1    H3 3370   2.355   2.811  12.953  0.1529 -0.0086  1.8737
  218MPD1     N 3371   2.073   2.501  12.802  0.5171 -0.0901 -0.5729
  218MPD1    H5 3372   2.047   2.406  12.823  0.6746 -0.1249 -0.5345
  218MPD1    N1 3373   2.368   2.412  13.171 -0.2482  0.3543  0.0823
  218MPD1    H6 3374   2.466   2.423  13.195  0.1032 -0.7383 -0.8174
  218MPD1    H7 3375   2.352   2.318  13.134 -0.2745  0.9325 -1.3662
  219MPD1     C 3376   1.562   2.357  11.851 -0.2513  0.4995  0.4122
  219MPD1    C1 3377   1.677   2.426  11.890  0.3466  0.3797 -0.0858
  219MPD1    C2 3378   1.697   2.438  12.028  0.1045  0.6004  0.3007
  219MPD1    C3 3379   1.624   2.363  12.120 -0.1723 -0.7358  0.5305
  219MPD1    C4 3380   1.518   2.282  12.080  0.4151  0.1123  0.5940
  219MPD1    C5 3381   1.504   2.274  11.945  0.0290 -0.3936  0.7247
  219MPD1     H 3382   1.775   2.505  12.060 -1.6683  2.5910  0.3979
  219MPD1    H1 3383   1.454   2.228  12.148 -1.0794  1.9866  0.6611
  219MPD1    H2 3384   1.520   2.363  11.752 -0.7985 -4.7356  0.3558
  219MPD1    H3 3385   1.429   2.204  11.909  0.7564 -0.8529  0.1163
  219MPD1     N 3386   1.649   2.376  12.265  0.3500 -0.6313  0.1384
  219MPD1    H5 3387   1.584   2.324  12.323 -1.8971  2.5719  0.4931
  219MPD1    N1 3388   1.738   2.516  11.803  0.4008  0.8767  0.1673
  219MPD1    H6 3389   1.719   2.493  11.706 -1.1660  0.1971  0.6340
  219MPD1    H7 3390   1.832   2.544  11.831  1.0720 -1.4918  0.2630
  220MPD1     C 3391   1.395   3.547   9.583 -0.6207  0.6301 -0.4577
  220MPD1    C1 3392   1.481   3.586   9.685 -1.1192  0.2785  0.6180
  220MPD1    C2 3393   1.489   3.512   9.804  0.2574 -0.5396  0.0853
  220MPD1    C3 3394   1.409   3.398   9.818  0.2619  0.4865 -0.7765
  220MPD1    C4 3395   1.326   3.353   9.715  0.7284  0.1718  0.0889
  220MPD1    C5 3396   1.330   3.430   9.598 -0.3612  0.4651  0.5955
  220MPD1     H 3397   1.539   3.551   9.892  0.1716  0.8239 -0.4687
  220MPD1    H1 3398   1.269   3.262   9.719  2.1556 -0.7359 -0.1402
  220MPD1    H2 3399   1.380   3.603   9.491  0.9080  0.9795 -0.4976
  220MPD1    H3 3400   1.263   3.398   9.518 -0.7021 -0.0483  1.0850
  220MPD1     N 3401   1.410   3.332   9.946 -0.5995  0.0373  0.4776
  220MPD1    H5 3402   1.455   3.387  10.018 -0.9949 -1.9392  2.2527
  220MPD1    N1 3403   1.539   3.712   9.677  0.3699  0.1855  0.1514
  220MPD1    H6 3404   1.572   3.726   9.581 -0.1322 -0.7314 -0.1514
  220MPD1    H7 3405   1.616   3.725   9.742 -0.4486 -0.3876  1.2243
  221MPD1     C 3406   3.477   2.198  16.372  0.5513 -0.0060 -0.3297
  221MPD1    C1 3407   3.509   2.274  16.477 -0.0345 -1.3686 -0.4698
  221MPD1    C2 3408   3.630   2.238  16.538  0.1560  0.1157  0.7205
  221MPD1    C3 3409   3.699   2.123  16.494 -0.4141 -0.0095 -0.7327
  221MPD1    C4 3410   3.652   2.044  16.394 -0.0284  0.8147 -0.2936
  221MPD1    C5 3411   3.534   2.080  16.332 -0.3623 -0.3913 -0.4534
  221MPD1     H 3412   3.684   2.302  16.605  0.0941 -1.1446  1.9848
  221MPD1    H1 3413   3.701   1.958  16.349  0.0384  0.2339  0.9023
  221MPD1    H2 3414   3.400   2.239  16.308  2.3033  1.2162 -1.6767
  221MPD1    H3 3415   3.484   2.013  16.264  0.7909 -1.6601 -0.0522
  221MPD1     N 3416   3.823   2.088  16.560 -0.2458 -0.1025 -0.5256
  221MPD1    H5 3417   3.867   2.001  16.530 -0.5110 -0.3384 -0.2355
  221MPD1    N1 3418   3.445   2.397  16.489  0.1617 -0.2362  0.0868
  221MPD1    H6 3419   3.454   2.430  16.585 -1.4303  0.3369  0.0322
  221MPD1    H7 3420   3.351   2.394  16.451 -0.9899  0.9357  2.8511
  222MPD1     C 3421   4.158   1.363  17.049 -0.3296  0.4980  0.2747
  222MPD1    C1 3422   4.024   1.387  17.037 -0.4665  0.8722 -0.5949
  222MPD1    C2 3423   3.955   1.437  17.146  0.5749 -0.1455  0.4379
  222MPD1    C3 3424   4.020   1.462  17.262  0.4754  0.3049  0.4428
  222MPD1    C4 3425   4.155   1.440  17.274  0.1656  0.5281  0.3169
  222MPD1    C5 3426   4.223   1.382  17.169  0.1406  0.2541  1.1025
  222MPD1     H 3427   3.852   1.467  17.132  0.6579 -0.8778 -1.7417
  222MPD1    H1 3428   4.207   1.454  17.369 -0.0996  2.2814  0.2088
  222MPD1    H2 3429   4.221   1.330  16.967 -1.7481 -0.2873 -0.4878
  222MPD1    H3 3430   4.329   1.361  17.169 -0.2354 -1.6902  0.9572
  222MPD1     N 3431   3.967   1.526  17.382 -0.5781  0.0368  0.5483
  222MPD1    H5 3432   4.029   1.544  17.461  1.5492 -0.3533 -1.0333
  222MPD1    N1 3433   3.954   1.358  16.922 -0.3687 -0.5504 -0.3636
  222MPD1    H6 3434   4.006   1.355  16.835  0.9977  0.9122  0.4011
  222MPD1    H7 3435   3.854   1.377  16.915 -0.0382  1.1888 -0.2783
  223MPD1     C 3436   3.006   1.329  17.635  0.0281 -0.1225 -0.2004
  223MPD1    C1 3437   3.093   1.294  17.532 -0.2323  0.1621 -0.1787
  223MPD1    C2 3438   3.225   1.328  17.532  0.1050  0.5594  0.2538
  223MPD1    C3 3439   3.274   1.412  17.632  0.7510 -0.4860  0.5693
  223MPD1    C4 3440   3.186   1.460  17.727 -0.6503  0.0264 -0.2080
  223MPD1    C5 3441   3.054   1.418  17.728 -0.0455  0.2600  0.3045
  223MPD1     H 3442   3.297   1.281  17.465  1.9698  1.8493  1.3639
  223MPD1    H1 3443   3.223   1.529   0.054  0.7324  0.3643 -1.1803
  223MPD1    H2 3444   2.902   1.299  17.632  0.1913 -1.0359  2.6117
  223MPD1    H3 3445   2.993   1.458   0.060 -0.6525 -0.2756  0.1131
  223MPD1     N 3446   3.409   1.447  17.633 -0.3639 -0.1072  0.5068
  223MPD1    H5 3447   3.462   1.407  17.557 -2.5929 -1.0022 -0.5423
  223MPD1    N1 3448   3.057   1.185  17.439 -0.0250  0.0324  0.6192
  223MPD1    H6 3449   3.093   1.198  17.344 -1.1114 -2.9262 -0.1976
  223MPD1    H7 3450   2.957   1.183  17.420  0.5627  0.3666 -2.5016
  224MPD1     C 3451   0.463   3.151   8.944 -0.7171  0.6929 -0.4917
  224MPD1    C1 3452   0.499   3.017   8.940  0.2720 -0.3596  0.0722
  224MPD1    C2 3453   0.499   2.947   9.056 -0.2906  0.1205 -0.1591
  224MPD1    C3 3454   0.454   3.005   9.171  0.9884 -0.0428  0.5885
  224MPD1    C4 3455   0.419   3.135   9.176 -0.2745  0.0134 -0.2104
  224MPD1    C5 3456   0.428   3.205   9.062 -0.2830  0.4835 -0.3290
  224MPD1     H 3457   0.538   2.846   9.070 -0.5150  0.0527 -0.0182
  224MPD1    H1 3458   0.404   3.187   9.270 -0.9327 -1.2436  0.3672
  224MPD1    H2 3459   0.471   3.219   8.860  0.5297  1.3673  0.1771
  224MPD1    H3 3460   0.416   3.312   9.073  0.7673  0.2826  2.5938
  224MPD1     N 3461   0.460   2.931   9.300  0.0378  0.3015 -0.5262
  224MPD1    H5 3462   0.438   2.983   9.384  0.9180  0.6896 -0.5344
  224MPD1    N1 3463   0.553   2.957   8.826  1.6181 -0.1421 -0.0458
  224MPD1    H6 3464   0.550   2.857   8.810 -0.2706  0.2003 -1.7408
  224MPD1    H7 3465   0.534   3.005   8.738 -0.0491 -2.1093 -0.7608
  225MPD1     C 3466   1.846   3.497  11.890 -0.6876  0.6739 -0.0306
  225MPD1    C1 3467   1.748   3.517  11.797 -0.0576  0.2809  0.2350
  225MPD1    C2 3468   1.618   3.532  11.834  0.1474 -1.0756 -0.8137
  225MPD1    C3 3469   1.583   3.531  11.965  0.3566  0.6337  0.4664
  225MPD1    C4 3470   1.686   3.528  12.060 -0.7253  0.5327  0.1012
  225MPD1    C5 3471   1.816   3.506  12.023 -0.1799 -0.0158 -0.7136
  225MPD1     H 3472   1.542   3.541  11.758 -0.6178  0.6045  0.1575
  225MPD1    H1 3473   1.664   3.537  12.166  1.3274 -2.2127  0.7401
  225MPD1    H2 3474   1.949   3.471  11.870 -1.6282 -2.9480 -0.2499
  225MPD1    H3 3475   1.894   3.495  12.098  0.7281  2.2075 -1.3172
  225MPD1     N 3476   1.447   3.559  12.005  0.2791  0.6584 -0.2290
  225MPD1    H5 3477   1.431   3.585  12.102  0.0976 -1.7042  0.3753
  225MPD1    N1 3478   1.771   3.508  11.661 -0.5431  0.4032  0.3802
  225MPD1    H6 3479   1.695   3.479  11.600  1.1370  0.2951 -1.6686
  225MPD1    H7 3480   1.855   3.457  11.633 -1.3455 -0.5752 -0.2518
  226MPD1     C 3481   1.313   1.926   9.678  0.2876  0.2815  1.0557
  226MPD1    C1 3482   1.223   1.847   9.610  0.2673 -0.0822  0.4169
  226MPD1    C2 3483   1.118   1.911   9.550 -0.3236 -0.2407  0.1993
  226MPD1    C3 3484   1.101   2.060   9.553 -0.1237 -1.1589 -0.3963
  226MPD1    C4 3485   1.201   2.124   9.617 -0.0932 -0.2623 -0.1383
  226MPD1    C5 3486   1.305   2.059   9.682 -0.1631  0.0945 -0.2418
  226MPD1     H 3487   1.039   1.853   9.504  2.6899 -3.9954 -0.1760
  226MPD1    H1 3488   1.207   2.231   9.636  1.2445 -0.7703  2.3859
  226MPD1    H2 3489   1.396   1.882   9.733  1.4022  2.7084  1.3457
  226MPD1    H3 3490   1.377   2.117   9.739  1.0629 -1.3005 -0.3764
  226MPD1     N 3491   0.991   2.128   9.490 -0.0526  0.1641  0.0882
  226MPD1    H5 3492   0.921   2.067   9.450 -0.2798  1.0463 -0.8691
  226MPD1    N1 3493   1.229   1.713   9.622 -0.0051 -0.6152  0.6941
  226MPD1    H6 3494   1.324   1.680   9.636  0.2969  0.0446  0.2105
  226MPD1    H7 3495   1.182   1.652   9.556 -1.0781  0.2427  0.6603
  227MPD1     C 3496   0.060   2.511   9.384  0.3479  0.7290 -0.0664
  227MPD1    C1 3497   0.124   2.595   9.296  0.5718 -0.5667  0.3392
  227MPD1    C2 3498   0.248   2.547   9.258  0.0605  0.4190  0.0040
  227MPD1    C3 3499   0.313   2.438   9.317 -0.6595 -0.5617 -0.6540
  227MPD1    C4 3500   0.243   2.354   9.407 -0.3831  0.2132  0.2334
  227MPD1    C5 3501   0.114   2.397   9.434 -0.0900  0.6564 -0.5331
  227MPD1     H 3502   0.309   2.598   9.185  1.9590 -0.2583  1.1189
  227MPD1    H1 3503   0.286   2.268   9.456  0.1748 -0.6114 -1.6867
  227MPD1    H2 3504   4.703   2.544   9.427  0.3921 -0.5938  1.0306
  227MPD1    H3 3505   0.057   2.331   9.498 -3.9025  2.2171 -2.2652
  227MPD1     N 3506   0.457   2.435   9.302  0.2313  0.5227 -0.1096
  227MPD1    H5 3507   0.507   2.507   9.251  0.4572  1.3402  1.2475
  227MPD1    N1 3508   0.071   2.715   9.246 -0.1872  0.1985 -0.0135
  227MPD1    H6 3509   0.135   2.794   9.241  1.0211 -0.6988  1.3340
  227MPD1    H7 3510   4.726   2.736   9.302 -0.4351 -0.4159 -0.1430
  228MPD1     C 3511   3.512   0.602  13.016 -0.2159 -0.4207  0.0190
  228MPD1    C1 3512   3.428   0.653  12.923  0.2583  0.2028  0.3047
  228MPD1    C2 3513   3.292   0.666  12.945 -0.7995  0.0416 -0.3806
  228MPD1    C3 3514   3.242   0.624  13.065  0.2790 -0.3034 -1.0155
  228MPD1    C4 3515   3.325   0.567  13.159 -0.4103 -0.1162 -0.2302
  228MPD1    C5 3516   3.464   0.560  13.134  1.1496  0.0436 -0.9082
  228MPD1     H 3517   3.232   0.714  12.868 -0.3014 -0.2788 -0.9603
  228MPD1    H1 3518   3.288   0.541  13.257 -0.4037  1.2501  0.1218
  228MPD1    H2 3519   3.620   0.599  13.006 -0.1357  1.2016  0.3593
  228MPD1    H3 3520   3.533   0.529  13.210 -1.2309 -0.6300  0.9798
  228MPD1     N 3521   3.100   0.638  13.087  0.5200  0.4417  0.0831
  228MPD1    H5 3522   3.047   0.679  13.010 -1.3241 -1.2116  0.4743
  228MPD1    N1 3523   3.479   0.691  12.801 -0.2634  0.1163 -0.3442
  228MPD1    H6 3524   3.578   0.712  12.807  0.6940 -4.5097 -0.1335
  228MPD1    H7 3525   3.429   0.765  12.752 -0.6780 -0.1057 -0.2635
  229MPD1     C 3526   2.543   3.907  14.037  0.0623 -0.6170  0.7221
  229MPD1    C1 3527   2.514   3.962  14.159  0.2347  0.1366  0.4381
  229MPD1    C2 3528   2.612   3.962  14.262 -0.4574  0.1953  0.2618
  229MPD1    C3 3529   2.737   3.903  14.247 -0.3452  0.3844 -0.1593
  229MPD1    C4 3530   2.750   3.822  14.131 -0.4112  0.4656 -0.6778
  229MPD1    C5 3531   2.661   3.833  14.026  0.2373  1.0276  0.5102
  229MPD1     H 3532   2.585   4.016  14.352  1.8021  1.8234 -0.0416
  229MPD1    H1 3533   2.847   3.777  14.111 -1.2295 -1.5206 -0.0884
  229MPD1    H2 3534   2.478   3.902  13.951  0.1532  0.8687  0.5639
  229MPD1    H3 3535   2.692   3.795  13.929 -1.4288  2.4398 -0.5794
  229MPD1     N 3536   2.839   3.909  14.351  0.7302 -0.0314  0.7281
  229MPD1    H5 3537   2.918   3.849  14.328  0.1404 -1.2486  1.8893
  229MPD1    N1 3538   2.410   4.057  14.171 -0.0224  0.3438 -0.0241
  229MPD1    H6 3539   2.369   4.061  14.264  1.1506  0.6651  0.4757
  229MPD1    H7 3540   2.329   4.037  14.112  1.1852  1.7011 -2.1573
  230MPD1     C 3541   2.873   4.364  15.261 -0.3482 -0.1962  0.1966
  230MPD1    C1 3542   2.790   4.362  15.157 -0.2234  0.3327  0.3837
  230MPD1    C2 3543   2.826   4.292  15.037  0.5020 -0.5828  0.3608
  230MPD1    C3 3544   2.922   4.194  15.029 -0.0577 -0.4175  0.2417
  230MPD1    C4 3545   2.997   4.185  15.148 -0.6433  0.2955 -0.2758
  230MPD1    C5 3546   2.977   4.273  15.260 -1.0412  0.3485  0.4126
  230MPD1     H 3547   2.766   4.307  14.949 -0.0253 -0.7212  0.6961
  230MPD1    H1 3548   3.079   4.115  15.154  0.0403  0.8931 -2.6464
  230MPD1    H2 3549   2.853   4.423  15.350 -2.5078 -0.7154  0.0568
  230MPD1    H3 3550   3.036   4.264  15.351 -2.2035  0.6118  1.1968
  230MPD1     N 3551   2.956   4.136  14.904  0.3729 -0.5901 -0.2317
  230MPD1    H5 3552   2.913   4.186  14.827  1.8063  1.7517  0.4963
  230MPD1    N1 3553   2.695   4.467  15.156  0.1850  0.1066 -0.8236
  230MPD1    H6 3554   2.626   4.463  15.080 -1.9157  1.5020  1.0162
  230MPD1    H7 3555   2.641   4.472  15.242  1.4735  2.6735 -0.1572
  231MPD1     C 3556   0.486   1.325  15.726 -0.0256 -0.4403 -0.3843
  231MPD1    C1 3557   0.593   1.238  15.698  0.2025  0.3662  0.4709
  231MPD1    C2 3558   0.706   1.287  15.644 -0.4202 -0.5158 -0.3398
  231MPD1    C3 3559   0.712   1.426  15.624 -0.5204 -0.4902 -0.4094
  231MPD1    C4 3560   0.604   1.510  15.640  0.7951  0.2414 -0.3831
  231MPD1    C5 3561   0.490   1.459  15.691 -0.1902  0.5207 -0.3641
  231MPD1     H 3562   0.789   1.230  15.603 -0.6617  0.7757 -2.6274
  231MPD1    H1 3563   0.603   1.616  15.615  1.1714 -0.1234 -1.9803
  231MPD1    H2 3564   0.386   1.296  15.756  0.0655  0.1950  0.5383
  231MPD1    H3 3565   0.400   1.516  15.708 -0.0186  1.7137 -3.5345
  231MPD1     N 3566   0.841   1.470  15.579  0.0568  0.3628 -0.1497
  231MPD1    H5 3567   0.915   1.400  15.574 -1.4336 -1.2213 -0.2433
  231MPD1    N1 3568   0.585   1.098  15.701  0.0549  0.2931 -0.3005
  231MPD1    H6 3569   0.503   1.062  15.749  0.4462  0.7971  0.7271
  231MPD1    H7 3570   0.561   1.059  15.610  0.9845 -2.9619  0.8343
  232MPD1     C 3571   2.865   0.458   0.173 -0.1062  0.1979  0.2160
  232MPD1    C1 3572   2.735   0.509   0.158  0.5123  0.1322 -0.5724
  232MPD1    C2 3573   2.629   0.420   0.171  0.8119  0.7460 -0.3517
  232MPD1    C3 3574   2.653   0.282   0.175  0.3287 -0.5199 -0.3834
  232MPD1    C4 3575   2.782   0.231   0.172 -0.1232  0.0053 -0.0177
  232MPD1    C5 3576   2.883   0.321   0.177 -0.0202 -0.8943 -1.1418
  232MPD1     H 3577   2.528   0.459   0.175  0.9437  0.8713  1.9641
  232MPD1    H1 3578   2.810   0.127   0.182 -2.7757 -0.7799 -0.6686
  232MPD1    H2 3579   2.953   0.521   0.165  0.7652 -1.0041  0.1869
  232MPD1    H3 3580   2.982   0.277   0.185  0.3901  0.0071 -1.2682
  232MPD1     N 3581   2.541   0.199   0.182  0.0850 -0.3283 -0.0157
  232MPD1    H5 3582   2.451   0.245   0.173  0.3429  0.2662  0.4355
  232MPD1    N1 3583   2.713   0.647   0.152 -0.2776 -0.4422  0.3754
  232MPD1    H6 3584   2.798   0.696   0.125 -0.4924 -0.2099  0.1226
  232MPD1    H7 3585   2.630   0.682   0.105  0.0795 -1.3267 -0.9181
  233MPD1     C 3586   3.629   2.335   1.150 -0.4723  0.1182  0.0575
  233MPD1    C1 3587   3.591   2.399   1.271 -0.3759  0.3117 -0.3017
  233MPD1    C2 3588   3.695   2.468   1.340  0.1486 -0.2145 -0.2720
  233MPD1    C3 3589   3.825   2.477   1.297 -0.0615 -0.4690  0.2530
  233MPD1    C4 3590   3.851   2.430   1.173  0.7329  0.2503  0.8518
  233MPD1    C5 3591   3.751   2.368   1.100 -0.2917 -0.1625  0.8508
  233MPD1     H 3592   3.671   2.506   1.439  0.4825  3.2445 -1.5126
  233MPD1    H1 3593   3.944   2.446   1.120  1.7080 -0.9979  2.1689
  233MPD1    H2 3594   3.559   2.272   1.097 -0.7764  1.0788 -0.6949
  233MPD1    H3 3595   3.783   2.323   1.007 -1.7762 -0.6032  0.5528
  233MPD1     N 3596   3.933   2.534   1.362  0.0088  0.4141  0.2980
  233MPD1    H5 3597   4.012   2.553   1.301 -0.4077  0.5074 -0.2220
  233MPD1    N1 3598   3.471   2.374   1.332  0.3580 -0.5888  0.1688
  233MPD1    H6 3599   3.455   2.421   1.421 -4.0388 -0.0530 -0.9186
  233MPD1    H7 3600   3.387   2.373   1.275  0.7233  1.1423 -0.4194
  234MPD1     C 3601   1.060   1.297  10.488  0.1544  0.2840  0.0328
  234MPD1    C1 3602   1.021   1.224  10.378 -0.1080 -0.3177 -0.2350
  234MPD1    C2 3603   1.005   1.297  10.264  0.5840  0.5720  0.1958
  234MPD1    C3 3604   1.037   1.433  10.253 -0.1634  0.2504  0.3428
  234MPD1    C4 3605   1.105   1.498  10.359 -0.1587  1.0121 -0.8515
  234MPD1    C5 3606   1.105   1.429  10.482  0.4395  0.4532 -0.6275
  234MPD1     H 3607   0.948   1.250  10.185 -1.4401 -0.5197  2.3150
  234MPD1    H1 3608   1.119   1.605  10.367  3.4463  0.3616  1.2110
  234MPD1    H2 3609   1.061   1.265  10.592 -3.4975 -1.8647 -0.6246
  234MPD1    H3 3610   1.140   1.481  10.570 -2.5419  0.1167  0.7763
  234MPD1     N 3611   0.993   1.504  10.143 -0.4357  0.0717  0.6532
  234MPD1    H5 3612   0.924   1.463  10.081 -0.9683  0.1083  1.2309
  234MPD1    N1 3613   0.963   1.099  10.396  0.2009 -0.0611 -0.4741
  234MPD1    H6 3614   0.959   1.033  10.319  1.9735  2.0969 -2.3767
  234MPD1    H7 3615   1.024   1.054  10.465 -0.4104  0.4337  0.3930
  235MPD1     C 3616   2.275   3.460  11.165  0.2519  0.7664  0.0313
  235MPD1    C1 3617   2.175   3.510  11.080  0.2343  0.3508  0.3456
  235MPD1    C2 3618   2.174   3.647  11.065  0.3115 -0.4535  0.8719
  235MPD1    C3 3619   2.276   3.726  11.118 -0.7022  0.4498  0.2833
  235MPD1    C4 3620   2.371   3.675  11.200  0.1461 -0.3727  0.5537
  235MPD1    C5 3621   2.358   3.543  11.234 -0.4871  0.9441  0.4535
  235MPD1     H 3622   2.103   3.681  10.991 -0.9484  1.0220  2.7565
  235MPD1    H1 3623   2.448   3.736  11.247  0.6047 -1.3591  1.0873
  235MPD1    H2 3624   2.281   3.353  11.175 -2.4615  0.6475  0.5365
  235MPD1    H3 3625   2.428   3.498  11.304  2.4526  2.3733 -1.5466
  235MPD1     N 3626   2.272   3.864  11.088 -1.0391 -0.2073  0.2078
  235MPD1    H5 3627   2.204   3.889  11.017 -0.3743 -0.8922 -0.6577
  235MPD1    N1 3628   2.072   3.425  11.029 -0.9056  0.1472  0.2673
  235MPD1    H6 3629   2.034   3.467  10.944  0.2141  1.8544  0.6171
  235MPD1    H7 3630   2.099   3.328  11.014  0.9299  0.6142  0.4962
  236MPD1     C 3631   0.885   0.294   9.667 -0.1619 -0.6017  0.0846
  236MPD1    C1 3632   0.829   0.221   9.769 -0.8316  0.4342  0.1191
  236MPD1    C2 3633   0.906   0.178   9.871 -0.3248  0.1086 -0.2421
  236MPD1    C3 3634   1.039   0.189   9.870  0.2339 -0.4470  0.6557
  236MPD1    C4 3635   1.101   0.264   9.773 -0.0761 -0.3676 -0.3417
  236MPD1    C5 3636   1.022   0.307   9.670 -0.0507  0.0254  0.6482
  236MPD1     H 3637   0.856   0.128   9.953 -2.0459  2.6947  0.2988
  236MPD1    H1 3638   1.209   0.272   9.780  0.0578 -0.8910 -1.7301
  236MPD1    H2 3639   0.836   0.343   9.583 -0.6485 -1.4169 -0.1034
  236MPD1    H3 3640   1.085   0.353   9.595 -0.7727  0.1840  0.1327
  236MPD1     N 3641   1.125   0.132   9.965  0.1897 -0.0566  0.1339
  236MPD1    H5 3642   1.224   0.151   9.953  0.0133  1.6252  1.4215
  236MPD1    N1 3643   0.686   0.211   9.772 -0.8092  0.3770 -0.5637
  236MPD1    H6 3644   0.650   0.136   9.830 -0.8549  2.4438  2.1126
  236MPD1    H7 3645   0.644   0.221   9.680 -1.3789  2.4690 -0.0703
  237MPD1     C 3646   1.926   2.614  15.153 -0.1401  0.2055  0.0324
  237MPD1    C1 3647   1.886   2.671  15.037 -0.1838  0.2513  0.3157
  237MPD1    C2 3648   1.753   2.727  15.023 -0.7871 -0.1922  0.5672
  237MPD1    C3 3649   1.665   2.718  15.127 -0.0863 -0.0407  0.1894
  237MPD1    C4 3650   1.707   2.653  15.239  0.3153 -0.3911  0.2410
  237MPD1    C5 3651   1.834   2.593  15.246 -1.1638  0.2521  0.2135
  237MPD1     H 3652   1.724   2.771  14.928 -0.0499 -1.7144 -0.3653
  237MPD1    H1 3653   1.645   2.637  15.326 -0.9526  1.1905 -0.3665
  237MPD1    H2 3654   2.030   2.587  15.169 -0.8009 -2.6936 -0.5422
  237MPD1    H3 3655   1.860   2.547  15.340 -1.0500 -1.7426 -0.8033
  237MPD1     N 3656   1.539   2.770  15.126 -0.0499 -0.3980  0.7438
  237MPD1    H5 3657   1.490   2.753  15.214 -1.6877 -1.2240 -0.3388
  237MPD1    N1 3658   1.980   2.683  14.937  0.2989  0.8976  0.4218
  237MPD1    H6 3659   2.045   2.605  14.930  0.7346  1.2770  0.1843
  237MPD1    H7 3660   1.938   2.701  14.846 -0.7287  0.6195  0.8441
  238MPD1     C 3661   2.654   1.440  15.511  0.2809 -0.1152 -0.0550
  238MPD1    C1 3662   2.649   1.329  15.431 -0.3002 -0.4207 -0.2305
  238MPD1    C2 3663   2.545   1.311  15.337 -0.2680 -0.6903  0.9868
  238MPD1    C3 3664   2.453   1.415  15.317 -0.4854  0.0995 -0.0557
  238MPD1    C4 3665   2.466   1.528  15.391 -0.1298 -0.1303  0.1753
  238MPD1    C5 3666   2.565   1.539  15.485 -0.4203 -0.2387  0.4389
  238MPD1     H 3667   2.534   1.215  15.288 -0.6375  0.4430 -1.1137
  238MPD1    H1 3668   2.403   1.615  15.375 -0.7071 -0.9202 -1.8436
  238MPD1    H2 3669   2.728   1.443  15.590 -1.0493  0.8518  1.1797
  238MPD1    H3 3670   2.586   1.631  15.539  3.0205 -0.6102 -0.3035
  238MPD1     N 3671   2.354   1.404  15.219  0.2667 -0.3925 -0.1109
  238MPD1    H5 3672   2.279   1.471  15.227  1.2993  0.9430 -1.8306
  238MPD1    N1 3673   2.735   1.228  15.464 -0.2793 -0.2145  0.3274
  238MPD1    H6 3674   2.747   1.176  15.378 -1.2152  0.4672 -0.2120
  238MPD1    H7 3675   2.823   1.263  15.503 -0.6004  0.5267  0.4054
  239MPD1     C 3676   2.601   1.938  14.337 -0.5436 -0.3379  0.5070
  239MPD1    C1 3677   2.633   2.017  14.222  0.0290 -0.0398 -0.0652
  239MPD1    C2 3678   2.726   2.121  14.246  0.8095 -0.5860 -0.3273
  239MPD1    C3 3679   2.781   2.144  14.371  0.1494 -0.5298  0.5250
  239MPD1    C4 3680   2.748   2.068  14.481  0.4544 -0.4933  0.9257
  239MPD1    C5 3681   2.658   1.965  14.454  0.1468 -0.4214 -0.4379
  239MPD1     H 3682   2.744   2.196  14.170 -0.5896  2.0131  1.8695
  239MPD1    H1 3683   2.782   2.095  14.580 -1.5310 -0.5602  1.6173
  239MPD1    H2 3684   2.524   1.862  14.348 -0.8453 -0.3413 -1.6900
  239MPD1    H3 3685   2.619   1.904  14.535 -0.1886 -2.0247 -1.8264
  239MPD1     N 3686   2.860   2.260  14.394  0.5306 -0.0699  0.3875
  239MPD1    H5 3687   2.879   2.289  14.490  0.7035  2.0450 -0.2768
  239MPD1    N1 3688   2.557   2.000  14.107  0.1826  0.0662 -0.7203
  239MPD1    H6 3689   2.593   2.030  14.016 -0.8331  1.4265 -0.6768
  239MPD1    H7 3690   2.534   1.901  14.098 -0.1443 -0.0709  1.7241
  240MPD1     C 3691   2.122   1.922  12.700 -0.0862 -0.1961  0.0655
  240MPD1    C1 3692   2.243   1.903  12.753 -0.5864  0.7724 -0.0937
  240MPD1    C2 3693   2.254   1.872  12.888  0.1984  0.2394 -0.0786
  240MPD1    C3 3694   2.147   1.874  12.975  0.5927  0.6772 -0.6761
  240MPD1    C4 3695   2.027   1.905  12.918 -0.6642 -0.0626 -0.8454
  240MPD1    C5 3696   2.017   1.928  12.784  0.1278 -0.1902  0.1703
  240MPD1     H 3697   2.355   1.856  12.927 -0.1543 -0.2000  0.6625
  240MPD1    H1 3698   1.942   1.936  12.977 -0.3677  2.1479 -1.5545
  240MPD1    H2 3699   2.114   1.939  12.593  1.9401 -3.2051 -0.5571
  240MPD1    H3 3700   1.925   1.950  12.730  1.1759  2.9780 -0.3261
  240MPD1     N 3701   2.176   1.856  13.111 -0.6670 -0.2752  0.1058
  240MPD1    H5 3702   2.271   1.831  13.136 -0.6757 -0.0599  0.3532
  240MPD1    N1 3703   2.350   1.881  12.668  0.2217 -0.1674 -0.5491
  240MPD1    H6 3704   2.345   1.926  12.577  1.5781 -0.8428 -0.9595
  240MPD1    H7 3705   2.440   1.906  12.708 -1.3119  1.7567  1.7174
  241MPD1     C 3706   2.837   1.467  13.350  0.0260 -0.0278 -0.1788
  241MPD1    C1 3707   2.779   1.468  13.477  0.1808  0.0916  0.2378
  241MPD1    C2 3708   2.665   1.543  13.498  0.4560 -0.1346 -0.4852
  241MPD1    C3 3709   2.601   1.604  13.391  0.2115  0.2132 -1.0152
  241MPD1    C4 3710   2.670   1.609  13.266  0.9297 -0.0416 -0.2072
  241MPD1    C5 3711   2.789   1.548  13.249 -0.7279 -0.0453 -0.3481
  241MPD1     H 3712   2.613   1.537  13.593  1.4436 -0.7340  0.0185
  241MPD1    H1 3713   2.634   1.660  13.177 -2.0366 -1.7687 -0.0014
  241MPD1    H2 3714   2.923   1.409  13.317  0.3500  1.4720 -1.9573
  241MPD1    H3 3715   2.835   1.569  13.153 -1.1861 -0.5261 -0.6745
  241MPD1     N 3716   2.474   1.675  13.405  0.1302  0.8273  0.4064
  241MPD1    H5 3717   2.433   1.698  13.315  0.0234 -0.7192  0.0618
  241MPD1    N1 3718   2.840   1.400  13.585 -0.0381  0.0181 -0.3714
  241MPD1    H6 3719   2.782   1.371  13.663  0.7725 -1.2809 -0.2615
  241MPD1    H7 3720   2.901   1.322  13.564  0.9341  0.8818 -0.7559
  242MPD1     C 3721   2.007   4.307  16.029  0.0069 -0.4028 -0.4627
  242MPD1    C1 3722   1.943   4.424  16.030  0.4514 -1.2909  0.1353
  242MPD1    C2 3723   1.966   4.501  15.916 -0.1917 -0.6129  0.0844
  242MPD1    C3 3724   2.050   4.462  15.808 -0.0289  1.1177  0.2192
  242MPD1    C4 3725   2.127   4.348  15.825  0.2428  0.1545  0.1779
  242MPD1    C5 3726   2.100   4.275  15.933 -0.0449 -0.5659  0.1827
  242MPD1     H 3727   1.925   4.601  15.920 -1.4845 -1.2046  1.5644
  242MPD1    H1 3728   2.214   4.336  15.762 -0.1630 -2.4577  0.1183
  242MPD1    H2 3729   1.991   4.243  16.115 -1.3827 -2.4173 -2.2284
  242MPD1    H3 3730   2.151   4.181  15.952  1.7287  0.2487 -0.5948
  242MPD1     N 3731   2.080   4.541  15.691 -0.4248 -0.1296  0.1670
  242MPD1    H5 3732   2.134   4.501  15.615 -1.4701  1.4039 -1.3733
  242MPD1    N1 3733   1.870   4.458  16.148  0.1303 -0.0367 -0.6110
  242MPD1    H6 3734   1.788   4.517  16.137  0.4761  0.6284  0.4784
  242MPD1    H7 3735   1.833   4.377  16.197  1.0049  0.1304  0.3101
  243MPD1     C 3736   3.417   3.540  17.707 -0.0932 -0.3766  0.6539
  243MPD1    C1 3737   3.512   3.440  17.727 -0.4672 -0.3085  0.6909
  243MPD1    C2 3738   3.569   3.373  17.619  0.2575  0.6754  0.1123
  243MPD1    C3 3739   3.520   3.407  17.493 -0.5318 -0.3485 -0.2261
  243MPD1    C4 3740   3.421   3.507  17.473 -0.1118  0.4518  0.1819
  243MPD1    C5 3741   3.377   3.568  17.583 -0.2533 -0.2576 -0.2575
  243MPD1     H 3742   3.641   3.293  17.629 -1.2784 -0.9401 -1.6776
  243MPD1    H1 3743   3.378   3.530  17.376 -0.2714 -0.3249  0.0643
  243MPD1    H2 3744   3.378   3.601   0.039 -0.0575 -1.0560  1.1846
  243MPD1    H3 3745   3.307   3.649  17.570  1.0632  0.9001 -0.0806
  243MPD1     N 3746   3.574   3.333  17.383 -0.1791 -0.2741 -0.1141
  243MPD1    H5 3747   3.630   3.251  17.404  1.4501  0.7375 -0.5047
  243MPD1    N1 3748   3.556   3.409   0.106  0.0698 -0.7277 -0.5090
  243MPD1    H6 3749   3.548   3.309   0.127  0.2022 -0.8324 -0.9695
  243MPD1    H7 3750   3.505   3.456   0.181 -0.3108 -2.1735  0.1403
  244MPD1     C 3751   3.976   2.509  16.957 -0.2853 -0.0235  0.0289
  244MPD1    C1 3752   4.022   2.611  16.874  0.0788 -0.2171  0.4012
  244MPD1    C2 3753   3.980   2.742  16.893  0.2384 -0.1160  0.2872
  244MPD1    C3 3754   3.895   2.776  16.997 -0.1922 -0.5535 -0.2526
  244MPD1    C4 3755   3.842   2.680  17.075  0.9080 -0.2777  0.3712
  244MPD1    C5 3756   3.890   2.557  17.055  0.4498  1.0292  0.1479
  244MPD1     H 3757   4.014   2.816  16.822 -0.1539  0.0729  0.2974
  244MPD1    H1 3758   3.777   2.700  17.160  0.0741  2.1618 -0.8291
  244MPD1    H2 3759   4.012   2.407  16.959 -0.8191 -0.2227 -0.5157
  244MPD1    H3 3760   3.853   2.479  17.121 -0.9519  2.3285  0.8737
  244MPD1     N 3761   3.862   2.909  17.006  0.0030 -0.3418 -0.4681
  244MPD1    H5 3762   3.915   2.974  16.948  0.2321  1.3177  1.6154
  244MPD1    N1 3763   4.101   2.580  16.767 -0.0123 -0.4891 -1.1679
  244MPD1    H6 3764   4.143   2.653  16.710  1.3945 -0.0369  0.4550
  244MPD1    H7 3765   4.165   2.501  16.778  1.5359  1.0724  0.8932
  245MPD1     C 3766   1.679   4.619  12.934 -1.0037 -0.0954 -0.3142
  245MPD1    C1 3767   1.697   0.013  12.963 -0.3879  0.2472 -0.7593
  245MPD1    C2 3768   1.664   0.054  13.090  0.5103  0.5466 -0.4297
  245MPD1    C3 3769   1.598   4.717  13.185 -0.4478 -0.0567 -0.3129
  245MPD1    C4 3770   1.558   4.593  13.143  0.0786 -0.6467  0.5800
  245MPD1    C5 3771   1.608   4.544  13.024  0.4032  0.2007 -0.1938
  245MPD1     H 3772   1.697   0.157  13.104 -0.4243  0.8755 -0.6368
  245MPD1    H1 3773   1.504   4.532  13.215 -1.5428 -1.9170 -1.6823
  245MPD1    H2 3774   1.719   4.571  12.846 -1.7820 -0.8427 -0.2583
  245MPD1    H3 3775   1.571   4.447  12.991 -0.3637  0.3716  0.1715
  245MPD1     N 3776   1.552   0.047  13.298 -0.2583  0.7892  0.0072
  245MPD1    H5 3777   1.576   0.144  13.315  0.0720  0.5921  0.6488
  245MPD1    N1 3778   1.771   0.094  12.875  0.3918  0.1982 -0.7320
  245MPD1    H6 3779   1.757   0.069  12.777 -0.1159 -0.1970 -0.5607
  245MPD1    H7 3780   1.767   0.194  12.895  1.4977  0.3410 -1.2081
  246MPD1     C 3781   2.753   1.931   9.219 -0.5998 -0.4919  0.5494
  246MPD1    C1 3782   2.789   1.883   9.344 -0.4760 -0.3744  0.2557
  246MPD1    C2 3783   2.721   1.779   9.399 -0.2277 -0.2848 -0.4060
  246MPD1    C3 3784   2.615   1.726   9.339 -0.1639  1.0230 -0.5119
  246MPD1    C4 3785   2.565   1.784   9.223  0.0221  0.4076  0.3693
  246MPD1    C5 3786   2.644   1.878   9.154 -0.4455  0.2586 -0.2255
  246MPD1     H 3787   2.754   1.731   9.491  0.9808  0.7657 -0.2908
  246MPD1    H1 3788   2.475   1.752   9.171  1.1255 -1.2889 -0.5106
  246MPD1    H2 3789   2.802   2.008   9.161 -0.4943 -0.7747  0.2673
  246MPD1    H3 3790   2.605   1.917   9.060 -1.6777  1.6264  0.8564
  246MPD1     N 3791   2.546   1.620   9.407 -0.8161 -0.0059  0.5184
  246MPD1    H5 3792   2.587   1.583   9.493 -0.9871 -0.6420  0.3272
  246MPD1    N1 3793   2.910   1.929   9.409  0.1523 -0.3471 -0.5334
  246MPD1    H6 3794   2.928   2.029   9.409 -1.3788 -0.0552 -3.3180
  246MPD1    H7 3795   2.915   1.909   9.509 -0.5164  1.1703 -0.1970
  247MPD1     C 3796   1.428   3.032  15.975  0.0728  0.1884 -0.2865
  247MPD1    C1 3797   1.435   3.168  15.963 -0.1044  0.0659 -0.1741
  247MPD1    C2 3798   1.418   3.231  15.842 -0.7766 -0.0891  0.6566
  247MPD1    C3 3799   1.410   3.151  15.728  0.2685 -0.3819 -0.5152
  247MPD1    C4 3800   1.422   3.014  15.737 -0.9684 -0.3221  0.6049
  247MPD1    C5 3801   1.419   2.953  15.860 -0.7071  0.2417 -0.2402
  247MPD1     H 3802   1.414   3.339  15.832  2.3765 -0.0834 -0.4801
  247MPD1    H1 3803   1.424   2.951  15.649 -0.2843 -0.3745  0.6553
  247MPD1    H2 3804   1.439   2.987  16.073  1.6541  0.0012 -0.5366
  247MPD1    H3 3805   1.418   2.845  15.870 -1.8906  0.1052 -1.9299
  247MPD1     N 3806   1.404   3.205  15.596 -0.2431 -0.0319 -0.3103
  247MPD1    H5 3807   1.411   3.136  15.521  0.8084 -0.7620  0.4533
  247MPD1    N1 3808   1.427   3.231  16.086 -0.0745 -0.6388 -0.4730
  247MPD1    H6 3809   1.486   3.190  16.157  1.7257  1.2939 -0.8374
  247MPD1    H7 3810   1.461   3.327  16.077  2.4454 -1.5375 -0.2909
  248MPD1     C 3811   0.454   3.705  16.877 -1.0691 -0.5456  1.0660
  248MPD1    C1 3812   0.516   3.630  16.975  0.5516 -0.0987 -0.2799
  248MPD1    C2 3813   0.490   3.661  17.106 -0.0060 -0.0032 -0.5328
  248MPD1    C3 3814   0.430   3.781  17.142  0.5243  0.6592 -0.4771
  248MPD1    C4 3815   0.373   3.855  17.041 -0.6624 -0.0869 -0.0655
  248MPD1    C5 3816   0.380   3.814  16.917 -0.1057 -0.1034  0.1494
  248MPD1     H 3817   0.525   3.600  17.189  1.4295 -1.1992 -2.0140
  248MPD1    H1 3818   0.317   3.946  17.059 -1.3109 -0.7753  1.3621
  248MPD1    H2 3819   0.450   3.677  16.772  0.8129  0.9405  0.5833
  248MPD1    H3 3820   0.327   3.876  16.846  2.4517  1.7476 -0.1565
  248MPD1     N 3821   0.427   3.816  17.275 -0.3263 -0.5381 -0.3733
  248MPD1    H5 3822   0.470   3.752  17.340 -3.7097 -1.2295  1.2037
  248MPD1    N1 3823   0.558   3.498  16.953  0.2673  0.1767 -0.2915
  248MPD1    H6 3824   0.625   3.473  17.026 -0.9301  0.1035  0.7799
  248MPD1    H7 3825   0.590   3.490  16.856  0.7191  0.4715 -0.1656
  249MPD1     C 3826   3.366   0.274   9.167  0.5321 -0.0584  0.0411
  249MPD1    C1 3827   3.366   0.348   9.282 -0.1206  0.0285  0.2946
  249MPD1    C2 3828   3.335   0.279   9.401 -0.0557 -0.3227 -0.4309
  249MPD1    C3 3829   3.308   0.146   9.403 -0.0153  0.6440 -0.1163
  249MPD1    C4 3830   3.328   0.075   9.290 -0.6648 -0.0894  0.1402
  249MPD1    C5 3831   3.357   0.136   9.172  0.6464  0.5994  0.2553
  249MPD1     H 3832   3.314   0.327   9.495  0.1782 -0.2205 -0.4313
  249MPD1    H1 3833   3.300   4.707   9.291 -3.3540  0.6464  3.2111
  249MPD1    H2 3834   3.387   0.318   9.070 -2.2084 -1.1108 -1.0253
  249MPD1    H3 3835   3.352   0.080   9.080 -0.5442 -0.4771  0.9741
  249MPD1     N 3836   3.281   0.085   9.528 -0.3632  0.1426 -0.1122
  249MPD1    H5 3837   3.282   0.154   9.602 -2.6520  3.9467 -3.6228
  249MPD1    N1 3838   3.377   0.487   9.284  0.5713  0.5114 -0.2634
  249MPD1    H6 3839   3.423   0.521   9.368 -0.5187 -1.2915  1.0843
  249MPD1    H7 3840   3.438   0.518   9.209 -0.3297 -0.7308 -1.5129
  250MPD2     C 3841   0.028   2.528  13.001 -0.5808 -0.7800 -0.0628
  250MPD2    C1 3842   4.663   2.603  12.941 -0.2178 -0.2552  0.5809
  250MPD2    C2 3843   4.605   2.559  12.824 -0.5990  0.0946 -0.4112
  250MPD2    C3 3844   4.646   2.434  12.770  0.1790 -0.3670  0.3020
  250MPD2    C4 3845   4.736   2.364  12.839 -0.3240  0.3213 -0.4922
  250MPD2    C5 3846   0.054   2.405  12.951  0.2246 -0.0036 -0.5097
  250MPD2     H 3847   4.518   2.612  12.786 -1.2202 -1.2976 -0.9245
  250MPD2    H1 3848   0.034   2.265  12.815 -0.2774  0.2590 -0.1674
  250MPD2    H2 3849   0.072   2.550  13.097  0.7475 -0.9411 -0.6318
  250MPD2    H3 3850   0.128   2.349  13.007 -1.7195  0.0093  2.0424
  250MPD2     N 3851   4.584   2.366  12.662  0.1018 -0.2162 -0.3723
  250MPD2    H5 3852   4.614   2.270  12.645 -3.8761 -1.8949  1.8505
  250MPD2    N1 3853   4.637   2.730  12.992 -0.3906 -0.1510  0.2060
  250MPD2    H7 3854   4.678   2.747  13.083  0.2370  0.1203 -0.1271
  251TMC3    C1 3855   4.544   2.954  13.016 -1.1357 -0.7601  0.2366
  251TMC3    C2 3856   4.437   3.042  12.978 -0.0856 -0.4352  0.6253
  251TMC3    C3 3857   4.452   3.170  13.002  0.2539 -0.4869 -0.3624
  251TMC3    C4 3858   4.657   3.006  13.071  0.5519 -0.6617  0.0078
  251TMC3    C5 3859   4.664   3.142  13.092  0.6642  0.3837  0.4392
  251TMC3    C6 3860   4.567   3.226  13.058  0.1603  0.1127  0.6879
  251TMC3     C 3861   4.551   2.826  12.943  0.1396  0.4317  0.0745
  251TMC3     O 3862   4.480   2.827  12.845  0.2695  0.3303 -0.3031
  251TMC3     H 3863   4.352   2.999  12.926  1.2516 -2.8471  0.4125
  251TMC3    H1 3864   0.000   2.939  13.099 -1.1182 -1.3526  3.1092
  251TMC3    H2 3865   4.572   3.329  13.091  1.6757 -0.4754  2.2703
  251TMC3    C7 3866   0.046   3.192  13.160  0.2934  0.1474  0.4193
  251TMC3    C8 3867   4.333   3.250  12.969  0.4350  0.2746  0.0952
  251TMC3    O1 3868   0.120   3.109  13.207 -0.3869 -0.0078 -0.2898
  251TMC3    O2 3869   4.242   3.192  12.912  0.2653 -0.4275  0.1235
  252TMC3    C1 3870   3.867   0.248   9.482 -0.0821  0.2318  0.4791
  252TMC3    C2 3871   4.003   0.229   9.475  0.1467 -0.0448 -0.4715
  252TMC3    C3 3872   4.053   0.107   9.507  0.1914  0.2608  0.4727
  252TMC3    C4 3873   3.779   0.147   9.508 -0.3607  0.7874  0.6886
  252TMC3    C5 3874   3.834   0.031   9.559 -0.9937 -0.2434 -0.1122
  252TMC3    C6 3875   3.971   0.007   9.555 -0.3686  0.4318 -0.1742
  252TMC3     C 3876   3.820   0.377   9.440 -0.0907  0.9932 -0.2338
  252TMC3     O 3877   3.896   0.458   9.393 -0.3374  0.0398 -0.0538
  252TMC3     H 3878   4.058   0.309   9.428 -0.2121  0.0790 -0.6817
  252TMC3    H1 3879   3.672   0.156   9.491  0.2278  1.0428 -2.6994
  252TMC3    H2 3880   4.018   4.647   9.570  0.1192  0.7283  0.2324
  252TMC3    C7 3881   3.744   4.678   9.636  0.1534 -0.6728 -0.2187
  252TMC3    C8 3882   4.197   0.083   9.492  0.1523  0.4875 -0.1920
  252TMC3    O1 3883   3.627   4.705   9.649  0.0663 -0.1129 -0.1851
  252TMC3    O2 3884   4.258   0.148   9.407 -0.0371  0.3581 -0.0229
  253MPD2     C 3885   0.993   3.259  15.330  0.0130 -0.1710 -0.6157
  253MPD2    C1 3886   0.863   3.234  15.284  0.1149  0.5238 -0.6928
  253MPD2    C2 3887   0.760   3.219  15.373 -1.5185 -0.4017 -0.3179
  253MPD2    C3 3888   0.784   3.220  15.502  0.0002  0.0695 -0.0396
  253MPD2    C4 3889   0.907   3.243  15.546  0.3089 -0.0987 -0.6638
  253MPD2    C5 3890   1.012   3.269  15.465  1.0856 -0.3151 -0.2027
  253MPD2     H 3891   0.656   3.205  15.343 -1.4214 -0.4060 -0.6547
  253MPD2    H1 3892   0.926   3.234  15.652  1.4279 -0.1090 -0.8604
  253MPD2    H2 3893   1.082   3.262  15.268 -1.7677  1.6718 -3.1001
  253MPD2    H3 3894   1.108   3.287  15.511  0.5944  0.5717  0.4690
  253MPD2     N 3895   0.687   3.212  15.610 -0.3274 -0.6891 -0.0198
  253MPD2    H5 3896   0.736   3.197  15.697  1.2895 -1.2762 -1.0214
  253MPD2    N1 3897   0.835   3.232  15.147  0.1963 -0.1257  0.0464
  253MPD2    H7 3898   0.741   3.203  15.122  0.3515  1.1494 -2.0011
  254TMC3    C1 3899   0.486   3.174  15.718  0.5689  0.5694 -0.2331
  254TMC3    C2 3900   0.363   3.227  15.755  0.2552 -0.0638 -0.5394
  254TMC3    C3 3901   0.310   3.193  15.875 -0.1127  0.2936 -0.0474
  254TMC3    C4 3902   0.550   3.098  15.819 -0.1045  0.1412  0.1275
  254TMC3    C5 3903   0.490   3.073  15.941  0.7397  0.3401 -0.6855
  254TMC3    C6 3904   0.366   3.116  15.969 -0.6503 -0.1449 -0.1411
  254TMC3     C 3905   0.550   3.205  15.597  0.5493  1.0213 -0.0415
  254TMC3     O 3906   0.488   3.239  15.499 -0.3974  0.2088  0.1432
  254TMC3     H 3907   0.314   3.290  15.681 -0.5777  0.9262  0.8709
  254TMC3    H1 3908   0.638   3.039  15.796 -1.6790 -1.0683 -2.8336
  254TMC3    H2 3909   0.328   3.110  16.070 -0.8456 -0.5836 -0.2400
  254TMC3    C7 3910   0.558   2.994  16.046  0.7461  0.3588 -0.0459
  254TMC3    C8 3911   0.163   3.231  15.894  0.2403  0.1072 -0.3299
  254TMC3    O1 3912   0.485   2.959  16.136  0.4743 -0.0933  0.1067
  254TMC3    O2 3913   0.093   3.147  15.951 -0.5483 -0.8942  0.0838
  255MPD2     C 3914   3.292   0.958  10.925 -0.0574 -0.0321  0.0383
  255MPD2    C1 3915   3.375   1.030  10.840  0.6772 -1.2321 -0.5059
  255MPD2    C2 3916   3.479   0.965  10.772  0.1685 -0.3510 -0.0868
  255MPD2    C3 3917   3.501   0.832  10.798 -0.1386  0.2091  0.5196
  255MPD2    C4 3918   3.416   0.761  10.884 -0.4380 -0.2895 -0.0397
  255MPD2    C5 3919   3.305   0.822  10.937  0.5541  0.4490  0.7800
  255MPD2     H 3920   3.534   1.021  10.698 -2.4823 -0.0680 -1.8605
  255MPD2    H1 3921   3.430   0.655  10.904 -1.2287 -0.4065 -0.0853
  255MPD2    H2 3922   3.206   1.005  10.971  0.2180 -0.0392  0.5476
  255MPD2    H3 3923   3.238   0.763  10.999  1.2534 -1.1539 -0.0205
  255MPD2     N 3924   3.601   0.771  10.719  0.4814 -0.7695 -0.1550
  255MPD2    H5 3925   3.650   0.828  10.651 -0.2938  0.3869  0.2714
  255MPD2    N1 3926   3.346   1.168  10.833 -0.1992  0.0022  0.1618
  255MPD2    H7 3927   3.271   1.199  10.895  0.9396  2.4764  0.3142
  256TMC3    C1 3928   3.372   1.401  10.788 -0.4916  0.7269  0.3739
  256TMC3    C2 3929   3.464   1.502  10.774 -0.0760  0.0924  0.4659
  256TMC3    C3 3930   3.430   1.623  10.819  0.0754 -0.3583 -0.5797
  256TMC3    C4 3931   3.250   1.429  10.842 -0.0623 -0.1109  0.1491
  256TMC3    C5 3932   3.207   1.558  10.854 -0.1712  0.2644  0.0769
  256TMC3    C6 3933   3.301   1.658  10.849  0.4250  0.2120 -0.0747
  256TMC3     C 3934   3.401   1.265  10.747  0.0522  0.2226 -0.1930
  256TMC3     O 3935   3.497   1.249  10.675  0.1153 -0.0276  0.2419
  256TMC3     H 3936   3.570   1.486  10.756 -0.2095  0.5300 -0.6750
  256TMC3    H1 3937   3.173   1.354  10.852 -1.8301  1.9497  1.8616
  256TMC3    H2 3938   3.285   1.763  10.871 -0.1072  0.3494 -1.0988
  256TMC3    C7 3939   3.094   1.586  10.761  0.1751  0.5475  0.6913
  256TMC3    C8 3940   3.517   1.738  10.790  0.5134  0.1718  0.1258
  256TMC3    O1 3941   3.044   1.481  10.714  0.9724  0.9223  0.1290
  256TMC3    O2 3942   3.506   1.839  10.856  0.2047 -0.4544  0.5730
  257MPD2     C 3943   2.527   2.336  12.847  0.1156 -0.0110 -1.2819
  257MPD2    C1 3944   2.636   2.400  12.902  0.7075 -0.3205 -0.6505
  257MPD2    C2 3945   2.698   2.333  13.008 -0.4714 -0.3411  0.1665
  257MPD2    C3 3946   2.659   2.204  13.039  0.0586  0.0118 -0.6870
  257MPD2    C4 3947   2.565   2.138  12.972  0.4411  0.1581  0.2869
  257MPD2    C5 3948   2.497   2.205  12.877  0.3362 -0.0844  0.4795
  257MPD2     H 3949   2.783   2.373  13.062 -0.0858 -1.1151  0.1349
  257MPD2    H1 3950   2.539   2.034  12.988 -0.1528 -0.0309 -1.9126
  257MPD2    H2 3951   2.458   2.379  12.775 -0.7845  0.9098  0.1338
  257MPD2    H3 3952   2.421   2.154  12.818 -0.1477 -0.9355  1.8343
  257MPD2     N 3953   2.729   2.142  13.146 -0.0987  0.0851  0.0873
  257MPD2    H5 3954   2.801   2.192  13.197  0.3568  1.0822 -1.5379
  257MPD2    N1 3955   2.652   2.525  12.845 -0.0603  0.1059 -0.5079
  257MPD2    H7 3956   2.572   2.554  12.789 -1.3269 -0.4400  1.0174
  258TMC3    C1 3957   2.809   1.964  13.290  0.7958 -1.1535 -0.2194
  258TMC3    C2 3958   2.904   1.873  13.245  0.2403 -0.5915 -0.2998
  258TMC3    C3 3959   3.016   1.868  13.323  0.1557 -0.1723  0.1261
  258TMC3    C4 3960   2.842   2.060  13.376 -0.1168  0.0814 -0.3409
  258TMC3    C5 3961   2.970   2.067  13.429 -0.2851 -0.1438  0.5501
  258TMC3    C6 3962   3.053   1.967  13.408  0.0901 -0.1051 -0.2827
  258TMC3     C 3963   2.713   2.007  13.186  0.0510 -0.4464 -0.3369
  258TMC3     O 3964   2.644   1.916  13.133 -0.5389 -0.3189  0.1062
  258TMC3     H 3965   2.871   1.786  13.191 -0.2508 -0.8156  0.3522
  258TMC3    H1 3966   2.773   2.136  13.411 -0.4535 -0.2588 -0.2754
  258TMC3    H2 3967   3.151   1.964  13.454 -0.5222 -2.5965  0.8571
  258TMC3    C7 3968   2.979   2.113  13.566  0.0046 -0.1555 -0.6201
  258TMC3    C8 3969   3.128   1.777  13.280 -0.6529  0.1486 -0.0692
  258TMC3    O1 3970   2.872   2.130  13.625 -0.4390  0.5492  0.3541
  258TMC3    O2 3971   3.238   1.795  13.330 -0.0988 -0.0387  0.7181
  259MPD2     C 3972   1.289   0.421   0.642  0.4036  0.3205  0.6291
  259MPD2    C1 3973   1.383   0.335   0.610 -0.4520  0.4458  0.3434
  259MPD2    C2 3974   1.371   0.260   0.492 -1.0350  0.7057 -0.3756
  259MPD2    C3 3975   1.267   0.279   0.410  0.3607  0.3237  0.5050
  259MPD2    C4 3976   1.171   0.378   0.443  0.2177  0.2591 -0.6534
  259MPD2    C5 3977   1.187   0.445   0.559  0.8656 -0.5361 -0.0488
  259MPD2     H 3978   1.441   0.179   0.472 -1.2177  0.3590  0.3899
  259MPD2    H1 3979   1.089   0.408   0.380 -0.3516 -1.5702 -0.7652
  259MPD2    H2 3980   1.289   0.488   0.728  1.1892  0.5898  0.4203
  259MPD2    H3 3981   1.120   0.527   0.582 -0.8355 -1.3929 -1.8851
  259MPD2     N 3982   1.267   0.207   0.293  0.8701 -0.3791  0.2239
  259MPD2    H5 3983   1.351   0.151   0.285 -0.4651 -2.4858  0.8242
  259MPD2    N1 3984   1.485   0.318   0.704  0.8651 -0.0528  0.1887
  259MPD2    H7 3985   1.483   0.377   0.787 -0.3565 -0.3318  0.3635
  260TMC3    C1 3986   1.225   0.151   0.072 -0.0505  0.3688 -0.1638
  260TMC3    C2 3987   1.291   0.213  17.720  0.3023  0.4041 -0.4912
  260TMC3    C3 3988   1.396   0.157  17.650  0.7025  0.2952 -0.6731
  260TMC3    C4 3989   1.261   0.020   0.104  0.2017 -0.7071 -0.0242
  260TMC3    C5 3990   1.365   4.708   0.033  0.1171 -0.0348  0.0618
  260TMC3    C6 3991   1.432   0.030  17.682  0.4360 -0.0191  1.0237
  260TMC3     C 3992   1.187   0.237   0.180  1.1389  0.6388 -0.0966
  260TMC3     O 3993   1.113   0.330   0.146 -0.0807 -0.1263 -0.5449
  260TMC3     H 3994   1.276   0.320  17.707 -1.9223  0.0266 -1.0241
  260TMC3    H1 3995   1.193   4.704   0.169  0.3552 -0.3289  0.4425
  260TMC3    H2 3996   1.494   4.715  17.611 -0.2089  0.7631 -0.1167
  260TMC3    C7 3997   1.417   4.572   0.056  0.3980  0.1503  0.4335
  260TMC3    C8 3998   1.497   0.251  17.605  0.3020 -0.3612 -0.3420
  260TMC3    O1 3999   1.529   4.553   0.015  0.7231  0.4510  0.1326
  260TMC3    O2 4000   1.481   0.373  17.600  0.6548 -0.0876  0.1593
  261MPD2     C 4001   3.853   2.369  12.191 -0.1218 -0.3715  0.6072
  261MPD2    C1 4002   3.982   2.423  12.173 -0.0226  0.3313 -0.6014
  261MPD2    C2 4003   3.998   2.516  12.071  0.8045  0.5600 -0.0449
  261MPD2    C3 4004   3.895   2.563  11.991 -0.5297 -0.2992  0.2995
  261MPD2    C4 4005   3.771   2.515  12.012 -0.0506  0.1189  0.5926
  261MPD2    C5 4006   3.747   2.413  12.110 -0.0926  0.5110 -0.4524
  261MPD2     H 4007   4.096   2.553  12.045  0.7593 -0.0663 -1.1091
  261MPD2    H1 4008   3.687   2.539  11.948 -0.0072 -1.0304  0.1097
  261MPD2    H2 4009   3.825   2.299  12.268  1.7635 -2.0673 -0.2471
  261MPD2    H3 4010   3.652   2.365  12.127  0.7221 -0.0805  2.4336
  261MPD2     N 4011   3.926   2.663  11.898 -0.1750  0.3871  0.1268
  261MPD2    H5 4012   4.021   2.696  11.883 -0.4600  1.0880 -0.1346
  261MPD2    N1 4013   4.097   2.375  12.241 -0.2558 -0.6285  0.3688
  261MPD2    H7 4014   4.186   2.415  12.213 -0.7067 -0.2731 -0.5502
  262TMC3    C1 4015   3.912   2.793  11.708 -0.5281 -0.6260  0.5573
  262TMC3    C2 4016   3.838   2.896  11.654  0.0267  0.3522  0.1645
  262TMC3    C3 4017   3.903   2.983  11.564  0.1069 -0.2940 -0.6653
  262TMC3    C4 4018   4.046   2.775  11.681  0.4190  1.1288  0.5151
  262TMC3    C5 4019   4.110   2.855  11.592 -0.1130 -0.3979  0.0250
  262TMC3    C6 4020   4.031   2.955  11.527  0.4951  0.9148  0.5884
  262TMC3     C 4021   3.844   2.700  11.789  0.2117  0.1788 -0.6204
  262TMC3     O 4022   3.723   2.678  11.771 -0.0582 -0.4804  0.4272
  262TMC3     H 4023   3.742   2.922  11.695  0.3541  1.9482 -0.0788
  262TMC3    H1 4024   4.115   2.710  11.735 -1.2990 -0.5656  0.6444
  262TMC3    H2 4025   4.069   3.017  11.446 -0.2208 -0.2668 -0.6562
  262TMC3    C7 4026   4.244   2.878  11.600  0.2979 -0.2575 -0.0555
  262TMC3    C8 4027   3.844   3.105  11.526 -0.7052 -0.3263  0.1214
  262TMC3    O1 4028   4.310   2.787  11.641  0.4465 -0.1091  0.2424
  262TMC3    O2 4029   3.916   3.188  11.464  0.4660 -0.1716 -0.8822
  263MPD2     C 4030   0.222   1.795  11.782  0.2809  0.7450  0.6091
  263MPD2    C1 4031   0.276   1.886  11.688 -0.2588  0.3556 -0.9190
  263MPD2    C2 4032   0.191   1.938  11.584 -0.4914  0.1242 -0.0682
  263MPD2    C3 4033   0.053   1.918  11.586  0.0380  0.2785  0.4226
  263MPD2    C4 4034   0.002   1.846  11.688  0.5074  0.5992 -0.5471
  263MPD2    C5 4035   0.084   1.791  11.783  0.5927  0.3153 -0.0520
  263MPD2     H 4036   0.230   1.994  11.500 -1.4552 -0.6332 -1.0140
  263MPD2    H1 4037   4.632   1.843  11.704  0.2706  2.9323 -1.7673
  263MPD2    H2 4038   0.282   1.755  11.863  1.2550 -0.1481 -0.5584
  263MPD2    H3 4039   0.040   1.744  11.871 -0.1939  0.0243 -0.5984
  263MPD2     N 4040   4.711   1.962  11.477 -0.2671  0.0907  0.7446
  263MPD2    H5 4041   0.019   2.015  11.404  1.6218 -3.1129 -0.4233
  263MPD2    N1 4042   0.415   1.919  11.693  0.3746  0.0354 -0.1446
  263MPD2    H7 4043   0.463   1.867  11.767  1.7841  0.2425 -0.9133
  264TMC3    C1 4044   4.526   2.041  11.364 -0.6934  0.6327 -0.4384
  264TMC3    C2 4045   4.438   2.144  11.397  0.4984  0.8649  0.1186
  264TMC3    C3 4046   4.423   2.253  11.316  0.1559  0.3147  0.2696
  264TMC3    C4 4047   4.604   2.048  11.255 -0.7501 -0.7042  0.1519
  264TMC3    C5 4048   4.590   2.159  11.178 -0.8518 -0.7948 -0.9942
  264TMC3    C6 4049   4.502   2.263  11.203 -0.4170  0.0825  0.6069
  264TMC3     C 4050   4.576   1.959  11.465  0.1526 -0.0918 -0.4526
  264TMC3     O 4051   4.494   1.930  11.548  0.0244  0.1853 -0.1946
  264TMC3     H 4052   4.365   2.136  11.477  0.5346  1.2492  0.1899
  264TMC3    H1 4053   4.681   1.975  11.233  0.5907  0.9445 -0.6367
  264TMC3    H2 4054   4.507   2.349  11.137  0.3174  0.0251  0.5798
  264TMC3    C7 4055   4.722   2.212  11.139 -0.2845  0.7991 -0.1419
  264TMC3    C8 4056   4.429   2.381  11.379 -0.6084 -0.4097  0.0857
  264TMC3    O1 4057   0.063   2.127  11.099 -0.0441  0.7269  0.3334
  264TMC3    O2 4058   4.397   2.475  11.310  0.2640  0.4189  0.4079
  265MPD2     C 4059   1.817   2.412  15.790 -0.1450 -1.0236 -0.3674
  265MPD2    C1 4060   1.856   2.510  15.706 -0.4713  0.1211  0.5505
  265MPD2    C2 4061   1.920   2.489  15.588  0.4456 -0.2362  0.0002
  265MPD2    C3 4062   1.953   2.360  15.552 -0.1396 -1.1015  0.1997
  265MPD2    C4 4063   1.915   2.257  15.631 -0.2628  0.1504  0.4423
  265MPD2    C5 4064   1.848   2.288  15.751  0.0596 -0.0978  0.2007
  265MPD2     H 4065   1.953   2.572  15.526 -0.0870  0.8867  1.2273
  265MPD2    H1 4066   1.932   2.152  15.612  1.4771  0.1494  1.9587
  265MPD2    H2 4067   1.765   2.426  15.884  0.6724  0.2796 -0.1065
  265MPD2    H3 4068   1.805   2.216  15.819  1.2444 -0.0609  0.9750
  265MPD2     N 4069   2.041   2.328  15.443 -0.3580  0.2377  0.3367
  265MPD2    H5 4070   2.049   2.227  15.431 -0.0918  0.1453  1.3041
  265MPD2    N1 4071   1.834   2.645  15.734 -0.3430 -0.0817 -0.6762
  265MPD2    H7 4072   1.872   2.710  15.666  0.9867 -1.4033 -1.1846
  266TMC3    C1 4073   1.812   2.838  15.873 -0.2634  0.5690 -0.8026
  266TMC3    C2 4074   1.819   2.881  16.005 -0.3843 -0.1434  0.1479
  266TMC3    C3 4075   1.816   3.018  16.030  0.0293 -0.5302 -0.1316
  266TMC3    C4 4076   1.798   2.924  15.766 -0.0442 -0.3767  0.0612
  266TMC3    C5 4077   1.771   3.055  15.799 -1.1262  0.6433 -0.7677
  266TMC3    C6 4078   1.784   3.102  15.928  0.1106  0.5759 -0.2799
  266TMC3     C 4079   1.796   2.697  15.856 -0.1433  0.5660 -1.3657
  266TMC3     O 4080   1.754   2.632  15.950 -0.2199  0.2452 -0.1663
  266TMC3     H 4081   1.827   2.813  16.089  0.5291  0.4638  0.5542
  266TMC3    H1 4082   1.766   2.893  15.667  1.3158 -1.7279  0.0642
  266TMC3    H2 4083   1.753   3.202  15.954  2.6894  1.0493  0.9947
  266TMC3    C7 4084   1.744   3.146  15.689  0.7652 -0.6539 -0.1229
  266TMC3    C8 4085   1.760   3.058  16.157  0.3315  0.0859  0.2270
  266TMC3    O1 4086   1.730   3.096  15.579 -0.1861  0.3817  0.0615
  266TMC3    O2 4087   1.715   2.968  16.223  0.0672  0.2234 -0.1553
  267MPD2     C 4088   3.922   0.195  17.446  0.5344 -0.2555 -0.0665
  267MPD2    C1 4089   3.946   0.061  17.441  0.4640 -0.3314 -0.2161
  267MPD2    C2 4090   3.918   4.723  17.332  0.0386 -0.2985 -0.2406
  267MPD2    C3 4091   3.860   0.055  17.227  0.1178  0.0046 -0.4750
  267MPD2    C4 4092   3.836   0.190  17.233 -0.0652  0.4640 -0.2945
  267MPD2    C5 4093   3.864   0.260  17.339  0.9183 -0.5169 -0.1173
  267MPD2     H 4094   3.960   4.623  17.334 -2.8427 -1.4959  0.2112
  267MPD2    H1 4095   3.781   0.227  17.147  2.8185  0.8583 -1.9396
  267MPD2    H2 4096   3.956   0.253  17.531  0.9756  0.1303 -0.5098
  267MPD2    H3 4097   3.848   0.367  17.342  0.0087 -0.6225 -1.3708
  267MPD2     N 4098   3.812   4.734  17.110 -0.6276 -0.3943 -0.6312
  267MPD2    H5 4099   3.787   0.062  17.036  3.7314 -0.7276 -2.3823
  267MPD2    N1 4100   4.023   0.013  17.548  0.1001  0.0524  0.6645
  267MPD2    H7 4101   4.058   0.079  17.617  1.9027  1.3792 -1.5154
  268TMC3    C1 4102   4.132   4.629  17.702 -0.4919 -0.3751 -0.0052
  268TMC3    C2 4103   4.225   4.730  17.717 -0.0144  0.6322 -0.4257
  268TMC3    C3 4104   4.317   4.717   0.064  0.1363  0.0611  0.2473
  268TMC3    C4 4105   4.149   4.510   0.017  1.1289 -0.2041  0.2974
  268TMC3    C5 4106   4.240   4.507   0.122 -0.4450 -0.3232 -0.2769
  268TMC3    C6 4107   4.318   4.611   0.152  0.0527 -0.1460 -0.3481
  268TMC3     C 4108   4.051   4.618  17.582  0.0132 -0.2189 -0.0885
  268TMC3     O 4109   4.010   4.507  17.547 -0.0040 -0.3947 -0.3588
  268TMC3     H 4110   4.228   0.089  17.667  2.8069  0.4430 -0.5971
  268TMC3    H1 4111   4.101   4.420  17.728 -0.3177  1.4087 -1.6949
  268TMC3    H2 4112   4.391   4.600   0.231 -1.2537 -1.6265  0.6538
  268TMC3    C7 4113   4.231   4.398   0.224 -0.6011  0.2742  0.6642
  268TMC3    C8 4114   4.423   0.073   0.070  0.5816  0.3857 -0.2661
  268TMC3    O1 4115   4.316   4.398   0.311  0.1098 -0.3902 -0.5637
  268TMC3    O2 4116   4.483   0.099   0.175  0.5311  0.2318 -0.0533
  269MPD2     C 4117   0.020   3.694  15.336 -0.6838 -0.6969 -0.7713
  269MPD2    C1 4118   4.634   3.672  15.396  0.8500  0.1124 -0.2475
  269MPD2    C2 4119   4.563   3.787  15.425 -0.1049 -0.3405  0.2197
  269MPD2    C3 4120   4.612   3.915  15.416  0.3267  0.0206 -0.3040
  269MPD2    C4 4121   0.002   3.932  15.363  0.2622 -0.3766 -0.4347
  269MPD2    C5 4122   0.067   3.820  15.314 -1.1370 -0.4904 -0.1270
  269MPD2     H 4123   4.470   3.771  15.477  0.0233  0.6601  0.7472
  269MPD2    H1 4124   0.050   4.026  15.343  1.5740 -1.3865 -2.0119
  269MPD2    H2 4125   0.082   3.613  15.300  0.7276  0.1370 -0.1677
  269MPD2    H3 4126   0.157   3.841  15.258 -0.3831  1.5645  1.8404
  269MPD2     N 4127   4.529   4.021  15.467 -0.5907  0.5472 -0.2582
  269MPD2    H5 4128   4.447   3.999  15.523 -0.9750  0.2160 -0.9598
  269MPD2    N1 4129   4.585   3.538  15.404  0.5011 -0.5459 -0.1852
  269MPD2    H7 4130   4.652   3.468  15.372  0.3679 -0.6773 -0.1731
  270TMC3    C1 4131   4.433   3.357  15.447  0.9505  0.6661  0.5173
  270TMC3    C2 4132   4.306   3.320  15.429 -0.4430 -0.2932 -0.1366
  270TMC3    C3 4133   4.268   3.203  15.488  0.3569  0.2873 -0.1701
  270TMC3    C4 4134   4.525   3.279  15.511  0.3481 -0.0829 -0.1327
  270TMC3    C5 4135   4.482   3.161  15.575  0.0159  0.4986  0.7597
  270TMC3    C6 4136   4.349   3.137  15.579 -0.5476 -0.1181  0.0341
  270TMC3     C 4137   4.456   3.499  15.434 -0.1205 -0.5326  0.5975
  270TMC3     O 4138   4.356   3.568  15.454  0.1707 -0.8172  0.0794
  270TMC3     H 4139   4.238   3.379  15.368  4.2035  3.4674 -1.6265
  270TMC3    H1 4140   4.631   3.301  15.510  0.5610 -1.0895  0.5646
  270TMC3    H2 4141   4.309   3.052  15.631 -0.5028  0.0180  0.2923
  270TMC3    C7 4142   4.574   3.051  15.565  0.2210  0.4003 -0.0348
  270TMC3    C8 4143   4.209   3.100  15.401  1.1619  0.2296  0.3634
  270TMC3    O1 4144   4.693   3.083  15.586  0.0284  0.1061  0.4999
  270TMC3    O2 4145   4.256   2.989  15.424 -0.1341  0.4136 -0.1764
  271MPD2     C 4146   3.974   2.982  13.638  0.0769 -0.8815 -0.0931
  271MPD2    C1 4147   3.918   2.978  13.759  0.0524  0.0215 -0.4778
  271MPD2    C2 4148   3.783   3.011  13.772  0.3936  0.3508  0.5541
  271MPD2    C3 4149   3.706   3.050  13.663  0.2966  0.2007  0.1828
  271MPD2    C4 4150   3.766   3.053  13.542 -0.0878  0.5714 -0.1194
  271MPD2    C5 4151   3.899   3.019  13.529  0.5498 -0.0563 -0.4350
  271MPD2     H 4152   3.741   3.002  13.871  0.1643  1.2734  0.5451
  271MPD2    H1 4153   3.713   3.083  13.453 -2.5183 -3.3011  0.0179
  271MPD2    H2 4154   4.079   2.958  13.623  0.7075  0.7486  1.6475
  271MPD2    H3 4155   3.945   3.041  13.433  0.2637 -0.0200 -0.5648
  271MPD2     N 4156   3.562   3.078  13.667  0.0989 -0.4782 -0.1379
  271MPD2    H5 4157   3.518   3.082  13.576 -2.1168 -2.0233  0.8748
  271MPD2    N1 4158   3.992   2.948  13.881 -0.3482 -0.3819 -0.0000
  271MPD2    H7 4159   3.940   2.954  13.968  0.2535  0.6887  0.2829
  272TMC3    C1 4160   4.159   2.852  14.022 -0.2215 -0.0863 -0.1165
  272TMC3    C2 4161   4.264   2.758  14.025  0.8221 -0.4834  0.5175
  272TMC3    C3 4162   4.310   2.722  14.148 -0.7840 -0.0276 -0.0437
  272TMC3    C4 4163   4.111   2.914  14.135  0.4460  0.5047  0.0487
  272TMC3    C5 4164   4.177   2.885  14.254 -0.1563 -0.0889  0.2950
  272TMC3    C6 4165   4.265   2.777  14.268  0.2815 -0.6466  0.1825
  272TMC3     C 4166   4.115   2.888  13.883  0.3511  0.7338 -0.2465
  272TMC3     O 4167   4.166   2.819  13.796 -0.3428  0.3660 -0.0412
  272TMC3     H 4168   4.307   2.713  13.936  0.0029  1.1909 -0.7147
  272TMC3    H1 4169   4.038   2.994  14.129  0.3715  0.4847  0.6502
  272TMC3    H2 4170   4.321   2.758  14.359 -0.8369 -2.5260  0.4627
  272TMC3    C7 4171   4.166   2.986  14.362 -0.0373 -0.7743 -0.5117
  272TMC3    C8 4172   4.414   2.623  14.162 -0.3922 -0.0548  0.1083
  272TMC3    O1 4173   4.080   3.074  14.349  0.3006 -0.2665 -0.2386
  272TMC3    O2 4174   4.516   2.671  14.108  0.1542 -0.6586  0.3750
  273MPD2     C 4175   0.418   0.920  11.747  0.0045 -0.2210 -0.3921
  273MPD2    C1 4176   0.495   1.028  11.715  0.1342 -0.0831  0.6967
  273MPD2    C2 4177   0.495   1.067  11.581  0.3774 -0.4500 -0.8716
  273MPD2    C3 4178   0.417   1.006  11.485 -0.5243 -0.0113 -0.2492
  273MPD2    C4 4179   0.341   0.898  11.522  0.6774  0.0049  0.0068
  273MPD2    C5 4180   0.345   0.851  11.652 -0.1781  0.0639  0.3739
  273MPD2     H 4181   0.554   1.155  11.558 -2.6093  1.0136 -3.0470
  273MPD2    H1 4182   0.279   0.843  11.452  2.4007 -0.4959 -1.1121
  273MPD2    H2 4183   0.430   0.872  11.844  0.3128 -1.4014 -1.0104
  273MPD2    H3 4184   0.305   0.752  11.669  1.0032 -0.2486  1.3428
  273MPD2     N 4185   0.424   1.049  11.349  0.4011 -0.4175 -0.1383
  273MPD2    H5 4186   0.340   1.033  11.295  0.3015  1.3995 -0.5315
  273MPD2    N1 4187   0.574   1.091  11.808  0.2045  0.6965 -0.4270
  273MPD2    H7 4188   0.581   1.046  11.899  0.4833  1.1726 -0.2118
  274TMC3    C1 4189   0.510   1.174  11.166  1.0790  0.4354  0.5571
  274TMC3    C2 4190   0.428   1.115  11.075 -0.0781  0.1440  0.1982
  274TMC3    C3 4191   0.415   1.169  10.948 -0.4946  0.1997  0.2222
  274TMC3    C4 4192   0.567   1.292  11.137 -1.0891  0.3295 -0.2945
  274TMC3    C5 4193   0.553   1.351  11.014 -0.0223  0.0748 -1.0526
  274TMC3    C6 4194   0.490   1.281  10.910  0.3338  0.8968 -0.1438
  274TMC3     C 4195   0.529   1.122  11.299 -0.1467 -0.1027  0.1576
  274TMC3     O 4196   0.635   1.166  11.345  0.0912 -0.1415  0.8203
  274TMC3     H 4197   0.387   1.016  11.089  3.1028 -1.5365 -2.4132
  274TMC3    H1 4198   0.631   1.337  11.212  1.7668 -2.0648 -1.2591
  274TMC3    H2 4199   0.462   1.335  10.820  0.3193 -2.9504 -2.4584
  274TMC3    C7 4200   0.626   1.471  10.981  0.5728  0.0530 -0.5885
  274TMC3    C8 4201   0.285   1.133  10.889  0.0439 -0.1011 -0.5630
  274TMC3    O1 4202   0.639   1.492  10.859  0.4854 -0.0133 -0.1062
  274TMC3    O2 4203   0.214   1.061  10.957  0.6353  0.0364  0.2777
  275MPD2     C 4204   0.132   4.104  14.185 -0.5053 -0.0541 -0.0075
  275MPD2    C1 4205   0.218   4.025  14.258  0.6197 -0.1657 -0.2310
  275MPD2    C2 4206   0.165   3.899  14.294  0.1557  0.0423  0.0505
  275MPD2    C3 4207   0.032   3.867  14.265  0.3816  0.4710  0.5007
  275MPD2    C4 4208   4.695   3.943  14.177 -0.2812 -0.4497  0.2197
  275MPD2    C5 4209   0.012   4.062  14.130 -0.0874 -0.5514 -0.2559
  275MPD2     H 4210   0.228   3.831  14.350  1.6258  2.4016  1.2249
  275MPD2    H1 4211   4.600   3.904  14.144 -1.1596  0.5942  1.5380
  275MPD2    H2 4212   0.169   4.194  14.136 -3.8927  0.8900 -0.8890
  275MPD2    H3 4213   4.695   4.133  14.069  2.0454  0.5062 -0.9186
  275MPD2     N 4214   4.705   3.753  14.308 -0.2817 -0.1751 -0.1656
  275MPD2    H5 4215   4.604   3.758  14.298 -0.5950 -0.3978  2.9222
  275MPD2    N1 4216   0.338   4.078  14.297 -0.5282 -0.0220  0.0857
  275MPD2    H7 4217   0.399   4.017  14.351 -0.3744 -0.9844 -1.1898
  276TMC3    C1 4218   0.510   4.235  14.341  0.2215 -0.2736  0.5423
  276TMC3    C2 4219   0.608   4.148  14.311  0.1724  0.1572  0.2422
  276TMC3    C3 4220   0.735   4.190  14.333 -0.0492 -0.1561  0.3247
  276TMC3    C4 4221   0.532   4.358  14.390 -0.2634  0.7189 -0.2613
  276TMC3    C5 4222   0.662   4.400  14.407  0.4547 -0.8062 -0.6628
  276TMC3    C6 4223   0.764   4.316  14.376  0.3101  0.4699 -0.3668
  276TMC3     C 4224   0.381   4.208  14.278 -0.4869 -1.1087  1.1053
  276TMC3     O 4225   0.318   4.304  14.237  0.8869 -0.1400 -0.2032
  276TMC3     H 4226   0.589   4.049  14.272  1.9873 -0.4055  0.7928
  276TMC3    H1 4227   0.440   4.415  14.398 -0.4293  0.3614  0.3555
  276TMC3    H2 4228   0.868   4.347  14.386  0.2329  0.4635  0.4502
  276TMC3    C7 4229   0.702   4.496  14.512 -0.5048 -0.0553  0.4044
  276TMC3    C8 4230   0.840   4.098  14.329  0.3182  0.4300 -0.1309
  276TMC3    O1 4231   0.819   4.497  14.549  0.1126 -0.5070  0.2962
  276TMC3    O2 4232   0.934   4.120  14.255  0.5574  0.3893  0.3550
  277MPD2     C 4233   1.930   2.860  13.120  0.3356 -0.4187  0.0064
  277MPD2    C1 4234   1.853   2.939  13.202  0.2445 -0.5107  0.0637
  277MPD2    C2 4235   1.815   2.902  13.331  0.4867 -0.2289  0.1247
  277MPD2    C3 4236   1.856   2.776  13.376 -0.5260  0.6075 -0.3386
  277MPD2    C4 4237   1.931   2.695  13.291  0.7522 -0.1751 -0.3398
  277MPD2    C5 4238   1.968   2.739  13.165  0.5156  0.6384  0.0025
  277MPD2     H 4239   1.765   2.971  13.398  0.6596  1.2346 -1.2692
  277MPD2    H1 4240   1.976   2.600  13.317  2.6313  1.6105  2.8513
  277MPD2    H2 4241   1.958   2.898  13.022 -0.1159  1.5431  0.6240
  277MPD2    H3 4242   2.026   2.674  13.099  0.5473 -0.4261  1.0793
  277MPD2     N 4243   1.817   2.732  13.502 -0.4605 -0.9281 -0.4352
  277MPD2    H5 4244   1.769   2.799  13.562  1.7199 -2.3818  2.9420
  277MPD2    N1 4245   1.812   3.067  13.147  0.4758 -0.4565  0.3035
  277MPD2    H7 4246   1.837   3.085  13.050  0.7510 -0.9938  0.2780
  278TMC3    C1 4247   1.754   2.578  13.676 -0.4248  0.1512  0.0311
  278TMC3    C2 4248   1.744   2.445  13.708  0.5485  0.2929  0.4755
  278TMC3    C3 4249   1.663   2.422  13.805 -0.0655  0.4346 -0.1582
  278TMC3    C4 4250   1.684   2.675  13.736  0.0444  0.2239 -0.4078
  278TMC3    C5 4251   1.598   2.645  13.836 -0.2685 -0.1442 -0.7512
  278TMC3    C6 4252   1.586   2.513  13.873  0.1019 -0.0153 -1.2414
  278TMC3     C 4253   1.807   2.603  13.540  0.1440 -0.2666  0.6192
  278TMC3     O 4254   1.821   2.497  13.474  0.1051  0.4061 -0.0866
  278TMC3     H 4255   1.802   2.369  13.657 -1.9497 -1.2427 -0.0590
  278TMC3    H1 4256   1.677   2.775  13.694 -0.5880  0.3952  0.1114
  278TMC3    H2 4257   1.529   2.468  13.953 -1.8855  1.0720 -2.0680
  278TMC3    C7 4258   1.489   2.742  13.846 -0.6140  0.5448  0.4386
  278TMC3    C8 4259   1.605   2.291  13.804 -0.0637 -0.4836 -0.4158
  278TMC3    O1 4260   1.509   2.861  13.830  0.2961  0.5971 -0.7539
  278TMC3    O2 4261   1.574   2.240  13.911 -0.0140 -0.1158 -0.2498
  279MPD2     C 4262   0.567   3.409   0.150  0.1288  0.0926 -0.1341
  279MPD2    C1 4263   0.702   3.433   0.167  0.2505 -0.5615  0.3811
  279MPD2    C2 4264   0.788   3.398   0.067  0.2761  0.1244 -0.0425
  279MPD2    C3 4265   0.743   3.346  17.693  0.6435  0.2696  0.3423
  279MPD2    C4 4266   0.607   3.317  17.681 -0.6231  0.0592  0.5235
  279MPD2    C5 4267   0.516   3.349   0.034  0.3763 -0.1376  0.6510
  279MPD2     H 4268   0.893   3.420   0.084  0.4010 -2.1428  2.1784
  279MPD2    H1 4269   0.564   3.266  17.596  0.6202  3.2841 -2.0596
  279MPD2    H2 4270   0.497   3.424   0.231 -0.6913 -0.3403 -0.7463
  279MPD2    H3 4271   0.413   3.321   0.017  1.2812 -2.7627 -0.5135
  279MPD2     N 4272   0.828   3.306  17.588 -0.0346  0.3235  0.5425
  279MPD2    H5 4273   0.788   3.254  17.510  3.2151  1.2914 -1.7253
  279MPD2    N1 4274   0.740   3.486   0.298  0.2984  0.7647 -0.0014
  279MPD2    H7 4275   0.671   3.539   0.349 -0.7569 -1.4688  0.8824
  280TMC3    C1 4276   0.891   3.559   0.475 -0.3560 -0.2138 -0.3940
  280TMC3    C2 4277   0.997   3.534   0.554 -0.3464 -0.1198  0.6434
  280TMC3    C3 4278   1.009   3.589   0.672 -0.1647 -0.7097  0.1117
  280TMC3    C4 4279   0.807   3.666   0.508  0.3534  0.1926  0.2165
  280TMC3    C5 4280   0.840   3.743   0.615  0.5034  0.5390 -0.4990
  280TMC3    C6 4281   0.931   3.703   0.702 -0.3465  0.7140  0.6608
  280TMC3     C 4282   0.870   3.485   0.352 -0.1151 -0.4872 -0.0401
  280TMC3     O 4283   0.964   3.411   0.320 -0.3384 -0.5696  0.3546
  280TMC3     H 4284   1.050   3.442   0.531  1.0302  0.6256  0.8238
  280TMC3    H1 4285   0.749   3.710   0.427 -0.8681 -0.1978  0.8789
  280TMC3    H2 4286   0.949   3.752   0.797 -0.5309  1.6671  0.1980
  280TMC3    C7 4287   0.766   3.863   0.648  0.2394  0.1817  0.1505
  280TMC3    C8 4288   1.085   3.536   0.788  0.7344 -0.2640  0.0859
  280TMC3    O1 4289   0.820   3.932   0.737  0.3368 -0.1582 -0.4474
  280TMC3    O2 4290   1.030   3.561   0.896 -0.2140  0.0476  0.0759
  281TMC3    C1 4291   0.233   3.030  13.480  1.1132  0.0689  0.6244
  281TMC3    C2 4292   0.303   3.141  13.445 -0.3581  0.2562  0.5653
  281TMC3    C3 4293   0.429   3.124  13.398  0.8587  0.4021  0.1961
  281TMC3    C4 4294   0.293   2.906  13.468  0.1088  0.3139 -0.2716
  281TMC3    C5 4295   0.412   2.891  13.398  0.2379 -0.6849 -0.0650
  281TMC3    C6 4296   0.482   3.002  13.377 -0.1524  0.0150  0.2043
  281TMC3     C 4297   0.096   3.034  13.515 -0.0554 -0.3686  0.8298
  281TMC3     O 4298   0.036   2.931  13.544 -0.0243 -0.3313 -0.0707
  281TMC3     H 4299   0.271   3.243  13.459 -0.6756  0.4646 -1.6703
  281TMC3    H1 4300   0.237   2.815  13.487 -0.6939  1.6886  3.7758
  281TMC3    H2 4301   0.574   2.998  13.320 -0.0867 -1.1425  0.3772
  281TMC3    C7 4302   0.467   2.765  13.354  0.6102  0.6413 -0.1800
  281TMC3    C8 4303   0.539   3.224  13.384 -0.0580  0.2543  0.0939
  281TMC3    O1 4304   0.585   2.765  13.343 -0.3725  0.9427 -0.4030
  281TMC3    O2 4305   0.651   3.185  13.411 -0.4865  0.7379 -0.3946
  282MPD2     C 4306   1.886   4.336  15.354 -0.4486 -0.0359 -0.2228
  282MPD2    C1 4307   1.785   4.424  15.387 -0.7315  0.3610 -0.2740
  282MPD2    C2 4308   1.728   4.503  15.286 -0.1550  0.0929  0.3138
  282MPD2    C3 4309   1.753   4.479  15.158 -0.6759 -0.4407  1.0737
  282MPD2    C4 4310   1.853   4.388  15.122  0.0394  0.7148 -0.0422
  282MPD2    C5 4311   1.909   4.316  15.223  0.3940 -0.4571  0.5090
  282MPD2     H 4312   1.647   4.571  15.310 -0.2881  0.1201 -0.2274
  282MPD2    H1 4313   1.881   4.360  15.022 -0.3443  3.0314 -0.8202
  282MPD2    H2 4314   1.927   4.265  15.425 -1.1401  1.9050  2.1482
  282MPD2    H3 4315   1.984   4.243  15.196  1.1288  0.6444 -0.4345
  282MPD2     N 4316   1.669   4.533  15.056  0.2427 -0.4011 -0.1028
  282MPD2    H5 4317   1.599   4.600  15.084  1.6448  1.2380 -0.5086
  282MPD2    N1 4318   1.732   4.430  15.524 -0.1982 -0.2948  0.4566
  282MPD2    H7 4319   1.683   4.512  15.557 -1.2809 -1.0183  0.6646
  283TMC3    C1 4320   1.687   4.365  15.744  0.3158  0.1894  0.3691
  283TMC3    C2 4321   1.662   4.494  15.779 -0.2303 -0.1971 -0.0441
  283TMC3    C3 4322   1.598   4.510  15.893 -0.2222 -0.7862 -0.8578
  283TMC3    C4 4323   1.652   4.252  15.807 -0.1551  0.3811  0.1447
  283TMC3    C5 4324   1.581   4.269  15.920  0.2893 -0.2241  0.0822
  283TMC3    C6 4325   1.561   4.397  15.963  0.2469 -0.7069 -0.1044
  283TMC3     C 4326   1.765   4.341  15.623  0.1004 -0.3827 -0.1667
  283TMC3     O 4327   1.822   4.231  15.624  0.4465 -0.2399  0.6732
  283TMC3     H 4328   1.708   4.578  15.728  1.0171  0.2884  1.8772
  283TMC3    H1 4329   1.695   4.155  15.785  2.5455  1.6540 -0.1558
  283TMC3    H2 4330   1.515   4.404  16.061 -0.1352  0.0762 -0.3369
  283TMC3    C7 4331   1.487   4.170  15.977  0.0361  0.0450  0.4091
  283TMC3    C8 4332   1.619   4.630  15.973 -0.2887  0.0174  0.3783
  283TMC3    O1 4333   1.427   4.200  16.079  0.4464 -0.3119 -0.4136
  283TMC3    O2 4334   1.634   4.616  16.097 -0.2604  0.1797 -0.1686
  284MPD2     C 4335   0.531   3.700  12.262 -1.1686  0.2722 -0.3625
  284MPD2    C1 4336   0.394   3.674  12.253 -0.2837  0.0928 -0.1733
  284MPD2    C2 4337   0.347   3.569  12.337  0.3562 -0.7763  0.4224
  284MPD2    C3 4338   0.423   3.511  12.438 -0.0664 -1.0472 -0.3890
  284MPD2    C4 4339   0.549   3.565  12.461 -1.3576 -0.7152  0.7345
  284MPD2    C5 4340   0.603   3.654  12.368 -0.5421 -0.6926 -0.2212
  284MPD2     H 4341   0.242   3.540  12.335  0.5639 -1.4790 -0.3183
  284MPD2    H1 4342   0.609   3.526  12.542  1.0465 -0.8306 -1.1195
  284MPD2    H2 4343   0.574   3.775  12.197  0.1912  1.1559  1.5485
  284MPD2    H3 4344   0.710   3.672  12.378 -0.6280  2.0253 -4.1620
  284MPD2     N 4345   0.381   3.399  12.513  0.1240 -0.0047  0.2929
  284MPD2    H5 4346   0.444   3.343  12.569  1.8509  0.5703 -1.0884
  284MPD2    N1 4347   0.313   3.719  12.149 -0.1732 -0.2893  0.4756
  284MPD2    H7 4348   0.222   3.674  12.143  0.7152 -1.7549 -1.9815
  285TMC3    C1 4349   0.225   3.860  11.981 -0.5102  0.0320  0.3206
  285TMC3    C2 4350   0.160   3.764  11.914  0.3973  0.5762 -0.0469
  285TMC3    C3 4351   0.081   3.792  11.807 -0.1130 -0.7474  0.3558
  285TMC3    C4 4352   0.227   3.988  11.933 -0.7090  0.1950  0.0085
  285TMC3    C5 4353   0.144   4.017  11.820 -0.5379  0.4575  0.0513
  285TMC3    C6 4354   0.078   3.916  11.756 -0.2919 -0.5277  0.0500
  285TMC3     C 4355   0.331   3.834  12.076 -0.0783 -0.3075  0.3961
  285TMC3     O 4356   0.424   3.911  12.071 -0.5701  0.0799 -0.3081
  285TMC3     H 4357   0.167   3.661  11.944  0.4124  0.6932  0.3504
  285TMC3    H1 4358   0.281   4.069  11.981 -0.5787  0.3819 -0.4484
  285TMC3    H2 4359   0.005   3.949  11.683  1.5772 -0.2910 -1.7178
  285TMC3    C7 4360   0.167   4.139  11.742  0.5166  0.2635 -0.2061
  285TMC3    C8 4361   0.100   3.704  11.702  0.3369  0.1146 -0.4198
  285TMC3    O1 4362   0.150   4.131  11.623  0.0058 -0.3163  0.2284
  285TMC3    O2 4363   0.043   3.597  11.705 -0.0206 -0.6288  0.0893
  286MPD2     C 4364   0.258   2.534   1.875 -0.0453 -0.0956  0.2191
  286MPD2    C1 4365   0.248   2.576   1.747  0.6986  0.5652 -0.5822
  286MPD2    C2 4366   0.312   2.511   1.644 -0.1851  0.0095 -0.0098
  286MPD2    C3 4367   0.378   2.393   1.662  0.0233 -0.2173  0.0264
  286MPD2    C4 4368   0.385   2.342   1.790 -0.2138 -0.8788 -0.6048
  286MPD2    C5 4369   0.333   2.414   1.894 -0.3422 -0.6983  0.0205
  286MPD2     H 4370   0.313   2.557   1.546 -0.0828  1.3528  0.6205
  286MPD2    H1 4371   0.443   2.252   1.811  1.2399 -0.0733 -1.1184
  286MPD2    H2 4372   0.219   2.581   1.964  0.0592  1.7043 -0.6882
  286MPD2    H3 4373   0.347   2.373   1.993  0.3890  2.1064  1.0520
  286MPD2     N 4374   0.443   2.329   1.550  0.4049  0.7652  0.1680
  286MPD2    H5 4375   0.502   2.248   1.564  0.7060  0.9629  0.0324
  286MPD2    N1 4376   0.175   2.690   1.706  0.6151  0.0848  0.0546
  286MPD2    H7 4377   0.178   2.721   1.610  0.2604 -1.1139 -0.3379
  287TMC3    C1 4378   0.498   2.270   1.334  0.1516 -0.4073  0.2730
  287TMC3    C2 4379   0.436   2.243   1.217  0.0336  0.1406  0.1745
  287TMC3    C3 4380   0.488   2.149   1.142  0.7894 -0.2435 -0.2110
  287TMC3    C4 4381   0.607   2.200   1.379 -0.5418  0.3177  0.8775
  287TMC3    C5 4382   0.649   2.099   1.292  0.3981  0.8070 -0.0742
  287TMC3    C6 4383   0.597   2.074   1.169  0.1614 -0.2015 -0.0073
  287TMC3     C 4384   0.432   2.369   1.415  0.5103 -0.2288  0.5808
  287TMC3     O 4385   0.342   2.438   1.363 -0.0981  0.2531 -0.1251
  287TMC3     H 4386   0.335   2.280   1.202  0.2840  0.1325 -1.5797
  287TMC3    H1 4387   0.665   2.221   1.468 -0.2960  3.0117  0.0890
  287TMC3    H2 4388   0.635   2.003   1.097 -0.0510  0.2159 -0.5305
  287TMC3    C7 4389   0.780   2.041   1.316  0.3275  1.0275  0.8485
  287TMC3    C8 4390   0.416   2.115   1.017  0.5058 -0.2357 -0.4469
  287TMC3    O1 4391   0.852   2.096   1.399  0.2819 -0.1232  0.1963
  287TMC3    O2 4392   0.440   2.007   0.963 -0.2570  0.0771 -0.6821
  288TMC3    C1 4393   2.015   2.259  14.811 -0.3130  0.0433  0.2740
  288TMC3    C2 4394   1.953   2.267  14.926 -0.7987  0.2197  0.3210
  288TMC3    C3 4395   1.845   2.178  14.949  0.2928  0.4776  0.3780
  288TMC3    C4 4396   1.971   2.178  14.713  0.3019 -0.6936  0.3836
  288TMC3    C5 4397   1.861   2.095  14.732  0.0776  0.5970 -0.5269
  288TMC3    C6 4398   1.794   2.094  14.850 -0.4439  0.1998 -0.0613
  288TMC3     C 4399   2.127   2.348  14.790  0.8293  0.7203 -0.2036
  288TMC3     O 4400   2.128   2.453  14.849 -0.7447  0.4147  0.0961
  288TMC3     H 4401   1.990   2.333  15.003 -1.3311  0.6438  0.2119
  288TMC3    H1 4402   2.008   2.192  14.612 -0.5384 -0.2444  0.1315
  288TMC3    H2 4403   1.714   2.021  14.861 -0.1012 -0.3672 -1.2613
  288TMC3    C7 4404   1.795   2.042  14.617  0.3562  0.3596 -0.3405
  288TMC3    C8 4405   1.781   2.190  15.080  0.0356  0.4838 -0.1969
  288TMC3    O1 4406   1.669   2.031  14.612 -0.5592 -0.8493  0.2819
  288TMC3    O2 4407   1.835   2.270  15.155  0.3557 -0.0875  0.2100
  289MPD2     C 4408   1.984   1.425  13.900  0.6145 -0.2820  0.8552
  289MPD2    C1 4409   1.930   1.528  13.828 -0.0103 -0.4649 -1.2138
  289MPD2    C2 4410   1.810   1.573  13.872 -0.4163  0.2752  0.1860
  289MPD2    C3 4411   1.732   1.516  13.981  0.7858 -0.9943  0.3396
  289MPD2    C4 4412   1.791   1.412  14.045  0.1724 -0.2170  0.4476
  289MPD2    C5 4413   1.915   1.362  14.001 -0.0882 -0.3816 -0.3839
  289MPD2     H 4414   1.751   1.644  13.816  2.0108  2.5863  0.5555
  289MPD2    H1 4415   1.737   1.363  14.125 -1.6434  1.6366  0.3797
  289MPD2    H2 4416   2.077   1.384  13.864 -0.5926 -1.6711 -0.6345
  289MPD2    H3 4417   1.968   1.273  14.034 -2.2835 -2.0019 -1.1906
  289MPD2     N 4418   1.603   1.554  14.025  0.9353  0.2473  0.5609
  289MPD2    H5 4419   1.566   1.494  14.098  0.5474 -2.0697 -1.5170
  289MPD2    N1 4420   1.997   1.579  13.713  0.2271 -0.8917 -0.4430
  289MPD2    H7 4421   2.080   1.529  13.682 -0.1826 -2.1406  0.4612
  290TMC3    C1 4422   1.404   1.670  14.054  0.2824 -1.0584  0.2853
  290TMC3    C2 4423   1.328   1.783  14.030  0.8478 -0.2443 -0.1238
  290TMC3    C3 4424   1.193   1.782  14.064  0.7689  0.2797 -0.1337
  290TMC3    C4 4425   1.346   1.559  14.109 -0.1383  0.0396  0.1832
  290TMC3    C5 4426   1.211   1.559  14.141  0.0874  0.0238 -0.5265
  290TMC3    C6 4427   1.133   1.669  14.121 -0.3931 -0.1071  0.1132
  290TMC3     C 4428   1.528   1.662  13.984  0.5951 -0.4651 -0.0568
  290TMC3     O 4429   1.541   1.737  13.885  0.2293 -0.1999  0.2284
  290TMC3     H 4430   1.378   1.868  13.986  2.2318 -1.1116 -0.2369
  290TMC3    H1 4431   1.411   1.477  14.137 -0.7485 -1.1107 -1.7834
  290TMC3    H2 4432   1.029   1.679  14.150 -0.8988 -0.1946 -1.6761
  290TMC3    C7 4433   1.187   1.493  14.271  0.6111  0.1036  0.1614
  290TMC3    C8 4434   1.106   1.894  14.045  0.4867 -0.0029  0.0746
  290TMC3    O1 4435   1.117   1.559  14.351  0.3110 -0.1575  0.0171
  290TMC3    O2 4436   0.984   1.880  14.040  0.2590 -0.8743 -0.1141
  291MPD2     C 4437   0.416   1.422   0.391 -0.3212  0.1463  0.1668
  291MPD2    C1 4438   0.530   1.426   0.310 -0.7356  0.8032  0.0856
  291MPD2    C2 4439   0.621   1.522   0.331 -0.0553 -0.0699 -0.3282
  291MPD2    C3 4440   0.596   1.631   0.409 -1.0502  0.1704 -0.3937
  291MPD2    C4 4441   0.469   1.640   0.465 -0.5791 -0.1815 -0.7173
  291MPD2    C5 4442   0.381   1.535   0.459  0.6380 -0.1695 -0.1721
  291MPD2     H 4443   0.703   1.519   0.260  0.0744  0.7963 -0.2167
  291MPD2    H1 4444   0.444   1.727   0.526  0.9917 -0.2786  0.0619
  291MPD2    H2 4445   0.350   1.336   0.394 -0.2689  0.0864 -0.3932
  291MPD2    H3 4446   0.295   1.528   0.524 -0.7626 -3.1726 -2.3474
  291MPD2     N 4447   0.686   1.737   0.428 -0.0123  0.8177 -0.2684
  291MPD2    H5 4448   0.651   1.818   0.479 -1.3770 -0.2035  0.4248
  291MPD2    N1 4449   0.571   1.312   0.240 -0.4020  0.1189 -0.1379
  291MPD2    H7 4450   0.666   1.310   0.205 -0.0480  0.2249  0.8180
  292TMC3    C1 4451   0.580   1.099   0.152  0.2132  0.2653 -0.4252
  292TMC3    C2 4452   0.716   1.113   0.173  0.3339  0.0479 -0.0255
  292TMC3    C3 4453   0.789   0.996   0.149 -0.1787  0.2072  0.2068
  292TMC3    C4 4454   0.517   0.986   0.108 -0.5962 -0.0102  0.7926
  292TMC3    C5 4455   0.595   0.878   0.086  0.0951  1.3860 -0.0020
  292TMC3    C6 4456   0.730   0.889   0.088 -0.2323 -0.0924 -0.8043
  292TMC3     C 4457   0.492   1.210   0.196  0.1086  0.6487 -0.2177
  292TMC3     O 4458   0.370   1.194   0.190  0.1830  0.3372  0.8139
  292TMC3     H 4459   0.778   1.195   0.206  2.4427 -2.2253  1.6732
  292TMC3    H1 4460   0.409   0.983   0.114 -0.5942 -0.4866  0.5831
  292TMC3    H2 4461   0.781   0.798   0.055  0.0840 -0.1736 -0.0907
  292TMC3    C7 4462   0.520   0.760   0.058  0.4722  0.8220 -0.4786
  292TMC3    C8 4463   0.926   0.986   0.195 -0.1990  0.1472 -0.1343
  292TMC3    O1 4464   0.404   0.764   0.094 -0.0611 -0.1772  0.7960
  292TMC3    O2 4465   0.998   0.907   0.134  0.0725  0.3626  0.1627
  293MPD2     C 4466   2.980   2.107  12.883  0.4631  0.1292  0.0079
  293MPD2    C1 4467   3.008   2.232  12.848 -0.1688  0.2810 -0.1374
  293MPD2    C2 4468   3.089   2.305  12.934  0.3023  0.1889  0.6129
  293MPD2    C3 4469   3.150   2.248  13.043  0.5978  0.6520 -0.5136
  293MPD2    C4 4470   3.123   2.115  13.070 -0.2639  0.2252 -0.1402
  293MPD2    C5 4471   3.042   2.047  12.986 -0.0710  1.1182  0.6450
  293MPD2     H 4472   3.097   2.411  12.916  0.9173  0.1622  0.7172
  293MPD2    H1 4473   3.185   2.063  13.142 -1.3289 -1.5160 -0.4604
  293MPD2    H2 4474   2.910   2.050  12.824  0.5721  0.6047 -0.5763
  293MPD2    H3 4475   3.015   1.943  12.997 -1.9204  1.5898  0.5058
  293MPD2     N 4476   3.215   2.341  13.134 -0.2543  0.1287  0.4166
  293MPD2    H5 4477   3.231   2.432  13.091 -2.1275 -0.6098 -1.8343
  293MPD2    N1 4478   2.950   2.289  12.733 -0.1202  0.5071 -0.0282
  293MPD2    H7 4479   2.887   2.238  12.673  1.1103  0.5858 -1.3734
  294TMC3    C1 4480   2.897   2.465  12.581  0.1477 -1.1100  0.6537
  294TMC3    C2 4481   2.777   2.397  12.573  0.0157  0.0151 -0.4143
  294TMC3    C3 4482   2.688   2.456  12.484 -0.4306 -0.3650  0.2511
  294TMC3    C4 4483   2.929   2.583  12.526 -0.3279 -0.4099 -0.3237
  294TMC3    C5 4484   2.832   2.639  12.454  0.0374  0.1556 -0.3966
  294TMC3    C6 4485   2.712   2.580  12.435  0.5661 -0.5124 -0.3068
  294TMC3     C 4486   2.981   2.421  12.692  0.1155 -1.0032 -0.1085
  294TMC3     O 4487   3.074   2.495  12.717  0.4010 -0.1183 -0.0895
  294TMC3     H 4488   2.742   2.325  12.645  0.3572 -0.5227 -0.7802
  294TMC3    H1 4489   3.022   2.638  12.536 -1.7397  1.6587  1.4745
  294TMC3    H2 4490   2.650   2.610  12.351  0.1866 -2.1510 -0.6140
  294TMC3    C7 4491   2.830   2.778  12.424  0.3481  0.4864  0.5504
  294TMC3    C8 4492   2.553   2.425  12.517  0.1798 -0.5330  0.8464
  294TMC3    O1 4493   2.730   2.839  12.451  0.0520  0.2327  0.1413
  294TMC3    O2 4494   2.490   2.519  12.564  0.1644 -0.2151 -0.2721
  295MPD2     C 4495   4.317   2.316   1.095 -0.1971 -0.3571  0.0227
  295MPD2    C1 4496   4.248   2.212   1.032  0.6430  0.5201  0.5665
  295MPD2    C2 4497   4.227   2.094   1.100 -0.0419  0.2440  0.2046
  295MPD2    C3 4498   4.276   2.078   1.233 -0.2824  0.0599  0.3844
  295MPD2    C4 4499   4.343   2.183   1.289  0.3582 -0.1888  0.3106
  295MPD2    C5 4500   4.364   2.299   1.222 -0.4168 -0.1979 -0.3230
  295MPD2     H 4501   4.167   2.021   1.048 -0.0502  0.8194 -0.5933
  295MPD2    H1 4502   4.368   2.177   1.395  0.6139 -1.9532  0.1638
  295MPD2    H2 4503   4.338   2.411   1.046 -0.2997  0.4950  1.6340
  295MPD2    H3 4504   4.405   2.379   1.282 -1.6394 -0.3964  0.7629
  295MPD2     N 4505   4.249   1.962   1.314  0.5360 -0.4292 -0.0066
  295MPD2    H5 4506   4.284   1.957   1.410 -2.3969 -1.6895  1.0077
  295MPD2    N1 4507   4.187   2.224   0.902 -0.2533 -0.0342  0.1208
  295MPD2    H7 4508   4.146   2.142   0.857 -1.3438  0.5229  0.0955
  296TMC3    C1 4509   4.158   1.746   1.356  0.4627 -0.4805  0.2912
  296TMC3    C2 4510   4.146   1.772   1.492 -0.0280  0.2229  0.3842
  296TMC3    C3 4511   4.114   1.674   1.578  0.3564 -0.1399 -0.1055
  296TMC3    C4 4512   4.145   1.620   1.304  0.7956  0.0307  0.1670
  296TMC3    C5 4513   4.121   1.529   1.397  0.0882  0.2141 -0.6507
  296TMC3    C6 4514   4.102   1.555   1.528 -0.3559 -0.1115  0.2153
  296TMC3     C 4515   4.191   1.849   1.257 -0.5190 -0.1351  0.2828
  296TMC3     O 4516   4.173   1.821   1.141  0.2430  0.1029  0.2134
  296TMC3     H 4517   4.164   1.868   1.539 -0.2968 -0.4175  1.8007
  296TMC3    H1 4518   4.150   1.594   1.199  0.3544  3.0659 -0.6041
  296TMC3    H2 4519   4.069   1.484   1.603  1.7561 -2.3719 -0.9817
  296TMC3    C7 4520   4.072   1.397   1.352  0.2471  0.3211 -0.0783
  296TMC3    C8 4521   4.125   1.692   1.721 -0.1884 -0.4817  0.0407
  296TMC3    O1 4522   3.986   1.344   1.423  0.4774 -0.1706  1.0687
  296TMC3    O2 4523   4.152   1.598   1.794  0.0699 -0.5254 -0.1702
  297MPD2     C 4524   0.564   3.295  16.274  0.2341 -0.1284  0.1266
  297MPD2    C1 4525   0.561   3.395  16.187  0.5457 -0.0749  0.5977
  297MPD2    C2 4526   0.670   3.464  16.156 -0.1536 -0.2212 -0.5475
  297MPD2    C3 4527   0.795   3.421  16.195 -0.1374 -0.5275 -1.0318
  297MPD2    C4 4528   0.797   3.307  16.272 -0.0547 -0.4579  0.4251
  297MPD2    C5 4529   0.685   3.246  16.315 -0.7144 -0.4037 -0.1903
  297MPD2     H 4530   0.665   3.555  16.096  2.8896  0.3722  0.1145
  297MPD2    H1 4531   0.893   3.264  16.300  1.2975  2.1196 -0.2738
  297MPD2    H2 4532   0.475   3.245  16.309  0.9953 -1.9439 -0.5290
  297MPD2    H3 4533   0.694   3.162  16.383 -1.5057 -0.2787  0.0556
  297MPD2     N 4534   0.910   3.495  16.154 -0.8724 -0.0609  0.0569
  297MPD2    H5 4535   0.904   3.590  16.120  2.7948  0.6847  1.4395
  297MPD2    N1 4536   0.441   3.457  16.157 -0.0813 -0.0836  0.6068
  297MPD2    H7 4537   0.445   3.551  16.117 -0.6739 -1.0584 -1.7853
  298TMC3    C1 4538   0.211   3.519  16.170 -0.3555 -0.3947  0.5268
  298TMC3    C2 4539   0.231   3.629  16.083  0.1510  0.2239  0.1815
  298TMC3    C3 4540   0.132   3.724  16.081 -0.8616  0.0946 -0.7523
  298TMC3    C4 4541   0.102   3.504  16.252 -0.8212  0.3215  0.5354
  298TMC3    C5 4542   0.013   3.612  16.261 -0.0995  0.2661 -0.9862
  298TMC3    C6 4543   0.028   3.719  16.172 -0.4572 -0.6711  1.1429
  298TMC3     C 4544   0.314   3.411  16.191 -0.0093  0.1929  0.0640
  298TMC3     O 4545   0.261   3.306  16.227 -0.6238  0.1332 -0.3983
  298TMC3     H 4546   0.308   3.634  16.007 -1.0770 -1.4919 -1.1959
  298TMC3    H1 4547   0.078   3.415  16.309  3.1208 -1.0677  0.0532
  298TMC3    H2 4548   4.702   3.805  16.188  0.2772 -0.1093  1.0199
  298TMC3    C7 4549   4.669   3.632  16.381  0.8736  0.0067  0.2810
  298TMC3    C8 4550   0.170   3.854  16.030  0.3351  0.7553 -1.3024
  298TMC3    O1 4551   4.601   3.734  16.386 -0.3169 -0.3277  0.1128
  298TMC3    O2 4552   0.287   3.862  15.995 -0.1493 -0.0845  0.0746
  299MPD2     C 4553   1.319   2.861  10.872  0.7721  0.1515 -0.5499
  299MPD2    C1 4554   1.311   2.985  10.816  0.4097 -0.7167  0.0707
  299MPD2    C2 4555   1.195   3.021  10.753  0.0444  0.1543  0.6285
  299MPD2    C3 4556   1.088   2.941  10.745 -0.5366  0.4177 -0.3372
  299MPD2    C4 4557   1.095   2.822  10.810 -0.0937  0.9616  0.4301
  299MPD2    C5 4558   1.206   2.786  10.878  0.6284 -0.7228  0.6206
  299MPD2     H 4559   1.186   3.124  10.719 -2.4810 -0.1962  0.1977
  299MPD2    H1 4560   1.011   2.753  10.802 -0.6346  1.8787 -1.8071
  299MPD2    H2 4561   1.403   2.840  10.936  1.5474  2.9322 -0.6455
  299MPD2    H3 4562   1.213   2.690  10.928  0.1775 -0.1648  1.7560
  299MPD2     N 4563   0.978   2.959  10.660  0.0761  0.5287  0.0005
  299MPD2    H5 4564   0.906   2.887  10.661  1.2801 -0.6502  2.5733
  299MPD2    N1 4565   1.420   3.074  10.844  0.0758  0.3522 -0.3120
  299MPD2    H7 4566   1.496   3.028  10.893  1.9247  0.5025 -3.0608
  300TMC3    C1 4567   0.858   3.032  10.473 -0.6775  0.4027  0.0110
  300TMC3    C2 4568   0.852   3.121  10.369  0.2854  0.0051 -0.9164
  300TMC3    C3 4569   0.758   3.106  10.273 -0.0212 -0.1322 -0.1087
  300TMC3    C4 4570   0.769   2.922  10.486 -0.1653 -0.9201 -0.8737
  300TMC3    C5 4571   0.680   2.906  10.383  1.0830  0.1207 -0.4011
  300TMC3    C6 4572   0.671   2.996  10.281  1.0288 -0.4903 -0.5138
  300TMC3     C 4573   0.964   3.064  10.574 -0.2428  0.1522  0.8428
  300TMC3     O 4574   1.036   3.164  10.557 -0.2727  0.5219 -0.3151
  300TMC3     H 4575   0.917   3.207  10.365 -0.3885  0.5462 -0.3381
  300TMC3    H1 4576   0.777   2.852  10.569  0.4609  0.8538  0.5606
  300TMC3    H2 4577   0.588   2.991  10.211  1.8927 -1.0987 -1.4896
  300TMC3    C7 4578   0.557   2.849  10.422  0.7823 -0.0047  0.0647
  300TMC3    C8 4579   0.684   3.222  10.228 -0.1061  0.1199  0.3978
  300TMC3    O1 4580   0.497   2.792  10.331 -0.5741 -0.3718 -0.5487
  300TMC3    O2 4581   0.619   3.205  10.125  0.3189 -0.0787 -0.1618
  301MPD2     C 4582   3.835   4.515   0.917  0.3049 -0.4876  0.0223
  301MPD2    C1 4583   3.699   4.528   0.907 -0.8201 -0.6565 -0.0859
  301MPD2    C2 4584   3.625   4.410   0.934  0.5461 -0.0304  0.6249
  301MPD2    C3 4585   3.681   4.286   0.946  0.0702 -0.1889  0.0724
  301MPD2    C4 4586   3.817   4.286   0.968  0.0408 -0.4304  0.2609
  301MPD2    C5 4587   3.891   4.398   0.954  0.3612 -0.0404  0.4578
  301MPD2     H 4588   3.518   4.421   0.920  0.3687  0.1927  2.1927
  301MPD2    H1 4589   3.868   4.194   0.997  0.0501 -0.3694  0.4373
  301MPD2    H2 4590   3.902   4.596   0.892  0.4391 -0.8999 -0.9702
  301MPD2    H3 4591   3.998   4.388   0.973  0.9336  1.8040 -1.8581
  301MPD2     N 4592   3.607   4.166   0.935  0.0057  0.3407  0.1158
  301MPD2    H5 4593   3.648   4.076   0.958 -1.9411 -1.1877 -2.2779
  301MPD2    N1 4594   3.626   4.637   0.866  0.7630 -0.0091  0.7926
  301MPD2    H7 4595   3.527   4.620   0.847  0.7413  1.5064 -0.5279
  302TMC3    C1 4596   3.433   4.016   0.878  0.0265 -0.1961 -0.5335
  302TMC3    C2 4597   3.461   3.930   0.978 -0.1549 -0.1243  0.0049
  302TMC3    C3 4598   3.421   3.808   0.967  0.3203  0.4458 -0.0730
  302TMC3    C4 4599   3.352   3.988   0.773 -0.2853  0.6707  0.4689
  302TMC3    C5 4600   3.303   3.859   0.776  0.7563 -0.6982  0.1522
  302TMC3    C6 4601   3.338   3.765   0.867  0.0080  0.3464 -0.4312
  302TMC3     C 4602   3.478   4.156   0.891  0.5862  0.3755 -0.3799
  302TMC3     O 4603   3.401   4.243   0.842  1.0733  0.2449  0.7566
  302TMC3     H 4604   3.508   3.964   1.069 -1.5920  1.6462  0.1059
  302TMC3    H1 4605   3.321   4.071   0.710 -0.3633 -0.5421 -1.0802
  302TMC3    H2 4606   3.308   3.662   0.852  1.0665  0.0072 -0.2641
  302TMC3    C7 4607   3.205   3.818   0.668  0.8407 -0.2665  0.2384
  302TMC3    C8 4608   3.470   3.716   1.068 -0.3409 -0.1763 -0.4075
  302TMC3    O1 4609   3.177   3.698   0.651 -0.0931  0.5030 -0.3947
  302TMC3    O2 4610   3.585   3.745   1.110 -0.0201  0.4966 -0.1411
  303MPD2     C 4611   4.171   2.694  10.763 -0.3288  0.3914 -0.2686
  303MPD2    C1 4612   4.109   2.807  10.710 -0.9785  0.7936  0.1452
  303MPD2    C2 4613   4.039   2.796  10.598  0.0010  0.0310  0.4545
  303MPD2    C3 4614   4.037   2.676  10.529 -0.2450 -0.4224 -0.2566
  303MPD2    C4 4615   4.092   2.563  10.585 -0.7469  0.5106  0.2475
  303MPD2    C5 4616   4.163   2.568  10.705  0.1574 -0.3467  0.6608
  303MPD2     H 4617   3.978   2.875  10.555  0.2584 -0.6734 -1.2031
  303MPD2    H1 4618   4.095   2.473  10.526  0.8310 -0.6005  2.0060
  303MPD2    H2 4619   4.228   2.701  10.855  0.0780  0.1844 -0.5077
  303MPD2    H3 4620   4.201   2.479  10.754  0.5220 -2.4488 -3.4103
  303MPD2     N 4621   3.969   2.652  10.408  0.4103 -0.1686 -0.6113
  303MPD2    H5 4622   3.940   2.557  10.385  1.1160 -0.6652  0.5792
  303MPD2    N1 4623   4.109   2.926  10.783  0.6576 -0.2480  0.2786
  303MPD2    H7 4624   4.151   2.918  10.875  0.0085 -3.6306  0.2695
  304TMC3    C1 4625   4.039   3.142  10.859  0.3024  0.1152  0.1344
  304TMC3    C2 4626   3.921   3.211  10.842 -0.0439 -0.2855  0.0349
  304TMC3    C3 4627   3.852   3.247  10.954  0.0924 -0.7369  0.9487
  304TMC3    C4 4628   4.066   3.088  10.986  0.2191 -0.4433 -0.0380
  304TMC3    C5 4629   3.983   3.114  11.090 -0.7299  0.6415  0.4755
  304TMC3    C6 4630   3.888   3.205  11.082 -0.1432  0.6760  0.0231
  304TMC3     C 4631   4.055   3.050  10.751 -0.0085 -0.6449  0.4512
  304TMC3     O 4632   4.010   3.087  10.646 -0.5147  0.5080 -0.7601
  304TMC3     H 4633   3.907   3.261  10.746  1.2376 -0.6127 -0.3254
  304TMC3    H1 4634   4.148   3.019  11.000  0.6134 -0.2664 -1.5019
  304TMC3    H2 4635   3.837   3.246  11.169  5.5333  2.0218  2.6986
  304TMC3    C7 4636   3.951   3.007  11.186 -0.4702  0.6150 -0.4392
  304TMC3    C8 4637   3.713   3.234  10.940  0.9479 -0.4982  0.1575
  304TMC3    O1 4638   4.046   2.930  11.195  0.0205 -1.0454  0.0530
  304TMC3    O2 4639   3.664   3.177  11.038 -0.0097  0.1994  0.3523
  305MPD2     C 4640   1.697   4.537  13.933 -0.4433  0.0973 -0.5738
  305MPD2    C1 4641   1.756   4.412  13.976  0.3266  0.3126 -0.2675
  305MPD2    C2 4642   1.740   4.301  13.894 -0.2360  0.1055 -0.7070
  305MPD2    C3 4643   1.677   4.308  13.766 -0.1880 -0.4717 -0.4702
  305MPD2    C4 4644   1.626   4.430  13.733  0.2687 -0.0442  0.0315
  305MPD2    C5 4645   1.635   4.548  13.810  0.4169 -0.3745  0.5468
  305MPD2     H 4646   1.786   4.208  13.923 -2.4509 -0.1828  1.8291
  305MPD2    H1 4647   1.578   4.441  13.636 -0.1867 -0.0336  0.2584
  305MPD2    H2 4648   1.704   4.621  14.002 -2.3193 -0.1517 -0.0794
  305MPD2    H3 4649   1.593   4.642  13.777 -2.4322 -1.5506  0.8337
  305MPD2     N 4650   1.678   4.211  13.660  0.0364 -0.4359 -0.4480
  305MPD2    H5 4651   1.631   4.242  13.576  0.2018  1.0893  0.0177
  305MPD2    N1 4652   1.828   4.407  14.099  0.2441  0.3382 -0.6482
  305MPD2    H7 4653   1.834   4.495  14.149  1.4493  0.0214 -0.2376
  306TMC3    C1 4654   1.972   4.353  14.283  0.5869 -0.2526 -0.1508
  306TMC3    C2 4655   2.090   4.298  14.314  0.6063  0.4511 -0.9957
  306TMC3    C3 4656   2.151   4.330  14.432  0.2950 -0.1926 -0.7388
  306TMC3    C4 4657   1.897   4.418  14.370  0.3578  0.1693 -0.2590
  306TMC3    C5 4658   1.970   4.469  14.481 -0.8858  0.4820  0.4834
  306TMC3    C6 4659   2.098   4.428  14.509 -0.3227  0.5253  0.0425
  306TMC3     C 4660   1.914   4.312  14.155  0.2288 -0.2778  0.1559
  306TMC3     O 4661   1.962   4.206  14.111 -0.0197  0.2104 -0.0846
  306TMC3     H 4662   2.151   4.234  14.251  0.1240 -0.9544 -0.0496
  306TMC3    H1 4663   1.793   4.435  14.345  0.5263  0.2597 -0.8845
  306TMC3    H2 4664   2.148   4.456  14.601  0.8220  0.2739 -0.5065
  306TMC3    C7 4665   1.904   4.576  14.551  0.2126  0.5855  0.5619
  306TMC3    C8 4666   2.262   4.246  14.482 -0.3448 -0.3141  0.8755
  306TMC3    O1 4667   1.841   4.656  14.484 -0.8067 -0.5727  0.4922
  306TMC3    O2 4668   2.303   4.159  14.408  0.4937  0.6227  0.1824
  307MPD2     C 4669   4.283   3.083   0.493  0.6748  0.0055 -0.3403
  307MPD2    C1 4670   4.210   3.194   0.456 -0.5917 -0.3163 -0.7428
  307MPD2    C2 4671   4.119   3.245   0.548  0.5163 -0.4053  0.0911
  307MPD2    C3 4672   4.107   3.184   0.671 -0.1374 -0.1449  0.6901
  307MPD2    C4 4673   4.184   3.077   0.709  0.3128 -0.8224  0.2191
  307MPD2    C5 4674   4.277   3.026   0.618 -0.0514 -0.0763 -0.3048
  307MPD2     H 4675   4.046   3.322   0.526 -0.1652 -0.3347  2.6757
  307MPD2    H1 4676   4.186   3.032   0.808 -1.5317  1.6533  1.3492
  307MPD2    H2 4677   4.330   3.020   0.418 -1.8844 -1.7043 -0.5265
  307MPD2    H3 4678   4.332   2.939   0.651 -0.4380 -1.1980 -2.6455
  307MPD2     N 4679   4.023   3.240   0.764  0.2467  0.2223 -0.3235
  307MPD2    H5 4680   3.974   3.325   0.734 -1.2742 -0.3608  0.5222
  307MPD2    N1 4681   4.229   3.263   0.326  0.1785 -0.5203 -0.3482
  307MPD2    H7 4682   4.176   3.349   0.314  0.4635 -0.6802 -2.8301
  308TMC3    C1 4683   3.644   3.285   0.901 -0.6415  0.2667  0.2243
  308TMC3    C2 4684   3.655   3.416   0.890 -0.0228  0.2483 -0.5099
  308TMC3    C3 4685   3.778   3.469   0.905  0.2631  0.1968 -0.4303
  308TMC3    C4 4686   3.750   3.203   0.925 -0.3929 -0.3826  0.6731
  308TMC3    C5 4687   3.873   3.258   0.943 -0.3680  0.8820 -0.4721
  308TMC3    C6 4688   3.886   3.392   0.925 -0.3380 -1.0903 -0.9398
  308TMC3     C 4689   3.516   3.218   0.863  0.7394 -0.5917  0.5712
  308TMC3     O 4690   3.503   3.106   0.901  0.0842  0.0460  0.1798
  308TMC3     H 4691   3.565   3.476   0.885 -0.0427  0.1143 -1.6404
  308TMC3    H1 4692   3.739   3.095   0.932 -1.0384 -0.3893 -0.3738
  308TMC3    H2 4693   3.988   3.429   0.931 -0.3801 -1.1649  0.1475
  308TMC3    C7 4694   3.982   3.175   0.883  0.2091  0.3103  0.1166
  308TMC3    C8 4695   3.807   3.607   0.885 -0.3961 -0.0449 -0.5577
  308TMC3    O1 4696   3.995   3.064   0.930 -0.3211 -0.6288 -0.5206
  308TMC3    O2 4697   3.912   3.648   0.936  1.1724 -0.6130  0.5304
  309MPD2     C 4698   3.184   3.264  17.286 -0.0677 -0.5981 -0.2158
  309MPD2    C1 4699   3.121   3.256  17.163  0.1490 -0.4050  0.3409
  309MPD2    C2 4700   2.987   3.288  17.160  0.3200 -0.0764 -0.3561
  309MPD2    C3 4701   2.916   3.331  17.279  0.2211  0.5793 -0.0998
  309MPD2    C4 4702   2.984   3.339  17.398 -0.0878  0.5687 -0.4769
  309MPD2    C5 4703   3.114   3.302  17.396 -0.1243  0.1122 -0.7878
  309MPD2     H 4704   2.943   3.291  17.061 -1.3301  0.9761  0.3950
  309MPD2    H1 4705   2.940   3.366  17.493  2.3490  0.4533  0.7004
  309MPD2    H2 4706   3.290   3.262  17.306 -0.4177 -1.4780  1.5812
  309MPD2    H3 4707   3.160   3.302  17.494  1.0198 -1.8175 -1.3205
  309MPD2     N 4708   2.783   3.382  17.274 -0.3305  0.2529 -0.0809
  309MPD2    H5 4709   2.733   3.396  17.361 -0.4791  0.6926 -0.2369
  309MPD2    N1 4710   3.184   3.225  17.042  0.6807 -0.0690 -0.4085
  309MPD2    H7 4711   3.123   3.250  16.965  1.3198  2.2924 -0.1528
  310TMC3    C1 4712   3.359   3.194  16.894  0.7539  0.4219 -0.7473
  310TMC3    C2 4713   3.299   3.278  16.806  0.6473  0.5401  0.1007
  310TMC3    C3 4714   3.355   3.278  16.679  0.5924 -0.0236  0.0527
  310TMC3    C4 4715   3.473   3.122  16.867  0.2439 -0.7369 -0.4456
  310TMC3    C5 4716   3.520   3.122  16.744  0.1793 -0.4656 -0.2428
  310TMC3    C6 4717   3.469   3.205  16.650  0.2722  0.9285 -0.0412
  310TMC3     C 4718   3.308   3.181  17.035 -0.6143 -0.6044 -0.2181
  310TMC3     O 4719   3.379   3.132  17.118 -0.2212  0.0053 -0.5896
  310TMC3     H 4720   3.221   3.351  16.826  2.4987  2.0576  1.7322
  310TMC3    H1 4721   3.509   3.052  16.941  0.6311 -1.3077 -1.1746
  310TMC3    H2 4722   3.515   3.210  16.552  0.4420 -1.3582 -0.0775
  310TMC3    C7 4723   3.631   3.042  16.700  0.0624  0.3179  0.3198
  310TMC3    C8 4724   3.309   3.347  16.565 -0.2913 -0.1156  0.3138
  310TMC3    O1 4725   3.647   2.935  16.760  0.3459 -0.1224  0.7528
  310TMC3    O2 4726   3.378   3.334  16.461 -0.2422 -0.7336 -0.0528
  311MPD2     C 4727   0.954   4.628  12.304  0.4612  0.5009  0.1698
  311MPD2    C1 4728   1.028   4.605  12.421  0.0056 -0.2091  0.3603
  311MPD2    C2 4729   0.967   4.531  12.518 -0.1625 -0.1343  0.8591
  311MPD2    C3 4730   0.843   4.471  12.497  0.1868  0.3290 -0.7862
  311MPD2    C4 4731   0.773   4.503  12.383 -0.0084 -0.3390  0.1519
  311MPD2    C5 4732   0.836   4.570  12.287  0.3659  0.0006 -0.2350
  311MPD2     H 4733   1.011   4.506  12.614  1.7633  0.4785  0.1487
  311MPD2    H1 4734   0.669   4.478  12.369  0.4662 -1.9852 -0.4799
  311MPD2    H2 4735   0.998   4.699  12.235 -1.2269  1.6223  0.2531
  311MPD2    H3 4736   0.782   4.589  12.195  0.5893  0.1894 -0.3284
  311MPD2     N 4737   0.790   4.402  12.605 -0.1674  0.5127 -0.0378
  311MPD2    H5 4738   0.855   4.399  12.682 -1.5949  0.9538  1.1752
  311MPD2    N1 4739   1.151   4.671  12.447 -0.2302  0.4108  0.4415
  311MPD2    H7 4740   1.194   4.657  12.538 -0.5155 -0.8588  0.3796
  312TMC3    C1 4741   0.620   4.306  12.735  0.0378  0.6321  0.2212
  312TMC3    C2 4742   0.483   4.269  12.749  0.1994 -0.0761 -0.1278
  312TMC3    C3 4743   0.454   4.195  12.860 -0.8403  0.2798  0.6829
  312TMC3    C4 4744   0.709   4.293  12.839 -1.0338  0.3941 -0.3903
  312TMC3    C5 4745   0.657   4.232  12.953 -0.0871 -0.0740 -0.4541
  312TMC3    C6 4746   0.535   4.166  12.967 -0.4797  0.0867 -0.3528
  312TMC3     C 4747   0.669   4.335  12.602 -0.2033 -0.1128 -0.2672
  312TMC3     O 4748   0.598   4.320  12.505  0.3157 -0.7066 -0.0684
  312TMC3     H 4749   0.427   4.260  12.656 -1.4356 -0.0464  0.8669
  312TMC3    H1 4750   0.813   4.323  12.841 -1.0106  0.1248  2.0269
  312TMC3    H2 4751   0.490   4.116  13.052 -0.3580  0.4718 -0.0635
  312TMC3    C7 4752   0.766   4.195  13.037 -0.1754  0.2480 -0.2043
  312TMC3    C8 4753   0.319   4.145  12.864  0.4779  0.8389 -0.0259
  312TMC3    O1 4754   0.841   4.107  12.998  0.2654  0.2856 -0.2329
  312TMC3    O2 4755   0.300   4.033  12.917 -0.1385 -0.1660  0.0538
  313MPD2     C 4756   4.648   3.583  11.376 -0.7834 -0.6829  0.1759
  313MPD2    C1 4757   4.714   3.680  11.305 -0.1621  0.2380  0.3604
  313MPD2    C2 4758   0.051   3.637  11.198  0.0199 -0.4172 -1.6534
  313MPD2    C3 4759   0.039   3.512  11.144  0.2166 -0.0390  0.0709
  313MPD2    C4 4760   4.698   3.419  11.200  0.3671 -0.3818  0.5494
  313MPD2    C5 4761   4.637   3.454  11.322 -0.1004 -0.4247 -0.1573
  313MPD2     H 4762   0.112   3.705  11.141  1.1159 -1.2584 -1.4830
  313MPD2    H1 4763   4.686   3.317  11.167 -0.9140  0.4687 -1.6105
  313MPD2    H2 4764   4.580   3.605  11.457 -0.7777  2.1517 -0.6014
  313MPD2    H3 4765   4.578   3.386  11.382 -0.8836 -1.2878 -1.9197
  313MPD2     N 4766   0.105   3.488  11.017 -0.1405 -0.2493 -0.4737
  313MPD2    H5 4767   0.143   3.568  10.967 -0.2100  1.0674  1.5754
  313MPD2    N1 4768   4.710   3.814  11.335  0.1662 -0.3982 -0.0445
  313MPD2    H7 4769   0.024   3.870  11.268 -0.6911 -0.7337 -0.9896
  314TMC3    C1 4770   4.611   4.016  11.366 -0.6784  0.3425  0.2424
  314TMC3    C2 4771   4.736   4.068  11.354 -0.7185 -0.0254 -0.0698
  314TMC3    C3 4772   0.018   4.179  11.280  0.0816 -0.5826  0.0438
  314TMC3    C4 4773   4.514   4.038  11.273  0.1855  0.5247  0.1280
  314TMC3    C5 4774   4.544   4.137  11.174  0.4041 -0.0936 -0.2479
  314TMC3    C6 4775   4.657   4.218  11.191 -0.1148 -0.2539 -0.5291
  314TMC3     C 4776   4.617   3.885  11.416 -0.4797  0.0283 -0.5220
  314TMC3     O 4777   4.510   3.844  11.464  0.5049 -0.1542 -0.2330
  314TMC3     H 4778   0.068   4.023  11.424 -1.1001  0.5526  0.6824
  314TMC3    H1 4779   4.426   3.975  11.262 -0.4540  1.2022  1.4706
  314TMC3    H2 4780   4.674   4.301  11.123  3.1642  0.1046  0.7574
  314TMC3    C7 4781   4.462   4.127  11.053 -0.1567  0.1416 -0.0260
  314TMC3    C8 4782   0.156   4.224  11.256  0.0146  0.4607 -0.3427
  314TMC3    O1 4783   4.363   4.054  11.057 -0.2717 -0.2895  0.0545
  314TMC3    O2 4784   0.175   4.259  11.138  0.2198 -0.2268 -0.3296
  315MPD2     C 4785   4.613   3.415   0.297  0.2113  0.5814  0.1937
  315MPD2    C1 4786   0.001   3.456   0.279  0.3775  0.1633 -0.0948
  315MPD2    C2 4787   0.017   3.593   0.273  0.2597 -0.4586 -0.6446
  315MPD2    C3 4788   4.650   3.681   0.281  0.3579 -0.3051 -0.6646
  315MPD2    C4 4789   4.525   3.631   0.298  0.1581 -0.2851 -0.0211
  315MPD2    C5 4790   4.506   3.501   0.308  0.0779  0.4170 -1.1700
  315MPD2     H 4791   0.117   3.636   0.273  0.6054 -1.2616  0.9546
  315MPD2    H1 4792   4.442   3.698   0.318 -0.9583 -1.1442 -1.7587
  315MPD2    H2 4793   4.581   3.313   0.313  0.4367  0.1575 -2.0261
  315MPD2    H3 4794   4.406   3.461   0.319 -0.0714  0.8336 -1.0342
  315MPD2     N 4795   4.668   3.823   0.283  0.3479 -0.1438  0.2087
  315MPD2    H5 4796   0.027   3.855   0.295  0.0670  1.3170 -1.4326
  315MPD2    N1 4797   0.112   3.368   0.288 -0.2709 -0.1483  0.2288
  315MPD2    H7 4798   0.199   3.409   0.320 -0.8587  0.9642  0.3708
  316TMC3    C1 4799   4.635   4.047   0.261 -0.7224 -0.0991  0.4234
  316TMC3    C2 4800   0.011   4.074   0.331 -0.0732  0.1558 -0.8088
  316TMC3    C3 4801   0.067   4.199   0.317  0.2365  0.0199 -0.2996
  316TMC3    C4 4802   4.567   4.146   0.189  0.7382 -0.3821 -0.0016
  316TMC3    C5 4803   4.630   4.269   0.173  0.4300 -0.6351 -0.3220
  316TMC3    C6 4804   0.013   4.298   0.235 -0.7061  0.4576  0.2420
  316TMC3     C 4805   4.575   3.916   0.262  0.4552 -0.1442  0.8648
  316TMC3     O 4806   4.471   3.903   0.199 -0.1662  0.4112  0.1606
  316TMC3     H 4807   0.047   4.002   0.404 -1.7487 -0.5031 -0.6383
  316TMC3    H1 4808   4.477   4.124   0.133 -0.0963  0.6552  0.9377
  316TMC3    H2 4809   0.071   4.382   0.197 -1.0546 -0.0670 -1.4474
  316TMC3    C7 4810   4.585   4.358   0.070  0.2322  0.0931 -0.7399
  316TMC3    C8 4811   0.186   4.234   0.389 -0.1191 -0.4149 -0.6819
  316TMC3    O1 4812   4.622   4.474   0.087 -0.0834  0.0778  0.6479
  316TMC3    O2 4813   0.197   4.355   0.401 -0.1194  0.3751 -0.4666
  317MPD2     C 4814   1.788   1.217  13.106  0.2931  0.0540 -0.3273
  317MPD2    C1 4815   1.906   1.159  13.061 -0.3087  0.0662  0.3497
  317MPD2    C2 4816   1.991   1.092  13.148 -0.7018  0.3022 -0.3015
  317MPD2    C3 4817   1.957   1.070  13.279 -1.0478  0.3331  0.1373
  317MPD2    C4 4818   1.834   1.125  13.319  0.7307 -0.4752  0.1942
  317MPD2    C5 4819   1.755   1.199  13.232 -0.4883 -1.3054 -0.3384
  317MPD2     H 4820   2.083   1.052  13.109 -0.9556 -0.1883 -0.3946
  317MPD2    H1 4821   1.792   1.111  13.418  0.1292  0.2775  0.0446
  317MPD2    H2 4822   1.707   1.251  13.043  1.4265 -0.2802 -1.9593
  317MPD2    H3 4823   1.655   1.230  13.261 -0.1130 -0.1954 -0.2428
  317MPD2     N 4824   2.045   1.002  13.368  0.0843  0.0697  0.0824
  317MPD2    H5 4825   2.140   0.992  13.333  0.1103 -0.1682  0.2193
  317MPD2    N1 4826   1.956   1.172  12.932 -0.2552 -0.0383  0.2804
  317MPD2    H7 4827   2.026   1.110  12.892 -1.1194  0.1982 -1.6127
  318TMC3    C1 4828   2.131   0.907  13.568  0.1481 -0.4710  0.5763
  318TMC3    C2 4829   2.113   0.779  13.606  0.3994 -0.6773 -0.1385
  318TMC3    C3 4830   2.194   0.681  13.574  1.4530 -0.1205 -0.7294
  318TMC3    C4 4831   2.243   0.942  13.501 -0.0391 -0.4318 -0.0612
  318TMC3    C5 4832   2.335   0.843  13.476 -0.3866 -0.7643  0.6478
  318TMC3    C6 4833   2.318   0.711  13.517  1.2290 -0.2436 -0.1611
  318TMC3     C 4834   2.013   0.953  13.491 -0.2725 -0.3130 -0.7955
  318TMC3     O 4835   1.906   0.912  13.536  0.0935  0.4153 -0.6507
  318TMC3     H 4836   2.026   0.750  13.664 -0.7264 -0.6834 -1.8250
  318TMC3    H1 4837   2.271   1.046  13.490 -1.5383 -0.0631 -0.3101
  318TMC3    H2 4838   2.392   0.638  13.485 -0.0140 -2.3797  1.8466
  318TMC3    C7 4839   2.454   0.885  13.411  0.7453  0.4060 -0.2672
  318TMC3    C8 4840   2.135   0.579  13.485  0.3373  0.0027 -0.2430
  318TMC3    O1 4841   2.441   0.996  13.358 -0.4047 -0.2093  0.3288
  318TMC3    O2 4842   2.197   0.475  13.466 -1.0733 -0.2802  0.5352
  319MPD2     C 4843   2.706   2.685  16.798  0.3533  0.2152  0.1517
  319MPD2    C1 4844   2.630   2.592  16.863 -0.8147 -0.0505  0.2531
  319MPD2    C2 4845   2.518   2.544  16.804  0.7531 -0.1792 -0.0431
  319MPD2    C3 4846   2.465   2.611  16.690 -0.0746  0.5466 -0.7886
  319MPD2    C4 4847   2.538   2.707  16.633 -0.3533 -0.7209  0.4483
  319MPD2    C5 4848   2.663   2.737  16.679  0.2235 -0.7391 -0.3009
  319MPD2     H 4849   2.467   2.458  16.846 -2.3529  1.4010 -0.5164
  319MPD2    H1 4850   2.498   2.741  16.538 -0.0612 -1.7191 -0.0279
  319MPD2    H2 4851   2.805   2.714  16.829 -0.3445  1.0139  1.6191
  319MPD2    H3 4852   2.721   2.802  16.615  0.3138  1.0921  1.6413
  319MPD2     N 4853   2.339   2.574  16.628 -0.0489 -0.3091  0.2330
  319MPD2    H5 4854   2.319   2.622  16.541  1.7125 -0.5401 -0.2920
  319MPD2    N1 4855   2.662   2.529  16.988 -0.7983 -0.4959 -0.1638
  319MPD2    H7 4856   2.584   2.478  17.027 -1.5654  0.6777 -0.1771
  320TMC3    C1 4857   2.153   2.448  16.571 -0.2552 -0.5041 -0.2065
  320TMC3    C2 4858   2.111   2.555  16.490 -0.1216  0.6507  0.1907
  320TMC3    C3 4859   2.051   2.526  16.374  0.1963 -0.2312 -0.3326
  320TMC3    C4 4860   2.141   2.321  16.534  0.0291 -0.4573  0.1561
  320TMC3    C5 4861   2.086   2.292  16.414  0.5784 -0.2432  0.0144
  320TMC3    C6 4862   2.034   2.398  16.336  0.2917 -1.3508  0.2155
  320TMC3     C 4863   2.267   2.464  16.663  0.8195  0.2154 -0.0725
  320TMC3     O 4864   2.272   2.383  16.753  0.2681  0.2395 -0.1211
  320TMC3     H 4865   2.124   2.655  16.530  0.5819  0.3240  0.7485
  320TMC3    H1 4866   2.173   2.244  16.603 -0.1097  0.7584  1.5791
  320TMC3    H2 4867   1.976   2.369  16.249 -1.0657  0.6216  0.4821
  320TMC3    C7 4868   2.090   2.162  16.345  0.3176 -0.0401 -0.7785
  320TMC3    C8 4869   2.069   2.622  16.265  0.3022 -0.3517  0.3181
  320TMC3    O1 4870   2.082   2.168  16.223 -0.2987  0.0841  0.2128
  320TMC3    O2 4871   2.062   2.739  16.300 -0.0395  0.0049  0.5716
  321TMC3    C1 4872   2.794   2.492  17.181  0.8110  0.5318  0.2970
  321TMC3    C2 4873   2.924   2.472  17.218 -0.4740  1.0011  0.0903
  321TMC3    C3 4874   2.944   2.450  17.352  0.3500  0.8794  0.3762
  321TMC3    C4 4875   2.700   2.527  17.275 -0.0655  0.3205  0.1844
  321TMC3    C5 4876   2.729   2.517  17.407  0.9215 -0.7791  0.4183
  321TMC3    C6 4877   2.848   2.465  17.448 -0.8358  0.5432  0.2561
  321TMC3     C 4878   2.783   2.550  17.046 -0.3651  0.3721  0.2234
  321TMC3     O 4879   2.882   2.603  16.997 -0.1099 -0.4899  0.0401
  321TMC3     H 4880   3.000   2.458  17.142 -2.0942 -1.5612 -1.0865
  321TMC3    H1 4881   2.598   2.554  17.248 -1.3959 -2.9341  2.0012
  321TMC3    H2 4882   2.877   2.451  17.551 -0.1581 -0.3099 -0.0492
  321TMC3    C7 4883   2.696   2.641  17.480 -0.1602  0.2238  0.8837
  321TMC3    C8 4884   3.069   2.493  17.406 -0.3513  0.5269 -0.6250
  321TMC3    O1 4885   2.596   2.702  17.448  0.0559 -0.4518  0.3472
  321TMC3    O2 4886   3.057   2.571  17.502 -0.5459 -0.0915  0.7365
  322MPD2     C 4887   1.792   3.589  13.402  0.6523 -0.3450 -0.6593
  322MPD2    C1 4888   1.841   3.538  13.516 -0.5703  0.6983 -0.6069
  322MPD2    C2 4889   1.947   3.449  13.506 -0.6298 -0.3557  0.1479
  322MPD2    C3 4890   1.984   3.393  13.385  0.0526  0.6987  0.3200
  322MPD2    C4 4891   1.934   3.447  13.266  0.1459 -0.1819 -0.0257
  322MPD2    C5 4892   1.839   3.545  13.284  0.0530 -0.1580 -0.3544
  322MPD2     H 4893   2.005   3.423  13.594  0.1578  0.4108 -0.1509
  322MPD2    H1 4894   1.962   3.424  13.164  1.7685  0.2010  0.3243
  322MPD2    H2 4895   1.716   3.666  13.410  1.0737 -0.1617  1.6879
  322MPD2    H3 4896   1.793   3.596  13.200  1.9045  1.6848 -0.2471
  322MPD2     N 4897   2.069   3.280  13.385  0.2951 -0.1775  0.3868
  322MPD2    H5 4898   2.106   3.248  13.474  1.3070  2.1451  0.7889
  322MPD2    N1 4899   1.800   3.598  13.636 -0.2043 -0.4031 -0.4224
  322MPD2    H7 4900   1.737   3.677  13.628 -0.3939 -0.4904  0.2279
  323TMC3    C1 4901   1.873   3.662  13.849 -0.6415  0.7038  0.5695
  323TMC3    C2 4902   1.947   3.762  13.784 -0.4447  0.1112 -0.4921
  323TMC3    C3 4903   2.044   3.823  13.851  0.1150  0.0492  0.5545
  323TMC3    C4 4904   1.904   3.616  13.978  0.2787 -0.1409  0.1716
  323TMC3    C5 4905   2.013   3.668  14.037  0.3301 -0.2042 -0.1383
  323TMC3    C6 4906   2.081   3.771  13.979 -0.2160  0.1804  0.2653
  323TMC3     C 4907   1.836   3.548  13.761 -0.3390 -0.2773 -0.2642
  323TMC3     O 4908   1.879   3.439  13.794  0.3670  0.6678 -0.2290
  323TMC3     H 4909   1.922   3.795  13.684  0.0098  2.3461  0.1399
  323TMC3    H1 4910   1.842   3.542  14.027 -0.6767  0.7386  0.2992
  323TMC3    H2 4911   2.177   3.789  14.026  0.8165 -0.8898 -1.4407
  323TMC3    C7 4912   2.042   3.623  14.175 -0.7279  0.8038 -0.3170
  323TMC3    C8 4913   2.147   3.889  13.766  0.0853  0.3089  0.0197
  323TMC3    O1 4914   1.998   3.523  14.230  0.5707  0.1484 -0.5858
  323TMC3    O2 4915   2.134   3.857  13.650 -0.3388 -0.2306 -0.2700
  324MPD2     C 4916   3.095   1.144  14.820 -0.6503  0.1636 -0.6952
  324MPD2    C1 4917   3.117   1.064  14.714 -0.2260  0.0095  0.8516
  324MPD2    C2 4918   3.045   0.949  14.699 -0.1253  0.5415  0.5280
  324MPD2    C3 4919   2.947   0.911  14.790  0.4534 -0.0848  0.3636
  324MPD2    C4 4920   2.926   0.994  14.900 -0.2476  0.1236  0.1446
  324MPD2    C5 4921   3.003   1.107  14.911  0.3303  0.7495 -0.0453
  324MPD2     H 4922   3.070   0.890  14.611  2.7784  1.3454  0.8259
  324MPD2    H1 4923   2.862   0.976  14.985  1.7558  0.6058  1.7568
  324MPD2    H2 4924   3.150   1.236  14.837  1.9337 -1.3833 -0.6549
  324MPD2    H3 4925   2.999   1.166  15.002  0.0452  0.1530  0.3345
  324MPD2     N 4926   2.866   0.795  14.779  0.1235  0.7239 -0.0283
  324MPD2    H5 4927   2.793   0.790  14.849 -2.3329 -2.7155 -2.8717
  324MPD2    N1 4928   3.229   1.094  14.624 -0.1711 -0.2201 -1.0526
  324MPD2    H7 4929   3.268   1.017  14.571 -0.6837 -0.7474 -0.6740
  325TMC3    C1 4930   2.770   0.594  14.692 -0.1680 -0.5295  0.0235
  325TMC3    C2 4931   2.746   0.510  14.583  0.0474  0.1367  0.3093
  325TMC3    C3 4932   2.649   0.415  14.609  1.3428  0.3469 -0.7906
  325TMC3    C4 4933   2.722   0.576  14.817  0.6425  0.0034 -0.4264
  325TMC3    C5 4934   2.628   0.471  14.830 -0.3144  0.2339 -0.5492
  325TMC3    C6 4935   2.590   0.384  14.731 -0.0128 -0.0600 -0.6664
  325TMC3     C 4936   2.872   0.697  14.679  0.5623  0.5496  0.1871
  325TMC3     O 4937   2.942   0.702  14.581  0.3346 -0.4034 -0.3252
  325TMC3     H 4938   2.791   0.535  14.488  0.8240 -0.5245  0.5049
  325TMC3    H1 4939   2.747   0.637  14.903  2.4880 -0.5707 -0.5681
  325TMC3    H2 4940   2.522   0.302  14.755 -2.5173  2.2064  0.0180
  325TMC3    C7 4941   2.523   0.512  14.927  0.1962  0.3101 -0.2435
  325TMC3    C8 4942   2.644   0.319  14.502 -0.2517  0.4906 -0.7320
  325TMC3    O1 4943   2.576   0.561  15.028 -0.0666 -0.6713  0.6379
  325TMC3    O2 4944   2.723   0.335  14.413  0.2270  0.2467 -0.5421
  326MPD2     C 4945   4.613   1.216  11.251 -0.4441 -0.4951  0.4791
  326MPD2    C1 4946   4.599   1.234  11.120  0.2576 -0.3070 -0.4219
  326MPD2    C2 4947   4.698   1.306  11.049  0.3507 -0.8952  0.0978
  326MPD2    C3 4948   0.076   1.346  11.109  0.1189 -0.8151  0.2793
  326MPD2    C4 4949   0.094   1.319  11.246 -0.1504 -0.4079  0.1452
  326MPD2    C5 4950   4.736   1.250  11.317 -0.3687 -0.6336  1.2259
  326MPD2     H 4951   4.675   1.313  10.944  0.8750  0.7387  0.1009
  326MPD2    H1 4952   0.174   1.370  11.298  2.2175 -1.0476 -2.7900
  326MPD2    H2 4953   4.539   1.172  11.317 -0.9059 -1.1898 -0.5087
  326MPD2    H3 4954   0.003   1.236  11.425 -1.6400  0.2547  1.3913
  326MPD2     N 4955   0.178   1.424  11.043 -0.8257  0.4845  0.5515
  326MPD2    H5 4956   0.259   1.454  11.096 -1.2083  4.0627 -0.9521
  326MPD2    N1 4957   4.486   1.195  11.050 -0.0452  0.2675 -0.7122
  326MPD2    H7 4958   4.474   1.220  10.952  0.1982  3.1182 -0.0259
  327TMC3    C1 4959   4.284   1.078  11.004 -0.0875 -0.2166 -0.2795
  327TMC3    C2 4960   4.177   1.165  10.977  0.4162 -0.6462  1.6392
  327TMC3    C3 4961   4.138   1.181  10.849  0.3730 -0.2150 -0.4373
  327TMC3    C4 4962   4.344   1.016  10.897  0.2682 -0.4306  0.4413
  327TMC3    C5 4963   4.299   1.035  10.767 -0.1224  0.4160  0.9128
  327TMC3    C6 4964   4.183   1.109  10.741  0.5620 -0.3847  0.1944
  327TMC3     C 4965   4.381   1.118  11.103  0.4372 -1.1094 -0.7515
  327TMC3     O 4966   4.356   1.092  11.220  0.1212 -0.1242  0.1186
  327TMC3     H 4967   4.149   1.220  11.066 -0.5139 -0.7961  1.4444
  327TMC3    H1 4968   4.427   0.950  10.920  0.8986  0.6432  1.2609
  327TMC3    H2 4969   4.157   1.141  10.640  4.6887 -2.3857 -1.5320
  327TMC3    C7 4970   4.408   1.049  10.672 -0.0526  0.8471  0.5535
  327TMC3    C8 4971   4.067   1.300  10.810  1.0564  0.1011  0.1389
  327TMC3    O1 4972   4.371   1.106  10.567  0.4884 -0.1654 -0.6475
  327TMC3    O2 4973   4.034   1.307  10.691 -0.2274  0.0491  0.0506
  328MPD2     C 4974   2.169   1.873  17.433 -0.3264  0.7396  0.4347
  328MPD2    C1 4975   2.070   1.779  17.422  0.1785  0.2110 -1.0619
  328MPD2    C2 4976   1.994   1.786  17.309  0.2426  0.6345 -0.7380
  328MPD2    C3 4977   2.012   1.874  17.209  0.2204  0.2244 -0.3610
  328MPD2    C4 4978   2.118   1.958  17.210 -0.2996 -0.0026 -0.4844
  328MPD2    C5 4979   2.182   1.965  17.331 -0.4860 -1.0731  0.4946
  328MPD2     H 4980   1.909   1.720  17.299  0.0954  0.9385 -1.5056
  328MPD2    H1 4981   2.116   2.043  17.143  0.7076  0.2747 -0.1606
  328MPD2    H2 4982   2.238   1.877  17.517 -1.1675 -0.2168  1.1811
  328MPD2    H3 4983   2.259   2.040  17.340  0.1616 -1.6060 -0.6181
  328MPD2     N 4984   1.922   1.886  17.097 -0.2816  0.2466 -0.2156
  328MPD2    H5 4985   1.921   1.971  17.041  0.4239  0.4375  0.0592
  328MPD2    N1 4986   2.052   1.682  17.525 -0.1993  0.1575 -0.0287
  328MPD2    H7 4987   2.101   1.704  17.611  1.9818  1.4049 -1.6079
  329TMC3    C1 4988   1.931   1.515  17.648  0.4513  0.8791 -0.8269
  329TMC3    C2 4989   1.909   1.592   0.008 -0.1702 -0.3816 -0.1914
  329TMC3    C3 4990   1.819   1.549   0.104 -0.7671  0.1531 -0.0371
  329TMC3    C4 4991   1.857   1.396  17.631  0.7392 -0.0739 -0.5487
  329TMC3    C5 4992   1.769   1.362  17.730 -0.1178  0.0259 -0.3675
  329TMC3    C6 4993   1.742   1.439   0.088 -0.0773 -0.0219  0.1190
  329TMC3     C 4994   1.968   1.569  17.521  0.2469 -0.1406 -0.0684
  329TMC3     O 4995   1.918   1.518  17.423  0.3078  0.2294  1.2038
  329TMC3     H 4996   1.953   1.689   0.028 -0.0789 -0.2125 -1.1922
  329TMC3    H1 4997   1.888   1.324  17.556 -0.7506  1.6235 -2.7848
  329TMC3    H2 4998   1.673   1.408   0.166  0.2680 -0.5614  0.2126
  329TMC3    C7 4999   1.641   1.314  17.667 -0.0020  0.0491 -0.6181
  329TMC3    C8 5000   1.785   1.631   0.210 -0.7087  0.0193  0.1105
  329TMC3    O1 5001   1.535   1.333  17.726  0.3392 -0.0781 -0.3938
  329TMC3    O2 5002   1.881   1.676   0.276 -0.1715  0.5800 -0.3053
  330TMC3    C1 5003   0.745   1.121   9.498 -0.2831  0.1539 -0.7735
  330TMC3    C2 5004   0.619   1.106   9.447  0.9677  0.1297  0.0703
  330TMC3    C3 5005   0.570   0.982   9.428  0.5353 -0.3601  0.1384
  330TMC3    C4 5006   0.817   1.009   9.534 -0.2345 -0.0515  0.9038
  330TMC3    C5 5007   0.768   0.884   9.494 -0.0266 -0.3006 -0.1290
  330TMC3    C6 5008   0.641   0.869   9.436 -0.1587  0.3334  0.3269
  330TMC3     C 5009   0.784   1.241   9.570 -0.2747 -0.1726  0.8843
  330TMC3     O 5010   0.857   1.227   9.668  0.0382 -0.7194 -0.4335
  330TMC3     H 5011   0.553   1.183   9.409  0.5360 -0.6374 -0.7536
  330TMC3    H1 5012   0.919   1.019   9.571  0.2168  1.0600 -0.6457
  330TMC3    H2 5013   0.599   0.771   9.418 -0.4788  0.4698  0.3447
  330TMC3    C7 5014   0.847   0.770   9.482  0.0924  0.5793  0.1587
  330TMC3    C8 5015   0.424   0.970   9.412 -0.6104  0.9800 -0.6182
  330TMC3    O1 5016   0.785   0.664   9.472  0.2054  0.1759 -0.3931
  330TMC3    O2 5017   0.367   1.057   9.340 -0.5150  0.0110  0.2635
  331MPD2     C 5018   2.864   3.735  12.407  0.3098  0.1483 -0.0838
  331MPD2    C1 5019   2.979   3.796  12.449  0.6020 -0.3353  0.2035
  331MPD2    C2 5020   3.099   3.759  12.398 -0.3610 -1.0286 -0.2100
  331MPD2    C3 5021   3.099   3.656  12.303 -0.3646 -0.7914 -0.2017
  331MPD2    C4 5022   2.982   3.600  12.256  0.6441  0.0211  0.3435
  331MPD2    C5 5023   2.861   3.639  12.313 -0.2139  0.4377  0.5184
  331MPD2     H 5024   3.196   3.803  12.418 -1.9269  0.7744  3.4473
  331MPD2    H1 5025   2.974   3.531  12.173 -0.9617  0.3914  0.1948
  331MPD2    H2 5026   2.773   3.777  12.447 -0.3521 -0.3476 -1.0767
  331MPD2    H3 5027   2.769   3.593  12.279  1.9863 -2.8383 -0.9980
  331MPD2     N 5028   3.225   3.639  12.249 -0.1428 -0.1345  0.2953
  331MPD2    H5 5029   3.305   3.697  12.272  0.7584 -0.5644 -1.7078
  331MPD2    N1 5030   2.952   3.900  12.541 -0.4688 -0.4028 -0.0231
  331MPD2    H7 5031   2.860   3.914  12.580  0.8317  0.2162  2.8471
  332TMC3    C1 5032   3.385   3.560  12.107 -0.2676  1.0750  0.4562
  332TMC3    C2 5033   3.434   3.681  12.067 -0.5029  0.0388  0.0770
  332TMC3    C3 5034   3.572   3.679  12.074 -0.1392 -0.6944  0.2949
  332TMC3    C4 5035   3.454   3.451  12.147  0.4800 -0.6365 -0.2745
  332TMC3    C5 5036   3.588   3.466  12.167  0.1989 -0.3128 -0.0897
  332TMC3    C6 5037   3.650   3.584  12.125  0.2640 -0.5014  0.7602
  332TMC3     C 5038   3.244   3.554  12.144  0.1951  0.2779  0.1734
  332TMC3     O 5039   3.194   3.451  12.105 -0.0834  0.2832 -0.3971
  332TMC3     H 5040   3.380   3.766  12.027  1.8621  0.4185 -2.2529
  332TMC3    H1 5041   3.404   3.369  12.196  1.6766 -0.8136  0.6602
  332TMC3    H2 5042   3.758   3.598  12.119  0.3956 -1.8845  0.0328
  332TMC3    C7 5043   3.661   3.362  12.248 -0.5456  0.1782 -0.3722
  332TMC3    C8 5044   3.633   3.805  12.081 -0.0515  0.6147  0.6052
  332TMC3    O1 5045   3.582   3.272  12.288  0.0709 -0.4286  0.1377
  332TMC3    O2 5046   3.721   3.821  12.158 -0.3847  0.2615  0.0545
  333MPD2     C 5047   3.398   4.640  11.566  0.0681  0.6784  0.2886
  333MPD2    C1 5048   3.396   4.627  11.430 -0.0377  0.2609 -1.0128
  333MPD2    C2 5049   3.353   4.508  11.368 -0.1194  0.3790  0.4987
  333MPD2    C3 5050   3.301   4.408  11.448 -0.6446  0.4105  0.2587
  333MPD2    C4 5051   3.294   4.425  11.587  0.2350 -0.3220  0.5986
  333MPD2    C5 5052   3.338   4.539  11.639 -0.5415  0.3481 -0.0597
  333MPD2     H 5053   3.343   4.503  11.260  0.7641 -1.0667  0.4938
  333MPD2    H1 5054   3.240   4.354  11.649  0.0661 -1.2909 -0.6670
  333MPD2    H2 5055   3.444   4.725  11.616 -0.7643  1.7410 -0.7437
  333MPD2    H3 5056   3.337   4.543  11.748 -1.5233  2.0412 -0.1526
  333MPD2     N 5057   3.259   4.294  11.385  0.3038  0.3185  0.1318
  333MPD2    H5 5058   3.297   4.279  11.292  0.2681  0.2853  0.1223
  333MPD2    N1 5059   3.427   0.007  11.352 -0.4718 -0.2381 -0.1927
  333MPD2    H7 5060   3.445   0.094  11.401  0.8085 -0.1390 -0.8555
  334TMC3    C1 5061   3.461   0.146  11.162  0.0978 -0.1293 -0.0251
  334TMC3    C2 5062   3.524   0.141  11.045  0.1755  0.2160  0.1274
  334TMC3    C3 5063   3.609   0.237  11.010  0.4747 -0.5445  0.0716
  334TMC3    C4 5064   3.474   0.256  11.241 -0.1276  1.0989  0.3220
  334TMC3    C5 5065   3.565   0.355  11.198  0.0038 -0.6033  0.4037
  334TMC3    C6 5066   3.635   0.348  11.081  0.1743 -0.6920 -0.1894
  334TMC3     C 5067   3.423   0.017  11.214 -0.3642  0.6700 -0.1514
  334TMC3     O 5068   3.399   4.669  11.127 -0.6168  0.0738 -0.2650
  334TMC3     H 5069   3.516   0.055  10.979 -1.1853  0.5244 -0.1063
  334TMC3    H1 5070   3.400   0.269  11.320  0.8662  1.9414  1.1238
  334TMC3    H2 5071   3.714   0.418  11.054 -1.0798  1.0321  0.6313
  334TMC3    C7 5072   3.561   0.481  11.267 -0.7244  0.3597  0.5859
  334TMC3    C8 5073   3.657   0.238  10.873  0.4341 -0.0554 -1.2075
  334TMC3    O1 5074   3.657   0.550  11.236 -0.8751 -0.5183  0.6167
  334TMC3    O2 5075   3.574   0.199  10.791 -0.8452 -0.0401 -0.2124
  335TMC3    C1 5076   2.822   1.506  17.376  0.5200 -0.2136 -0.0176
  335TMC3    C2 5077   2.766   1.469  17.257 -0.2308  0.7360  0.0042
  335TMC3    C3 5078   2.844   1.481  17.143 -0.0171 -0.3907 -0.1874
  335TMC3    C4 5079   2.948   1.562  17.384 -0.1625  0.3365  0.1678
  335TMC3    C5 5080   3.025   1.572  17.271  0.0958  0.3044  0.3018
  335TMC3    C6 5081   2.977   1.535  17.147  0.0848  0.3731 -0.3874
  335TMC3     C 5082   2.738   1.494  17.495 -0.1483  0.0408 -0.6105
  335TMC3     O 5083   2.653   1.410  17.493  0.3156 -0.1770  0.4142
  335TMC3     H 5084   2.674   1.412  17.255  0.7015 -0.7057 -1.3157
  335TMC3    H1 5085   2.990   1.577  17.483  0.8827 -0.6115 -0.1394
  335TMC3    H2 5086   3.038   1.557  17.060 -2.1277  1.0769 -1.7475
  335TMC3    C7 5087   3.162   1.630  17.276  0.6276 -0.7402 -0.3187
  335TMC3    C8 5088   2.793   1.451  17.007  0.2918 -0.5956 -0.7780
  335TMC3    O1 5089   3.232   1.619  17.177  0.1756 -0.9585 -0.6648
  335TMC3    O2 5090   2.859   1.481  16.904 -0.1665  0.1380 -0.7238
  336MPD2     C 5091   2.465   3.774  16.046 -0.4068 -0.3961  0.2853
  336MPD2    C1 5092   2.561   3.723  15.959  0.5821 -0.1324  0.8107
  336MPD2    C2 5093   2.638   3.617  15.993  0.0515  0.3480  0.3454
  336MPD2    C3 5094   2.632   3.573  16.123 -0.6462  0.2256  0.3529
  336MPD2    C4 5095   2.536   3.620  16.207  0.0013 -0.0644  0.5303
  336MPD2    C5 5096   2.445   3.708  16.164 -1.3307 -0.2871  0.5400
  336MPD2     H 5097   2.710   3.580  15.921 -0.4143  2.0334 -0.9961
  336MPD2    H1 5098   2.530   3.586  16.310 -1.6805 -1.1461  0.0803
  336MPD2    H2 5099   2.398   3.853  16.014  2.3790  1.8712  0.0974
  336MPD2    H3 5100   2.363   3.741  16.227 -0.2176  1.6725  0.9712
  336MPD2     N 5101   2.701   3.463  16.171  0.5122  0.0623 -0.6150
  336MPD2    H5 5102   2.678   3.444  16.268  0.5090  1.1938 -0.3993
  336MPD2    N1 5103   2.596   3.806  15.850 -0.2871  0.4897 -0.1743
  336MPD2    H7 5104   2.679   3.777  15.799 -1.1827  1.0517 -1.9458
  337TMC3    C1 5105   2.587   3.978  15.692  0.2395 -0.8027 -0.2693
  337TMC3    C2 5106   2.516   4.051  15.602 -0.0382  0.2340 -0.0883
  337TMC3    C3 5107   2.577   4.152  15.530 -0.0345  0.1794 -1.1419
  337TMC3    C4 5108   2.717   4.016  15.730 -0.1372 -0.0120 -0.0821
  337TMC3    C5 5109   2.772   4.125  15.664 -0.4889 -0.6961  0.0054
  337TMC3    C6 5110   2.707   4.181  15.558 -0.6561  0.3539  0.0271
  337TMC3     C 5111   2.518   3.899  15.789 -0.7704 -0.0120  0.1456
  337TMC3     O 5112   2.395   3.907  15.766 -0.4454  0.5329 -0.9126
  337TMC3     H 5113   2.414   4.028  15.575  0.5437 -0.4123 -1.7821
  337TMC3    H1 5114   2.778   3.966  15.805 -1.0875 -1.7015 -0.4486
  337TMC3    H2 5115   2.760   4.257  15.502 -0.8070  1.4869  1.4339
  337TMC3    C7 5116   2.900   4.171  15.713 -0.6383  0.5569 -1.5486
  337TMC3    C8 5117   2.506   4.246  15.445  0.0601 -0.2787  0.2368
  337TMC3    O1 5118   2.976   4.080  15.745 -0.0286  0.5952  0.0072
  337TMC3    O2 5119   2.538   4.364  15.456 -0.0698 -0.9101  0.1345
  338MPD2     C 5120   2.520   3.980   0.907  0.0995 -0.4253 -0.3914
  338MPD2    C1 5121   2.459   3.940   0.789  0.2519  0.2400 -0.4446
  338MPD2    C2 5122   2.323   3.961   0.768  0.7080 -0.2356 -0.3614
  338MPD2    C3 5123   2.245   4.019   0.865  0.0788  0.3520 -0.3893
  338MPD2    C4 5124   2.304   4.046   0.989  0.0562  0.8030 -0.1979
  338MPD2    C5 5125   2.441   4.026   1.009 -0.0963  0.0693  1.0321
  338MPD2     H 5126   2.281   3.933   0.672  1.5541 -0.1055 -0.7782
  338MPD2    H1 5127   2.248   4.088   1.072 -1.4261 -0.6894 -0.4451
  338MPD2    H2 5128   2.625   3.966   0.929  0.5111  2.4222 -0.5401
  338MPD2    H3 5129   2.474   4.057   1.107  0.6962  1.2922  0.3744
  338MPD2     N 5130   2.108   4.039   0.832  0.2545 -0.3759 -0.2610
  338MPD2    H5 5131   2.082   4.050   0.735  0.4233 -2.7573 -0.5616
  338MPD2    N1 5132   2.529   3.882   0.679  0.1452  0.0050 -0.0177
  338MPD2    H7 5133   2.470   3.845   0.606  2.3720 -0.0126 -1.8297
  339TMC3    C1 5134   1.887   4.042   0.868 -0.0614  0.3379  0.1409
  339TMC3    C2 5135   1.839   3.915   0.885 -0.3917 -0.2327 -0.0734
  339TMC3    C3 5136   1.798   3.836   0.780 -0.2703  0.4385  0.4339
  339TMC3    C4 5137   1.896   4.095   0.734 -0.1550  0.5380 -0.2854
  339TMC3    C5 5138   1.842   4.016   0.635  0.1838 -0.3812 -0.3523
  339TMC3    C6 5139   1.797   3.886   0.656  0.3352 -0.1842  0.1300
  339TMC3     C 5140   2.014   4.045   0.931  0.1983 -0.9074 -0.7098
  339TMC3     O 5141   2.023   4.016   1.050 -0.2569 -0.0851 -0.1690
  339TMC3     H 5142   1.829   3.881   0.987 -2.3632  0.2860 -0.0870
  339TMC3    H1 5143   1.946   4.189   0.714  0.0235  0.2077 -1.4034
  339TMC3    H2 5144   1.769   3.819   0.576  1.9020  1.5107 -1.8258
  339TMC3    C7 5145   1.869   4.056   0.502  0.5069 -0.4494  0.3918
  339TMC3    C8 5146   1.752   3.699   0.799 -0.0823 -0.2897 -0.4436
  339TMC3    O1 5147   1.831   4.167   0.468 -0.1143  0.5104 -0.0701
  339TMC3    O2 5148   1.687   3.650   0.708  0.2763  0.2168  0.7045
  340MPD2     C 5149   3.267   1.747  10.306 -0.4023 -0.0332  0.1921
  340MPD2    C1 5150   3.216   1.620  10.340 -0.0365 -0.2850  0.0215
  340MPD2    C2 5151   3.160   1.603  10.467 -0.1720 -0.0352  0.4133
  340MPD2    C3 5152   3.140   1.714  10.547 -0.0756  0.8935 -0.2194
  340MPD2    C4 5153   3.158   1.840  10.487  0.4187  0.2461 -0.3089
  340MPD2    C5 5154   3.231   1.858  10.368  0.1295 -1.0147  0.4889
  340MPD2     H 5155   3.141   1.504  10.508  0.0546  0.1493  0.9697
  340MPD2    H1 5156   3.123   1.929  10.538  2.3698  1.0133 -0.3149
  340MPD2    H2 5157   3.328   1.758  10.217  0.5910 -1.3918  0.6870
  340MPD2    H3 5158   3.245   1.955  10.322  0.9161 -1.4723 -0.2390
  340MPD2     N 5159   3.119   1.702  10.689 -0.4355 -0.5525  0.3761
  340MPD2    H5 5160   3.152   1.783  10.741 -0.1891 -0.5993  0.2925
  340MPD2    N1 5161   3.237   1.514  10.247 -0.2370  0.1335  0.1521
  340MPD2    H7 5162   3.277   1.540  10.158  1.2349  2.0445  1.3644
  341TMC3    C1 5163   3.219   1.286  10.154  0.1894 -0.2727  0.4588
  341TMC3    C2 5164   3.159   1.164  10.167 -0.5039  0.0985 -0.3635
  341TMC3    C3 5165   3.186   1.072  10.073  0.3511 -0.7373  0.0833
  341TMC3    C4 5166   3.315   1.318  10.063  0.1270 -0.3195  0.2828
  341TMC3    C5 5167   3.345   1.217   9.972  0.5645 -0.4873  0.4442
  341TMC3    C6 5168   3.284   1.093   9.981  0.0959  0.0202  0.1376
  341TMC3     C 5169   3.174   1.388  10.251  0.0711 -0.3063  0.6856
  341TMC3     O 5170   3.089   1.351  10.327  0.0388  0.0302 -0.0159
  341TMC3     H 5171   3.101   1.139  10.254  0.2569 -0.8161 -0.1169
  341TMC3    H1 5172   3.375   1.408  10.067 -1.6298  0.8472  0.6277
  341TMC3    H2 5173   3.312   1.012   9.914  0.5872  0.2146  0.1036
  341TMC3    C7 5174   3.452   1.232   9.880  0.7543 -0.0050  0.5336
  341TMC3    C8 5175   3.122   0.946  10.084  0.2495 -0.0789  0.4155
  341TMC3    O1 5176   3.497   1.136   9.817  0.1083 -0.2293  0.5106
  341TMC3    O2 5177   3.007   0.953  10.120 -0.3331 -0.4493 -0.1724
  342MPD2     C 5178   0.609   4.093  17.042 -0.8618  0.0200 -0.0266
  342MPD2    C1 5179   0.744   4.102  17.068  0.3323  0.2140 -0.5682
  342MPD2    C2 5180   0.795   4.196  17.153 -0.6014 -0.0515 -0.4980
  342MPD2    C3 5181   0.702   4.284  17.211 -0.0524 -0.2817 -0.2513
  342MPD2    C4 5182   0.565   4.261  17.202  0.0720 -0.2015  0.2893
  342MPD2    C5 5183   0.519   4.168  17.119  0.5535  0.2718  0.7592
  342MPD2     H 5184   0.899   4.191  17.182 -0.3476  0.1334 -1.3811
  342MPD2    H1 5185   0.495   4.320  17.260 -0.4910 -1.1398  0.5757
  342MPD2    H2 5186   0.568   4.018  16.976 -1.1281  0.1842 -0.0475
  342MPD2    H3 5187   0.416   4.152  17.089  1.1538 -0.7480 -0.7481
  342MPD2     N 5188   0.733   4.395  17.296 -0.1825  0.2347  0.1637
  342MPD2    H5 5189   0.650   4.449  17.317 -0.3802 -0.1727  0.4323
  342MPD2    N1 5190   0.837   4.013  17.007 -0.1408  0.4234  0.1185
  342MPD2    H7 5191   0.917   3.978  17.059  1.0945 -0.7262 -2.5173
  343TMC3    C1 5192   0.904   3.832  16.857 -0.1551  0.0587 -0.2927
  343TMC3    C2 5193   1.023   3.827  16.912 -0.0470  0.6161 -0.7605
  343TMC3    C3 5194   1.100   3.724  16.873  0.1509 -0.1909  0.3304
  343TMC3    C4 5195   0.847   3.739  16.772  0.5332 -0.6806 -1.0573
  343TMC3    C5 5196   0.924   3.630  16.743  0.2323 -0.2879 -0.1166
  343TMC3    C6 5197   1.050   3.618  16.797 -0.0978  0.1514  0.3056
  343TMC3     C 5198   0.808   3.935  16.894 -0.2730  0.4159 -0.2960
  343TMC3     O 5199   0.719   3.958  16.812  0.7496 -0.7099  0.4559
  343TMC3     H 5200   1.060   3.898  16.985  0.1273 -0.5518  0.2791
  343TMC3    H1 5201   0.743   3.742  16.743  0.6842  0.3770 -1.4957
  343TMC3    H2 5202   1.090   3.519  16.782  0.8426  0.5942 -0.1229
  343TMC3    C7 5203   0.856   3.504  16.742 -0.1233  0.8073 -0.2526
  343TMC3    C8 5204   1.226   3.701  16.942  0.1997 -0.4316 -0.1374
  343TMC3    O1 5205   0.882   3.410  16.816  0.2842 -0.5895  0.2590
  343TMC3    O2 5206   1.255   3.785  17.028 -0.7588 -0.2717  0.6635
  344MPD2     C 5207   1.506   3.890  11.033 -0.2299  0.0555 -0.1881
  344MPD2    C1 5208   1.620   3.846  10.972 -0.6051  0.3565 -0.8043
  344MPD2    C2 5209   1.702   3.935  10.909  0.6906 -0.3017 -0.2664
  344MPD2    C3 5210   1.663   4.070  10.899 -0.2372 -0.0403  0.4889
  344MPD2    C4 5211   1.539   4.101  10.936 -0.0437  0.2344  0.3880
  344MPD2    C5 5212   1.464   4.018  11.003  0.1152 -0.6712  0.6584
  344MPD2     H 5213   1.793   3.906  10.857 -0.1397 -0.7697 -1.4393
  344MPD2    H1 5214   1.495   4.198  10.914  2.4151  1.3378  0.4258
  344MPD2    H2 5215   1.437   3.824  11.084  2.1004  0.4166  3.3717
  344MPD2    H3 5216   1.372   4.045  11.054 -1.0542 -0.9091 -1.2877
  344MPD2     N 5217   1.722   4.163  10.817  1.1224  0.3596  0.3313
  344MPD2    H5 5218   1.667   4.239  10.778  3.1741  0.7903 -1.7594
  344MPD2    N1 5219   1.657   3.712  10.958 -0.1279 -0.4421 -0.0415
  344MPD2    H7 5220   1.742   3.696  10.905  0.3479  2.1024 -0.0645
  345TMC3    C1 5221   1.896   4.255  10.680  1.0439  0.0368 -0.4838
  345TMC3    C2 5222   2.004   4.329  10.704  0.4151  0.6435 -0.6511
  345TMC3    C3 5223   2.033   4.431  10.614  0.7236 -0.8755  0.1076
  345TMC3    C4 5224   1.805   4.276  10.578 -0.3237  0.2391  0.3287
  345TMC3    C5 5225   1.847   4.366  10.485  0.2106 -0.3465 -0.1281
  345TMC3    C6 5226   1.961   4.443  10.498 -0.2001 -0.2563  0.4848
  345TMC3     C 5227   1.859   4.159  10.784 -0.2990 -0.2585  0.2982
  345TMC3     O 5228   1.952   4.092  10.833  0.3121 -0.0586 -0.3942
  345TMC3     H 5229   2.065   4.311  10.792 -0.4603  0.8387 -0.0011
  345TMC3    H1 5230   1.732   4.202  10.549 -0.5585  0.4366  0.4104
  345TMC3    H2 5231   1.996   4.504  10.416  1.0250  0.7489  1.7413
  345TMC3    C7 5232   1.751   4.411  10.385  0.5992  0.2554 -0.1773
  345TMC3    C8 5233   2.116   4.554  10.642 -0.0653 -0.1456  0.1535
  345TMC3    O1 5234   1.654   4.338  10.368  0.1234 -0.0016  0.4731
  345TMC3    O2 5235   2.120   4.631  10.545  0.4493 -0.2203  0.2385
  346MPD2     C 5236   1.601   0.440  13.954  0.1886  0.0095 -0.0015
  346MPD2    C1 5237   1.699   0.393  14.035  0.5954 -0.2809 -0.1134
  346MPD2    C2 5238   1.735   0.457  14.152 -0.0314 -0.3352  0.3426
  346MPD2    C3 5239   1.661   0.575  14.185  0.1313 -0.5426 -0.1494
  346MPD2    C4 5240   1.559   0.624  14.103 -0.4376 -0.1854 -0.2814
  346MPD2    C5 5241   1.541   0.557  13.986 -0.0876 -0.3783 -0.3483
  346MPD2     H 5242   1.823   0.422  14.206  0.4724 -2.0772 -1.5635
  346MPD2    H1 5243   1.506   0.718  14.100  0.8736  0.5736  0.1578
  346MPD2    H2 5244   1.584   0.381  13.865  1.4663 -0.2157 -0.0920
  346MPD2    H3 5245   1.476   0.603  13.912  1.0178  1.0037 -0.4653
  346MPD2     N 5246   1.715   0.642  14.296 -0.0473  0.6714 -0.1977
  346MPD2    H5 5247   1.795   0.604  14.346 -0.1993  0.8907  0.2036
  346MPD2    N1 5248   1.774   0.281  14.000 -0.2026  0.5896 -0.0256
  346MPD2    H7 5249   1.860   0.262  14.050  0.0978 -0.4074 -0.9409
  347TMC3    C1 5250   1.707   0.796  14.472 -0.0702  0.7594  0.4322
  347TMC3    C2 5251   1.777   0.718  14.556 -0.4859 -0.0858  0.1688
  347TMC3    C3 5252   1.818   0.764  14.680  0.6057 -0.3934  0.5989
  347TMC3    C4 5253   1.678   0.925  14.509  0.6100  0.6486 -0.7894
  347TMC3    C5 5254   1.708   0.968  14.637 -0.1726  0.2139 -0.1088
  347TMC3    C6 5255   1.781   0.891  14.724 -0.1443 -0.7603 -0.4608
  347TMC3     C 5256   1.655   0.755  14.344 -0.9392  0.3391  0.1822
  347TMC3     O 5257   1.555   0.819  14.309  0.5556  0.3856 -0.2223
  347TMC3     H 5258   1.791   0.614  14.527 -0.6314  0.2747 -1.2220
  347TMC3    H1 5259   1.639   0.998  14.439 -1.7015 -0.1153 -0.2909
  347TMC3    H2 5260   1.821   0.918  14.821  0.1428 -3.0071  0.0499
  347TMC3    C7 5261   1.687   1.105  14.683 -0.7702  0.2601  0.1348
  347TMC3    C8 5262   1.923   0.684  14.745  0.3251 -0.5746 -0.6712
  347TMC3    O1 5263   1.688   1.132  14.803  0.0106 -0.6002  0.2352
  347TMC3    O2 5264   1.970   0.598  14.672  0.1769  0.2325  0.2954
  348MPD2     C 5265   1.270   0.675  11.645  0.2349 -0.0962 -0.4664
  348MPD2    C1 5266   1.211   0.617  11.534  0.6614  0.2371  0.1034
  348MPD2    C2 5267   1.216   0.691  11.411  0.4359  0.0247  0.0209
  348MPD2    C3 5268   1.273   0.809  11.400  0.2399  0.6135  0.2446
  348MPD2    C4 5269   1.343   0.856  11.515  0.6626 -0.3713  0.6492
  348MPD2    C5 5270   1.335   0.795  11.634 -0.3466 -0.3022  0.6129
  348MPD2     H 5271   1.164   0.649  11.325 -0.1001 -3.6260  2.1081
  348MPD2    H1 5272   1.400   0.948  11.508 -0.7349  0.4639  0.1206
  348MPD2    H2 5273   1.251   0.628  11.741 -0.1855  2.2215  0.5819
  348MPD2    H3 5274   1.371   0.850  11.721 -1.0810  1.8448 -0.4318
  348MPD2     N 5275   1.266   0.880  11.275 -0.3817 -0.0437 -0.7424
  348MPD2    H5 5276   1.204   0.843  11.204 -1.0114 -1.8528  0.7416
  348MPD2    N1 5277   1.137   0.498  11.541 -0.0225  0.5347 -0.5341
  348MPD2    H7 5278   1.089   0.469  11.457  1.3712  0.5250 -1.3262
  349TMC3    C1 5279   1.044   0.302  11.635  0.3041 -0.5232 -0.3364
  349TMC3    C2 5280   1.079   0.191  11.698  0.1519 -0.3585 -0.2816
  349TMC3    C3 5281   1.023   0.071  11.670 -1.0668 -0.1257 -0.6189
  349TMC3    C4 5282   0.932   0.300  11.562  0.7961 -0.3907 -0.0759
  349TMC3    C5 5283   0.873   0.178  11.536 -0.6960  0.3425  0.4746
  349TMC3    C6 5284   0.910   0.061  11.590  0.0546  0.6325  1.0657
  349TMC3     C 5285   1.129   0.417  11.648 -0.1855  0.4107  0.2786
  349TMC3     O 5286   1.186   0.416  11.753  0.0768 -0.2886  0.2540
  349TMC3     H 5287   1.172   0.184  11.752  0.2892  1.2218 -0.3346
  349TMC3    H1 5288   0.886   0.394  11.533 -0.0793 -0.3321  1.5002
  349TMC3    H2 5289   0.865   4.704  11.561  0.4619  0.7525  0.0451
  349TMC3    C7 5290   0.756   0.174  11.436  0.1866  0.8694 -0.2039
  349TMC3    C8 5291   1.037   4.712  11.779 -0.0741  0.0476 -0.1368
  349TMC3    O1 5292   0.685   0.078  11.449  0.2647 -0.3069 -0.0312
  349TMC3    O2 5293   1.116   4.725  11.873  0.1406  0.0445 -0.0011
  350MPD2     C 5294   4.624   3.709  10.212 -0.6120  0.5994 -0.6308
  350MPD2    C1 5295   4.658   3.577  10.203 -0.4235 -0.1799  0.3904
  350MPD2    C2 5296   0.023   3.528  10.273 -0.1277  0.2518 -0.6233
  350MPD2    C3 5297   0.101   3.602  10.356  0.5169  0.0765  0.3949
  350MPD2    C4 5298   0.072   3.735  10.365  0.4265 -0.1288  0.2128
  350MPD2    C5 5299   4.705   3.791  10.288 -0.8769  0.1567 -0.5573
  350MPD2     H 5300   0.048   3.423  10.265  2.7215  0.9928 -1.5023
  350MPD2    H1 5301   0.127   3.801  10.432 -0.8943 -0.2631  1.4415
  350MPD2    H2 5302   4.535   3.757  10.175 -1.3018 -1.7782 -2.0991
  350MPD2    H3 5303   4.696   3.899  10.294 -2.9385 -0.1062  0.9055
  350MPD2     N 5304   0.188   3.533  10.444 -0.1943 -0.0037  0.1407
  350MPD2    H5 5305   0.196   3.433  10.435 -1.1409  0.2104 -3.2360
  350MPD2    N1 5306   4.589   3.481  10.132 -0.0702  0.7328 -0.3271
  350MPD2    H7 5307   4.651   3.410  10.097  0.2441  0.0111  1.7063
  351TMC3    C1 5308   4.401   3.391  10.010  1.1282 -0.0240  0.3875
  351TMC3    C2 5309   4.479   3.285   9.967  0.1321 -0.2984 -0.1812
  351TMC3    C3 5310   4.430   3.170   9.920 -0.5520 -1.0241  0.2693
  351TMC3    C4 5311   4.261   3.380  10.004 -0.3567 -0.7164  0.1230
  351TMC3    C5 5312   4.212   3.263   9.954 -0.9271  0.0257  0.9224
  351TMC3    C6 5313   4.296   3.157   9.925 -0.7445 -0.1974 -0.5071
  351TMC3     C 5314   4.456   3.498  10.092 -0.0228  0.3560  0.0339
  351TMC3     O 5315   4.374   3.578  10.130 -0.3085  0.2275 -0.0499
  351TMC3     H 5316   4.587   3.285   9.978  0.0039  1.4114  1.1845
  351TMC3    H1 5317   4.189   3.458  10.028  0.7394  0.0897  0.7617
  351TMC3    H2 5318   4.249   3.075   9.871  1.3477 -0.4445 -1.9751
  351TMC3    C7 5319   4.070   3.271   9.922  0.0585 -0.2086 -0.6351
  351TMC3    C8 5320   4.513   3.062   9.877  0.1612 -0.2113 -0.0430
  351TMC3    O1 5321   4.001   3.330   9.999  0.5200 -0.2130 -0.5276
  351TMC3    O2 5322   4.628   3.094   9.843 -0.1724 -0.7100  0.1606
  352MPD2     C 5323   3.302   0.920   0.952 -0.0971 -0.4146  0.1462
  352MPD2    C1 5324   3.206   0.852   0.884 -0.3866  0.0966 -0.3396
  352MPD2    C2 5325   3.238   0.725   0.836 -0.8565  0.2701 -0.3560
  352MPD2    C3 5326   3.358   0.660   0.868  0.0879 -1.0582 -0.0569
  352MPD2    C4 5327   3.448   0.732   0.944 -0.1828 -0.6016 -0.7314
  352MPD2    C5 5328   3.421   0.860   0.978  0.6634  0.5939  0.1362
  352MPD2     H 5329   3.167   0.671   0.775  0.2501 -0.0998 -1.3282
  352MPD2    H1 5330   3.551   0.703   0.964  0.2674  2.4963  1.4795
  352MPD2    H2 5331   3.283   1.017   0.996 -0.4181  0.2419 -1.4274
  352MPD2    H3 5332   3.498   0.912   1.034 -0.0088  0.0373  1.5982
  352MPD2     N 5333   3.378   0.531   0.821  0.5036  0.7096  0.4720
  352MPD2    H5 5334   3.298   0.488   0.775 -0.8191  3.8753 -0.1725
  352MPD2    N1 5335   3.079   0.916   0.864  0.1158  0.0237  0.0707
  352MPD2    H7 5336   3.072   1.010   0.900 -2.4861 -0.3125  0.4546
  353TMC3    C1 5337   3.481   0.317   0.787  0.1264  0.2212  0.4399
  353TMC3    C2 5338   3.586   0.235   0.810  0.2303  0.0534  0.7402
  353TMC3    C3 5339   3.579   0.109   0.778 -0.0123  0.5626  0.2061
  353TMC3    C4 5340   3.359   0.267   0.736  0.9182  0.1742  0.5635
  353TMC3    C5 5341   3.356   0.134   0.707 -0.0258 -0.3342 -0.2667
  353TMC3    C6 5342   3.470   0.060   0.711 -0.1014  0.5367 -0.6097
  353TMC3     C 5343   3.486   0.451   0.849  0.1335  0.1004 -0.6670
  353TMC3     O 5344   3.592   0.475   0.907  0.3766  0.1062 -0.1139
  353TMC3     H 5345   3.661   0.275   0.877  0.8689  0.1259 -0.0204
  353TMC3    H1 5346   3.266   0.319   0.751  1.7355  2.1575 -1.2794
  353TMC3    H2 5347   3.478   4.696   0.674 -0.3530  0.3578 -0.1810
  353TMC3    C7 5348   3.236   0.073   0.650  0.3216  0.2013  0.2899
  353TMC3    C8 5349   3.677   0.023   0.845 -0.2248  0.6244 -0.2706
  353TMC3    O1 5350   3.228   4.690   0.645  0.0169  0.3098  0.1939
  353TMC3    O2 5351   3.783   0.075   0.887 -0.2753 -0.1340 -0.5564
  354TMC3    C1 5352   0.142   1.250  13.413  0.2129  0.3354  0.0688
  354TMC3    C2 5353   0.114   1.375  13.359 -0.4976 -0.7071  0.2946
  354TMC3    C3 5354   0.168   1.409  13.235 -0.1690 -0.8087 -0.5668
  354TMC3    C4 5355   0.242   1.177  13.351  0.5010 -0.3712 -1.5107
  354TMC3    C5 5356   0.296   1.214  13.233 -0.8880 -0.3101  0.4263
  354TMC3    C6 5357   0.266   1.329  13.173 -0.0273  0.0376  0.4283
  354TMC3     C 5358   0.062   1.195  13.523  0.0221  0.2755 -0.1284
  354TMC3     O 5359   0.035   1.077  13.528  0.1567  0.3133  0.3838
  354TMC3     H 5360   0.026   1.431  13.389  1.1194  2.2487 -0.5227
  354TMC3    H1 5361   0.267   1.082  13.396 -0.4399  0.1450  0.0799
  354TMC3    H2 5362   0.291   1.344  13.068  1.3132 -1.4628  0.5229
  354TMC3    C7 5363   0.376   1.112  13.169 -0.7852  0.7802 -0.2514
  354TMC3    C8 5364   0.122   1.532  13.169  0.0203  0.0382  0.6066
  354TMC3    O1 5365   0.371   0.999  13.210  0.2276 -0.1282  0.1218
  354TMC3    O2 5366   0.013   1.581  13.210  0.0378 -0.2951 -0.5774
  355MPD2     C 5367   0.140   2.191  11.922 -0.2519 -0.5590 -0.1340
  355MPD2    C1 5368   0.178   2.234  11.798 -0.8007 -0.5224  0.7255
  355MPD2    C2 5369   0.310   2.264  11.793 -0.0520  0.3641  0.8271
  355MPD2    C3 5370   0.397   2.269  11.907 -0.7778  0.0047  0.3880
  355MPD2    C4 5371   0.350   2.222  12.023  0.7459 -0.0722 -0.3679
  355MPD2    C5 5372   0.225   2.177  12.030 -0.4737 -0.0325 -0.4006
  355MPD2     H 5373   0.361   2.277  11.698 -0.8650  0.0001  0.3455
  355MPD2    H1 5374   0.407   2.218  12.114  0.8004 -0.1373 -0.4051
  355MPD2    H2 5375   0.036   2.165  11.940  0.0062 -0.8356  0.9868
  355MPD2    H3 5376   0.191   2.148  12.129  4.3391  0.1612  1.3312
  355MPD2     N 5377   0.535   2.307  11.897  0.4932  0.2773 -0.1652
  355MPD2    H5 5378   0.572   2.334  11.988  1.9159  0.8399 -0.9067
  355MPD2    N1 5379   0.087   2.243  11.689  0.5052 -0.5138 -0.5342
  355MPD2    H7 5380   4.728   2.225  11.715  1.6637 -3.0657  1.8843
  356TMC3    C1 5381   0.720   2.433  11.796 -0.7164  0.0855  0.0762
  356TMC3    C2 5382   0.782   2.489  11.682  0.2147  0.2386 -0.2217
  356TMC3    C3 5383   0.880   2.580  11.683 -1.0745 -0.9133 -0.2573
  356TMC3    C4 5384   0.762   2.472  11.923  0.3442  0.3742  1.2181
  356TMC3    C5 5385   0.867   2.560  11.914  0.2249 -0.1319  0.0527
  356TMC3    C6 5386   0.919   2.625  11.806 -1.3668  0.1268  0.4286
  356TMC3     C 5387   0.607   2.336  11.777 -0.3864 -0.1117  0.2252
  356TMC3     O 5388   0.567   2.326  11.661 -0.6776  0.1737  0.1346
  356TMC3     H 5389   0.742   2.454  11.587 -1.1020 -2.1629  1.2210
  356TMC3    H1 5390   0.716   2.435  12.014 -2.7588  2.4734  0.5126
  356TMC3    H2 5391   1.002   2.695  11.811 -0.7953 -0.3144 -2.6509
  356TMC3    C7 5392   0.910   2.607  12.039  0.0487 -0.5552 -0.1930
  356TMC3    C8 5393   0.936   2.631  11.558  0.2135 -0.0872 -0.8465
  356TMC3    O1 5394   0.914   2.522  12.131 -0.9471 -0.7883 -0.1439
  356TMC3    O2 5395   0.906   2.563  11.461  0.1479  0.4058  0.2299
  357MPD2     C 5396   4.492   2.795   0.927 -0.6757  0.0200 -0.5988
  357MPD2    C1 5397   4.521   2.691   1.010 -0.0642  0.1161 -0.4288
  357MPD2    C2 5398   4.478   2.706   1.141 -0.8752 -0.0464 -0.4552
  357MPD2    C3 5399   4.398   2.811   1.176  0.5238  0.2671 -0.3928
  357MPD2    C4 5400   4.369   2.910   1.092 -0.2192  0.4166 -0.3387
  357MPD2    C5 5401   4.428   2.908   0.971  0.6915  0.3704  0.9512
  357MPD2     H 5402   4.505   2.632   1.216  0.7617  3.4632  2.3879
  357MPD2    H1 5403   4.300   2.992   1.111  0.7896  0.9312  1.0784
  357MPD2    H2 5404   4.525   2.793   0.824  0.6555  0.4197 -0.1818
  357MPD2    H3 5405   4.408   2.981   0.893  2.9408 -1.9893 -1.8581
  357MPD2     N 5406   4.324   2.800   1.300 -0.0361 -0.5268 -0.3944
  357MPD2    H5 5407   4.239   2.855   1.308  0.0441 -0.3450 -0.7872
  357MPD2    N1 5408   4.586   2.577   0.958  0.2646 -0.7081 -0.3474
  357MPD2    H7 5409   4.587   2.560   0.858 -2.0942 -3.1738  0.0586
  358TMC3    C1 5410   4.689   2.366   0.969 -0.0725 -0.6124  0.2479
  358TMC3    C2 5411   4.607   2.310   0.871  0.8554 -0.0964  0.2586
  358TMC3    C3 5412   4.596   2.175   0.866 -0.2791  0.5383 -0.2332
  358TMC3    C4 5413   0.001   2.280   1.063  0.0135 -0.2649 -0.1514
  358TMC3    C5 5414   4.712   2.146   1.062  0.5572 -0.6131 -0.3035
  358TMC3    C6 5415   4.639   2.090   0.961 -0.0854  0.9664  0.0873
  358TMC3     C 5416   4.661   2.493   1.034  1.2761  0.4404  0.6402
  358TMC3     O 5417   4.690   2.507   1.154 -0.1612 -0.1724  0.0157
  358TMC3     H 5418   4.575   2.364   0.782 -1.8004  0.4540  1.5402
  358TMC3    H1 5419   0.065   2.325   1.138  2.1996 -2.2152 -0.8296
  358TMC3    H2 5420   4.650   1.985   0.937 -1.4557  1.5357 -3.1189
  358TMC3    C7 5421   0.061   2.065   1.136 -0.1435  0.5084 -0.0157
  358TMC3    C8 5422   4.508   2.110   0.768  0.1338  0.4124 -0.2429
  358TMC3    O1 5423   0.148   2.113   1.202  0.1080  0.3172  0.0712
  358TMC3    O2 5424   4.485   2.163   0.660  0.2510  0.1169  0.1365
  359MPD2     C 5425   1.015   0.841  12.297 -0.0634 -0.4699  0.1779
  359MPD2    C1 5426   0.895   0.900  12.265 -0.3532 -0.3426 -0.5573
  359MPD2    C2 5427   0.780   0.853  12.324 -0.0117 -0.1321 -0.1050
  359MPD2    C3 5428   0.770   0.751  12.414 -0.4844  0.3734 -0.2445
  359MPD2    C4 5429   0.888   0.686  12.441  0.6995  0.5988  0.6072
  359MPD2    C5 5430   1.010   0.741  12.392 -0.5365 -0.8392  0.5289
  359MPD2     H 5431   0.687   0.907  12.307  0.4711  2.3273  4.9827
  359MPD2    H1 5432   0.887   0.606  12.515 -1.5072 -0.8341 -0.9798
  359MPD2    H2 5433   1.112   0.876  12.265  0.4056 -2.0812 -0.1974
  359MPD2    H3 5434   1.099   0.691  12.427 -2.4535 -1.6894  4.1527
  359MPD2     N 5435   0.643   0.708  12.461  0.4078  0.1453  0.4856
  359MPD2    H5 5436   0.562   0.758  12.427  1.9173  1.1418 -1.6859
  359MPD2    N1 5437   0.877   1.001  12.167  0.1038 -0.3937 -0.0669
  359MPD2    H7 5438   0.784   1.034  12.142 -0.0455 -1.1589 -0.5190
  360TMC3    C1 5439   0.923   1.155  12.002  0.5866 -0.6122 -0.0899
  360TMC3    C2 5440   0.995   1.271  11.985 -0.2658 -0.5341 -0.2285
  360TMC3    C3 5441   0.918   1.369  11.929  0.7722 -0.6939 -0.7315
  360TMC3    C4 5442   0.799   1.132  11.951  0.3439 -0.6420 -0.1911
  360TMC3    C5 5443   0.736   1.237  11.893  0.8997  0.2638 -0.3123
  360TMC3    C6 5444   0.795   1.360  11.884 -0.1928  0.2766  0.0200
  360TMC3     C 5445   0.975   1.065  12.103 -0.0692  0.2024 -0.0804
  360TMC3     O 5446   1.097   1.071  12.125 -0.7161 -0.3514 -0.5356
  360TMC3     H 5447   1.089   1.294  12.033 -0.4536 -1.4982  0.6058
  360TMC3    H1 5448   0.763   1.031  11.934 -1.0399 -0.0079 -1.0035
  360TMC3    H2 5449   0.748   1.447  11.840 -0.8691 -0.6844 -1.1757
  360TMC3    C7 5450   0.623   1.221  11.803  0.3487 -0.8125 -0.6473
  360TMC3    C8 5451   0.996   1.468  11.859  0.5220 -0.3252  0.2325
  360TMC3    O1 5452   0.613   1.314  11.723 -0.7053  0.2008 -0.5925
  360TMC3    O2 5453   0.957   1.580  11.849  0.3185 -0.4374  0.1538
  361MPD2     C 5454   1.394   4.452  16.963 -0.0272 -0.4488  0.2373
  361MPD2    C1 5455   1.431   4.583  16.935  0.1828 -0.0041 -0.0047
  361MPD2    C2 5456   1.557   4.606  16.883  0.6537  0.0378  0.6349
  361MPD2    C3 5457   1.638   4.495  16.854 -0.6333  0.0339 -0.0884
  361MPD2    C4 5458   1.598   4.364  16.871 -0.1142 -0.0118 -0.4566
  361MPD2    C5 5459   1.477   4.344  16.939  0.2714  0.8056 -0.2678
  361MPD2     H 5460   1.582   4.711  16.876 -1.4601  0.5536  0.8299
  361MPD2    H1 5461   1.663   4.278  16.863 -0.1826 -0.0252 -0.9040
  361MPD2    H2 5462   1.291   4.430  16.991 -0.0815  0.4592  0.7427
  361MPD2    H3 5463   1.450   4.250  16.985  0.7222  1.3163  1.0568
  361MPD2     N 5464   1.771   4.489  16.813 -0.2058  0.4522  0.4209
  361MPD2    H5 5465   1.814   4.397  16.817 -1.1520  0.0253  0.7918
  361MPD2    N1 5466   1.345   4.693  16.960 -0.4079  1.4094  0.3018
  361MPD2    H7 5467   1.371   0.049  16.930 -0.0089  1.5791  1.1935
  362TMC3    C1 5468   1.144   0.075  17.012  1.3475  0.0147 -0.1285
  362TMC3    C2 5469   1.031   0.095  17.083  0.2388 -0.5251 -0.0229
  362TMC3    C3 5470   0.972   0.217  17.084  0.1383  0.1038  0.4198
  362TMC3    C4 5471   1.183   0.170  16.920 -0.4896 -0.2635 -0.0451
  362TMC3    C5 5472   1.122   0.289  16.922  0.3747  0.6351 -0.2614
  362TMC3    C6 5473   1.019   0.318  17.002  0.0753  0.1336 -0.4161
  362TMC3     C 5474   1.221   4.687  17.019 -0.5187  0.4216  0.9604
  362TMC3     O 5475   1.181   4.606  17.100  0.2186  0.7402 -0.0527
  362TMC3     H 5476   0.997   0.011  17.142  4.8698 -1.1030  1.8267
  362TMC3    H1 5477   1.270   0.161  16.856  0.5256  2.1374  0.9918
  362TMC3    H2 5478   0.969   0.412  16.982 -0.3173  0.6780  3.1705
  362TMC3    C7 5479   1.149   0.389  16.818  0.0690 -0.2755  0.4256
  362TMC3    C8 5480   0.850   0.226  17.160  0.1264  0.2707 -0.4323
  362TMC3    O1 5481   1.127   0.507  16.836 -0.0214 -0.0045  0.3565
  362TMC3    O2 5482   0.788   0.124  17.196  0.6029  0.3079 -0.0210
  363TMC3    C1 5483   1.587   3.283   9.441 -0.1073 -0.2797 -0.1307
  363TMC3    C2 5484   1.639   3.255   9.560  0.2029 -0.2668 -0.4624
  363TMC3    C3 5485   1.587   3.147   9.631 -0.2912  0.1852  0.5863
  363TMC3    C4 5486   1.476   3.221   9.395  0.0683  0.0087 -0.6884
  363TMC3    C5 5487   1.427   3.116   9.470  0.5324 -1.0588  0.0898
  363TMC3    C6 5488   1.474   3.081   9.595 -0.4282 -0.3403  1.0371
  363TMC3     C 5489   1.649   3.365   9.328 -0.5304 -0.3109  0.7150
  363TMC3     O 5490   1.571   3.406   9.243 -0.3651 -0.0759 -0.0266
  363TMC3     H 5491   1.728   3.305   9.596  1.2822 -1.7018 -1.1562
  363TMC3    H1 5492   1.430   3.249   9.301  0.3589  0.3750 -0.7188
  363TMC3    H2 5493   1.426   3.004   9.654 -0.0222 -1.4255 -0.0505
  363TMC3    C7 5494   1.321   3.038   9.418  0.4021 -0.2614  0.4019
  363TMC3    C8 5495   1.679   3.082   9.718  0.3472  0.0601 -0.2847
  363TMC3    O1 5496   1.252   2.981   9.500 -0.0999 -0.3433 -0.4995
  363TMC3    O2 5497   1.761   3.156   9.771 -0.3468 -0.0110 -0.4677
  364MPD2     C 5498   3.848   1.755  10.897  0.2054  0.4391  0.5984
  364MPD2    C1 5499   3.921   1.709  10.786 -0.3297 -0.8930 -0.2752
  364MPD2    C2 5500   3.974   1.581  10.792 -0.4306  0.0035  0.2034
  364MPD2    C3 5501   3.957   1.504  10.900 -0.3786  0.1610  0.2055
  364MPD2    C4 5502   3.888   1.553  11.008  0.2494  0.4785 -0.1719
  364MPD2    C5 5503   3.831   1.676  11.007 -0.2440  0.1927 -0.1133
  364MPD2     H 5504   4.021   1.540  10.704 -0.1942  0.1104  0.2780
  364MPD2    H1 5505   3.870   1.498  11.100  1.5806 -0.7229 -0.6267
  364MPD2    H2 5506   3.813   1.858  10.903 -1.2163  0.0794 -1.7223
  364MPD2    H3 5507   3.765   1.707  11.087  0.5949 -0.4062  0.8056
  364MPD2     N 5508   4.024   1.379  10.915  0.2908 -0.4694 -0.1400
  364MPD2    H5 5509   4.009   1.331  11.004 -0.3541  0.0172  0.0166
  364MPD2    N1 5510   3.946   1.790  10.672 -0.2592  0.1061  0.0918
  364MPD2    H7 5511   3.935   1.890  10.689  0.3582  0.0994  0.5090
  365TMC3    C1 5512   4.002   1.859  10.450  0.2567 -0.1707 -0.4908
  365TMC3    C2 5513   4.043   1.818  10.328 -0.2599 -0.0471  0.8004
  365TMC3    C3 5514   4.048   1.914  10.229  0.0483 -0.8471 -0.1492
  365TMC3    C4 5515   3.969   1.989  10.480  0.0044  0.2791  0.4353
  365TMC3    C5 5516   3.974   2.081  10.374 -0.2215 -0.9405  0.5233
  365TMC3    C6 5517   4.022   2.042  10.253 -0.4472  0.0672 -0.1521
  365TMC3     C 5518   3.982   1.750  10.549 -0.2308  0.5494 -0.2739
  365TMC3     O 5519   3.979   1.639  10.502  0.2039  0.1625  0.8426
  365TMC3     H 5520   4.037   1.714  10.300 -0.9894  0.1327  0.2771
  365TMC3    H1 5521   3.904   2.007  10.565 -1.6015 -0.5772 -0.6157
  365TMC3    H2 5522   4.029   2.116  10.175  0.4335 -2.2073 -2.2276
  365TMC3    C7 5523   3.935   2.217  10.401 -0.0888  0.0754  0.0427
  365TMC3    C8 5524   4.108   1.882  10.098 -0.0802 -0.6952  0.8145
  365TMC3    O1 5525   3.912   2.291  10.307 -0.2426 -0.2016 -0.1965
  365TMC3    O2 5526   4.098   1.963  10.009 -0.0304 -0.0607 -0.2841
  366MPD2     C 5527   2.449   2.656  15.393  0.1918 -0.1434 -0.0227
  366MPD2    C1 5528   2.504   2.775  15.364  0.4420  0.1497 -0.1191
  366MPD2    C2 5529   2.640   2.777  15.328  0.2041  0.1013 -0.2133
  366MPD2    C3 5530   2.723   2.667  15.322 -0.7760  0.0279 -0.2013
  366MPD2    C4 5531   2.660   2.547  15.363 -0.2084  0.0433 -0.2387
  366MPD2    C5 5532   2.528   2.546  15.400  0.2707  0.5974 -0.6990
  366MPD2     H 5533   2.688   2.868  15.293 -2.6982  1.5708 -0.3111
  366MPD2    H1 5534   2.708   2.450  15.366 -1.4060 -0.5345  0.5012
  366MPD2    H2 5535   2.344   2.638  15.412 -0.4637  3.9042  0.1322
  366MPD2    H3 5536   2.478   2.453  15.424  0.6259  0.4078 -0.6912
  366MPD2     N 5537   2.851   2.693  15.265  0.4603 -0.3423 -0.4228
  366MPD2    H5 5538   2.867   2.786  15.227  0.0989  0.3066  1.0229
  366MPD2    N1 5539   2.440   2.898  15.371 -0.2511  0.3144 -0.5892
  366MPD2    H7 5540   2.498   2.980  15.358  2.7671 -1.4061  1.8165
  367TMC3    C1 5541   2.277   3.058  15.409 -0.5517 -0.1795 -0.1200
  367TMC3    C2 5542   2.368   3.130  15.472  0.1257  0.4298 -0.6589
  367TMC3    C3 5543   2.351   3.268  15.475  0.2909 -0.1499 -0.0597
  367TMC3    C4 5544   2.159   3.104  15.353 -0.1157 -0.2673 -0.6494
  367TMC3    C5 5545   2.146   3.234  15.360  0.1532 -1.1138  0.1257
  367TMC3    C6 5546   2.236   3.318  15.417  0.0947 -0.0767 -0.1274
  367TMC3     C 5547   2.308   2.917  15.395  0.4838  0.1633 -0.3172
  367TMC3     O 5548   2.214   2.839  15.382 -0.5544 -0.0862 -0.0767
  367TMC3     H 5549   2.443   3.081  15.533  0.1938  1.0703 -0.2251
  367TMC3    H1 5550   2.091   3.034  15.307 -1.2253 -1.0800  2.2123
  367TMC3    H2 5551   2.230   3.426  15.412  2.5429  0.0702 -0.2187
  367TMC3    C7 5552   2.059   3.307  15.255 -0.8783  0.3563  0.4015
  367TMC3    C8 5553   2.458   3.348  15.527 -0.0552  0.3455 -0.5475
  367TMC3    O1 5554   2.051   3.431  15.265  0.7129  0.8345  0.5244
  367TMC3    O2 5555   2.543   3.278  15.585 -0.3767  0.1887  0.1570
  368MPD2     C 5556   4.162   4.337  13.598  0.0586 -0.1434 -0.0786
  368MPD2    C1 5557   4.119   4.376  13.473  0.0563  0.3998  0.4790
  368MPD2    C2 5558   4.175   4.495  13.422  0.2256 -0.7207  0.0055
  368MPD2    C3 5559   4.274   4.561  13.486  0.4911  0.3158 -0.1756
  368MPD2    C4 5560   4.318   4.517  13.612 -0.2026  0.1826 -0.1805
  368MPD2    C5 5561   4.265   4.401  13.662 -0.0260  0.0699  0.1978
  368MPD2     H 5562   4.150   4.513  13.318  0.5815  0.6695  0.1643
  368MPD2    H1 5563   4.391   4.575  13.665 -1.0226 -0.0982  1.2489
  368MPD2    H2 5564   4.113   4.252  13.645  1.7183  0.1241  2.1345
  368MPD2    H3 5565   4.283   4.377  13.766 -2.1149 -0.7048  0.3876
  368MPD2     N 5566   4.345   4.662  13.418  0.5655  0.6651 -0.2607
  368MPD2    H5 5567   4.433   4.693  13.459 -0.6975  0.2513  2.7016
  368MPD2    N1 5568   4.018   4.295  13.417 -0.6440 -0.5270  0.3997
  368MPD2    H7 5569   4.022   4.198  13.448 -3.2821 -0.8468 -0.2438
  369TMC3    C1 5570   3.892   4.473  13.328  0.4706 -0.4625  0.4987
  369TMC3    C2 5571   3.918   4.572  13.235  0.3596 -0.4686 -0.2254
  369TMC3    C3 5572   3.824   4.667  13.206 -0.3241 -0.3082 -0.3169
  369TMC3    C4 5573   3.773   4.460  13.387 -0.4274 -0.1564  0.4857
  369TMC3    C5 5574   3.676   4.551  13.353 -0.4281  0.3744 -0.8401
  369TMC3    C6 5575   3.703   4.661  13.272 -0.1527  0.0872 -0.0825
  369TMC3     C 5576   3.939   4.335  13.310 -0.2593 -0.2613 -0.2434
  369TMC3     O 5577   3.879   4.263  13.231 -0.4313 -0.5050 -0.1712
  369TMC3     H 5578   4.011   4.564  13.180  0.3780  2.1230 -0.5861
  369TMC3    H1 5579   3.753   4.380  13.457  0.1960  0.6996  1.6430
  369TMC3    H2 5580   3.623   4.723  13.232 -0.5384 -0.6755 -0.4895
  369TMC3    C7 5581   3.540   4.517  13.402 -0.4312 -0.7743  0.5414
  369TMC3    C8 5582   3.849   0.028  13.106 -0.0521  0.4856 -0.0922
  369TMC3    O1 5583   3.535   4.437  13.493  0.0528  0.1530  0.3496
  369TMC3    O2 5584   3.755   0.084  13.053 -0.1532 -0.9013  0.6843
  370TMC3    C1 5585   2.869   1.024  16.376 -0.3160 -0.1539  0.1674
  370TMC3    C2 5586   2.819   0.928  16.459  0.7981  0.4021  1.1171
  370TMC3    C3 5587   2.820   0.799  16.408 -0.0064 -0.0334 -0.6287
  370TMC3    C4 5588   2.929   0.996  16.254 -0.0414 -0.0596  0.0764
  370TMC3    C5 5589   2.939   0.864  16.213 -0.0962 -0.4044  0.2071
  370TMC3    C6 5590   2.893   0.767  16.292  0.0122  0.7458  0.7443
  370TMC3     C 5591   2.905   1.147  16.449 -0.8731 -0.2499  0.4405
  370TMC3     O 5592   2.888   1.145  16.572  0.5779 -0.5798  0.0749
  370TMC3     H 5593   2.770   0.961  16.549 -0.3489 -1.9702  1.3598
  370TMC3    H1 5594   2.980   1.073  16.197 -0.1104  0.3284  0.5403
  370TMC3    H2 5595   2.887   0.662  16.267 -0.7885  0.4082  2.3438
  370TMC3    C7 5596   3.020   0.840  16.099 -0.7366 -0.3079 -0.4005
  370TMC3    C8 5597   2.785   0.691  16.501 -0.7441  1.1393 -0.1758
  370TMC3    O1 5598   3.039   0.933  16.025  0.4553  0.0608  0.4106
  370TMC3    O2 5599   2.815   0.578  16.468  0.1448  0.1765 -0.2679
  371TMC3    C1 5600   4.461   4.233  15.532  0.0544 -0.2417  0.4440
  371TMC3    C2 5601   4.335   4.175  15.549 -0.8222  0.0833 -0.1175
  371TMC3    C3 5602   4.226   4.264  15.551 -0.5457  0.0890  0.8624
  371TMC3    C4 5603   4.478   4.374  15.525 -0.2708 -0.6388  0.9584
  371TMC3    C5 5604   4.362   4.457  15.523  0.1888 -0.2718  0.3102
  371TMC3    C6 5605   4.240   4.401  15.538  0.7318  0.2628  0.3573
  371TMC3     C 5606   4.566   4.153  15.473  0.3216 -1.0823 -0.1606
  371TMC3     O 5607   4.666   4.207  15.419  0.2589 -0.3501  0.1049
  371TMC3     H 5608   4.315   4.069  15.562 -1.2983 -0.0136 -1.6390
  371TMC3    H1 5609   4.580   4.401  15.503  0.6100 -3.7049  1.2618
  371TMC3    H2 5610   4.150   4.461  15.528  0.9215  0.3885 -0.6745
  371TMC3    C7 5611   4.366   4.593  15.466  0.0103 -0.0773  0.3947
  371TMC3    C8 5612   4.097   4.212  15.590 -0.6901  0.4832 -0.5451
  371TMC3    O1 5613   4.260   4.644  15.435  0.2662 -0.2202  0.2572
  371TMC3    O2 5614   4.085   4.087  15.578  0.2618 -0.1929 -0.0073
  372MPD2     C 5615   3.591   0.262  13.379 -0.5687 -0.2273  0.3291
  372MPD2    C1 5616   3.702   0.243  13.449 -0.1462  0.2399 -0.0330
  372MPD2    C2 5617   3.703   0.159  13.555 -0.4177  0.0542 -0.0544
  372MPD2    C3 5618   3.589   0.094  13.596  0.3743  0.8210  0.4656
  372MPD2    C4 5619   3.477   0.106  13.519  0.7582  0.4457  0.4172
  372MPD2    C5 5620   3.474   0.196  13.418 -0.2410 -0.6682  0.1723
  372MPD2     H 5621   3.787   0.155  13.624 -0.8548 -0.2863  0.4649
  372MPD2    H1 5622   3.392   0.041  13.541  1.0194  0.4578  1.4463
  372MPD2    H2 5623   3.583   0.328  13.294  1.2641 -0.5993 -0.1271
  372MPD2    H3 5624   3.379   0.207  13.366 -1.2868 -1.4204  1.9090
  372MPD2     N 5625   3.601   0.006  13.706  0.0089 -0.1529 -0.1278
  372MPD2    H5 5626   3.694   0.002  13.747  1.2498 -1.1963 -3.0185
  372MPD2    N1 5627   3.828   0.296  13.415 -0.0984  0.5740 -0.4198
  372MPD2    H7 5628   3.907   0.253  13.463 -0.2093  1.8500  0.9030
  373TMC3    C1 5629   3.573   4.549  13.828 -0.5271  0.5772  0.5492
  373TMC3    C2 5630   3.479   4.499  13.908 -0.5436  0.4180 -0.8339
  373TMC3    C3 5631   3.480   4.366  13.940  0.2521  0.1366  0.3825
  373TMC3    C4 5632   3.664   4.467  13.769  0.6032  0.6713  1.2134
  373TMC3    C5 5633   3.655   4.330  13.787  0.4821  0.2669  0.0152
  373TMC3    C6 5634   3.559   4.278  13.872 -0.1606  0.1010 -0.3522
  373TMC3     C 5635   3.508   4.648  13.743 -0.0821  0.7341 -0.2378
  373TMC3     O 5636   3.392   4.634  13.713  0.2131  0.0009 -0.0991
  373TMC3     H 5637   3.418   4.562  13.972 -0.1056 -1.8440  1.7946
  373TMC3    H1 5638   3.731   4.501  13.691  2.0464  1.7848  2.9261
  373TMC3    H2 5639   3.555   4.173  13.900 -0.9557 -0.2667 -1.8907
  373TMC3    C7 5640   3.744   4.237  13.717 -0.1661  0.3195 -0.4420
  373TMC3    C8 5641   3.465   4.334  14.077 -0.1492 -0.3238 -0.1556
  373TMC3    O1 5642   3.859   4.270  13.686  0.0339 -0.4834 -0.2672
  373TMC3    O2 5643   3.391   4.403  14.144 -0.2792 -0.4584  0.0148
  374TMC3    C1 5644   4.569   0.906   9.620 -0.3577 -0.1022 -0.1974
  374TMC3    C2 5645   4.699   0.953   9.636 -0.5590 -0.2841 -0.4061
  374TMC3    C3 5646   4.735   1.053   9.543 -0.3712  0.3510  0.2875
  374TMC3    C4 5647   4.484   0.953   9.523 -0.2180 -0.3910  0.0135
  374TMC3    C5 5648   4.535   1.048   9.437  0.5916  0.2456  0.1907
  374TMC3    C6 5649   4.662   1.094   9.434 -0.0712 -0.0251  0.4657
  374TMC3     C 5650   4.502   0.836   9.729 -0.1248  0.5596 -0.7215
  374TMC3     O 5651   4.388   0.802   9.699  0.4169 -0.7885 -0.6668
  374TMC3     H 5652   0.018   0.925   9.723 -0.4117 -1.4258 -0.8707
  374TMC3    H1 5653   4.382   0.915   9.515 -1.2287  1.8587  2.3124
  374TMC3    H2 5654   4.713   1.163   9.368 -1.2311  0.3602 -0.0229
  374TMC3    C7 5655   4.432   1.127   9.371 -0.3095 -0.3464 -0.1510
  374TMC3    C8 5656   0.090   1.154   9.593  0.0456 -0.6194 -0.1598
  374TMC3    O1 5657   4.318   1.107   9.408 -0.5433 -0.2164  0.4213
  374TMC3    O2 5658   0.079   1.267   9.554  0.3609  0.4202 -0.1451
  375MPD2     C 5659   4.428   1.672  16.984 -0.1861 -0.5881 -0.3199
  375MPD2    C1 5660   4.304   1.627  16.947  0.3820  0.4703 -0.0652
  375MPD2    C2 5661   4.295   1.544  16.841 -0.6234  0.1543  0.1245
  375MPD2    C3 5662   4.402   1.483  16.782 -0.8530  0.0579  0.2588
  375MPD2    C4 5663   4.530   1.515  16.832 -0.1382 -0.1743 -0.1193
  375MPD2    C5 5664   4.540   1.608  16.933  0.5701 -0.1669 -0.8087
  375MPD2     H 5665   4.199   1.520  16.797 -1.2918 -0.5467  2.0000
  375MPD2    H1 5666   4.619   1.454  16.817 -1.2708 -1.4467 -1.5174
  375MPD2    H2 5667   4.439   1.747  17.061 -0.9831  0.2565 -1.0256
  375MPD2    H3 5668   4.638   1.641  16.966  1.1692 -3.4291  0.6285
  375MPD2     N 5669   4.401   1.386  16.681  0.3664 -0.4786  0.3533
  375MPD2    H5 5670   4.493   1.357  16.648 -0.1814 -1.3027 -0.4626
  375MPD2    N1 5671   4.183   1.694  16.987 -0.2005 -0.2634 -0.2898
  375MPD2    H7 5672   4.106   1.680  16.922  1.3940 -1.5008 -1.9442
  376TMC3    C1 5673   4.325   1.191  16.570 -0.4387  0.3243 -0.3249
  376TMC3    C2 5674   4.455   1.140  16.589  0.3291  0.1499  0.9565
  376TMC3    C3 5675   4.493   1.043  16.497  0.0737 -0.1153  0.1178
  376TMC3    C4 5676   4.246   1.157  16.468 -0.4154  0.0568 -0.4224
  376TMC3    C5 5677   4.288   1.066  16.376 -0.1383  0.8852 -0.7491
  376TMC3    C6 5678   4.404   0.995  16.402 -0.3561  0.4330  0.1469
  376TMC3     C 5679   4.289   1.312  16.647  0.0201 -0.3004 -0.1560
  376TMC3     O 5680   4.171   1.312  16.679  0.1083 -0.2615 -0.4166
  376TMC3     H 5681   4.520   1.186  16.662  0.5079 -0.2970  1.0776
  376TMC3    H1 5682   4.152   1.210  16.456 -0.2959  0.2895 -0.3268
  376TMC3    H2 5683   4.440   0.928  16.325 -0.8531  0.5527 -0.1841
  376TMC3    C7 5684   4.301   1.135  16.247 -0.6830 -0.3720  0.1150
  376TMC3    C8 5685   4.632   1.014  16.490 -0.2852 -0.2784  0.0797
  376TMC3    O1 5686   4.413   1.157  16.207  0.0221  0.0411 -0.5288
  376TMC3    O2 5687   4.709   1.107  16.500  0.2203  0.0899 -0.0983
  377MPD2     C 5688   3.123   0.258  13.339  0.7878  0.3560 -0.1580
  377MPD2    C1 5689   3.025   0.197  13.259  0.3265  0.1017 -0.2865
  377MPD2    C2 5690   2.905   0.150  13.312 -0.2147  0.5243  0.4061
  377MPD2    C3 5691   2.888   0.151  13.451  0.3630  0.1136 -0.1849
  377MPD2    C4 5692   2.985   0.206  13.527 -0.2013  0.3393 -0.3419
  377MPD2    C5 5693   3.105   0.259  13.475  0.4168  0.1906  0.0595
  377MPD2     H 5694   2.827   0.107  13.250  0.3931  3.1053 -2.1398
  377MPD2    H1 5695   2.990   0.192  13.634  1.1631 -0.6728 -0.5378
  377MPD2    H2 5696   3.204   0.312  13.293  0.9591 -1.4704 -2.0237
  377MPD2    H3 5697   3.178   0.300  13.544 -0.9621  2.6417  0.0482
  377MPD2     N 5698   2.770   0.107  13.514 -0.1999 -0.1798  0.5777
  377MPD2    H5 5699   2.765   0.108  13.615  3.2829  0.6080  0.7548
  377MPD2    N1 5700   3.055   0.193  13.116  0.1300  0.5656  0.0075
  377MPD2    H7 5701   3.146   0.226  13.086 -0.3428  3.1726  1.4364
  378TMC3    C1 5702   2.985   0.137  12.657  0.0143 -0.1284 -0.6713
  378TMC3    C2 5703   2.938   0.167  12.783  0.3499 -0.1845  0.1936
  378TMC3    C3 5704   3.019   0.144  12.884  0.2339  0.5244  0.1763
  378TMC3    C4 5705   3.110   0.085  12.641  0.1496  0.1386 -0.1905
  378TMC3    C5 5706   3.188   0.059  12.742  0.6176 -0.4920 -0.3883
  378TMC3    C6 5707   3.146   0.087  12.871 -0.5126  0.3823 -0.7888
  378TMC3     C 5708   2.910   0.193  12.547  0.0788 -0.0137 -0.3484
  378TMC3     O 5709   2.969   0.205  12.440  0.2625  0.2587 -0.0607
  378TMC3     H 5710   2.846   0.221  12.803  0.7978  0.5607  0.2201
  378TMC3    H1 5711   3.142   0.062  12.540 -0.9958  0.3273 -0.5888
  378TMC3    H2 5712   3.206   0.052  12.954 -0.7142 -1.1938 -1.3080
  378TMC3    C7 5713   3.337   0.035  12.714 -0.5428  0.4252  0.1891
  378TMC3    C8 5714   2.960   0.147  13.019  0.0955  0.0409 -0.3061
  378TMC3    O1 5715   3.410   0.008  12.808 -0.1781 -0.2098 -0.7062
  378TMC3    O2 5716   2.843   0.124  13.032 -0.4789 -0.2848  0.1554
  379MPD2     C 5717   2.974   3.620  16.287  0.1837 -0.4637  0.3024
  379MPD2    C1 5718   3.095   3.566  16.242 -0.1071  0.2539 -0.0604
  379MPD2    C2 5719   3.168   3.491  16.339 -0.2795  0.3590 -0.0200
  379MPD2    C3 5720   3.118   3.477  16.477  1.1694 -0.4631  0.1037
  379MPD2    C4 5721   2.993   3.539  16.509 -0.9579 -0.7767 -0.5123
  379MPD2    C5 5722   2.932   3.606  16.415 -0.1708  0.0400 -0.1230
  379MPD2     H 5723   3.265   3.452  16.310 -0.3920  1.1311 -1.4209
  379MPD2    H1 5724   2.951   3.528  16.609  0.9629  1.8193  0.5883
  379MPD2    H2 5725   2.912   3.676  16.217  0.6058 -1.1012 -0.5807
  379MPD2    H3 5726   2.833   3.649  16.432 -0.1449 -0.3575  1.0220
  379MPD2     N 5727   3.191   3.419  16.586 -0.1616 -0.1432  0.1639
  379MPD2    H5 5728   3.145   3.422  16.676 -1.9641  1.0190 -0.7994
  379MPD2    N1 5729   3.127   3.588  16.105 -0.2318  0.9265  0.0425
  379MPD2    H7 5730   3.063   3.649  16.056  0.7448 -0.3338 -2.8420
  380TMC3    C1 5731   3.235   3.540  15.907  0.6936 -0.1358 -0.7757
  380TMC3    C2 5732   3.362   3.565  15.852  0.1747  0.3757  0.9068
  380TMC3    C3 5733   3.374   3.604  15.724 -0.1445 -0.1372 -0.0743
  380TMC3    C4 5734   3.122   3.560  15.836  0.1584 -0.2693  0.4027
  380TMC3    C5 5735   3.142   3.606  15.707  0.2147  0.2029 -0.2575
  380TMC3    C6 5736   3.261   3.635  15.652 -0.6674  0.0421 -0.1962
  380TMC3     C 5737   3.240   3.534  16.048  0.3742 -0.8277  0.1980
  380TMC3     O 5738   3.335   3.476  16.098  0.3954  0.2151 -0.4289
  380TMC3     H 5739   3.442   3.543  15.921 -0.2465  3.9478  2.5227
  380TMC3    H1 5740   3.024   3.548  15.879  0.9720 -2.2050  1.6675
  380TMC3    H2 5741   3.271   3.674  15.552  1.7291 -3.7129 -1.4396
  380TMC3    C7 5742   3.029   3.660  15.625 -0.1872 -0.1568 -0.1849
  380TMC3    C8 5743   3.509   3.634  15.667 -0.2657 -0.1358 -0.3772
  380TMC3    O1 5744   3.054   3.767  15.573 -0.5058 -0.4567  0.0931
  380TMC3    O2 5745   3.512   3.636  15.546 -0.1141 -0.4546  0.4222
  381TMC3    C1 5746   2.854   0.038  16.230  0.1197  1.2903  0.7039
  381TMC3    C2 5747   2.944   0.141  16.216  0.1248 -0.4093  0.1202
  381TMC3    C3 5748   2.953   0.227  16.318 -0.2873  0.2996 -0.4105
  381TMC3    C4 5749   2.785   0.012  16.348  0.3615  0.3599 -0.3089
  381TMC3    C5 5750   2.803   0.102  16.450  0.1695  0.5106 -0.0996
  381TMC3    C6 5751   2.890   0.213  16.441 -0.5957 -1.2735  0.4359
  381TMC3     C 5752   2.812   4.715  16.103 -0.4569 -0.0378  0.6968
  381TMC3     O 5753   2.890   0.000  16.013  0.5141 -0.3709 -0.3046
  381TMC3     H 5754   2.997   0.166  16.125  0.3977  0.9722  0.6553
  381TMC3    H1 5755   2.727   4.659  16.356  1.0159  0.1301  1.8347
  381TMC3    H2 5756   2.921   0.275  16.525  0.0467  1.4425 -1.7847
  381TMC3    C7 5757   2.745   0.071  16.572  0.4287 -0.2812  0.6800
  381TMC3    C8 5758   3.066   0.314  16.308  0.6415  0.0620  0.3475
  381TMC3    O1 5759   2.721   4.688  16.589  0.2946  0.4885 -0.4227
  381TMC3    O2 5760   3.156   0.270  16.238 -0.1155 -0.3175  0.3356
  382MPD2     C 5761   2.037   2.814  16.884  0.7293  0.3564  0.0506
  382MPD2    C1 5762   2.100   2.804  17.004 -1.2060 -0.3739 -0.1912
  382MPD2    C2 5763   2.122   2.678  17.054  0.3687 -0.6349 -0.1076
  382MPD2    C3 5764   2.053   2.574  17.006  0.1108  0.4257 -0.2166
  382MPD2    C4 5765   1.980   2.584  16.895 -0.0070 -0.2182  0.5320
  382MPD2    C5 5766   1.980   2.699  16.829  0.4425 -0.9997  0.0105
  382MPD2     H 5767   2.175   2.670  17.148  0.7543  0.8220 -0.1975
  382MPD2    H1 5768   1.915   2.506  16.856 -0.3098 -0.2565  1.1144
  382MPD2    H2 5769   2.061   2.899  16.822  0.9331  2.2512  2.7231
  382MPD2    H3 5770   1.934   2.702  16.731  1.2644 -0.9538 -0.3792
  382MPD2     N 5771   2.041   2.451  17.082 -0.4934  0.1482 -0.0219
  382MPD2    H5 5772   1.975   2.385  17.043  0.6202 -0.8283 -0.2738
  382MPD2    N1 5773   2.145   2.903  17.086 -0.1792  0.1527  0.1065
  382MPD2    H7 5774   2.181   2.876  17.176  1.4315 -0.3849 -0.6882
  383TMC3    C1 5775   2.051   2.311  17.275  0.3237  0.5761  0.2027
  383TMC3    C2 5776   1.933   2.248  17.246  0.1005  0.0804  0.0726
  383TMC3    C3 5777   1.870   2.171  17.338  0.0300 -0.3807 -0.1152
  383TMC3    C4 5778   2.107   2.290  17.398 -0.2360 -0.1840 -0.3397
  383TMC3    C5 5779   2.044   2.201  17.490  0.2742  0.4505 -0.3847
  383TMC3    C6 5780   1.926   2.142  17.459  0.5365 -0.6807  0.5325
  383TMC3     C 5781   2.101   2.421  17.201  0.0971  0.4740 -0.6018
  383TMC3     O 5782   2.194   2.478  17.254 -0.3980  0.1194  0.1765
  383TMC3     H 5783   1.880   2.280  17.157 -1.8953  0.1164  1.2687
  383TMC3    H1 5784   2.204   2.335  17.415 -0.2621 -0.1733 -0.2170
  383TMC3    H2 5785   1.864   2.100  17.537  0.8232 -1.6430  0.2392
  383TMC3    C7 5786   2.108   2.195  17.619  0.1612 -0.0173  0.1909
  383TMC3    C8 5787   1.755   2.095  17.293  0.5815  0.7952 -0.6088
  383TMC3    O1 5788   2.195   2.277  17.635 -0.6846  0.1236 -0.0694
  383TMC3    O2 5789   1.693   2.134  17.196  0.2349 -0.1274  0.2925
  384MPD2     C 5790   3.857   3.205  11.904 -0.0781 -0.4860  0.0970
  384MPD2    C1 5791   3.863   3.076  11.961  0.2769  0.2242  0.0025
  384MPD2    C2 5792   3.987   3.014  11.960  0.0609 -0.7998  0.5823
  384MPD2    C3 5793   4.103   3.088  11.932  0.2271 -0.6173 -0.3596
  384MPD2    C4 5794   4.092   3.220  11.887 -0.7521 -0.0343  0.1955
  384MPD2    C5 5795   3.968   3.265  11.856  0.2634 -0.2526 -0.3231
  384MPD2     H 5796   3.993   2.913  11.997  3.1743 -0.5832  0.6598
  384MPD2    H1 5797   4.179   3.283  11.874 -3.3860  3.3291 -1.0449
  384MPD2    H2 5798   3.764   3.257  11.885 -0.7400 -2.4607 -2.0485
  384MPD2    H3 5799   3.959   3.364  11.811 -0.7025 -0.4904 -0.6519
  384MPD2     N 5800   4.228   3.025  11.949  0.3251 -0.4697  0.6206
  384MPD2    H5 5801   4.314   3.076  11.935 -0.3824  0.9122  1.3233
  384MPD2    N1 5802   3.753   3.000  12.008 -0.8990  0.1960  0.6838
  384MPD2    H7 5803   3.774   2.920  12.067 -0.8771  0.2018  0.6839
  385TMC3    C1 5804   4.378   2.862  12.017  0.3365  0.3353  0.1736
  385TMC3    C2 5805   4.410   2.734  11.986  0.1571 -0.5020  0.1524
  385TMC3    C3 5806   4.423   2.642  12.090  0.3310  0.8397  0.3311
  385TMC3    C4 5807   4.375   2.906  12.149 -0.0476 -0.1459  0.2259
  385TMC3    C5 5808   4.380   2.810  12.245  0.5106  0.3580  0.3612
  385TMC3    C6 5809   4.405   2.677  12.221 -0.2885 -0.3438 -0.2619
  385TMC3     C 5810   4.248   2.887  11.961 -0.1598  0.6126  0.1479
  385TMC3     O 5811   4.175   2.793  11.949 -0.3067 -0.1034  0.1655
  385TMC3     H 5812   4.418   2.715  11.880  1.7838 -2.3186  0.6130
  385TMC3    H1 5813   4.337   3.006  12.170  1.0893  0.6674 -1.6264
  385TMC3    H2 5814   4.428   2.604  12.297  1.3439 -0.2563 -0.6695
  385TMC3    C7 5815   4.271   2.826  12.331 -0.3961  0.1536 -0.0288
  385TMC3    C8 5816   4.385   2.509  12.050  0.1434  0.1979  0.0143
  385TMC3    O1 5817   4.204   2.926  12.321  0.3334  0.1701 -0.3536
  385TMC3    O2 5818   4.395   2.425  12.140 -0.1075  0.4948  0.2475
  386TMC3    C1 5819   4.186   0.501  11.436  1.3330  0.7354  0.1612
  386TMC3    C2 5820   4.175   0.605  11.352  0.8449 -0.4530  0.2930
  386TMC3    C3 5821   4.108   0.717  11.402 -0.0214 -0.6646 -0.4931
  386TMC3    C4 5822   4.156   0.507  11.571  0.0330  0.2193  0.5593
  386TMC3    C5 5823   4.105   0.629  11.620  0.0874 -0.7520 -0.0141
  386TMC3    C6 5824   4.073   0.729  11.536 -0.2876 -0.0629  0.0731
  386TMC3     C 5825   4.237   0.381  11.378  0.2076 -1.3865  0.4631
  386TMC3     O 5826   4.230   0.375  11.255 -0.0796 -0.0001 -0.3795
  386TMC3     H 5827   4.214   0.596  11.252  0.8312 -1.7023  0.4002
  386TMC3    H1 5828   4.144   0.418  11.632  0.8934  0.0720  0.5208
  386TMC3    H2 5829   4.019   0.815  11.576 -0.8129  0.2885 -1.3971
  386TMC3    C7 5830   4.017   0.614  11.738 -0.2222  0.6829  0.2970
  386TMC3    C8 5831   4.063   0.817  11.310  0.3724  0.3226 -0.0882
  386TMC3    O1 5832   4.065   0.558  11.836  0.0885 -0.1692  0.1128
  386TMC3    O2 5833   4.024   0.920  11.359  0.4460  0.3119 -0.4276
  387MPD2     C 5834   1.970   1.201   9.804  0.0084  0.1135 -0.4082
  387MPD2    C1 5835   2.006   1.139   9.920 -0.0246  0.0229  0.8382
  387MPD2    C2 5836   1.976   1.008   9.947  0.2285 -0.0715 -0.2479
  387MPD2    C3 5837   1.907   0.927   9.858  0.0654  0.2203  0.3356
  387MPD2    C4 5838   1.850   0.993   9.753  0.3577  0.8512 -0.0812
  387MPD2    C5 5839   1.895   1.117   9.724  0.2103 -0.4432 -0.1861
  387MPD2     H 5840   2.024   0.969  10.036  1.1858 -0.8105 -1.0824
  387MPD2    H1 5841   1.786   0.946   9.680  1.6503 -1.3889  0.2288
  387MPD2    H2 5842   2.000   1.301   9.773 -2.3275  0.3368 -1.9278
  387MPD2    H3 5843   1.863   1.156   9.628  0.4600 -2.7297 -1.1933
  387MPD2     N 5844   1.913   0.792   9.884  0.1748  0.3490 -0.2142
  387MPD2    H5 5845   1.975   0.749   9.952  0.3786  0.2077 -0.4889
  387MPD2    N1 5846   2.092   1.195  10.010 -0.0812  0.8787  0.5626
  387MPD2    H7 5847   2.115   1.134  10.087 -0.7580  0.1795  0.2106
  388TMC3    C1 5848   2.284   1.306  10.072 -0.9260 -0.1609  0.3602
  388TMC3    C2 5849   2.325   1.418  10.128  0.1215  0.3141  0.2944
  388TMC3    C3 5850   2.451   1.411  10.194 -0.0069  0.7228 -0.0297
  388TMC3    C4 5851   2.350   1.187  10.075  0.9384 -0.0867  0.8523
  388TMC3    C5 5852   2.466   1.175  10.149 -0.3033 -0.1394 -0.2210
  388TMC3    C6 5853   2.519   1.288  10.210  0.0906 -0.3856 -0.2000
  388TMC3     C 5854   2.162   1.312   9.996  0.5738  0.4432  0.6589
  388TMC3     O 5855   2.151   1.409   9.926  0.1437  0.1782  0.2559
  388TMC3     H 5856   2.264   1.507  10.131 -1.4830 -0.7715  0.2020
  388TMC3    H1 5857   2.311   1.100  10.023 -0.2705  1.0593 -0.1756
  388TMC3    H2 5858   2.602   1.288  10.280 -0.2610  1.1409  0.2112
  388TMC3    C7 5859   2.511   1.047  10.204 -0.2350 -0.5243  0.9140
  388TMC3    C8 5860   2.475   1.511  10.289 -0.3748 -0.8166 -0.1519
  388TMC3    O1 5861   2.585   1.041  10.303  0.7531 -0.3130 -0.2689
  388TMC3    O2 5862   2.527   1.474  10.392 -0.5355 -0.5789 -0.6776
  389MPD2     C 5863   0.766   4.052  11.271  1.0968 -0.2901 -0.1608
  389MPD2    C1 5864   0.735   3.934  11.199  0.4155 -0.1593 -0.0854
  389MPD2    C2 5865   0.730   3.815  11.269  0.5416 -0.4291 -0.0634
  389MPD2    C3 5866   0.750   3.811  11.407  0.4630 -0.1555  0.4555
  389MPD2    C4 5867   0.788   3.923  11.475 -0.4951  0.5650  0.2557
  389MPD2    C5 5868   0.794   4.045  11.406  0.1002  0.2564  0.2146
  389MPD2     H 5869   0.702   3.721  11.222 -0.4977 -0.2129  0.1153
  389MPD2    H1 5870   0.797   3.924  11.583  1.0293  0.2404  0.1276
  389MPD2    H2 5871   0.795   4.148  11.231  3.7122 -0.8606  0.3535
  389MPD2    H3 5872   0.822   4.141  11.447  1.8484  0.6449 -1.8548
  389MPD2     N 5873   0.730   3.694  11.481 -0.0631  0.3261 -0.1487
  389MPD2    H5 5874   0.743   3.712  11.580  1.3320 -0.4302 -0.1844
  389MPD2    N1 5875   0.721   3.949  11.059  0.2173  0.3270  0.0904
  389MPD2    H7 5876   0.726   4.040  11.013 -0.0101  0.6370  0.6811
  390TMC3    C1 5877   0.651   3.503  11.572 -0.4033 -0.2644  0.1651
  390TMC3    C2 5878   0.712   3.381  11.589  0.7452  0.1104 -0.9996
  390TMC3    C3 5879   0.718   3.323  11.710 -0.1211 -0.0250 -0.4323
  390TMC3    C4 5880   0.595   3.576  11.669  0.4148  0.3577  0.4081
  390TMC3    C5 5881   0.586   3.510  11.786 -0.1526 -0.0834  0.6858
  390TMC3    C6 5882   0.652   3.388  11.810 -0.5417 -0.3010  0.4382
  390TMC3     C 5883   0.690   3.567  11.450  0.1181 -0.6827 -0.0809
  390TMC3     O 5884   0.703   3.503  11.347 -0.6634  0.3042  0.1388
  390TMC3     H 5885   0.761   3.338  11.502  0.6334  0.5474 -1.2774
  390TMC3    H1 5886   0.541   3.669  11.655 -1.6477 -0.9347 -0.2094
  390TMC3    H2 5887   0.636   3.335  11.903 -0.3186 -0.1544  0.5568
  390TMC3    C7 5888   0.450   3.515  11.843  0.1657  0.6486  0.8432
  390TMC3    C8 5889   0.708   3.175  11.704  0.3521 -0.0886 -0.2984
  390TMC3    O1 5890   0.372   3.590  11.785 -0.1911 -0.2986 -0.4218
  390TMC3    O2 5891   0.665   3.142  11.593 -0.6265 -0.3004 -0.0001
  391MPD2     C 5892   0.919   0.678  10.797 -0.3930  0.4930  0.0873
  391MPD2    C1 5893   1.005   0.768  10.742 -0.7822  0.4253  0.1848
  391MPD2    C2 5894   1.014   0.784  10.602 -0.1336 -0.0948  0.0240
  391MPD2    C3 5895   0.924   0.709  10.522 -0.3798  0.9232  0.4527
  391MPD2    C4 5896   0.840   0.622  10.581 -0.2888  0.5344  0.6552
  391MPD2    C5 5897   0.831   0.610  10.717  0.2210  0.1750  0.1124
  391MPD2     H 5898   1.091   0.847  10.560  1.3058  0.4195  3.4609
  391MPD2    H1 5899   0.761   0.569  10.528  0.5903 -0.5623  0.4382
  391MPD2    H2 5900   0.902   0.662  10.902  0.8611 -0.7416  0.0946
  391MPD2    H3 5901   0.754   0.549  10.763 -0.5467 -2.1924 -4.3359
  391MPD2     N 5902   0.929   0.733  10.379 -1.1153  0.5511  0.0415
  391MPD2    H5 5903   1.005   0.792  10.348 -1.0253  0.5505  0.2590
  391MPD2    N1 5904   1.077   0.845  10.834 -0.2603  0.2804  0.4815
  391MPD2    H7 5905   1.078   0.817  10.932  2.6579  1.5212  0.8000
  392TMC3    C1 5906   0.860   0.775  10.159  0.5185  0.7675 -0.0689
  392TMC3    C2 5907   0.750   0.811  10.087 -0.4695  0.0306 -0.1625
  392TMC3    C3 5908   0.755   0.913   9.999  0.1036  0.2632 -1.1998
  392TMC3    C4 5909   0.982   0.844  10.136 -0.1357  0.3007  0.0581
  392TMC3    C5 5910   0.991   0.935  10.033 -0.1453  0.5118  0.0133
  392TMC3    C6 5911   0.874   0.985   9.977 -0.3232  0.4890  0.4284
  392TMC3     C 5912   0.835   0.704  10.285 -1.0836 -0.7357  0.2388
  392TMC3     O 5913   0.720   0.658  10.306 -0.2809 -0.3418 -0.0968
  392TMC3     H 5914   0.662   0.749  10.086  0.8077 -1.7703 -2.0424
  392TMC3    H1 5915   1.071   0.811  10.190 -0.9589  0.1627  1.3394
  392TMC3    H2 5916   0.875   1.060   9.899 -2.0406 -0.9208 -0.9691
  392TMC3    C7 5917   1.106   1.018  10.044 -0.1131 -0.3409 -0.0951
  392TMC3    C8 5918   0.630   0.946   9.936 -0.1318  0.6620 -0.0078
  392TMC3    O1 5919   1.183   1.016  10.139  0.6325 -0.2956 -0.0277
  392TMC3    O2 5920   0.556   0.845   9.929 -0.4543  0.4543  0.2817
  393TMC3    C1 5921   4.013   3.479  10.321  0.1277  0.2724 -0.2650
  393TMC3    C2 5922   3.888   3.422  10.340 -0.2440 -0.0904 -0.0979
  393TMC3    C3 5923   3.887   3.289  10.363 -0.0852 -0.6692 -0.1577
  393TMC3    C4 5924   4.132   3.412  10.332  0.0300  0.2947 -0.4227
  393TMC3    C5 5925   4.120   3.279  10.354  0.5305  0.1163  0.0322
  393TMC3    C6 5926   4.000   3.214  10.363 -0.3120  0.0696 -0.2737
  393TMC3     C 5927   4.012   3.625  10.300 -0.0774  0.4995 -0.5394
  393TMC3     O 5928   3.906   3.675  10.283 -0.3013  0.0410 -0.4760
  393TMC3     H 5929   3.794   3.476  10.342  0.6998  1.5382 -0.1431
  393TMC3    H1 5930   4.229   3.454  10.310  0.0886  0.2836 -0.1845
  393TMC3    H2 5931   4.002   3.108  10.388  0.6217  0.1224 -0.1218
  393TMC3    C7 5932   4.231   3.193  10.331  0.4252 -0.3253 -0.0207
  393TMC3    C8 5933   3.761   3.236  10.402 -0.4264 -0.5597 -0.2745
  393TMC3    O1 5934   4.208   3.087  10.268 -0.6793  0.7319  0.7341
  393TMC3    O2 5935   3.657   3.287  10.357  0.0745  0.2389 -0.1774
  394TMC3    C1 5936   0.702   3.910  10.837  0.6415 -0.1065 -0.6104
  394TMC3    C2 5937   0.612   3.863  10.744  0.3398 -0.1923  0.0642
  394TMC3    C3 5938   0.594   3.935  10.627  0.4229 -0.3775  0.0742
  394TMC3    C4 5939   0.787   4.019  10.808  0.1115 -0.1146  0.0787
  394TMC3    C5 5940   0.762   4.082  10.689 -0.1385 -0.8098  0.8907
  394TMC3    C6 5941   0.675   4.039  10.594  0.3487 -0.3089  0.0209
  394TMC3     C 5942   0.688   3.850  10.971 -0.2076  0.1694  0.1257
  394TMC3     O 5943   0.641   3.738  10.986 -0.2817 -0.6435  0.4755
  394TMC3     H 5944   0.549   3.779  10.770  0.1409  0.2253  0.9314
  394TMC3    H1 5945   0.848   4.055  10.890 -2.7324 -0.2943  2.2510
  394TMC3    H2 5946   0.675   4.093  10.500  0.3953 -0.3815 -0.0213
  394TMC3    C7 5947   0.866   4.171  10.635  0.8593  0.3101  0.3943
  394TMC3    C8 5948   0.528   3.874  10.513 -0.5120  0.0866 -0.7404
  394TMC3    O1 5949   0.834   4.263  10.557 -0.5348  0.4860 -0.6191
  394TMC3    O2 5950   0.477   3.948  10.428  0.9604 -0.0143 -0.2611
  395TMC3    C1 5951   0.393   0.819  14.989  0.1824 -0.3588  0.4414
  395TMC3    C2 5952   0.305   0.864  14.899 -0.2406 -0.2700  0.2783
  395TMC3    C3 5953   0.337   0.966  14.817  0.3930  0.4293 -0.4225
  395TMC3    C4 5954   0.516   0.879  15.002  0.1264 -0.7980 -0.3471
  395TMC3    C5 5955   0.560   0.970  14.905 -0.0687  0.0363  0.5731
  395TMC3    C6 5956   0.464   1.026  14.825 -0.2542 -0.4672  0.5188
  395TMC3     C 5957   0.342   0.726  15.089 -0.0163 -0.2604 -0.4840
  395TMC3     O 5958   0.223   0.734  15.111  0.3602 -0.4919  0.0779
  395TMC3     H 5959   0.208   0.814  14.897  0.3767 -1.7046  4.9910
  395TMC3    H1 5960   0.588   0.848  15.077 -0.5350  1.0752  1.0351
  395TMC3    H2 5961   0.495   1.108  14.761  0.4371 -0.7308  0.5168
  395TMC3    C7 5962   0.653   1.067  14.960  0.5612 -0.4325 -0.2672
  395TMC3    C8 5963   0.245   1.008  14.709 -0.3473 -0.9062  0.0313
  395TMC3    O1 5964   0.649   1.074  15.082  0.2777  0.3390  0.1283
  395TMC3    O2 5965   0.251   1.120  14.656 -0.1902 -0.5083  0.0336
  396MPD2     C 5966   0.081   2.150  17.062 -0.4877 -0.1512  0.6456
  396MPD2    C1 5967   0.205   2.165  17.113 -0.1577 -0.3285 -0.0247
  396MPD2    C2 5968   0.297   2.254  17.068 -0.0050 -0.1546  0.3105
  396MPD2    C3 5969   0.271   2.322  16.949  0.7927  0.0148 -0.4245
  396MPD2    C4 5970   0.142   2.312  16.895  0.1797 -0.3858  0.4776
  396MPD2    C5 5971   0.054   2.219  16.948  0.3222  0.3894 -0.6635
  396MPD2     H 5972   0.398   2.259  17.108 -0.0593  2.9039  0.0695
  396MPD2    H1 5973   0.114   2.380  16.816  1.7937  0.3732  0.5543
  396MPD2    H2 5974   0.008   2.087  17.111 -1.6794 -1.1095 -2.3267
  396MPD2    H3 5975   4.691   2.213  16.908  0.1307 -2.7021  0.3011
  396MPD2     N 5976   0.372   2.403  16.898  0.1646  0.0825 -0.3332
  396MPD2    H5 5977   0.458   2.400  16.951 -0.4823 -0.2104  0.6942
  396MPD2    N1 5978   0.240   2.106  17.237 -0.3139 -0.2682  0.5445
  396MPD2    H7 5979   0.310   2.141  17.301  1.3548  1.7209 -2.3321
  397TMC3    C1 5980   0.262   1.940  17.414 -0.0611  0.1696 -0.2248
  397TMC3    C2 5981   0.400   1.952  17.390 -0.6243  0.1209  1.0595
  397TMC3    C3 5982   0.468   1.838  17.358  0.2084  0.2512 -0.6732
  397TMC3    C4 5983   0.207   1.817  17.446 -0.5768 -0.4166 -0.3263
  397TMC3    C5 5984   0.286   1.705  17.428  0.5754 -0.4854  0.3928
  397TMC3    C6 5985   0.413   1.718  17.388  0.0321 -0.8790 -0.7147
  397TMC3     C 5986   0.187   1.987  17.294 -0.1592  0.0549  0.2298
  397TMC3     O 5987   0.094   1.915  17.253 -0.0841  0.8104  0.8929
  397TMC3     H 5988   0.431   2.050  17.355 -0.2701 -0.6657 -0.8535
  397TMC3    H1 5989   0.099   1.809  17.456 -0.3555 -1.4084  1.3002
  397TMC3    H2 5990   0.462   1.628  17.351 -0.4058 -0.2965 -2.7375
  397TMC3    C7 5991   0.257   1.591  17.506 -0.1226 -0.0882 -0.5322
  397TMC3    C8 5992   0.548   1.851  17.236  0.2421 -0.7463  0.4028
  397TMC3    O1 5993   0.292   1.478  17.470 -0.3248 -0.0401  0.0466
  397TMC3    O2 5994   0.517   1.788  17.133 -0.4498 -0.2071  0.1186
  398MPD2     C 5995   2.843   3.636  17.706  1.1733  0.6096  0.2904
  398MPD2    C1 5996   2.940   3.581   0.035 -0.6660  0.0545  0.4401
  398MPD2    C2 5997   3.061   3.648   0.059 -0.2814 -0.1906 -0.4091
  398MPD2    C3 5998   3.078   3.773   0.027  0.1633  0.1872 -0.1251
  398MPD2    C4 5999   2.980   3.831  17.694 -0.0315  0.1482  0.4988
  398MPD2    C5 6000   2.856   3.771  17.672 -0.0890 -0.0906 -0.5612
  398MPD2     H 6001   3.142   3.590   0.102 -2.2189 -1.0330  2.1700
  398MPD2    H1 6002   2.984   3.938  17.672  0.2089 -0.3140 -1.7171
  398MPD2    H2 6003   2.753   3.582  17.676  0.6229  1.7439 -0.0800
  398MPD2    H3 6004   2.777   3.827  17.623 -0.2158 -0.0889 -0.3569
  398MPD2     N 6005   3.194   3.850   0.059 -0.1604  0.3584  0.0823
  398MPD2    H5 6006   3.259   3.812   0.128 -0.6666  1.7753  1.3529
  398MPD2    N1 6007   2.932   3.444   0.082 -0.0836  0.6986 -0.0518
  398MPD2    H7 6008   3.015   3.402   0.124 -0.4342 -1.8884 -1.9466
  399TMC3    C1 6009   2.838   3.233   0.146  0.1310 -0.2076  0.0578
  399TMC3    C2 6010   2.954   3.216   0.226 -0.9980 -0.1335 -0.0967
  399TMC3    C3 6011   2.976   3.094   0.280 -0.3063 -0.2522  0.2037
  399TMC3    C4 6012   2.737   3.135   0.134  0.2304  0.0666  0.1604
  399TMC3    C5 6013   2.776   3.013   0.176 -0.3939  0.1674  0.5029
  399TMC3    C6 6014   2.891   2.992   0.252 -0.4507  0.2145 -0.0290
  399TMC3     C 6015   2.818   3.359   0.079 -0.0399 -0.0278 -0.5340
  399TMC3     O 6016   2.705   3.370   0.039 -0.2021 -0.1731  0.1701
  399TMC3     H 6017   3.027   3.289   0.257 -0.7183 -0.2432 -0.4939
  399TMC3    H1 6018   2.654   3.138   0.065  0.5600 -0.9241 -0.2807
  399TMC3    H2 6019   2.908   2.892   0.291 -0.0980 -0.4229 -1.8244
  399TMC3    C7 6020   2.670   2.909   0.153 -0.2800 -0.4315  0.3019
  399TMC3    C8 6021   3.091   3.066   0.371  0.4593  0.4137  0.3257
  399TMC3    O1 6022   2.552   2.956   0.153 -0.5678  0.1596 -0.1022
  399TMC3    O2 6023   3.180   3.147   0.367  0.1888  0.3001  0.2267
  400TMC3    C1 6024   1.721   1.830  16.968 -0.1506  0.4262  0.6911
  400TMC3    C2 6025   1.642   1.726  16.936 -0.6680  0.0599  0.7507
  400TMC3    C3 6026   1.545   1.763  16.846  0.1753  0.1636  0.2855
  400TMC3    C4 6027   1.708   1.957  16.923  0.7583 -0.3017  0.6955
  400TMC3    C5 6028   1.604   1.985  16.833 -0.1007  0.6134 -0.1132
  400TMC3    C6 6029   1.524   1.890  16.790 -0.3971 -0.6761 -0.0122
  400TMC3     C 6030   1.824   1.793  17.063 -0.7518  0.6401  0.2309
  400TMC3     O 6031   1.820   1.676  17.101 -0.3005 -0.4733  0.2157
  400TMC3     H 6032   1.659   1.623  16.965  0.1591  0.5322  1.9407
  400TMC3    H1 6033   1.777   2.035  16.955 -1.6960  2.1395  0.0441
  400TMC3    H2 6034   1.432   1.910  16.736 -0.6302 -1.2502  0.1774
  400TMC3    C7 6035   1.564   2.117  16.816 -0.0164 -0.3767  0.3084
  400TMC3    C8 6036   1.457   1.659  16.810  0.0176 -0.0494 -0.0308
  400TMC3    O1 6037   1.483   2.132  16.726  0.0413 -0.1973 -0.0737
  400TMC3    O2 6038   1.397   1.685  16.708 -0.6102  0.1069  0.7898
  401MPD2     C 6039   0.428   0.742   0.788  0.3988  0.4149  0.2318
  401MPD2    C1 6040   0.550   0.690   0.795  0.4450 -0.1851  0.1663
  401MPD2    C2 6041   0.564   0.552   0.769  0.3188  0.5981 -0.2551
  401MPD2    C3 6042   0.459   0.480   0.727 -0.5519  0.4711  0.1731
  401MPD2    C4 6043   0.333   0.533   0.724 -0.1954  0.2716  0.1089
  401MPD2    C5 6044   0.320   0.670   0.745  0.9128 -0.1483 -0.1553
  401MPD2     H 6045   0.658   0.498   0.779  0.5532  0.4978 -2.9485
  401MPD2    H1 6046   0.243   0.475   0.703 -0.0302 -0.9038  2.6834
  401MPD2    H2 6047   0.398   0.845   0.800  0.2793  0.7969 -3.5166
  401MPD2    H3 6048   0.223   0.717   0.729  0.1542 -2.0396 -1.1911
  401MPD2     N 6049   0.482   0.354   0.680 -0.0095 -0.0393 -0.4761
  401MPD2    H5 6050   0.572   0.314   0.703 -0.1123 -0.4981 -0.8725
  401MPD2    N1 6051   0.668   0.759   0.836 -0.5843  0.3879 -0.2980
  401MPD2    H7 6052   0.754   0.705   0.831 -0.8656 -0.1679  0.8463
  402TMC3    C1 6053   0.463   0.146   0.579  0.0845 -0.2044  0.3577
  402TMC3    C2 6054   0.554   0.103   0.665 -0.1113 -0.3025  0.7944
  402TMC3    C3 6055   0.589   4.710   0.650  0.2983 -0.4328 -0.1650
  402TMC3    C4 6056   0.411   0.071   0.480 -0.1383  0.0065 -0.6098
  402TMC3    C5 6057   0.458   4.675   0.463  0.3706 -0.0902 -0.9722
  402TMC3    C6 6058   0.548   4.625   0.552  0.4511 -0.2915  0.1482
  402TMC3     C 6059   0.410   0.279   0.595  0.2168  0.2252 -0.5548
  402TMC3     O 6060   0.304   0.304   0.545 -0.0475 -0.4866 -0.1313
  402TMC3     H 6061   0.562   0.154   0.761  0.8090  0.0132  0.5517
  402TMC3    H1 6062   0.343   0.118   0.410 -0.5321  0.9396  0.3955
  402TMC3    H2 6063   0.592   4.526   0.546 -0.3188 -0.4468 -2.5619
  402TMC3    C7 6064   0.430   4.592   0.345 -0.0755  0.4492 -0.2978
  402TMC3    C8 6065   0.666   4.652   0.759 -0.3871 -0.4949  1.0604
  402TMC3    O1 6066   0.519   4.505   0.323 -0.2671 -0.0284 -0.0539
  402TMC3    O2 6067   0.675   4.531   0.768 -0.1377  0.2777 -0.4334
  403MPD2     C 6068   3.596   2.686  12.853  0.6683 -0.5828 -0.8415
  403MPD2    C1 6069   3.581   2.746  12.980  0.0167  1.0100 -0.3776
  403MPD2    C2 6070   3.629   2.872  13.001  1.2258  0.6086 -0.3919
  403MPD2    C3 6071   3.712   2.938  12.907 -0.0249 -0.8799  0.4817
  403MPD2    C4 6072   3.732   2.874  12.784 -0.0960  0.2697 -0.2099
  403MPD2    C5 6073   3.667   2.754  12.755 -1.1698  0.1534  0.0639
  403MPD2     H 6074   3.619   2.908  13.103  2.0588  3.6084 -1.3590
  403MPD2    H1 6075   3.795   2.914  12.706 -0.6998  0.0706 -0.8077
  403MPD2    H2 6076   3.550   2.590  12.832  0.6573 -0.3773 -1.7411
  403MPD2    H3 6077   3.679   2.707  12.658 -2.1264  0.1433 -0.0491
  403MPD2     N 6078   3.800   3.042  12.941  0.4563 -0.3134  0.1875
  403MPD2    H5 6079   3.889   3.047  12.893  0.1664 -2.0270 -0.5309
  403MPD2    N1 6080   3.534   2.663  13.082  0.3561 -0.3090 -0.5942
  403MPD2    H7 6081   3.498   2.573  13.055 -0.5446  0.1906 -1.0410
  404TMC3    C1 6082   3.467   2.596  13.304 -0.0030 -0.2032  0.2133
  404TMC3    C2 6083   3.458   2.628  13.434 -0.2106  0.4584 -0.3648
  404TMC3    C3 6084   3.375   2.549  13.509 -0.4406  0.2621  0.2720
  404TMC3    C4 6085   3.394   2.501  13.237 -0.4183 -0.6259  0.7241
  404TMC3    C5 6086   3.321   2.424  13.322  0.7933 -0.1831  0.8353
  404TMC3    C6 6087   3.310   2.445  13.459  0.0600 -0.2705  0.0413
  404TMC3     C 6088   3.538   2.690  13.217 -0.2439 -0.1913 -0.2210
  404TMC3     O 6089   3.585   2.784  13.283  0.5611  0.2688  0.3402
  404TMC3     H 6090   3.505   2.717  13.475 -1.0302  1.3595 -1.3878
  404TMC3    H1 6091   3.418   2.463  13.138 -1.4196  2.9216 -0.8591
  404TMC3    H2 6092   3.248   2.378  13.517  0.2145 -0.1551  0.3403
  404TMC3    C7 6093   3.253   2.313  13.262 -0.0083 -0.5569 -0.1514
  404TMC3    C8 6094   3.340   2.589  13.642  0.4001 -0.2639  0.5090
  404TMC3    O1 6095   3.235   2.214  13.329 -0.4969 -0.6579  0.1544
  404TMC3    O2 6096   3.223   2.571  13.668  0.3094 -0.2591 -0.0869
  405MPD2     C 6097   3.374   4.204  14.463 -0.5292  0.2595 -0.4310
  405MPD2    C1 6098   3.480   4.139  14.402  0.7162 -0.0122  0.2724
  405MPD2    C2 6099   3.459   4.053  14.301 -0.5811  0.1596 -0.3663
  405MPD2    C3 6100   3.328   4.019  14.258 -0.3200 -0.1355 -0.1310
  405MPD2    C4 6101   3.216   4.077  14.317  0.0278 -0.2652 -0.3356
  405MPD2    C5 6102   3.249   4.168  14.421  0.0409  0.5401  1.2187
  405MPD2     H 6103   3.546   4.002  14.263  1.1751  2.3503  0.7353
  405MPD2    H1 6104   3.119   4.030  14.304  0.3773 -0.9043 -0.6562
  405MPD2    H2 6105   3.398   4.284  14.533 -2.3934  0.2724  0.1956
  405MPD2    H3 6106   3.158   4.213  14.458 -1.0821  1.1274 -2.2642
  405MPD2     N 6107   3.323   3.911  14.167 -0.6562 -0.5354 -0.4386
  405MPD2    H5 6108   3.413   3.885  14.126 -1.1810 -2.8158 -0.1905
  405MPD2    N1 6109   3.620   4.154  14.436  0.3448 -0.0914  0.8419
  405MPD2    H7 6110   3.688   4.114  14.373  2.0697  2.5554  1.0318
  406TMC3    C1 6111   3.242   3.486  13.981 -0.9660  0.5071  0.1720
  406TMC3    C2 6112   3.375   3.449  14.008  0.9133  0.2901 -0.1283
  406TMC3    C3 6113   3.457   3.538  14.075  0.7397 -0.5752  0.2410
  406TMC3    C4 6114   3.200   3.613  14.028  0.3412 -0.0758  0.0001
  406TMC3    C5 6115   3.287   3.695  14.083  0.8307 -0.0081 -1.0079
  406TMC3    C6 6116   3.418   3.665  14.113  0.2254 -0.0908  0.0202
  406TMC3     C 6117   3.140   3.385  13.986 -0.1159 -0.4752  1.0432
  406TMC3     O 6118   3.151   3.278  13.931  0.2478  1.4772 -0.4793
  406TMC3     H 6119   3.401   3.345  13.996 -0.2392  0.0914 -0.8759
  406TMC3    H1 6120   3.103   3.656  14.004  1.1525  0.7802 -1.7507
  406TMC3    H2 6121   3.478   3.720  14.184 -0.1395 -0.1753  0.3976
  406TMC3    C7 6122   3.227   3.813  14.138 -0.3221 -0.1259  0.3316
  406TMC3    C8 6123   3.604   3.511  14.080 -0.2544  0.4569  0.0473
  406TMC3    O1 6124   3.106   3.821  14.155  0.2188 -0.5843 -0.6862
  406TMC3    O2 6125   3.646   3.400  14.052 -0.3889 -0.2899  0.2232
  407MPD2     C 6126   1.310   0.575   9.752  0.6644  0.1170 -0.9876
  407MPD2    C1 6127   1.415   0.654   9.709 -0.0610  0.2161  0.0486
  407MPD2    C2 6128   1.437   0.771   9.775  0.3504  0.3610 -0.0903
  407MPD2    C3 6129   1.365   0.803   9.891  0.4736  0.4281 -0.2083
  407MPD2    C4 6130   1.269   0.715   9.939 -0.5651 -0.0020  0.3337
  407MPD2    C5 6131   1.236   0.605   9.859 -0.2717 -0.1137 -0.4905
  407MPD2     H 6132   1.527   0.821   9.743 -0.4863  1.1441 -1.2209
  407MPD2    H1 6133   1.207   0.735  10.025 -0.5006  2.4113 -0.1736
  407MPD2    H2 6134   1.282   0.483   9.702 -1.8291 -0.7647  2.0444
  407MPD2    H3 6135   1.157   0.536   9.886 -0.1452  0.6676  1.9081
  407MPD2     N 6136   1.403   0.917   9.964 -0.0420  0.0900 -0.3549
  407MPD2    H5 6137   1.366   0.931  10.057  1.2253  2.5462 -0.2095
  407MPD2    N1 6138   1.510   0.615   9.615  0.3366  0.2579 -0.3440
  407MPD2    H7 6139   1.585   0.681   9.598  1.8189 -1.1282  0.7835
  408TMC3    C1 6140   1.663   0.474   9.510 -0.3986 -0.3913  0.3822
  408TMC3    C2 6141   1.744   0.367   9.540 -0.3250 -0.3609 -0.1662
  408TMC3    C3 6142   1.877   0.380   9.506  0.4224  0.2396  0.3079
  408TMC3    C4 6143   1.713   0.584   9.440  0.3761  0.1033 -0.4236
  408TMC3    C5 6144   1.841   0.585   9.402 -0.3086  0.8195 -0.0088
  408TMC3    C6 6145   1.932   0.485   9.435 -0.8277  0.3505 -0.1562
  408TMC3     C 6146   1.541   0.484   9.584  0.0704  0.1415 -0.5179
  408TMC3     O 6147   1.482   0.384   9.634 -0.3316 -0.3109  0.1196
  408TMC3     H 6148   1.698   0.286   9.596 -0.8883  0.0013 -0.1040
  408TMC3    H1 6149   1.648   0.665   9.410  1.2502  1.2875  0.8841
  408TMC3    H2 6150   2.031   0.496   9.392 -0.6167 -0.7488  0.0405
  408TMC3    C7 6151   1.899   0.706   9.365  0.1688 -0.1828  0.4528
  408TMC3    C8 6152   1.965   0.301   9.585 -0.3151  0.9963 -0.4406
  408TMC3    O1 6153   2.016   0.727   9.390  0.4606  0.0224  0.4581
  408TMC3    O2 6154   1.918   0.200   9.645  0.3400  0.2407  0.8166
  409MPD2     C 6155   0.494   1.332  16.942 -0.0353 -0.5569 -0.2730
  409MPD2    C1 6156   0.579   1.353  17.050  0.0383 -0.0855  0.2636
  409MPD2    C2 6157   0.675   1.450  17.048  0.3156 -0.0814 -0.0953
  409MPD2    C3 6158   0.688   1.533  16.938  0.0573  0.5117  0.3530
  409MPD2    C4 6159   0.616   1.505  16.822 -0.7152 -0.0579 -0.1435
  409MPD2    C5 6160   0.523   1.402  16.831  0.6719  0.0010  0.0250
  409MPD2     H 6161   0.729   1.465  17.140 -0.3365  1.4019  0.0374
  409MPD2    H1 6162   0.614   1.571  16.737  2.0977  0.4522  0.1951
  409MPD2    H2 6163   0.399   1.281  16.948 -0.0917 -0.2831  1.1639
  409MPD2    H3 6164   0.453   1.398  16.748 -3.2120 -1.6318  3.3733
  409MPD2     N 6165   0.771   1.646  16.931 -0.2478  0.0101  0.3513
  409MPD2    H5 6166   0.798   1.673  16.837 -0.4768 -2.1480 -0.3399
  409MPD2    N1 6167   0.553   1.290  17.168  0.2808  0.4406 -0.4690
  409MPD2    H7 6168   0.605   1.314  17.252  0.0956  1.1299 -0.5536
  410TMC3    C1 6169   0.956   1.770  16.982  0.1256 -0.0282 -0.1692
  410TMC3    C2 6170   1.074   1.771  17.050  0.2826  0.7281  0.7635
  410TMC3    C3 6171   1.173   1.856  17.007  0.1460  0.4483  0.3963
  410TMC3    C4 6172   0.935   1.837  16.864 -0.4254  0.6585 -0.2757
  410TMC3    C5 6173   1.034   1.921  16.823 -0.0014 -0.4552  0.3970
  410TMC3    C6 6174   1.158   1.922  16.885  0.1569 -0.0340  0.0280
  410TMC3     C 6175   0.846   1.689  17.036 -0.0792  0.4028  0.4295
  410TMC3     O 6176   0.861   1.650  17.153  0.1046  0.0575  0.4395
  410TMC3     H 6177   1.087   1.702  17.132  1.8206 -0.2390 -0.2787
  410TMC3    H1 6178   0.841   1.846  16.811  0.1526  0.1727 -1.3865
  410TMC3    H2 6179   1.240   1.983  16.850  0.1464 -1.0339 -1.7193
  410TMC3    C7 6180   1.013   1.986  16.692  0.5617 -0.2654 -0.0805
  410TMC3    C8 6181   1.301   1.875  17.079 -0.7385  1.0179 -0.3854
  410TMC3    O1 6182   0.913   1.956  16.627  0.0684  0.2961  0.4997
  410TMC3    O2 6183   1.364   1.973  17.044 -0.2606 -1.2813 -0.3300
  411MPD2     C 6184   1.310   2.095  14.415  0.5125 -0.0516  0.6504
  411MPD2    C1 6185   1.178   2.133  14.435  0.1114 -0.5357 -0.0440
  411MPD2    C2 6186   1.085   2.036  14.462  1.2076 -0.2805  0.0592
  411MPD2    C3 6187   1.107   1.896  14.462 -0.2809  0.1659  0.5811
  411MPD2    C4 6188   1.239   1.866  14.432 -0.1479 -0.4627 -0.2019
  411MPD2    C5 6189   1.339   1.960  14.425  0.6639 -0.2336  0.7132
  411MPD2     H 6190   0.982   2.070  14.469  1.7432  1.3671  0.1536
  411MPD2    H1 6191   1.278   1.765  14.439  1.0420  0.0549  0.5292
  411MPD2    H2 6192   1.388   2.171  14.411  0.6800 -0.2063  0.9309
  411MPD2    H3 6193   1.439   1.921  14.412 -0.4665 -1.5143 -4.3247
  411MPD2     N 6194   1.014   1.790  14.474  0.3187 -0.3622 -1.0120
  411MPD2    H5 6195   1.046   1.697  14.448 -0.0186 -0.2531 -1.8202
  411MPD2    N1 6196   1.150   2.275  14.450 -0.1747  0.2552  0.4409
  411MPD2    H7 6197   1.234   2.331  14.445 -0.2477  0.2235 -1.2784
  412TMC3    C1 6198   0.791   1.700  14.488  0.3893 -0.2433  0.1525
  412TMC3    C2 6199   0.667   1.732  14.442  0.6217  0.1724  0.0941
  412TMC3    C3 6200   0.577   1.633  14.409 -0.0511 -0.0397  0.1325
  412TMC3    C4 6201   0.835   1.570  14.504  0.7536  0.3965  0.0271
  412TMC3    C5 6202   0.746   1.474  14.472  0.3629  0.1398 -0.0261
  412TMC3    C6 6203   0.619   1.505  14.433 -0.2894 -0.0519 -0.1194
  412TMC3     C 6204   0.882   1.815  14.511  0.1522 -0.1301 -0.0758
  412TMC3     O 6205   0.826   1.922  14.527  0.4378  0.5154  0.0350
  412TMC3     H 6206   0.650   1.835  14.414 -0.9252 -0.0144  0.3324
  412TMC3    H1 6207   0.940   1.547  14.521 -0.0034 -1.4825  2.2005
  412TMC3    H2 6208   0.543   1.429  14.415 -1.1115  0.8863 -0.5865
  412TMC3    C7 6209   0.807   1.368  14.387  0.5148 -0.8735 -0.0143
  412TMC3    C8 6210   0.497   1.659  14.289 -0.7022  0.4058 -0.4284
  412TMC3    O1 6211   0.899   1.301  14.429 -0.3061 -0.0334 -0.5643
  412TMC3    O2 6212   0.559   1.718  14.204 -0.6048 -0.3245  0.6617
  413MPD2     C 6213   2.674   0.091  15.568 -0.0236 -0.1906 -0.2037
  413MPD2    C1 6214   2.610   0.046  15.449  0.0787 -0.2155 -0.0619
  413MPD2    C2 6215   2.685   0.013  15.340  0.2569 -0.9622 -0.7174
  413MPD2    C3 6216   2.818   0.017  15.348 -0.5466  0.1202  0.0814
  413MPD2    C4 6217   2.883   0.062  15.462 -0.3352  0.7328 -0.4496
  413MPD2    C5 6218   2.807   0.101  15.574 -0.4167 -0.2005  0.1982
  413MPD2     H 6219   2.653   4.704  15.247 -1.5172 -1.5603  0.2083
  413MPD2    H1 6220   2.990   0.080  15.471 -0.1127 -0.6923 -0.1785
  413MPD2    H2 6221   2.620   0.120  15.658  1.7083  1.8555  0.1785
  413MPD2    H3 6222   2.852   0.131  15.668  0.1724 -0.7064  0.0742
  413MPD2     N 6223   2.887   4.690  15.238 -0.4057  0.5139 -0.7030
  413MPD2    H5 6224   2.839   4.642  15.163 -0.6512 -1.3310  0.6145
  413MPD2    N1 6225   2.468   0.033  15.461 -0.1790  0.1803 -0.4235
  413MPD2    H7 6226   2.426   0.051  15.551 -0.7326  0.3412 -0.7142
  414TMC3    C1 6227   3.063   4.597  15.126  0.0995 -0.2666 -0.7567
  414TMC3    C2 6228   3.184   4.541  15.147 -0.4393 -0.0901 -0.2061
  414TMC3    C3 6229   3.243   4.481  15.037 -0.5404 -0.5659  0.2606
  414TMC3    C4 6230   2.997   4.607  14.998  0.0937  0.0537 -0.0607
  414TMC3    C5 6231   3.061   4.535  14.901  0.0849 -0.4133  0.2529
  414TMC3    C6 6232   3.182   4.472  14.917  0.4676 -1.0879  0.2012
  414TMC3     C 6233   3.023   4.684  15.225  0.4856  0.5406 -0.4606
  414TMC3     O 6234   3.113   4.728  15.296 -0.3821 -0.3713 -0.0597
  414TMC3     H 6235   3.230   4.531  15.245  0.1392  1.0412 -0.3585
  414TMC3    H1 6236   2.913   4.672  14.979 -1.0939 -1.0522  1.3918
  414TMC3    H2 6237   3.212   4.404  14.838  1.5324 -1.0258  0.5455
  414TMC3    C7 6238   2.985   4.535  14.776  0.2060  0.6111 -0.1738
  414TMC3    C8 6239   3.368   4.409  15.063 -0.5448 -1.1196 -0.3044
  414TMC3    O1 6240   2.866   4.526  14.793  0.2381 -0.7003  0.1237
  414TMC3    O2 6241   3.389   4.302  15.002  0.1223  0.1336  0.4137
  415TMC3    C1 6242   3.816   2.724  10.236 -0.8068  0.3779  0.2098
  415TMC3    C2 6243   3.757   2.838  10.182  0.1460 -0.3397 -0.4632
  415TMC3    C3 6244   3.633   2.828  10.137  0.8794  0.1001 -0.1677
  415TMC3    C4 6245   3.746   2.601  10.243 -0.0674 -0.2523 -0.5812
  415TMC3    C5 6246   3.617   2.600  10.202 -0.1171 -0.3635 -0.0076
  415TMC3    C6 6247   3.558   2.717  10.155  0.3411  0.3287 -0.7499
  415TMC3     C 6248   3.928   2.752  10.331  0.1595 -0.3914 -0.9984
  415TMC3     O 6249   3.979   2.865  10.325  0.4414 -0.6273  0.5632
  415TMC3     H 6250   3.818   2.928  10.181 -1.3617  0.6895 -0.2968
  415TMC3    H1 6251   3.794   2.510  10.277  0.2104  0.0366 -0.2043
  415TMC3    H2 6252   3.453   2.719  10.127 -0.2307  1.4065  1.4458
  415TMC3    C7 6253   3.528   2.492  10.255  0.3021  0.2531  0.1313
  415TMC3    C8 6254   3.565   2.949  10.097 -0.6562  0.6115  0.6603
  415TMC3    O1 6255   3.575   2.379  10.248 -0.2037  0.4294  0.4478
  415TMC3    O2 6256   3.443   2.941  10.097  1.0909 -0.0163  0.2511
  416MPD2     C 6257   0.870   1.895  11.133  0.0187 -0.3321 -0.0877
  416MPD2    C1 6258   0.836   1.823  11.246  0.1920  0.5156  0.7142
  416MPD2    C2 6259   0.768   1.706  11.234 -0.5739  0.1453 -0.1284
  416MPD2    C3 6260   0.744   1.649  11.109  0.3356  0.1130 -0.0376
  416MPD2    C4 6261   0.788   1.721  10.998 -0.6759 -0.1798  0.8884
  416MPD2    C5 6262   0.835   1.851  11.011 -0.6920  0.0236 -0.7471
  416MPD2     H 6263   0.714   1.655  11.313 -2.4700  0.8540 -0.9532
  416MPD2    H1 6264   0.768   1.696  10.895 -1.2589  1.4551  0.6028
  416MPD2    H2 6265   0.925   1.989  11.142 -1.1666  0.2913  0.6425
  416MPD2    H3 6266   0.852   1.914  10.925  2.8254 -1.2114 -0.9572
  416MPD2     N 6267   0.669   1.530  11.099  0.4698 -0.3249 -0.3001
  416MPD2    H5 6268   0.620   1.495  11.181  0.3579  2.5741  0.8594
  416MPD2    N1 6269   0.863   1.884  11.369  0.0752  0.1794 -0.5067
  416MPD2    H7 6270   0.875   1.984  11.361  0.7349  0.0985 -0.5185
  417TMC3    C1 6271   0.826   1.929  11.595 -0.2069  0.7538  0.2799
  417TMC3    C2 6272   0.848   1.892  11.730  0.4026 -0.3959  0.3712
  417TMC3    C3 6273   0.750   1.932  11.816 -0.4813 -0.1012  0.4198
  417TMC3    C4 6274   0.709   1.992  11.559 -0.1586 -0.0491  0.7183
  417TMC3    C5 6275   0.613   2.014  11.653 -0.8148  0.2002 -0.2032
  417TMC3    C6 6276   0.627   1.988  11.789 -0.1759  0.4954 -0.1498
  417TMC3     C 6277   0.848   1.826  11.493  0.5265  0.5930 -0.3806
  417TMC3     O 6278   0.860   1.707  11.526 -0.3389  0.0897  0.5412
  417TMC3     H 6279   0.924   1.818  11.749 -0.1566 -1.1415 -0.2396
  417TMC3    H1 6280   0.679   2.007  11.456  1.5577  0.1305  0.2546
  417TMC3    H2 6281   0.554   2.022  11.862 -0.8960 -1.5923  0.1230
  417TMC3    C7 6282   0.480   2.002  11.606  0.5969 -0.8491 -0.3554
  417TMC3    C8 6283   0.770   1.930  11.963 -0.6223 -0.2269  0.7803
  417TMC3    O1 6284   0.456   2.049  11.496  0.0463  0.2335 -0.0980
  417TMC3    O2 6285   0.683   1.979  12.033 -0.1596  0.0087  0.0783
  418TMC3    C1 6286   3.551   4.071   0.071  0.2093  0.0014 -0.3690
  418TMC3    C2 6287   3.425   4.078   0.022  0.0514 -0.3331 -0.7670
  418TMC3    C3 6288   3.322   4.029   0.095  0.2253  0.5641 -0.2756
  418TMC3    C4 6289   3.589   4.024   0.192  0.1840  0.2295  0.0383
  418TMC3    C5 6290   3.481   3.984   0.265  0.5986  0.0665 -0.5087
  418TMC3    C6 6291   3.351   3.983   0.221 -0.3893  0.0337  0.0703
  418TMC3     C 6292   3.665   4.080  17.730  0.0573 -0.5919 -0.0945
  418TMC3     O 6293   3.685   4.193  17.693  0.4412 -0.9012  0.5078
  418TMC3     H 6294   3.427   4.107  17.666 -0.5084  0.6108 -0.5113
  418TMC3    H1 6295   3.690   4.022   0.231 -0.2397 -3.5512  0.9660
  418TMC3    H2 6296   3.273   3.943   0.284 -0.4531  0.1893  0.0898
  418TMC3    C7 6297   3.502   3.928   0.398 -0.1651  0.1920 -0.4187
  418TMC3    C8 6298   3.228   3.965   0.003 -0.8779 -0.6443 -0.0877
  418TMC3    O1 6299   3.425   3.836   0.434  0.6471 -0.3267  0.2326
  418TMC3    O2 6300   3.183   4.030  17.657 -0.4394 -0.5580  0.0290
  419MPD2     C 6301   2.365   1.414  12.794  0.1367 -0.2281  0.5989
  419MPD2    C1 6302   2.268   1.498  12.747  0.3806  0.0346  0.2281
  419MPD2    C2 6303   2.159   1.533  12.832  0.5645  0.3920 -0.3284
  419MPD2    C3 6304   2.150   1.480  12.961 -0.2317  0.4184  0.6254
  419MPD2    C4 6305   2.248   1.386  12.998  0.1238  0.8714  0.3363
  419MPD2    C5 6306   2.357   1.360  12.918 -0.3130 -0.2044  0.1063
  419MPD2     H 6307   2.077   1.587  12.785  0.8609  0.2721 -0.9828
  419MPD2    H1 6308   2.243   1.324  13.087 -0.7527 -0.6846 -0.8007
  419MPD2    H2 6309   2.447   1.377  12.732  1.1041  0.5962  1.3880
  419MPD2    H3 6310   2.432   1.287  12.946  0.2748  0.6323  0.6731
  419MPD2     N 6311   2.041   1.510  13.028  0.9878  0.0707 -0.1675
  419MPD2    H5 6312   1.966   1.560  12.981 -0.5848 -1.1329  1.0256
  419MPD2    N1 6313   2.260   1.533  12.609  0.6578 -0.1654 -0.0528
  419MPD2    H7 6314   2.176   1.582  12.582  1.2642  0.2922 -1.0937
  420TMC3    C1 6315   1.889   1.517  13.194  0.4966  0.6325  0.0569
  420TMC3    C2 6316   1.814   1.600  13.117 -0.7908  0.0107 -0.5379
  420TMC3    C3 6317   1.706   1.671  13.172  0.1368 -0.4052 -0.5528
  420TMC3    C4 6318   1.852   1.493  13.320 -0.7750 -0.3917 -0.2085
  420TMC3    C5 6319   1.746   1.559  13.372 -0.2204 -0.6355  0.6904
  420TMC3    C6 6320   1.666   1.646  13.304 -0.6144  0.5431  0.6858
  420TMC3     C 6321   2.012   1.469  13.150 -0.1826  0.0001 -0.6126
  420TMC3     O 6322   2.078   1.406  13.229 -0.6362  0.4678  0.4201
  420TMC3     H 6323   1.833   1.632  13.015  0.0844  2.8353  0.5101
  420TMC3    H1 6324   1.906   1.423  13.382  3.0506  0.4297 -2.6148
  420TMC3    H2 6325   1.575   1.691  13.344 -0.4538 -0.7043  2.4517
  420TMC3    C7 6326   1.696   1.507  13.493 -0.0103 -0.2665 -0.0454
  420TMC3    C8 6327   1.649   1.785  13.102  0.0751  0.1693 -0.5260
  420TMC3    O1 6328   1.771   1.437  13.556 -0.3016 -0.4613  1.1501
  420TMC3    O2 6329   1.613   1.767  12.989  0.0335 -0.4308  0.3962
  421TMC3    C1 6330   3.915   3.156  13.110 -0.0246  0.2543 -0.2730
  421TMC3    C2 6331   3.923   3.267  13.180  0.2333  0.6133 -0.0194
  421TMC3    C3 6332   4.021   3.284  13.276 -0.5778  0.2350 -0.2524
  421TMC3    C4 6333   4.012   3.061  13.121 -0.6389 -0.2631  0.6144
  421TMC3    C5 6334   4.123   3.086  13.199  0.2280  0.2346  0.2369
  421TMC3    C6 6335   4.122   3.198  13.281  0.1636 -0.0089 -0.0926
  421TMC3     C 6336   3.789   3.108  13.062 -0.4523 -0.2036  0.0932
  421TMC3     O 6337   3.685   3.142  13.122 -0.1210  0.0344 -0.1892
  421TMC3     H 6338   3.841   3.338  13.179  0.6854  1.1346  0.2400
  421TMC3    H1 6339   4.013   2.967  13.068 -0.9780  1.4742 -2.4382
  421TMC3    H2 6340   4.209   3.224  13.340 -1.0242  1.6487  0.9299
  421TMC3    C7 6341   4.210   2.978  13.246  0.0563  0.9660  0.3395
  421TMC3    C8 6342   4.009   3.374  13.390 -0.1426 -0.7609  0.1182
  421TMC3    O1 6343   4.320   3.007  13.287  0.1902  0.1004  0.2626
  421TMC3    O2 6344   4.115   3.406  13.439  0.0099 -0.0619  0.2674
  422TMC3    C1 6345   1.558   0.142  12.473 -0.6279  0.3886 -0.2465
  422TMC3    C2 6346   1.532   0.182  12.599 -0.6741 -0.2560 -0.0301
  422TMC3    C3 6347   1.406   0.184  12.643 -0.0614 -0.1271 -0.4303
  422TMC3    C4 6348   1.468   0.084  12.391 -0.3874  0.3459  0.9263
  422TMC3    C5 6349   1.341   0.074  12.447 -0.1632 -0.8659  0.6054
  422TMC3    C6 6350   1.301   0.129  12.563  0.5491 -0.4346 -0.0107
  422TMC3     C 6351   1.690   0.168  12.422 -0.0332 -0.3770  0.2581
  422TMC3     O 6352   1.775   0.174  12.509  0.2911  0.4668 -0.1786
  422TMC3     H 6353   1.610   0.239  12.648 -0.8336  1.7958 -2.2118
  422TMC3    H1 6354   1.485   0.054  12.288 -1.8036 -2.9543  1.6230
  422TMC3    H2 6355   1.195   0.123  12.585  0.9458 -0.4711  1.8701
  422TMC3    C7 6356   1.238   0.003  12.368 -0.5016 -0.3923 -0.6140
  422TMC3    C8 6357   1.371   0.288  12.737 -0.1435 -0.9525  0.5894
  422TMC3    O1 6358   1.243   4.736  12.247  0.3070 -0.5615  0.2246
  422TMC3    O2 6359   1.462   0.326  12.814 -0.0998  0.4438 -0.2719
  423MPD2     C 6360   2.312   0.708   0.564 -0.7081 -0.2262 -0.1470
  423MPD2    C1 6361   2.420   0.752   0.497  0.2812 -0.3924  0.4852
  423MPD2    C2 6362   2.425   0.730   0.360  0.3870  0.2437 -0.3355
  423MPD2    C3 6363   2.318   0.679   0.290  0.0415  0.2132 -0.4790
  423MPD2    C4 6364   2.215   0.626   0.361  0.3080 -0.4646  0.1163
  423MPD2    C5 6365   2.213   0.641   0.497  0.3015  0.0149  0.8598
  423MPD2     H 6366   2.494   0.789   0.300  0.3026  1.7221  1.0135
  423MPD2    H1 6367   2.130   0.586   0.307  0.7918 -0.7293 -0.4476
  423MPD2    H2 6368   2.307   0.729   0.670 -1.2451 -0.6273 -0.0945
  423MPD2    H3 6369   2.129   0.610   0.557  0.2992  1.9565  1.8826
  423MPD2     N 6370   2.292   0.666   0.148 -0.1520  0.3316 -0.0035
  423MPD2    H5 6371   2.211   0.620   0.109  1.8166 -0.7294 -2.8420
  423MPD2    N1 6372   2.516   0.835   0.553  0.0298  0.6216  0.9055
  423MPD2    H7 6373   2.604   0.840   0.503  0.6458  0.7277  1.9874
  424TMC3    C1 6374   2.620   0.956   0.731  0.3558 -0.1321  0.4913
  424TMC3    C2 6375   2.735   0.882   0.739 -0.1549  0.2301 -0.2720
  424TMC3    C3 6376   2.843   0.932   0.798  0.1245  0.3495 -0.6155
  424TMC3    C4 6377   2.605   1.068   0.806  0.1335  0.4011 -0.0220
  424TMC3    C5 6378   2.714   1.113   0.877 -0.8958 -0.4558 -0.1469
  424TMC3    C6 6379   2.836   1.050   0.867 -1.0219 -0.1416 -0.1904
  424TMC3     C 6380   2.503   0.909   0.669  0.5715 -0.4227 -0.1941
  424TMC3     O 6381   2.402   0.933   0.734  0.4378  0.5403  0.0610
  424TMC3     H 6382   2.742   0.784   0.694  3.2633  0.7789 -0.8812
  424TMC3    H1 6383   2.508   1.115   0.819  0.6953  1.6669 -0.3742
  424TMC3    H2 6384   2.920   1.110   0.899 -1.3270  0.1657  0.0234
  424TMC3    C7 6385   2.697   1.234   0.953  0.3562 -0.5949 -0.5761
  424TMC3    C8 6386   2.966   0.853   0.802  0.0045 -0.2776 -0.2595
  424TMC3    O1 6387   2.796   1.286   1.002 -1.4000 -0.3759  0.4410
  424TMC3    O2 6388   2.954   0.734   0.772  0.4305 -0.2269 -0.0525
  425MPD2     C 6389   1.578   0.182  17.219 -0.5013 -0.6648  0.2650
  425MPD2    C1 6390   1.586   0.057  17.272  0.2556 -1.0044 -0.0792
  425MPD2    C2 6391   1.469   4.734  17.313 -0.7954 -0.1596  0.2806
  425MPD2    C3 6392   1.352   0.071  17.318  0.6504  0.1131  0.7456
  425MPD2    C4 6393   1.351   0.194  17.259 -0.0844 -0.4239  0.2290
  425MPD2    C5 6394   1.465   0.247  17.212  0.0774 -0.0342  1.0212
  425MPD2     H 6395   1.461   4.630  17.342 -0.6411 -0.4954 -0.8881
  425MPD2    H1 6396   1.269   0.265  17.260 -1.2654 -1.7732  0.6897
  425MPD2    H2 6397   1.670   0.231  17.189 -0.1385 -1.0015  0.8250
  425MPD2    H3 6398   1.463   0.353  17.189  1.4717 -0.2712 -0.2372
  425MPD2     N 6399   1.234   0.015  17.374 -0.0021  0.0555  0.1461
  425MPD2    H5 6400   1.224   4.652  17.376  2.0772 -0.1748 -1.4802
  425MPD2    N1 6401   1.710   4.737  17.293  0.1166 -0.0603  0.1731
  425MPD2    H7 6402   1.793   0.039  17.250  0.1032 -2.0740 -1.7083
  426TMC3    C1 6403   1.871   4.599  17.395  0.8835 -0.7427  0.9982
  426TMC3    C2 6404   1.922   4.544  17.274 -0.3014  0.3972  0.6806
  426TMC3    C3 6405   1.994   4.429  17.266 -0.0885 -0.1389  0.2620
  426TMC3    C4 6406   1.906   4.522  17.507 -0.2485  0.2254 -0.7404
  426TMC3    C5 6407   1.989   4.408  17.497  0.6825 -0.2333 -0.7130
  426TMC3    C6 6408   2.049   4.369  17.374  0.1931 -0.3952  0.2449
  426TMC3     C 6409   1.738   4.647  17.397 -0.1959  0.7953  0.0868
  426TMC3     O 6410   1.671   4.591  17.482  0.5979  0.5170  0.2940
  426TMC3     H 6411   1.865   4.577  17.188 -0.5842  0.0602  0.7398
  426TMC3    H1 6412   1.863   4.550  17.602  2.9856 -0.3633  0.8775
  426TMC3    H2 6413   2.088   4.268  17.372  0.2839 -0.3655  0.4989
  426TMC3    C7 6414   1.918   4.293  17.551  0.4590 -0.3009 -0.2993
  426TMC3    C8 6415   1.940   4.322  17.183  0.7315  0.2691 -0.3320
  426TMC3    O1 6416   1.973   4.190  17.574  0.4748 -0.5265  0.8623
  426TMC3    O2 6417   2.011   4.239  17.132 -0.4386 -0.2832  0.0253
  427MPD2     C 6418   4.480   1.162  14.861  0.4442 -0.7108 -0.4042
  427MPD2    C1 6419   4.565   1.257  14.830 -0.6493  0.0817 -0.9945
  427MPD2    C2 6420   4.522   1.366  14.756 -0.7051  0.2606 -0.4632
  427MPD2    C3 6421   4.394   1.372  14.713  0.0603 -0.3638  0.5469
  427MPD2    C4 6422   4.304   1.272  14.739 -0.0144 -0.6647 -1.0832
  427MPD2    C5 6423   4.359   1.158  14.806 -0.6198 -0.4270 -0.1094
  427MPD2     H 6424   4.589   1.451  14.748 -1.1495  0.6430 -0.1642
  427MPD2    H1 6425   4.209   1.273  14.687 -1.5123  0.1569  1.6574
  427MPD2    H2 6426   4.510   1.082  14.929  0.2478  0.7778  1.4277
  427MPD2    H3 6427   4.299   1.071  14.830  1.4132 -2.5427 -2.6162
  427MPD2     N 6428   4.339   1.486  14.649  0.3373 -0.2193  0.4912
  427MPD2    H5 6429   4.239   1.500  14.662  0.2262 -0.4208 -0.1681
  427MPD2    N1 6430   4.699   1.244  14.875  0.3687  0.0898 -0.6040
  427MPD2    H7 6431   4.727   1.165  14.933 -1.6784 -0.0535  0.2101
  428TMC3    C1 6432   0.186   1.287  14.922 -0.2713 -0.2114  0.1540
  428TMC3    C2 6433   0.188   1.223  15.044 -0.1120 -0.2554  0.0937
  428TMC3    C3 6434   0.302   1.215  15.121 -0.2031  0.3218 -0.6884
  428TMC3    C4 6435   0.300   1.361  14.898 -0.4062 -0.5879 -0.1616
  428TMC3    C5 6436   0.412   1.358  14.978  0.4184  0.6292  0.4965
  428TMC3    C6 6437   0.411   1.284  15.090 -0.7216 -0.3265 -1.2102
  428TMC3     C 6438   0.068   1.321  14.845  0.0097 -0.0509 -0.9363
  428TMC3     O 6439   0.075   1.414  14.758  0.0566  0.0712  0.1629
  428TMC3     H 6440   0.100   1.165  15.072  0.0145 -1.1525 -1.3651
  428TMC3    H1 6441   0.303   1.428  14.812  0.7259 -1.5748 -0.8890
  428TMC3    H2 6442   0.492   1.282  15.163 -1.1772 -1.4314 -0.7213
  428TMC3    C7 6443   0.522   1.441  14.941 -0.0452  0.4350 -0.2938
  428TMC3    C8 6444   0.299   1.120  15.227 -0.4368  0.0646 -0.0326
  428TMC3    O1 6445   0.541   1.434  14.822 -0.2134  0.4723 -0.9102
  428TMC3    O2 6446   0.184   1.090  15.258  0.0513  0.2412  0.0218
  429MPD2     C 6447   1.086   2.450  17.481 -0.1849 -0.6323 -0.7767
  429MPD2    C1 6448   1.212   2.385  17.479 -0.4570  0.0495  0.7355
  429MPD2    C2 6449   1.326   2.461  17.483 -0.6297 -0.2898  0.3547
  429MPD2    C3 6450   1.328   2.601  17.478 -0.8075  0.7049  0.0787
  429MPD2    C4 6451   1.201   2.662  17.466 -0.0102 -0.6710 -0.0029
  429MPD2    C5 6452   1.091   2.579  17.465 -0.8023  0.9893  0.2868
  429MPD2     H 6453   1.423   2.414  17.496 -0.5619 -0.0971  0.5519
  429MPD2    H1 6454   1.191   2.770  17.461  1.6398 -0.5436 -0.6414
  429MPD2    H2 6455   0.989   2.401  17.477  0.3723 -1.8412  0.4913
  429MPD2    H3 6456   0.993   2.626  17.464 -1.3374 -0.1504 -0.9492
  429MPD2     N 6457   1.451   2.676  17.499  0.1121 -0.5880  0.0623
  429MPD2    H5 6458   1.538   2.623  17.500  0.8041  0.6041  1.7482
  429MPD2    N1 6459   1.222   2.251  17.494  0.8161  0.5797  0.3657
  429MPD2    H7 6460   1.312   2.213  17.520 -0.1249 -2.1290 -0.3595
  430TMC3    C1 6461   1.591   2.836  17.407  0.1034 -0.1232  0.0568
  430TMC3    C2 6462   1.586   2.937  17.319 -0.4403 -0.5235  0.3542
  430TMC3    C3 6463   1.673   2.931  17.216 -0.0840 -1.1091 -0.4622
  430TMC3    C4 6464   1.686   2.735  17.399  0.1541  0.1856 -0.2251
  430TMC3    C5 6465   1.777   2.731  17.294  0.1567  0.2701 -0.0277
  430TMC3    C6 6466   1.768   2.833  17.201 -0.3174 -0.3758 -0.1417
  430TMC3     C 6467   1.462   2.807  17.467  0.3319 -0.2185 -0.4758
  430TMC3     O 6468   1.364   2.886  17.451 -0.0785 -0.0218  0.3363
  430TMC3     H 6469   1.506   3.010  17.331 -0.8622 -1.1823  1.5640
  430TMC3    H1 6470   1.694   2.661  17.477 -0.0340  0.1005 -0.2853
  430TMC3    H2 6471   1.852   2.836  17.134  1.2684 -4.0839  1.6771
  430TMC3    C7 6472   1.744   2.613  17.228  0.4182  0.8362  1.0232
  430TMC3    C8 6473   1.624   2.979  17.093  0.9328  0.4174  0.4331
  430TMC3    O1 6474   1.734   2.513  17.296  0.2537 -0.7270 -0.0069
  430TMC3    O2 6475   1.687   2.931  17.000  0.4975  0.6419  0.3270
  431MPD2     C 6476   2.277   2.312  12.519  1.3228  0.4449  0.2590
  431MPD2    C1 6477   2.385   2.252  12.464 -0.1873 -0.3634 -0.3668
  431MPD2    C2 6478   2.366   2.138  12.398  0.1677  0.0118 -0.2776
  431MPD2    C3 6479   2.237   2.078  12.392 -0.0590  0.1099  0.2612
  431MPD2    C4 6480   2.126   2.141  12.441  0.0166  0.4817 -0.1157
  431MPD2    C5 6481   2.153   2.251  12.509 -0.5048 -0.0429 -0.0544
  431MPD2     H 6482   2.451   2.092  12.348 -1.8175 -0.8943 -2.8176
  431MPD2    H1 6483   2.027   2.099  12.455  0.1004 -0.3956 -2.0354
  431MPD2    H2 6484   2.275   2.409  12.566 -2.4129  1.3317 -1.7005
  431MPD2    H3 6485   2.067   2.300  12.553 -0.3243  0.3086 -0.0915
  431MPD2     N 6486   2.206   1.956  12.325 -0.2108 -0.0829 -0.3402
  431MPD2    H5 6487   2.119   1.908  12.345 -0.2834  0.6745  1.2304
  431MPD2    N1 6488   2.516   2.300  12.471 -0.0613 -0.3712  0.2612
  431MPD2    H7 6489   2.593   2.250  12.427 -3.0815 -2.8306 -2.2028
  432TMC3    C1 6490   2.268   1.737  12.240  0.5576  0.4947 -0.3019
  432TMC3    C2 6491   2.357   1.680  12.152  0.1733  0.4441 -0.4869
  432TMC3    C3 6492   2.423   1.567  12.178  0.5631  0.6274  1.0222
  432TMC3    C4 6493   2.249   1.668  12.353  0.1518  0.3160  0.0256
  432TMC3    C5 6494   2.314   1.553  12.377  0.4260 -0.4982 -0.6298
  432TMC3    C6 6495   2.401   1.494  12.294  0.1003  0.3352 -0.3651
  432TMC3     C 6496   2.299   1.880  12.258  0.1509  0.5601 -0.1713
  432TMC3     O 6497   2.401   1.919  12.204 -0.2174  0.1174  0.1923
  432TMC3     H 6498   2.378   1.738  12.063  1.3293 -1.5922 -1.5375
  432TMC3    H1 6499   2.196   1.714  12.436 -1.5222  0.3630 -1.0622
  432TMC3    H2 6500   2.446   1.398  12.311 -1.9088 -0.2701  1.5810
  432TMC3    C7 6501   2.359   1.517  12.513 -0.3858 -0.7649 -0.3022
  432TMC3    C8 6502   2.501   1.507  12.071 -0.2472  0.4411  0.6734
  432TMC3    O1 6503   2.468   1.463  12.528  0.2212  0.3113 -0.0640
  432TMC3    O2 6504   2.454   1.511  11.956 -0.1725 -0.5497  0.6548
  433MPD2     C 6505   1.521   1.175  10.669  0.1359  0.4102 -0.3701
  433MPD2    C1 6506   1.518   1.049  10.735  0.5300  0.6567  0.1508
  433MPD2    C2 6507   1.577   1.032  10.861 -0.3580  0.1797  0.4057
  433MPD2    C3 6508   1.626   1.137  10.934 -0.1888 -0.3253 -0.5485
  433MPD2    C4 6509   1.621   1.261  10.878 -0.2060 -0.1314 -1.0500
  433MPD2    C5 6510   1.581   1.276  10.742 -0.7616  0.0749  1.5020
  433MPD2     H 6511   1.575   0.934  10.908  1.5747 -0.1878 -0.2700
  433MPD2    H1 6512   1.642   1.354  10.930 -2.2208 -0.4187  0.2614
  433MPD2    H2 6513   1.481   1.189  10.569 -0.0125 -0.2760 -0.4077
  433MPD2    H3 6514   1.578   1.377  10.704 -2.1311 -0.6930 -0.4766
  433MPD2     N 6515   1.676   1.116  11.066  0.8085 -0.2466 -0.0747
  433MPD2    H5 6516   1.663   1.023  11.103 -2.0358  0.9729  1.9551
  433MPD2    N1 6517   1.455   0.935  10.667 -0.0583 -0.8149  0.6204
  433MPD2    H7 6518   1.431   0.945  10.569  1.8371  0.7420  0.2997
  434TMC3    C1 6519   1.380   0.708  10.636  0.8051  0.0400  0.3890
  434TMC3    C2 6520   1.391   0.587  10.699 -0.4338  0.4312  0.3078
  434TMC3    C3 6521   1.442   0.482  10.624  0.0873  0.5882  0.3079
  434TMC3    C4 6522   1.386   0.716  10.497 -0.0707  0.5336  0.3554
  434TMC3    C5 6523   1.424   0.612  10.420  0.0708  0.1265  0.1152
  434TMC3    C6 6524   1.473   0.499  10.486  0.4493 -0.1365 -0.0690
  434TMC3     C 6525   1.417   0.819  10.727  0.3957  0.1102  0.6947
  434TMC3     O 6526   1.408   0.785  10.847 -0.4598 -0.1487 -0.0357
  434TMC3     H 6527   1.378   0.567  10.805 -1.2650 -1.2424 -0.1114
  434TMC3    H1 6528   1.351   0.809  10.453  0.1276 -0.3025 -1.5767
  434TMC3    H2 6529   1.515   0.417  10.430  1.5754 -0.4452  1.2364
  434TMC3    C7 6530   1.315   0.592  10.331 -0.7133 -0.1777 -0.1793
  434TMC3    C8 6531   1.490   0.372  10.696 -0.0604  0.5475 -0.0375
  434TMC3    O1 6532   1.255   0.685  10.287  0.3170  0.0189 -0.4456
  434TMC3    O2 6533   1.462   0.375  10.816  0.8641  0.0861 -0.1234
  435MPD2     C 6534   3.197   1.156  15.586 -0.2951 -0.2657 -0.2249
  435MPD2    C1 6535   3.176   1.124  15.715  0.3358  0.0433 -0.1331
  435MPD2    C2 6536   3.268   1.048  15.779  0.5207 -0.2774 -0.3221
  435MPD2    C3 6537   3.376   0.991  15.716 -0.3409 -0.0703  0.1040
  435MPD2    C4 6538   3.411   1.039  15.593 -0.4720  0.1731 -0.9129
  435MPD2    C5 6539   3.320   1.128  15.530 -0.7317  0.2847 -0.1140
  435MPD2     H 6540   3.255   1.026  15.884 -0.7654 -1.9040 -0.8305
  435MPD2    H1 6541   3.504   1.017  15.542 -1.3465 -1.7001 -1.7058
  435MPD2    H2 6542   3.134   1.227  15.534  0.2757  0.8841  0.6420
  435MPD2    H3 6543   3.351   1.170  15.435 -1.2516  3.9105  1.2806
  435MPD2     N 6544   3.453   0.891  15.781 -0.5584  0.0890 -0.0414
  435MPD2    H5 6545   3.420   0.868  15.875  0.0407 -0.8915 -0.0690
  435MPD2    N1 6546   3.057   1.156  15.789 -0.0295  0.3190 -0.4976
  435MPD2    H7 6547   3.050   1.125  15.885  0.5822 -2.1130 -1.2303
  436TMC3    C1 6548   2.722   1.325  15.970  0.3831 -0.1287  0.1680
  436TMC3    C2 6549   2.799   1.327  15.858  0.7705  0.1830  0.0787
  436TMC3    C3 6550   2.834   1.211  15.813  0.3506  0.4477  0.5693
  436TMC3    C4 6551   2.668   1.207  16.022  0.1841  0.2596 -0.4588
  436TMC3    C5 6552   2.703   1.086  15.970 -0.1994 -0.3569 -1.0320
  436TMC3    C6 6553   2.796   1.091  15.868  0.4976  0.1950  0.0996
  436TMC3     C 6554   2.727   1.448  16.052 -0.1329 -0.0858  0.1251
  436TMC3     O 6555   2.808   1.533  16.010  0.7774 -0.4017 -0.4576
  436TMC3     H 6556   2.836   1.415  15.807  1.9170 -1.6528 -2.2625
  436TMC3    H1 6557   2.595   1.216  16.101  1.7000  0.2863  0.9291
  436TMC3    H2 6558   2.838   0.999  15.829 -2.6204  0.5333 -4.0358
  436TMC3    C7 6559   2.659   0.968  16.038 -0.1564  0.4991  0.4491
  436TMC3    C8 6560   2.947   1.213  15.729  0.4506 -0.3520 -0.6128
  436TMC3    O1 6561   2.606   0.976  16.148  0.4739  0.1243 -0.3535
  436TMC3    O2 6562   2.937   1.290  15.637 -0.0929  0.4496  0.4273
  437TMC3    C1 6563   1.671   3.139  12.510 -0.2359 -0.5986  0.6652
  437TMC3    C2 6564   1.577   3.160  12.412 -0.5939  0.0592 -0.2866
  437TMC3    C3 6565   1.614   3.182  12.280  0.5922  0.1087  0.7542
  437TMC3    C4 6566   1.803   3.154  12.489  1.1287 -0.3738 -0.2448
  437TMC3    C5 6567   1.839   3.197  12.359  0.5355 -0.2741  0.3434
  437TMC3    C6 6568   1.749   3.205  12.257 -0.8273 -0.0250  0.8069
  437TMC3     C 6569   1.635   3.113  12.643  0.0191 -0.8469  0.3815
  437TMC3     O 6570   1.721   3.054  12.710  0.1200  0.1803  0.3304
  437TMC3     H 6571   1.478   3.127  12.442  0.3151 -1.9484  0.5578
  437TMC3    H1 6572   1.867   3.161  12.576  0.3778 -0.6517  0.3307
  437TMC3    H2 6573   1.786   3.230  12.158 -2.5038 -0.3017  0.1117
  437TMC3    C7 6574   1.979   3.224  12.332  0.0347 -0.3652 -0.8724
  437TMC3    C8 6575   1.521   3.145  12.185 -0.4916  0.0916 -0.4009
  437TMC3    O1 6576   1.996   3.292  12.233  0.0580  0.1257  0.1642
  437TMC3    O2 6577   1.416   3.101  12.228  0.1200 -0.2878 -0.7377
  438MPD2     C 6578   4.128   3.839  16.644 -0.1626 -0.1804  0.1237
  438MPD2    C1 6579   4.140   3.705  16.687 -0.0498  0.5985  0.1052
  438MPD2    C2 6580   4.089   3.681  16.816  0.1535  0.3886  0.2297
  438MPD2    C3 6581   4.022   3.771  16.893  0.2185 -0.7100  0.4958
  438MPD2    C4 6582   4.014   3.902  16.849 -0.1767  0.1732  0.7624
  438MPD2    C5 6583   4.064   3.935  16.726 -0.1784 -0.6170 -0.8311
  438MPD2     H 6584   4.103   3.578  16.846 -0.0501  0.9143  2.1303
  438MPD2    H1 6585   3.963   3.973  16.913 -0.4933  3.2587 -2.9102
  438MPD2    H2 6586   4.174   3.878  16.553  1.4211 -1.9760  0.1709
  438MPD2    H3 6587   4.062   4.037  16.690 -2.6704  0.7269  3.1826
  438MPD2     N 6588   3.962   3.734  17.015 -0.1872 -0.3348 -0.4471
  438MPD2    H5 6589   3.923   3.809  17.071 -1.9067 -0.6406 -1.2626
  438MPD2    N1 6590   4.201   3.600  16.617 -0.4842 -0.5144 -0.3850
  438MPD2    H7 6591   4.196   3.508  16.661  0.3309  0.7434  2.2997
  439TMC3    C1 6592   4.305   3.472  16.445 -0.3896  0.2796  0.3741
  439TMC3    C2 6593   4.315   3.443  16.314  0.4668  0.2538  0.0183
  439TMC3    C3 6594   4.365   3.322  16.281  1.0848 -0.1720  0.3924
  439TMC3    C4 6595   4.357   3.386  16.547  0.6873 -0.0753 -0.9601
  439TMC3    C5 6596   4.406   3.265  16.512 -0.0427 -0.1956  0.0210
  439TMC3    C6 6597   4.414   3.234  16.377  0.1574 -0.2296  0.3081
  439TMC3     C 6598   4.258   3.605  16.490 -0.6976 -0.3678 -0.2641
  439TMC3     O 6599   4.257   3.698  16.408 -0.1032  0.5867 -0.5490
  439TMC3     H 6600   4.290   3.516  16.238  0.4902 -0.4814 -0.6895
  439TMC3    H1 6601   4.387   3.427  16.643 -1.8187 -0.2359 -0.1087
  439TMC3    H2 6602   4.443   3.133  16.351  1.4097  0.0839  0.5065
  439TMC3    C7 6603   4.472   3.173  16.603 -0.6836 -0.2515  0.1526
  439TMC3    C8 6604   4.435   3.304  16.157  0.5564 -0.5164 -0.5075
  439TMC3    O1 6605   4.552   3.089  16.567 -0.7761  1.0103 -0.2776
  439TMC3    O2 6606   4.514   3.209  16.152 -0.1888 -0.4032 -0.1904
  440MPD2     C 6607   3.577   3.724  14.512 -0.1017 -0.4161  0.4074
  440MPD2    C1 6608   3.530   3.806  14.611  0.8243  0.4657 -0.0832
  440MPD2    C2 6609   3.597   3.847  14.719 -0.2736 -0.3932 -0.4112
  440MPD2    C3 6610   3.724   3.795  14.735 -0.5137 -0.1891 -0.4894
  440MPD2    C4 6611   3.786   3.713  14.639  0.8397 -0.0244 -0.8198
  440MPD2    C5 6612   3.705   3.671  14.531 -0.3680  0.1765 -0.1507
  440MPD2     H 6613   3.550   3.909  14.795 -1.3291  0.0751 -1.4486
  440MPD2    H1 6614   3.891   3.687  14.638  0.6963 -0.6128  0.4835
  440MPD2    H2 6615   3.519   3.672  14.437  2.0580 -1.6644 -0.3891
  440MPD2    H3 6616   3.749   3.609  14.454 -2.0435 -2.5124  1.0285
  440MPD2     N 6617   3.785   3.833  14.858  0.4659 -0.2513 -0.6316
  440MPD2    H5 6618   3.731   3.892  14.922 -0.1004 -0.4029 -0.9735
  440MPD2    N1 6619   3.400   3.862  14.609  0.2826  0.0829 -0.0481
  440MPD2    H7 6620   3.371   3.914  14.691  1.8965 -0.1390  0.6546
  441TMC3    C1 6621   3.913   3.838  15.046 -0.2562 -1.4578  0.0639
  441TMC3    C2 6622   3.913   3.976  15.047 -0.4277  0.4212  0.4393
  441TMC3    C3 6623   3.972   4.030  15.161 -0.0456  0.1106 -0.6903
  441TMC3    C4 6624   3.971   3.757  15.139  0.3096 -1.1662  0.2717
  441TMC3    C5 6625   4.007   3.816  15.259  0.0985  0.0371 -0.0375
  441TMC3    C6 6626   4.026   3.954  15.257 -0.2017 -0.2577 -0.0032
  441TMC3     C 6627   3.888   3.774  14.910  0.6628  0.4991 -0.0101
  441TMC3     O 6628   3.962   3.682  14.872  0.0111  0.1165  0.3979
  441TMC3     H 6629   3.877   4.035  14.963 -1.7910 -2.7822 -1.2212
  441TMC3    H1 6630   3.975   3.649  15.129  0.5927 -1.3934  2.7230
  441TMC3    H2 6631   4.068   4.000  15.345 -0.8148  2.0927 -0.9240
  441TMC3    C7 6632   3.955   3.745  15.376  0.2754 -0.8147 -0.4740
  441TMC3    C8 6633   3.951   4.174  15.199 -0.2491  0.4235  0.8182
  441TMC3    O1 6634   3.869   3.663  15.356  0.1863  0.2458  0.2070
  441TMC3    O2 6635   4.042   4.235  15.262  0.0840  0.4570  0.7310
  442MPD2     C 6636   1.224   4.115  16.824  0.3396 -0.0526  0.2161
  442MPD2    C1 6637   1.133   4.156  16.729  0.2647 -0.0209 -0.5214
  442MPD2    C2 6638   1.131   4.083  16.608 -0.3289 -0.0862 -0.1911
  442MPD2    C3 6639   1.210   3.968  16.593  0.6103  0.0384  0.7326
  442MPD2    C4 6640   1.291   3.924  16.693  0.4604 -0.2852 -0.0245
  442MPD2    C5 6641   1.300   3.999  16.803 -0.2801 -0.2721  0.0680
  442MPD2     H 6642   1.057   4.103  16.531  1.8776 -0.5702 -2.4229
  442MPD2    H1 6643   1.347   3.833  16.676  2.8463  0.9803  1.0562
  442MPD2    H2 6644   1.245   4.172  16.913  2.8731 -2.3580  1.1094
  442MPD2    H3 6645   1.361   3.956  16.881  0.0889  2.0734  1.0957
  442MPD2     N 6646   1.213   3.888  16.473  0.1191 -0.3747  0.0604
  442MPD2    H5 6647   1.292   3.825  16.466  1.5125  1.1389  2.2721
  442MPD2    N1 6648   1.052   4.270  16.748  0.3543 -0.1640  0.1762
  442MPD2    H7 6649   0.996   4.312  16.674 -0.9887 -3.4380 -0.6580
  443TMC3    C1 6650   0.985   4.475  16.857 -0.1845  0.1884  1.2388
  443TMC3    C2 6651   0.994   4.551  16.750 -0.1640  0.4329 -0.1812
  443TMC3    C3 6652   0.924   4.671  16.752 -0.0620 -0.1734 -0.2279
  443TMC3    C4 6653   0.892   4.506  16.958 -0.1371 -0.1437 -0.0555
  443TMC3    C5 6654   0.816   4.618  16.957  0.3381  0.3425 -0.4359
  443TMC3    C6 6655   0.842   4.705  16.857  0.1782 -0.2861 -0.2045
  443TMC3     C 6656   1.030   4.333  16.870 -0.2113 -0.0453 -0.3392
  443TMC3     O 6657   1.057   4.288  16.980  0.6145  0.1123 -0.2578
  443TMC3     H 6658   1.058   4.529  16.665 -1.3448 -0.1972 -0.9097
  443TMC3    H1 6659   0.848   4.425  17.016  0.4428  0.2740  0.9665
  443TMC3    H2 6660   0.775   0.052  16.840 -0.9455 -1.0963  0.1956
  443TMC3    C7 6661   0.678   4.584  16.966 -0.1253  0.2503  0.3867
  443TMC3    C8 6662   0.912   0.007  16.624  0.4113 -0.5272 -0.1992
  443TMC3    O1 6663   0.652   4.488  16.896  0.1322 -0.2991  0.0706
  443TMC3    O2 6664   0.868   0.122  16.626 -0.6155  0.8021 -0.9607
  444MPD2     C 6665   1.504   3.619  17.027  0.3660  0.2196 -0.1501
  444MPD2    C1 6666   1.432   3.555  16.929 -0.7710 -0.7265 -0.1297
  444MPD2    C2 6667   1.487   3.455  16.859 -0.1175  0.1072 -0.3558
  444MPD2    C3 6668   1.620   3.416  16.870  0.5494  0.3376 -0.2639
  444MPD2    C4 6669   1.687   3.486  16.970 -0.5128  0.1385  0.2934
  444MPD2    C5 6670   1.635   3.586  17.043  0.0308  1.0534  0.4598
  444MPD2     H 6671   1.426   3.404  16.785 -2.5410  0.3000  1.5239
  444MPD2    H1 6672   1.791   3.466  16.996 -0.3161 -1.6173 -1.7811
  444MPD2    H2 6673   1.459   3.687  17.098 -1.2181 -0.6801 -0.2967
  444MPD2    H3 6674   1.689   3.643  17.118 -1.4359  0.3676  2.0363
  444MPD2     N 6675   1.676   3.311  16.794  0.3822 -0.1235  0.4053
  444MPD2    H5 6676   1.612   3.259  16.734  1.2041  1.6526 -1.9996
  444MPD2    N1 6677   1.299   3.593  16.898  0.0017 -0.7838  0.3465
  444MPD2    H7 6678   1.255   3.549  16.817  1.7925 -1.0783 -0.4667
  445TMC3    C1 6679   1.856   3.178  16.701  0.1779 -0.0875  0.0915
  445TMC3    C2 6680   1.765   3.087  16.649  0.3345 -0.1904 -0.0423
  445TMC3    C3 6681   1.806   3.005  16.555 -0.1926 -0.3308 -0.0060
  445TMC3    C4 6682   1.992   3.164  16.678  0.1566  0.0848 -0.2536
  445TMC3    C5 6683   2.032   3.071  16.589  0.7587 -0.1234 -0.0394
  445TMC3    C6 6684   1.937   2.994  16.516  0.7185 -0.3283 -0.1568
  445TMC3     C 6685   1.813   3.285  16.793  0.2219  0.3075  0.8334
  445TMC3     O 6686   1.908   3.329  16.855 -0.0593 -0.0208  0.0073
  445TMC3     H 6687   1.660   3.080  16.674 -0.0279 -1.6803 -1.9594
  445TMC3    H1 6688   2.067   3.229  16.721  1.7303 -1.2722 -0.9869
  445TMC3    H2 6689   1.966   2.916  16.448 -3.2182 -2.4725  0.6283
  445TMC3    C7 6690   2.168   3.047  16.571  0.8097  0.5652  0.3686
  445TMC3    C8 6691   1.732   2.877  16.547  0.1030  0.2682 -0.4026
  445TMC3    O1 6692   2.198   3.002  16.461  0.2309 -0.2563 -0.6507
  445TMC3    O2 6693   1.647   2.856  16.629 -0.2339  0.0406  0.0148
  446MPD2     C 6694   1.222   0.214  11.322 -0.4917 -0.3591  0.2384
  446MPD2    C1 6695   1.204   0.230  11.183  0.3667 -0.0969 -0.3606
  446MPD2    C2 6696   1.308   0.295  11.109 -0.3573 -0.2765  0.3941
  446MPD2    C3 6697   1.421   0.341  11.178 -0.0719  0.7093  0.6642
  446MPD2    C4 6698   1.422   0.339  11.315 -0.0907  0.4503  0.0644
  446MPD2    C5 6699   1.326   0.271  11.387  0.4327 -0.7701  0.2916
  446MPD2     H 6700   1.306   0.294  11.000  2.2889  0.3911  0.3541
  446MPD2    H1 6701   1.499   0.379  11.380  1.0284  0.3939 -1.2156
  446MPD2    H2 6702   1.143   0.170  11.381 -1.9817  1.4877 -0.3752
  446MPD2    H3 6703   1.325   0.266  11.495  1.1971  0.3084  0.3458
  446MPD2     N 6704   1.523   0.390  11.094 -0.5640 -0.2445  0.5902
  446MPD2    H5 6705   1.498   0.405  10.997  3.8068 -0.1200 -0.5142
  446MPD2    N1 6706   1.097   0.167  11.112  0.4060  0.1853  0.1127
  446MPD2    H7 6707   1.085   0.206  11.019  2.3227 -0.5035 -0.4254
  447TMC3    C1 6708   1.737   0.447  11.028 -0.0364  0.0460 -0.3096
  447TMC3    C2 6709   1.706   0.505  10.910  0.7600  0.0623  0.0522
  447TMC3    C3 6710   1.796   0.501  10.807 -0.3575 -0.7171 -0.3250
  447TMC3    C4 6711   1.859   0.381  11.044  0.5704 -0.3282  0.6255
  447TMC3    C5 6712   1.953   0.404  10.949 -0.0368  0.1174 -0.6172
  447TMC3    C6 6713   1.921   0.450  10.826  0.0442  0.6773 -0.4801
  447TMC3     C 6714   1.648   0.428  11.139 -0.1668  0.9977  0.1733
  447TMC3     O 6715   1.703   0.406  11.245  0.8467 -0.1679  0.3250
  447TMC3     H 6716   1.611   0.556  10.897  0.6934  0.1169  0.7584
  447TMC3    H1 6717   1.881   0.329  11.137  1.2830 -1.0668  0.0329
  447TMC3    H2 6718   1.988   0.459  10.741 -0.6170  0.7413 -0.9998
  447TMC3    C7 6719   2.083   0.456  10.991 -0.1991 -0.8579  0.0291
  447TMC3    C8 6720   1.801   0.621  10.717 -0.0418 -1.2224  0.4175
  447TMC3    O1 6721   2.144   0.523  10.911  0.1529  0.4322 -0.1623
  447TMC3    O2 6722   1.823   0.595  10.600 -0.1856 -0.1628 -0.0656
  448TMC3    C1 6723   0.334   0.203  17.003  0.0823 -0.2559 -0.5326
  448TMC3    C2 6724   0.268   0.088  16.952 -0.1782  1.1395  0.0816
  448TMC3    C3 6725   0.155   0.047  17.010 -0.2409 -0.4171  0.5828
  448TMC3    C4 6726   0.282   0.272  17.105 -0.2076  0.1023 -0.2918
  448TMC3    C5 6727   0.155   0.233  17.146  0.0281  0.5180  0.4537
  448TMC3    C6 6728   0.092   0.115  17.106  0.1906  0.1914 -0.2176
  448TMC3     C 6729   0.457   0.238  16.933 -0.1811 -0.2027 -0.2534
  448TMC3     O 6730   0.510   0.149  16.870 -0.0277  0.1083 -0.4435
  448TMC3     H 6731   0.311   0.035  16.869  1.3951  0.8348  1.0854
  448TMC3    H1 6732   0.337   0.356  17.146 -0.5372  0.8001 -1.2776
  448TMC3    H2 6733   4.730   0.092  17.143 -0.0167 -1.3371 -1.7390
  448TMC3    C7 6734   0.118   0.295  17.274  0.3773 -0.0123  0.0094
  448TMC3    C8 6735   0.071   4.680  16.952 -0.3391  0.0846  0.1197
  448TMC3    O1 6736   0.200   0.378  17.315 -0.0271  0.0949 -0.9874
  448TMC3    O2 6737   4.712   4.639  17.019  0.0567 -0.2903 -0.5831
  449MPD2     C 6738   1.072   3.363  13.908  0.3580 -0.2947  0.4220
  449MPD2    C1 6739   0.946   3.402  13.864  0.5083  0.3715 -0.1471
  449MPD2    C2 6740   0.846   3.309  13.887  0.3355 -0.0409 -1.1369
  449MPD2    C3 6741   0.865   3.192  13.955 -0.1137  0.4581  0.3668
  449MPD2    C4 6742   0.986   3.164  14.009  0.5470 -0.7612 -0.7131
  449MPD2    C5 6743   1.087   3.248  13.985 -0.4693  0.3276  0.0494
  449MPD2     H 6744   0.743   3.324  13.857 -0.7577 -1.0914  2.0310
  449MPD2    H1 6745   1.003   3.070  14.061  2.1760  0.2257  0.5322
  449MPD2    H2 6746   1.152   3.435  13.893  0.5234 -0.7363 -0.7977
  449MPD2    H3 6747   1.180   3.215  14.029  0.6796  1.2593 -1.6895
  449MPD2     N 6748   0.748   3.104  13.951  0.3552 -0.3216 -0.2515
  449MPD2    H5 6749   0.663   3.139  13.909  1.3999  0.9533 -1.3031
  449MPD2    N1 6750   0.913   3.521  13.795 -0.5668  0.0379 -0.5427
  449MPD2    H7 6751   0.815   3.525  13.768 -1.3403 -0.3460  2.3096
  450TMC3    C1 6752   0.914   3.726  13.704  0.0726  0.4208  0.5065
  450TMC3    C2 6753   0.942   3.748  13.572  0.2074  0.1603  0.2036
  450TMC3    C3 6754   0.836   3.750  13.484  0.1609 -1.2747 -0.5480
  450TMC3    C4 6755   0.790   3.719  13.749 -0.2360  0.5540  0.7294
  450TMC3    C5 6756   0.682   3.724  13.665 -0.1109 -0.3322 -0.0396
  450TMC3    C6 6757   0.711   3.736  13.533  0.7741  0.4865  0.3257
  450TMC3     C 6758   0.996   3.623  13.765 -0.0380 -0.4898  0.5957
  450TMC3     O 6759   1.112   3.617  13.751 -0.3510  0.2134  0.0961
  450TMC3     H 6760   1.046   3.749  13.542  0.6563  1.3319  1.8090
  450TMC3    H1 6761   0.778   3.710  13.857  1.9724 -0.3036  0.9010
  450TMC3    H2 6762   0.633   3.732  13.458  0.3529  2.8960  0.6143
  450TMC3    C7 6763   0.585   3.619  13.694  0.1799  0.0867 -0.3530
  450TMC3    C8 6764   0.854   3.754  13.340 -0.1395  0.0111  0.7915
  450TMC3    O1 6765   0.638   3.514  13.733  0.1722 -0.2255 -0.8202
  450TMC3    O2 6766   0.769   3.810  13.266  0.6361 -0.2778 -0.0409
  451MPD2     C 6767   2.004   1.902   0.676 -1.0489  0.1984  0.1385
  451MPD2    C1 6768   2.086   1.954   0.770 -0.5059  0.2687  0.0990
  451MPD2    C2 6769   2.212   1.904   0.790 -0.0901  0.1145  0.6853
  451MPD2    C3 6770   2.249   1.794   0.715  0.4606  0.3718 -0.7992
  451MPD2    C4 6771   2.158   1.730   0.629  0.3289 -0.4855  0.0086
  451MPD2    C5 6772   2.040   1.796   0.602  0.0016 -0.0102  0.6472
  451MPD2     H 6773   2.272   1.945   0.870 -0.2940 -0.9149  1.3558
  451MPD2    H1 6774   2.186   1.646   0.567 -0.1634 -1.6376  1.3508
  451MPD2    H2 6775   1.908   1.954   0.669 -1.7095 -0.8054  1.9269
  451MPD2    H3 6776   1.980   1.757   0.521  0.1481 -0.3952  0.7229
  451MPD2     N 6777   2.378   1.737   0.721 -0.3834 -0.3831 -0.4736
  451MPD2    H5 6778   2.383   1.654   0.663 -1.5776  0.3263 -1.6121
  451MPD2    N1 6779   2.036   2.074   0.835 -0.3869  0.3404  0.2523
  451MPD2    H7 6780   1.949   2.117   0.804 -0.3925 -1.2899 -1.9990
  452TMC3    C1 6781   2.595   1.691   0.771 -0.2688  0.0385  0.0892
  452TMC3    C2 6782   2.559   1.566   0.726 -0.2107  0.5619 -0.5487
  452TMC3    C3 6783   2.651   1.504   0.647  0.0951 -0.0715  0.2941
  452TMC3    C4 6784   2.719   1.749   0.750  0.5064  0.0583 -0.4383
  452TMC3    C5 6785   2.813   1.673   0.690 -0.3317 -0.5156  0.5493
  452TMC3    C6 6786   2.780   1.550   0.632 -0.1402  0.6354  0.2721
  452TMC3     C 6787   2.483   1.788   0.794  0.6883 -0.1221  0.0328
  452TMC3     O 6788   2.499   1.888   0.861  0.0222 -0.1169  0.0283
  452TMC3     H 6789   2.465   1.513   0.737 -0.1807  0.7597  0.5838
  452TMC3    H1 6790   2.741   1.852   0.776 -1.3737 -0.5472  3.5839
  452TMC3    H2 6791   2.857   1.488   0.588 -0.6002  0.5478 -0.4256
  452TMC3    C7 6792   2.927   1.729   0.625 -0.1677 -0.1854 -0.3379
  452TMC3    C8 6793   2.620   1.372   0.604 -0.2609  0.0055 -0.7096
  452TMC3    O1 6794   2.978   1.664   0.534  0.6301  0.1738 -0.7563
  452TMC3    O2 6795   2.515   1.326   0.642  0.3268  0.5100 -0.1953
  453TMC3    C1 6796   3.785   3.886  11.691 -0.9193  0.1505 -0.2621
  453TMC3    C2 6797   3.727   3.774  11.632  0.6585 -0.6202 -0.2492
  453TMC3    C3 6798   3.639   3.797  11.526 -0.3186 -0.4390 -0.0004
  453TMC3    C4 6799   3.774   4.012  11.637  0.1659  0.2647 -0.1493
  453TMC3    C5 6800   3.690   4.028  11.536 -0.3989 -0.8563 -0.2696
  453TMC3    C6 6801   3.617   3.925  11.481  0.2492  0.2935  0.1258
  453TMC3     C 6802   3.874   3.879  11.803  0.3793 -0.1268 -0.0144
  453TMC3     O 6803   3.931   3.980  11.832 -0.0305 -0.4669 -0.4578
  453TMC3     H 6804   3.718   3.674  11.672 -2.0172 -0.1966  0.2314
  453TMC3    H1 6805   3.844   4.090  11.665  1.4758 -1.0956  0.3840
  453TMC3    H2 6806   3.553   3.935  11.394  3.6931 -1.8661 -2.6122
  453TMC3    C7 6807   3.698   4.144  11.455 -0.5802  0.1995 -0.7119
  453TMC3    C8 6808   3.586   3.692  11.446  0.3138 -0.4697  0.0222
  453TMC3    O1 6809   3.625   4.147  11.357 -0.2687 -0.4631 -0.8361
  453TMC3    O2 6810   3.468   3.706  11.403 -0.0988  1.0652  0.6223
  454MPD2     C 6811   2.327   3.352  16.405 -0.1373  0.5705  0.6229
  454MPD2    C1 6812   2.257   3.431  16.315  0.3544 -0.2801 -0.0492
  454MPD2    C2 6813   2.172   3.522  16.366  0.1871 -0.8728  0.1771
  454MPD2    C3 6814   2.160   3.545  16.502 -0.2526  0.0641  0.0110
  454MPD2    C4 6815   2.221   3.461  16.592 -0.3106  0.4488  0.3443
  454MPD2    C5 6816   2.304   3.367  16.543 -0.7581  0.2007 -0.2008
  454MPD2     H 6817   2.122   3.584  16.293  1.5908 -0.6504 -0.6047
  454MPD2    H1 6818   2.219   3.483  16.698 -0.0577  2.2301 -0.0341
  454MPD2    H2 6819   2.391   3.274  16.365 -1.8520 -0.5848  0.1269
  454MPD2    H3 6820   2.361   3.319  16.622 -0.8468 -3.0035 -2.0998
  454MPD2     N 6821   2.084   3.649  16.555 -0.4317 -0.0856  0.0251
  454MPD2    H5 6822   2.063   3.655  16.655  1.3168 -1.6737  0.4914
  454MPD2    N1 6823   2.263   3.430  16.172  0.3776  0.2716  0.1968
  454MPD2    H7 6824   2.193   3.487  16.125  1.7682 -0.0235 -2.2264
  455TMC3    C1 6825   1.929   3.817  16.560  0.2287 -0.0595 -0.1981
  455TMC3    C2 6826   1.937   3.818  16.695  0.1009  0.3349  0.8056
  455TMC3    C3 6827   1.818   3.825  16.765 -1.0226  0.6329  0.1862
  455TMC3    C4 6828   1.803   3.800  16.503 -0.6729 -0.1246 -0.7427
  455TMC3    C5 6829   1.691   3.775  16.578  0.9074 -0.7926  0.7240
  455TMC3    C6 6830   1.697   3.806  16.707 -0.2974 -0.4055 -0.1012
  455TMC3     C 6831   2.026   3.748  16.485 -0.6913  0.1322 -0.1296
  455TMC3     O 6832   2.023   3.765  16.364 -0.0965 -0.0224  0.1925
  455TMC3     H 6833   2.033   3.834  16.744  1.3146  2.2854 -2.1921
  455TMC3    H1 6834   1.800   3.777  16.397  1.2301 -0.9587 -0.6072
  455TMC3    H2 6835   1.603   3.806  16.761 -0.8465 -0.0946 -1.0446
  455TMC3    C7 6836   1.595   3.676  16.531 -0.7276  0.2872  1.0390
  455TMC3    C8 6837   1.838   3.902  16.887  0.0292 -0.2767 -0.4177
  455TMC3    O1 6838   1.495   3.664  16.599  0.1373 -0.1358 -0.1169
  455TMC3    O2 6839   1.937   3.971  16.889  0.0093  0.4516  0.2116
  456MPD2     C 6840   4.680   3.453  16.699  0.1505 -0.0959  0.3319
  456MPD2    C1 6841   4.647   3.547  16.610  0.0536 -0.4914 -0.0383
  456MPD2    C2 6842   4.567   3.643  16.660  0.0363 -0.5505 -0.0418
  456MPD2    C3 6843   4.522   3.656  16.787  0.1674 -0.2239 -0.2693
  456MPD2    C4 6844   4.562   3.557  16.874  1.2047 -1.1985  0.2479
  456MPD2    C5 6845   4.648   3.461  16.826  0.4899 -0.1042 -0.3849
  456MPD2     H 6846   4.539   3.725  16.595  0.0466 -0.7360 -0.2828
  456MPD2    H1 6847   4.537   3.543  16.978  2.3710  1.4046  0.8759
  456MPD2    H2 6848   0.015   3.374  16.678  1.6486  0.3436  3.8893
  456MPD2    H3 6849   4.686   3.378  16.884 -0.6408 -0.5514 -0.2990
  456MPD2     N 6850   4.453   3.776  16.830 -0.1892  0.1005 -0.5816
  456MPD2    H5 6851   4.433   3.842  16.756  1.4362  0.3557 -0.7920
  456MPD2    N1 6852   4.694   3.540  16.479 -0.0656 -0.4519  1.2637
  456MPD2    H7 6853   0.015   3.460  16.456 -0.5713  0.1244 -2.1144
  457TMC3    C1 6854   4.372   3.944  16.972  0.7462  0.3066  0.4491
  457TMC3    C2 6855   4.400   4.028  16.871 -0.1683  0.0232 -0.1339
  457TMC3    C3 6856   4.359   4.158  16.899  0.0151  0.4351 -0.1226
  457TMC3    C4 6857   4.318   3.972  17.095 -0.3704 -0.3496 -0.4476
  457TMC3    C5 6858   4.275   4.103  17.119 -0.4843  0.1918  0.1739
  457TMC3    C6 6859   4.286   4.191  17.011  0.9431  0.0203  0.0377
  457TMC3     C 6860   4.435   3.813  16.965 -0.1632 -0.3984  0.2304
  457TMC3     O 6861   4.461   3.751  17.067  0.1388 -0.5873  0.2949
  457TMC3     H 6862   4.459   4.010  16.782 -2.1142 -1.1945 -1.1942
  457TMC3    H1 6863   4.290   3.888  17.158 -1.2260  0.7183  0.5825
  457TMC3    H2 6864   4.254   4.293  17.027 -0.6380 -0.2954 -1.1164
  457TMC3    C7 6865   4.296   4.143  17.254 -0.0126 -0.6034  0.0357
  457TMC3    C8 6866   4.469   4.260  16.888  0.4881  0.3837  0.3012
  457TMC3    O1 6867   4.348   4.048  17.312 -0.4654 -0.4096 -0.7394
  457TMC3    O2 6868   4.479   4.345  16.975  0.0861 -0.3092  0.0792
  458MPD2     C 6869   2.486   3.217  12.416  0.2751 -0.2116 -0.0852
  458MPD2    C1 6870   2.427   3.117  12.491 -0.4757  0.2128  0.4093
  458MPD2    C2 6871   2.294   3.086  12.485 -0.3784 -0.3052 -0.2158
  458MPD2    C3 6872   2.217   3.164  12.400  0.3968 -0.1776  0.3301
  458MPD2    C4 6873   2.275   3.268  12.324 -0.6313  0.6967 -0.0399
  458MPD2    C5 6874   2.409   3.297  12.334 -0.3831  0.1703 -0.2759
  458MPD2     H 6875   2.257   3.000  12.540 -0.7641 -0.1650 -0.2549
  458MPD2    H1 6876   2.215   3.342  12.272 -1.0941  1.1151  1.0738
  458MPD2    H2 6877   2.592   3.238  12.428  0.6478 -1.1972 -1.7118
  458MPD2    H3 6878   2.460   3.382  12.291 -1.9835  0.7850 -0.9487
  458MPD2     N 6879   2.075   3.157  12.412  0.1544  0.9819  0.3747
  458MPD2    H5 6880   2.039   3.087  12.477  0.6490 -0.7904 -1.2399
  458MPD2    N1 6881   2.520   3.053  12.573 -0.7312  0.3565  1.0226
  458MPD2    H7 6882   2.614   3.090  12.570  0.2288 -1.9809  2.4008
  459TMC3    C1 6883   2.618   2.922  12.738 -0.1900 -0.2367 -0.0960
  459TMC3    C2 6884   2.727   3.010  12.743  0.0343 -0.3185 -0.3672
  459TMC3    C3 6885   2.844   2.953  12.787 -0.1600 -0.2732  0.3381
  459TMC3    C4 6886   2.622   2.792  12.775 -0.5926 -0.0272 -0.2427
  459TMC3    C5 6887   2.741   2.740  12.824 -0.2952 -0.0420  0.1123
  459TMC3    C6 6888   2.856   2.817  12.818 -0.6389 -0.1671  0.0130
  459TMC3     C 6889   2.497   2.953  12.662 -0.9301  0.1376 -0.0943
  459TMC3     O 6890   2.391   2.894  12.676 -0.4809  0.0941 -0.6890
  459TMC3     H 6891   2.713   3.116  12.722  2.0979 -0.1892 -1.0749
  459TMC3    H1 6892   2.533   2.731  12.766 -0.2853 -0.2156 -2.0209
  459TMC3    H2 6893   2.953   2.779  12.848 -0.9029 -1.4339 -0.7038
  459TMC3    C7 6894   2.759   2.605  12.875 -0.0288 -0.1671  0.1988
  459TMC3    C8 6895   2.978   3.009  12.750 -0.3044 -0.1793 -0.2582
  459TMC3    O1 6896   2.852   2.573  12.941 -0.3037  0.0348  0.6555
  459TMC3    O2 6897   3.074   2.933  12.736  0.1143  0.6880 -0.1778
  460MPD2     C 6898   1.939   0.940  10.811  0.6227 -0.1614 -0.0486
  460MPD2    C1 6899   1.870   0.850  10.730 -0.9893  0.2356  0.4042
  460MPD2    C2 6900   1.806   0.894  10.616  0.1576 -0.9358 -0.3349
  460MPD2    C3 6901   1.821   1.021  10.582 -0.6713  0.6139 -0.1777
  460MPD2    C4 6902   1.887   1.115  10.651  0.1007  1.1759 -0.0233
  460MPD2    C5 6903   1.943   1.068  10.767 -0.4475 -0.8583 -0.3999
  460MPD2     H 6904   1.757   0.827  10.547 -0.3039 -1.7233  0.7612
  460MPD2    H1 6905   1.905   1.220  10.633  1.8614  1.2298  2.1640
  460MPD2    H2 6906   1.979   0.913  10.908  1.2891  3.3153  0.6224
  460MPD2    H3 6907   1.990   1.144  10.828  0.9129 -1.1676 -1.0488
  460MPD2     N 6908   1.766   1.073  10.460  0.3665  0.2226 -0.1815
  460MPD2    H5 6909   1.808   1.161  10.430 -1.1479  1.5895  1.7187
  460MPD2    N1 6910   1.834   0.724  10.792  0.4886 -0.2704 -0.3526
  460MPD2    H7 6911   1.866   0.696  10.884 -3.1477  1.1216  1.3371
  461TMC3    C1 6912   1.653   1.084  10.239  0.2035 -0.1023 -0.3408
  461TMC3    C2 6913   1.566   1.026  10.147 -0.0189 -0.0538  0.6584
  461TMC3    C3 6914   1.546   1.088  10.029  0.2912  0.2153  0.3378
  461TMC3    C4 6915   1.724   1.197  10.210  0.4290 -0.3685 -0.1226
  461TMC3    C5 6916   1.692   1.254  10.087  0.1612 -0.3433 -0.0346
  461TMC3    C6 6917   1.606   1.203   9.993  0.2385  0.5962 -0.2261
  461TMC3     C 6918   1.685   1.008  10.362  0.1786 -0.9370 -0.5497
  461TMC3     O 6919   1.623   0.904  10.373 -0.3770  0.9276  1.1226
  461TMC3     H 6920   1.524   0.928  10.171  0.8768 -0.4989  0.4168
  461TMC3    H1 6921   1.789   1.248  10.280  0.3067  0.5714 -0.6973
  461TMC3    H2 6922   1.590   1.253   9.898 -0.1724  1.7160  0.4405
  461TMC3    C7 6923   1.741   1.388  10.052 -0.1599  0.5264 -0.1013
  461TMC3    C8 6924   1.497   1.012   9.924  0.2976 -0.0140 -0.5688
  461TMC3    O1 6925   1.685   1.446   9.959 -0.0402  0.4670  0.1914
  461TMC3    O2 6926   1.503   1.050   9.806 -0.0352 -0.6790 -0.2688
  462TMC3    C1 6927   0.865   2.096   0.432  1.1966 -0.0123  0.2437
  462TMC3    C2 6928   0.995   2.114   0.441 -0.0745  0.4937 -0.0549
  462TMC3    C3 6929   1.070   2.002   0.424  0.5099  0.0920  0.1090
  462TMC3    C4 6930   0.793   1.978   0.422  0.3174 -0.9469  0.9281
  462TMC3    C5 6931   0.870   1.863   0.422 -0.7425  0.5043 -0.4575
  462TMC3    C6 6932   1.007   1.882   0.410 -1.0424 -0.1780 -0.0487
  462TMC3     C 6933   0.794   2.213   0.488 -0.8146  0.9468 -0.1730
  462TMC3     O 6934   0.855   2.300   0.549  0.0552  0.0149 -0.1211
  462TMC3     H 6935   1.050   2.207   0.450 -0.2832  0.5612  0.5794
  462TMC3    H1 6936   0.685   1.977   0.420  0.3532 -2.2881 -0.1729
  462TMC3    H2 6937   1.063   1.797   0.446 -1.7460 -0.3643  0.6015
  462TMC3    C7 6938   0.816   1.736   0.390  0.2997 -0.1706  0.3130
  462TMC3    C8 6939   1.210   2.016   0.451  0.3374  0.5749 -0.3782
  462TMC3    O1 6940   0.886   1.644   0.350  0.5517  0.2986 -0.2599
  462TMC3    O2 6941   1.255   2.081   0.547 -0.1056 -0.5621 -0.7864
  463MPD2     C 6942   3.355   0.059   1.098 -0.1624  0.3494 -0.0758
  463MPD2    C1 6943   3.267   0.164   1.099 -0.9526 -0.2037  0.2037
  463MPD2    C2 6944   3.312   0.287   1.150 -0.0681 -0.3882  0.0613
  463MPD2    C3 6945   3.440   0.303   1.194  0.3231 -0.3754 -0.9654
  463MPD2    C4 6946   3.521   0.193   1.198 -0.3521 -0.7186  0.5401
  463MPD2    C5 6947   3.483   0.070   1.140 -0.0276  0.7265  0.4312
  463MPD2     H 6948   3.243   0.370   1.153  1.2171  0.6948 -0.7063
  463MPD2    H1 6949   3.628   0.207   1.210 -0.0447 -3.9246  1.4711
  463MPD2    H2 6950   3.325   4.698   1.065  0.9032  0.9039 -2.6928
  463MPD2    H3 6951   3.546   4.719   1.130 -1.8952 -0.6316  0.6883
  463MPD2     N 6952   3.494   0.431   1.229  0.2713 -0.4503  0.6902
  463MPD2    H5 6953   3.594   0.437   1.247  0.1412 -0.0652  1.2407
  463MPD2    N1 6954   3.143   0.158   1.048  0.2338  0.3499  0.1492
  463MPD2    H7 6955   3.092   0.243   1.070 -2.8585 -1.7444  1.0770
  464TMC3    C1 6956   2.937   0.084   0.951  0.5763  0.4724  0.5491
  464TMC3    C2 6957   2.901   0.213   0.938  0.7439 -0.4032 -0.1397
  464TMC3    C3 6958   2.771   0.234   0.913  0.3279 -0.4081  0.5300
  464TMC3    C4 6959   2.845   4.719   0.938 -0.8013  0.2533  0.2433
  464TMC3    C5 6960   2.718   0.010   0.906  0.0921 -0.0742  0.2543
  464TMC3    C6 6961   2.680   0.137   0.891  0.0370 -0.5984 -0.0290
  464TMC3     C 6962   3.076   0.052   0.992  0.8965 -0.4676  0.4947
  464TMC3     O 6963   3.103   4.670   0.997 -0.2586 -0.2827 -0.1399
  464TMC3     H 6964   2.978   0.289   0.941 -0.4918  0.9164 -2.2769
  464TMC3    H1 6965   2.880   4.621   0.968 -0.0008  0.4973  0.1221
  464TMC3    H2 6966   2.582   0.163   0.855  0.9808  0.4356 -1.8354
  464TMC3    C7 6967   2.617   4.638   0.920  0.6145  0.1864 -0.0409
  464TMC3    C8 6968   2.723   0.374   0.913 -0.0640  0.2323  0.4768
  464TMC3    O1 6969   2.655   4.523   0.934 -0.5779  0.6999  0.0017
  464TMC3    O2 6970   2.625   0.400   0.845  0.1094  0.4533 -0.5172
  465MPD2     C 6971   3.774   3.529  16.569  0.0193 -0.5047 -0.2052
  465MPD2    C1 6972   3.672   3.532  16.666  0.5004  0.2511 -0.1295
  465MPD2    C2 6973   3.551   3.598  16.636  0.2583 -0.3797 -0.0560
  465MPD2    C3 6974   3.530   3.662  16.520  0.3623 -0.3158  0.5966
  465MPD2    C4 6975   3.627   3.651  16.422 -0.0186 -0.4682 -0.1380
  465MPD2    C5 6976   3.747   3.589  16.454  0.2099 -0.2905  0.1027
  465MPD2     H 6977   3.494   3.617  16.726  0.3344  1.8386 -0.4757
  465MPD2    H1 6978   3.619   3.710  16.332  0.9097  0.9884  0.7374
  465MPD2    H2 6979   3.872   3.485  16.581  0.3272 -0.0376 -1.0246
  465MPD2    H3 6980   3.824   3.593  16.378 -0.2972 -1.0406 -0.4524
  465MPD2     N 6981   3.401   3.738  16.510  0.8378  0.3939 -0.9015
  465MPD2    H5 6982   3.347   3.756  16.594 -2.0776 -2.1189 -2.2622
  465MPD2    N1 6983   3.685   3.458  16.788  0.2716 -0.2983  0.0409
  465MPD2    H7 6984   3.603   3.465  16.848 -0.1901  0.6259 -0.6895
  466TMC3    C1 6985   3.037   3.904  16.531 -0.0329 -0.0141 -0.8044
  466TMC3    C2 6986   3.001   3.998  16.439  0.1247  0.0173 -0.0964
  466TMC3    C3 6987   3.076   4.010  16.329  0.4928  0.0047  0.0336
  466TMC3    C4 6988   3.148   3.834  16.519  0.0183 -0.0107  0.1804
  466TMC3    C5 6989   3.226   3.852  16.406 -0.0373  0.2489 -0.1706
  466TMC3    C6 6990   3.188   3.940  16.315 -0.0687  0.5534 -0.0639
  466TMC3     C 6991   2.948   3.872  16.642 -0.3158 -0.1295 -0.0565
  466TMC3     O 6992   2.995   3.794  16.723  0.4096 -0.0496  0.4372
  466TMC3     H 6993   2.902   4.041  16.438  0.6488  1.2230  0.6286
  466TMC3    H1 6994   3.180   3.762  16.593  1.0310  0.1181 -0.1348
  466TMC3    H2 6995   3.251   3.956  16.228  2.8733  0.8400  2.1250
  466TMC3    C7 6996   3.356   3.792  16.395 -0.2274 -0.1009  0.5023
  466TMC3    C8 6997   3.092   4.144  16.281 -0.0538  0.9754 -0.4634
  466TMC3    O1 6998   3.416   3.804  16.290  0.2982 -0.5790  0.0687
  466TMC3    O2 6999   3.143   4.152  16.173  0.3073  0.6237  0.1990
  467TMC3    C1 7000   0.058   1.866  13.345  0.7801 -0.3501  0.1862
  467TMC3    C2 7001   0.103   1.983  13.281 -0.3547 -0.2618  0.1422
  467TMC3    C3 7002   0.019   2.094  13.278  0.4510  0.1040  1.1799
  467TMC3    C4 7003   4.671   1.872  13.398  0.1230 -0.3067 -0.7346
  467TMC3    C5 7004   4.592   1.982  13.397 -0.3853  0.4981 -0.1227
  467TMC3    C6 7005   4.638   2.091  13.339 -0.1395  0.1165  0.1085
  467TMC3     C 7006   0.162   1.802  13.416  0.6048 -0.0359  0.0736
  467TMC3     O 7007   0.164   1.816  13.536  0.1698 -0.0621  0.2889
  467TMC3     H 7008   0.196   1.972  13.226 -0.3377 -0.7254  0.2678
  467TMC3    H1 7009   4.619   1.783  13.433 -0.3566  0.6287  0.9288
  467TMC3    H2 7010   4.576   2.180  13.332 -0.8451 -0.4033 -0.2800
  467TMC3    C7 7011   4.452   1.955  13.407  0.2979 -0.2334 -0.0218
  467TMC3    C8 7012   0.087   2.226  13.272 -0.1742  0.4998  0.1888
  467TMC3    O1 7013   4.411   1.853  13.352  0.2650 -0.2708 -0.0958
  467TMC3    O2 7014   0.034   2.330  13.314  0.4189 -0.0653 -0.0358
  468MPD2     C 7015   3.238   0.842  11.476 -0.9525  0.5628 -0.5793
  468MPD2    C1 7016   3.339   0.854  11.374 -0.0551  0.8612  0.2429
  468MPD2    C2 7017   3.422   0.743  11.347 -0.2830 -0.2487  0.6446
  468MPD2    C3 7018   3.398   0.620  11.399 -0.8957 -0.4460 -0.6785
  468MPD2    C4 7019   3.298   0.610  11.498  0.5185 -0.4077  0.1662
  468MPD2    C5 7020   3.227   0.720  11.535 -0.8937  0.1288 -0.0067
  468MPD2     H 7021   3.495   0.758  11.268 -1.2875 -0.3420 -0.2992
  468MPD2    H1 7022   3.273   0.513  11.539 -0.0806 -0.4038 -0.1909
  468MPD2    H2 7023   3.180   0.927  11.511 -0.0365  2.0674 -2.6577
  468MPD2    H3 7024   3.148   0.708  11.609 -0.2482  0.8862  0.8049
  468MPD2     N 7025   3.461   0.502  11.364 -0.4562  0.1828 -0.5399
  468MPD2    H5 7026   3.417   0.416  11.394  2.0591 -0.6247  0.8366
  468MPD2    N1 7027   3.370   0.971  11.307  0.1174  0.0223 -0.5301
  468MPD2    H7 7028   3.463   0.970  11.265 -0.0562  0.2295 -0.9272
  469TMC3    C1 7029   3.385   1.200  11.252 -0.1684  0.3224 -0.3183
  469TMC3    C2 7030   3.488   1.167  11.161 -0.0185 -0.1604 -0.7024
  469TMC3    C3 7031   3.554   1.260  11.089  0.4080  0.5780  0.3533
  469TMC3    C4 7032   3.361   1.339  11.269 -0.0507  0.3516  0.0227
  469TMC3    C5 7033   3.445   1.429  11.204 -0.0048  0.1862 -0.1104
  469TMC3    C6 7034   3.544   1.389  11.120 -0.7368  0.2062 -0.2549
  469TMC3     C 7035   3.306   1.095  11.317  0.2992 -0.2664 -0.1710
  469TMC3     O 7036   3.211   1.124  11.383 -0.3646 -0.6676  0.2871
  469TMC3     H 7037   3.499   1.065  11.126 -0.6565 -0.7337  0.7551
  469TMC3    H1 7038   3.305   1.376  11.354  0.6501 -0.2761  0.7616
  469TMC3    H2 7039   3.610   1.465  11.078 -1.7577  0.2292 -1.8310
  469TMC3    C7 7040   3.406   1.574  11.186 -0.2509 -0.1435  0.2092
  469TMC3    C8 7041   3.664   1.209  11.006  0.4148 -0.3350 -0.4035
  469TMC3    O1 7042   3.485   1.655  11.140  0.0368  0.1647  0.9682
  469TMC3    O2 7043   3.690   1.273  10.905 -0.5190 -0.1790 -0.6027
  470TMC3    C1 7044   0.573   1.246   0.618  0.3377  0.3173 -0.2467
  470TMC3    C2 7045   0.660   1.349   0.649  0.3732 -0.1102  0.6444
  470TMC3    C3 7046   0.618   1.434   0.749 -0.3172 -0.1642 -0.4218
  470TMC3    C4 7047   0.456   1.221   0.697  0.6040 -0.0221 -0.0825
  470TMC3    C5 7048   0.430   1.301   0.804 -0.0056 -0.0167 -1.1989
  470TMC3    C6 7049   0.503   1.417   0.825 -1.0329  0.2906 -0.7951
  470TMC3     C 7050   0.628   1.136   0.537 -0.3004 -0.0510 -0.7113
  470TMC3     O 7051   0.739   1.161   0.491  0.4995  0.6192  0.1508
  470TMC3     H 7052   0.747   1.368   0.587 -0.3093 -0.6902 -0.4878
  470TMC3    H1 7053   0.392   1.134   0.688 -1.5907  1.2788  2.7671
  470TMC3    H2 7054   0.490   1.478   0.914 -0.0544 -2.0019  0.9543
  470TMC3    C7 7055   0.342   1.256   0.911 -0.7139  0.3367 -0.1611
  470TMC3    C8 7056   0.711   1.537   0.793 -0.5714  0.6887 -0.1397
  470TMC3    O1 7057   0.239   1.200   0.874 -0.5550 -0.4178 -0.3810
  470TMC3    O2 7058   0.665   1.623   0.865 -0.6042 -0.5991 -0.2982
  471MPD2     C 7059   1.268   3.125  16.774  0.4269  0.8437 -0.3573
  471MPD2    C1 7060   1.352   3.014  16.770  0.9071  0.0587 -0.1525
  471MPD2    C2 7061   1.434   2.993  16.871 -0.3837 -0.3520  0.6342
  471MPD2    C3 7062   1.437   3.079  16.977  0.1863 -0.4867  0.0410
  471MPD2    C4 7063   1.339   3.179  16.997  0.7664  0.6818 -0.0743
  471MPD2    C5 7064   1.268   3.203  16.885  0.1648 -0.0231 -0.0112
  471MPD2     H 7065   1.499   2.906  16.871 -0.4207 -0.3697 -3.0418
  471MPD2    H1 7066   1.339   3.253  17.076  0.5993  0.8627 -0.2468
  471MPD2    H2 7067   1.197   3.147  16.695 -0.3338 -2.7693 -0.6732
  471MPD2    H3 7068   1.202   3.289  16.892  0.9126  0.6251 -0.8465
  471MPD2     N 7069   1.512   3.056  17.093  0.3292  0.0513 -0.9090
  471MPD2    H5 7070   1.484   3.107  17.176  0.3023  2.1770 -2.2195
  471MPD2    N1 7071   1.367   2.924  16.657 -0.1654  0.0364  0.1325
  471MPD2    H7 7072   1.440   2.854  16.664 -0.2004  0.0639  0.7767
  472TMC3    C1 7073   1.354   2.841  16.439 -0.0047  0.6315  0.2589
  472TMC3    C2 7074   1.329   2.860  16.309 -0.6973 -0.3102 -0.2699
  472TMC3    C3 7075   1.324   2.757  16.221 -0.0764  0.0088  0.0172
  472TMC3    C4 7076   1.386   2.718  16.491 -0.1255 -0.2003 -0.1390
  472TMC3    C5 7077   1.390   2.614  16.399 -0.1353 -0.0192  0.1768
  472TMC3    C6 7078   1.355   2.634  16.262 -0.1368  0.7112  0.5473
  472TMC3     C 7079   1.314   2.943  16.527  0.0231 -0.2462  0.3383
  472TMC3     O 7080   1.234   3.023  16.486  0.5769 -0.7628  0.4533
  472TMC3     H 7081   1.304   2.958  16.270  0.9423 -0.2545 -1.1739
  472TMC3    H1 7082   1.410   2.699  16.595 -2.5309 -0.0590  0.4341
  472TMC3    H2 7083   1.337   2.554  16.192 -2.5849 -0.8877  3.0233
  472TMC3    C7 7084   1.349   2.488  16.454  0.0285 -0.2647  0.1991
  472TMC3    C8 7085   1.202   2.756  16.140 -0.4713  0.3497  0.5236
  472TMC3    O1 7086   1.307   2.499  16.570 -1.1310  0.2414 -0.1539
  472TMC3    O2 7087   1.204   2.812  16.030  0.0510  0.1199  0.5964
  473MPD2     C 7088   1.214   0.068  14.126  0.4709 -1.0716  0.1458
  473MPD2    C1 7089   1.267   0.188  14.074  0.2703 -0.1320  0.1345
  473MPD2    C2 7090   1.286   0.296  14.155  0.5484  0.0879  0.4004
  473MPD2    C3 7091   1.266   0.281  14.290  0.1164  0.1896 -0.7490
  473MPD2    C4 7092   1.212   0.166  14.341 -0.3349 -0.0503 -0.3728
  473MPD2    C5 7093   1.191   0.059  14.259  0.3765  0.2831  0.3825
  473MPD2     H 7094   1.320   0.385  14.102  1.6246 -0.8297 -0.4452
  473MPD2    H1 7095   1.174   0.147  14.441 -0.7806 -1.7147 -0.8448
  473MPD2    H2 7096   1.191   4.722  14.061  1.0368 -2.1022  1.2702
  473MPD2    H3 7097   1.162   4.697  14.294  1.0587  0.1707  0.6290
  473MPD2     N 7098   1.281   0.388  14.383  0.1537  0.3906 -0.4328
  473MPD2    H5 7099   1.267   0.361  14.480 -2.5441  0.8623 -0.7126
  473MPD2    N1 7100   1.294   0.197  13.934 -0.1648  0.5392  0.4895
  473MPD2    H7 7101   1.313   0.291  13.900 -1.1832  0.5440 -0.0621
  474TMC3    C1 7102   1.358   0.576  14.479 -0.7680  0.0115  0.4751
  474TMC3    C2 7103   1.312   0.707  14.497  0.1691 -0.5054  0.8176
  474TMC3    C3 7104   1.354   0.756  14.619 -0.1944  1.1850 -0.2861
  474TMC3    C4 7105   1.424   0.503  14.569  0.5982  0.2186  0.7951
  474TMC3    C5 7106   1.459   0.561  14.689 -0.4320  0.0824 -0.2841
  474TMC3    C6 7107   1.430   0.691  14.712 -0.2506  0.5164  0.1546
  474TMC3     C 7108   1.311   0.516  14.361  0.0087  0.2821  1.2695
  474TMC3     O 7109   1.284   0.594  14.270 -0.5457 -0.3356  0.2097
  474TMC3     H 7110   1.239   0.762  14.438 -0.3297 -2.1440 -0.0782
  474TMC3    H1 7111   1.471   0.408  14.543  1.5867  0.3699  2.0181
  474TMC3    H2 7112   1.471   0.743  14.798 -0.4385  1.0932 -0.1028
  474TMC3    C7 7113   1.555   0.494  14.775 -0.4418  0.2209  0.2249
  474TMC3    C8 7114   1.340   0.893  14.657  0.6474 -0.1896 -0.6692
  474TMC3    O1 7115   1.634   0.417  14.726 -0.6374  0.2710 -0.2168
  474TMC3    O2 7116   1.364   0.926  14.769  0.7186 -0.4144 -0.5754
  475MPD2     C 7117   4.731   3.087  10.330 -0.2812  0.5533  0.7976
  475MPD2    C1 7118   4.704   3.172  10.435  0.1838 -0.1119  0.0946
  475MPD2    C2 7119   4.582   3.226  10.441  0.0800  0.5294 -0.0363
  475MPD2    C3 7120   4.478   3.184  10.359 -0.6789  0.1333 -0.1769
  475MPD2    C4 7121   4.503   3.087  10.266 -0.3781 -0.0832 -0.0401
  475MPD2    C5 7122   4.632   3.038  10.248 -0.4909 -0.3791 -0.5586
  475MPD2     H 7123   4.559   3.309  10.507 -1.5751 -0.4240  0.5768
  475MPD2    H1 7124   4.429   3.050  10.197  1.4840  1.6495 -2.9448
  475MPD2    H2 7125   0.094   3.052  10.306  0.2098  2.6905 -0.2498
  475MPD2    H3 7126   4.659   2.957  10.182  0.9035 -0.3145 -0.0830
  475MPD2     N 7127   4.351   3.238  10.378  0.0466  0.8300 -0.5098
  475MPD2    H5 7128   4.343   3.312  10.447  0.6568 -1.1234  1.6391
  475MPD2    N1 7129   0.061   3.203  10.526 -0.0742  0.4684  0.0971
  475MPD2    H7 7130   0.030   3.273  10.592  0.8648  1.5223 -0.5872
  476TMC3    C1 7131   0.249   3.244  10.637  0.4913  0.5121 -0.6266
  476TMC3    C2 7132   0.309   3.355  10.589  0.1254  0.4605 -0.3226
  476TMC3    C3 7133   0.291   3.475  10.649 -0.1291 -1.0088  0.3526
  476TMC3    C4 7134   0.193   3.242  10.755  0.3271 -0.1357  0.2961
  476TMC3    C5 7135   0.180   3.365  10.821 -0.6081  0.2686 -0.3949
  476TMC3    C6 7136   0.231   3.479  10.772  0.5344  0.8246 -0.4653
  476TMC3     C 7137   0.189   3.161  10.537  0.1187  1.0367  0.3212
  476TMC3     O 7138   0.265   3.119  10.451 -0.0828  0.2547 -0.5400
  476TMC3     H 7139   0.360   3.345  10.495  0.5364 -0.1460 -0.0377
  476TMC3    H1 7140   0.150   3.154  10.801 -0.2885 -0.8971 -1.7420
  476TMC3    H2 7141   0.208   3.576  10.813  0.4828  0.7112 -0.2295
  476TMC3    C7 7142   0.113   3.363  10.950  0.2238  0.1528 -0.2244
  476TMC3    C8 7143   0.236   3.580  10.560  0.1520 -0.0339 -0.0037
  476TMC3    O1 7144   0.075   3.255  10.986  0.1967 -0.1029  0.3708
  476TMC3    O2 7145   0.221   3.691  10.607  0.2370 -0.6495  0.1295
  477MPD2     C 7146   2.046   0.005  11.874 -0.5105 -0.3502 -0.3726
  477MPD2    C1 7147   2.030   4.637  11.785 -0.6353 -0.1998  0.0392
  477MPD2    C2 7148   2.091   4.518  11.813 -0.3423  0.0156 -0.7271
  477MPD2    C3 7149   2.151   4.492  11.926  0.1369 -0.1197 -0.1819
  477MPD2    C4 7150   2.156   4.595  12.020 -0.5797  0.1853 -0.6798
  477MPD2    C5 7151   2.098   4.719  11.997  0.0654  0.5367 -0.0369
  477MPD2     H 7152   2.081   4.437  11.743 -4.1562 -0.3017  0.1809
  477MPD2    H1 7153   2.197   4.593  12.120 -2.4750 -1.4002  0.0681
  477MPD2    H2 7154   2.009   0.102  11.842 -0.0202 -0.0845 -0.1221
  477MPD2    H3 7155   2.108   0.061  12.070 -0.5713 -0.4117  1.0722
  477MPD2     N 7156   2.201   4.362  11.965 -0.2598 -0.6577  0.0128
  477MPD2    H5 7157   2.191   4.288  11.896  0.0500 -1.7039  1.0945
  477MPD2    N1 7158   1.966   4.665  11.663 -0.2379  0.1375 -0.3878
  477MPD2    H7 7159   1.941   0.024  11.644 -0.4827 -0.0749 -1.1434
  478TMC3    C1 7160   1.840   4.625  11.475  0.1874  0.4095  0.7181
  478TMC3    C2 7161   1.755   4.717  11.535 -0.0844  0.6399  0.5482
  478TMC3    C3 7162   1.696   0.080  11.456 -0.1923  0.6975 -0.4829
  478TMC3    C4 7163   1.865   4.626  11.345 -0.9297 -0.7071 -0.3567
  478TMC3    C5 7164   1.804   4.730  11.271  0.2671 -0.1819  0.6886
  478TMC3    C6 7165   1.713   0.085  11.319 -0.0609  0.1257  0.1263
  478TMC3     C 7166   1.940   4.569  11.564  0.0338 -0.1312  0.1566
  478TMC3     O 7167   2.000   4.467  11.526 -1.0428  0.5110 -0.4275
  478TMC3     H 7168   1.726   4.704  11.639 -1.3901  0.4975  0.1667
  478TMC3    H1 7169   1.924   4.550  11.294 -0.0249 -0.4972  0.3576
  478TMC3    H2 7170   1.673   0.165  11.258 -0.0887  0.1675  0.1990
  478TMC3    C7 7171   1.839   4.734  11.129 -0.3236  0.0825 -0.5993
  478TMC3    C8 7172   1.664   0.195  11.543  0.4718  0.3649  0.6051
  478TMC3    O1 7173   1.942   4.669  11.099  0.2591  0.2008  0.4011
  478TMC3    O2 7174   1.610   0.167  11.651 -0.0647  0.2656 -0.2805
  479MPD2     C 7175   0.747   1.625  14.915 -0.5952  0.4970  0.4468
  479MPD2    C1 7176   0.679   1.610  15.034 -0.1072  0.4050  0.2092
  479MPD2    C2 7177   0.699   1.700  15.143 -0.2692 -0.8761  0.0415
  479MPD2    C3 7178   0.791   1.799  15.127  0.0651  0.7048  0.7529
  479MPD2    C4 7179   0.859   1.818  15.011 -0.1233 -0.5227 -0.0508
  479MPD2    C5 7180   0.836   1.731  14.902  0.0255 -0.9464  0.7266
  479MPD2     H 7181   0.651   1.689  15.239 -1.3936 -1.3528 -0.5758
  479MPD2    H1 7182   0.908   1.914  14.999  0.3327 -0.7579 -0.0689
  479MPD2    H2 7183   0.740   1.556  14.831  0.1272 -1.1197  1.7224
  479MPD2    H3 7184   0.888   1.753  14.810  0.4214 -1.4211  0.8392
  479MPD2     N 7185   0.807   1.900  15.224 -0.4244  0.0966  0.7132
  479MPD2    H5 7186   0.893   1.948  15.199  0.1044 -1.3930 -0.3534
  479MPD2    N1 7187   0.568   1.515  15.047  0.1864 -0.1275  0.2403
  479MPD2    H7 7188   0.525   1.500  15.138 -1.4510  3.8818  0.1078
  480TMC3    C1 7189   0.885   2.028  15.647  0.2131 -0.4589  0.2117
  480TMC3    C2 7190   0.996   2.102  15.601  0.4770 -0.3932  0.5413
  480TMC3    C3 7191   1.003   2.145  15.471 -0.2860  0.0551 -0.1903
  480TMC3    C4 7192   0.779   1.992  15.561 -0.4155 -0.2076  0.5655
  480TMC3    C5 7193   0.805   2.018  15.426  0.0407 -0.9263  0.2928
  480TMC3    C6 7194   0.916   2.093  15.377 -0.0413 -0.1753  0.0060
  480TMC3     C 7195   0.884   2.010  15.789 -0.2510 -0.0754 -0.4874
  480TMC3     O 7196   0.957   2.077  15.859 -0.0254 -0.3246  0.5345
  480TMC3     H 7197   1.071   2.140  15.671 -0.1559  1.2365  0.3353
  480TMC3    H1 7198   0.695   1.931  15.593 -1.1233  0.3424 -0.2320
  480TMC3    H2 7199   0.928   2.093  15.270 -0.8046 -0.7713 -0.0800
  480TMC3    C7 7200   0.731   1.925  15.339  0.3124 -0.1217 -0.6994
  480TMC3    C8 7201   1.120   2.220  15.428  0.6428 -0.0958  0.4012
  480TMC3    O1 7202   0.622   1.894  15.375 -0.4155 -0.0392  0.8225
  480TMC3    O2 7203   1.213   2.238  15.505 -0.8164  0.1544  0.3536
  481MPD2     C 7204   2.131   0.878  14.343 -0.3904 -0.6722  0.4344
  481MPD2    C1 7205   2.036   0.972  14.371  0.3140 -0.9935 -0.0286
  481MPD2    C2 7206   2.038   1.049  14.488  0.2120 -0.5429  0.0597
  481MPD2    C3 7207   2.134   1.028  14.587 -0.3608  0.3064  0.1311
  481MPD2    C4 7208   2.224   0.927  14.564  0.0597 -0.0427 -0.2310
  481MPD2    C5 7209   2.223   0.854  14.447  0.0482 -0.1464 -0.3048
  481MPD2     H 7210   1.958   1.120  14.509 -0.1714 -1.1891  0.7808
  481MPD2    H1 7211   2.299   0.902  14.638  1.2180  0.9134 -1.0659
  481MPD2    H2 7212   2.131   0.808  14.260  0.2651 -1.3147  0.9729
  481MPD2    H3 7213   2.296   0.775  14.435  1.8260  1.3320  0.8902
  481MPD2     N 7214   2.137   1.083  14.718  0.4761  0.4379 -0.1186
  481MPD2    H5 7215   2.209   1.051  14.783  1.1384 -0.2321 -1.1862
  481MPD2    N1 7216   1.953   0.994  14.255  0.3958  0.5191 -0.0458
  481MPD2    H7 7217   1.990   0.948  14.172  0.0047  1.6147 -0.8209
  482TMC3    C1 7218   1.748   1.036  14.134  0.5185  0.6953 -0.5269
  482TMC3    C2 7219   1.790   0.943  14.041 -0.2483 -0.4718 -0.1964
  482TMC3    C3 7220   1.695   0.914  13.945  0.2843 -0.6446 -0.2329
  482TMC3    C4 7221   1.631   1.104  14.134 -0.6009 -0.4993 -0.0774
  482TMC3    C5 7222   1.543   1.065  14.036 -0.6049 -0.0152  0.8288
  482TMC3    C6 7223   1.576   0.968  13.940  0.0357  0.0721  0.2637
  482TMC3     C 7224   1.841   1.072  14.245  0.3704  0.4150  0.2754
  482TMC3     O 7225   1.780   1.142  14.324 -0.3248  0.3545 -0.2972
  482TMC3     H 7226   1.875   0.877  14.053 -0.8178 -1.3586 -0.8943
  482TMC3    H1 7227   1.619   1.198  14.186  1.5438  0.0955 -0.6874
  482TMC3    H2 7228   1.498   0.933  13.873  3.5044 -0.4925 -3.4927
  482TMC3    C7 7229   1.469   1.180  13.995 -0.7035 -0.4232 -0.1038
  482TMC3    C8 7230   1.738   0.812  13.856 -0.6951  0.2107  0.3326
  482TMC3    O1 7231   1.409   1.243  14.082 -0.0679  0.3344 -0.5583
  482TMC3    O2 7232   1.824   0.733  13.893  0.0364  0.2366  0.0300
  483TMC3    C1 7233   0.810   0.922   0.919  0.0500 -0.3721  0.3816
  483TMC3    C2 7234   0.850   1.043   0.886 -0.7502  0.3979 -0.0614
  483TMC3    C3 7235   0.971   1.092   0.909 -0.1228 -0.3259  0.4245
  483TMC3    C4 7236   0.895   0.837   0.978  0.1132  0.0973 -0.7245
  483TMC3    C5 7237   1.023   0.893   1.013 -0.1184  0.0951  0.6281
  483TMC3    C6 7238   1.057   1.011   0.976  0.0582  0.0385  0.0901
  483TMC3     C 7239   0.675   0.887   0.887  1.1489  0.1544  0.0482
  483TMC3     O 7240   0.590   0.974   0.874  0.0034  0.9419  0.4126
  483TMC3     H 7241   0.780   1.104   0.829 -2.7930 -0.9830  0.9387
  483TMC3    H1 7242   0.868   0.738   1.012  1.4069  0.5034  1.5142
  483TMC3    H2 7243   1.155   1.057   0.981  0.2724 -0.3912 -0.1423
  483TMC3    C7 7244   1.126   0.802   1.058  0.5502  0.6345  0.1245
  483TMC3    C8 7245   1.013   1.178   0.797 -0.0232  0.4108  0.4565
  483TMC3    O1 7246   1.224   0.856   1.110  0.9133  0.1247 -0.1124
  483TMC3    O2 7247   0.942   1.263   0.743 -0.3739 -0.7428  0.2577
  484MPD2     C 7248   3.075   3.338  12.644  0.0358 -0.1867 -0.1941
  484MPD2    C1 7249   3.084   3.207  12.652  0.5960 -0.2170  0.1155
  484MPD2    C2 7250   3.180   3.143  12.576  0.0950 -0.7079  1.2044
  484MPD2    C3 7251   3.279   3.203  12.505 -0.2030  0.5828 -0.3126
  484MPD2    C4 7252   3.273   3.340  12.510 -0.6198  0.1054 -0.7881
  484MPD2    C5 7253   3.172   3.407  12.577  0.2279  0.4550  0.6622
  484MPD2     H 7254   3.162   3.037  12.561 -1.6134 -0.0863 -1.2335
  484MPD2    H1 7255   3.350   3.392  12.454 -1.3151  1.2899 -0.6481
  484MPD2    H2 7256   2.997   3.391  12.697  0.6977  0.4250  0.1695
  484MPD2    H3 7257   3.158   3.513  12.557 -2.6272  0.0433  0.5510
  484MPD2     N 7258   3.374   3.138  12.418  0.3689 -0.6825  0.3038
  484MPD2    H5 7259   3.440   3.199  12.372 -1.0270 -1.4549 -2.6960
  484MPD2    N1 7260   2.984   3.143  12.726  0.2861  0.0653 -0.5527
  484MPD2    H7 7261   2.913   3.205  12.764 -0.5171 -0.9159 -0.4542
  485TMC3    C1 7262   3.488   2.968  12.299  0.1059 -0.8191  0.3057
  485TMC3    C2 7263   3.537   2.842  12.318  0.3104 -0.2824 -0.8045
  485TMC3    C3 7264   3.606   2.772  12.219  0.2229 -0.3461  0.0517
  485TMC3    C4 7265   3.474   3.015  12.167 -0.8842  0.3271  0.0960
  485TMC3    C5 7266   3.544   2.944  12.068  0.9264 -0.8380 -0.3632
  485TMC3    C6 7267   3.610   2.822  12.095 -0.4156  0.5410  0.8142
  485TMC3     C 7268   3.384   3.006  12.404  0.5137  0.0806  0.1247
  485TMC3     O 7269   3.322   2.916  12.453  0.2046  0.2764 -0.1448
  485TMC3     H 7270   3.556   2.804  12.418 -1.4575  1.8025  0.3178
  485TMC3    H1 7271   3.417   3.104  12.144  1.5388  2.0061  0.5866
  485TMC3    H2 7272   3.666   2.775  12.016 -0.9969  2.7509 -0.8991
  485TMC3    C7 7273   3.625   3.039  12.001 -0.0217  1.1641 -0.0058
  485TMC3    C8 7274   3.746   2.757  12.261  0.7893 -0.0698 -0.0945
  485TMC3    O1 7275   3.570   3.134  11.949 -0.0238  0.1968  0.0955
  485TMC3    O2 7276   3.822   2.827  12.197 -0.0758 -0.0595 -0.0548
  486MPD2     C 7277   1.017   1.790  13.114  0.1555 -0.6470  0.0918
  486MPD2    C1 7278   1.008   1.807  12.980  0.1475  0.0200  0.9977
  486MPD2    C2 7279   0.999   1.930  12.920 -0.6385  0.5148  0.3636
  486MPD2    C3 7280   0.977   2.042  12.999 -0.7819 -0.5515 -0.3182
  486MPD2    C4 7281   0.983   2.025  13.141 -0.3215 -0.2566  0.7030
  486MPD2    C5 7282   1.001   1.899  13.193 -0.6787  0.0231  1.0139
  486MPD2     H 7283   1.003   1.956  12.815  2.1948  2.8688  1.0658
  486MPD2    H1 7284   0.961   2.098  13.219 -0.2489 -0.4154  0.8699
  486MPD2    H2 7285   1.037   1.691  13.154 -0.8749 -1.0740 -0.4573
  486MPD2    H3 7286   0.990   1.880  13.299 -0.6562 -0.4437  0.9330
  486MPD2     N 7287   0.975   2.173  12.938  1.0526 -0.5553 -0.3957
  486MPD2    H5 7288   0.998   2.167  12.840  1.1339  0.8204 -0.4684
  486MPD2    N1 7289   1.044   1.697  12.901 -0.6098  0.6913 -0.3507
  486MPD2    H7 7290   1.066   1.613  12.954  0.2344  0.1217 -1.5840
  487TMC3    C1 7291   1.050   1.549  12.724 -0.3336 -0.3589  1.0034
  487TMC3    C2 7292   0.953   1.480  12.659 -0.9136  0.1463  0.0166
  487TMC3    C3 7293   0.943   1.350  12.678 -0.2656  0.2255  0.2428
  487TMC3    C4 7294   1.144   1.485  12.805 -0.0059 -0.2720 -0.1450
  487TMC3    C5 7295   1.123   1.348  12.831  0.0231  0.1609  0.3703
  487TMC3    C6 7296   1.043   1.275  12.742 -0.4726 -0.2027  0.9297
  487TMC3     C 7297   1.016   1.689  12.767 -0.2299 -0.8504  0.6399
  487TMC3     O 7298   0.940   1.756  12.698 -0.6541 -0.4465 -0.3660
  487TMC3     H 7299   0.870   1.543  12.628 -0.9757 -0.0691 -0.2491
  487TMC3    H1 7300   1.212   1.550  12.859 -1.1223  1.2778 -0.6047
  487TMC3    H2 7301   1.035   1.170  12.766  0.8060 -0.7055 -0.8888
  487TMC3    C7 7302   1.062   1.342  12.966 -0.1590 -0.4152 -0.5329
  487TMC3    C8 7303   0.807   1.308  12.703 -0.6935 -0.7310 -0.7523
  487TMC3    O1 7304   1.023   1.450  13.004  0.3136  0.1170  0.0999
  487TMC3    O2 7305   0.720   1.389  12.696 -0.8187  0.5296 -0.3988
  488MPD2     C 7306   0.364   3.749  16.377  0.1506 -0.7711  0.5076
  488MPD2    C1 7307   0.372   3.888  16.379  0.2474 -0.0395  0.0379
  488MPD2    C2 7308   0.296   3.962  16.470  0.0819 -0.4169 -0.0404
  488MPD2    C3 7309   0.201   3.900  16.556  0.1998 -0.1744  1.2048
  488MPD2    C4 7310   0.198   3.763  16.546 -0.1937  0.0915 -0.1698
  488MPD2    C5 7311   0.282   3.693  16.466 -0.2835  0.9712  0.0065
  488MPD2     H 7312   0.302   4.070  16.462 -2.0077 -0.0843  2.9095
  488MPD2    H1 7313   0.132   3.702  16.608  0.1407  0.3907  0.4805
  488MPD2    H2 7314   0.430   3.687  16.317 -0.0366 -0.3969 -0.0859
  488MPD2    H3 7315   0.275   3.585  16.473  1.5021  0.8532  0.0353
  488MPD2     N 7316   0.135   3.973  16.658  0.2695 -0.4068  0.3645
  488MPD2    H5 7317   0.135   4.074  16.655  1.2860 -0.3491  2.0264
  488MPD2    N1 7318   0.457   3.962  16.296 -0.0365  0.8713  0.7085
  488MPD2    H7 7319   0.453   4.063  16.288 -1.5785  0.5312 -2.5573
  489TMC3    C1 7320   0.070   4.003  16.883  0.4978  0.2246  0.3850
  489TMC3    C2 7321   0.123   4.135  16.877  0.0057  0.1794 -0.1765
  489TMC3    C3 7322   0.118   4.203  16.996 -0.3339  0.2823  0.6067
  489TMC3    C4 7323   0.030   3.944  17.002  0.8339 -0.4499  0.1250
  489TMC3    C5 7324   0.023   4.026  17.109 -0.1320  0.0450  0.3837
  489TMC3    C6 7325   0.061   4.153  17.110  0.5024 -0.4144  0.1158
  489TMC3     C 7326   0.077   3.916  16.769 -0.5606  0.2284  0.2125
  489TMC3     O 7327   0.064   3.799  16.798 -0.0432  0.3856 -0.1782
  489TMC3     H 7328   0.146   4.188  16.785  1.6088  0.1732  0.2239
  489TMC3    H1 7329   4.717   3.847  17.003  1.5268 -0.8257 -1.3351
  489TMC3    H2 7330   0.067   4.187  17.212 -2.3150 -2.3832  0.9393
  489TMC3    C7 7331   0.009   3.953  17.230  0.2705  0.2585 -0.0709
  489TMC3    C8 7332   0.215   4.314  17.000 -0.5864 -0.1468  0.2635
  489TMC3    O1 7333   4.690   3.999  17.331 -0.2112  0.2846  0.3405
  489TMC3    O2 7334   0.294   4.314  16.907 -0.5538  0.2440 -0.4385
  490MPD2     C 7335   1.666   3.439  17.371 -0.6357 -0.1271 -1.1605
  490MPD2    C1 7336   1.567   3.457  17.467 -0.2388 -0.2818  1.0079
  490MPD2    C2 7337   1.604   3.514  17.586 -0.1523 -0.1590 -0.6339
  490MPD2    C3 7338   1.737   3.563  17.610  0.3573  0.0193  0.0886
  490MPD2    C4 7339   1.836   3.543  17.510 -0.1883  0.1377 -0.0288
  490MPD2    C5 7340   1.798   3.476  17.396 -0.0828  0.0652 -1.1541
  490MPD2     H 7341   1.532   3.521  17.668  1.1580  0.7082  0.4462
  490MPD2    H1 7342   1.936   3.575  17.536 -1.1121  1.5992  1.7921
  490MPD2    H2 7343   1.639   3.396  17.275  0.7987 -1.5681 -0.9078
  490MPD2    H3 7344   1.877   3.456  17.325 -1.0600  0.1654 -2.2605
  490MPD2     N 7345   1.781   3.626  17.731 -0.2113 -0.2285 -0.0894
  490MPD2    H5 7346   1.878   3.656  17.733 -0.4821  0.5265  2.3308
  490MPD2    N1 7347   1.439   3.405  17.450 -0.2493 -0.1300 -0.0086
  490MPD2    H7 7348   1.370   3.440  17.516 -0.3248  1.1682 -0.7736
  491TMC3    C1 7349   1.253   3.272  17.378  0.4850 -0.2465  0.2361
  491TMC3    C2 7350   1.163   3.347  17.460  0.1149 -0.0150 -0.3084
  491TMC3    C3 7351   1.034   3.295  17.469  0.2603  0.7870  0.3691
  491TMC3    C4 7352   1.215   3.159  17.316 -0.5296  0.1533 -0.5426
  491TMC3    C5 7353   1.091   3.111  17.336  0.7286  0.2109 -0.7844
  491TMC3    C6 7354   1.002   3.179  17.410  0.1317  0.2021  0.2112
  491TMC3     C 7355   1.393   3.316  17.352  0.3341 -0.4856 -0.5804
  491TMC3     O 7356   1.454   3.238  17.277  0.0886 -0.1861 -0.5597
  491TMC3     H 7357   1.181   3.448  17.495  0.4324 -1.1880  2.8974
  491TMC3    H1 7358   1.277   3.105  17.245 -1.0294  0.6898 -1.3894
  491TMC3    H2 7359   0.901   3.138  17.409  0.5391 -0.7646 -1.4750
  491TMC3    C7 7360   1.036   3.011  17.246  0.2308 -0.9814  0.5932
  491TMC3    C8 7361   0.957   3.350  17.577 -0.5781  0.3370  0.1288
  491TMC3    O1 7362   0.925   3.033  17.201  0.2474  0.0102 -0.0627
  491TMC3    O2 7363   1.012   3.436  17.635 -0.1506  0.7975  0.1074
  492MPD2     C 7364   2.019   3.318  11.413 -0.6215  0.2128  0.2911
  492MPD2    C1 7365   1.920   3.260  11.355 -0.4018  0.5651 -0.0068
  492MPD2    C2 7366   1.838   3.190  11.442 -0.5420  0.3949 -0.1253
  492MPD2    C3 7367   1.865   3.167  11.573  0.3801  0.2718  0.0317
  492MPD2    C4 7368   1.968   3.232  11.628 -0.0598 -0.5277 -0.1501
  492MPD2    C5 7369   2.047   3.306  11.545  0.0902  0.2090  0.8855
  492MPD2     H 7370   1.747   3.147  11.401  0.3042 -2.2651  0.7447
  492MPD2    H1 7371   1.998   3.215  11.731 -0.5887 -0.3926  0.0257
  492MPD2    H2 7372   2.080   3.385  11.353 -3.2381 -0.7425 -3.4423
  492MPD2    H3 7373   2.139   3.349  11.583 -0.4078  0.6419  1.6114
  492MPD2     N 7374   1.785   3.082  11.649  0.1751  0.4077 -0.2343
  492MPD2    H5 7375   1.788   3.095  11.749  2.5832  1.8722 -0.5176
  492MPD2    N1 7376   1.884   3.282  11.223 -0.0513  0.3597 -0.2537
  492MPD2    H7 7377   1.935   3.353  11.170 -1.6380  1.3335 -0.4775
  493TMC3    C1 7378   1.715   3.282  11.049  0.7017  0.5530  0.5929
  493TMC3    C2 7379   1.718   3.419  11.041 -0.0251  1.2564  0.8454
  493TMC3    C3 7380   1.636   3.479  10.949  1.1556  0.0696 -0.3173
  493TMC3    C4 7381   1.625   3.212  10.977  0.3483 -0.2331  0.6225
  493TMC3    C5 7382   1.549   3.273  10.875 -0.4749  0.1623  0.3696
  493TMC3    C6 7383   1.545   3.412  10.869  0.0919 -0.9575 -0.7309
  493TMC3     C 7384   1.787   3.215  11.148 -0.5145 -1.0323 -1.0974
  493TMC3     O 7385   1.751   3.102  11.170 -0.0278 -0.5181 -0.1268
  493TMC3     H 7386   1.788   3.474  11.102 -0.8892  2.3768  0.8391
  493TMC3    H1 7387   1.617   3.105  10.992  2.4104 -0.3051  1.2324
  493TMC3    H2 7388   1.486   3.474  10.802  2.6730  1.1031 -1.0718
  493TMC3    C7 7389   1.440   3.209  10.808 -1.2672  1.3024 -0.4230
  493TMC3    C8 7390   1.582   3.603  10.986  0.1797  0.2349  0.1514
  493TMC3    O1 7391   1.372   3.281  10.738  0.0918  0.0047  0.2896
  493TMC3    O2 7392   1.459   3.598  10.991 -0.4231  0.0953 -0.5540
  494TMC3    C1 7393   1.799   0.491   0.414  0.0955  0.4182 -1.3303
  494TMC3    C2 7394   1.868   0.379   0.453  0.7543 -0.4844 -0.6828
  494TMC3    C3 7395   1.951   0.326   0.359 -0.8213 -0.0468 -0.7002
  494TMC3    C4 7396   1.810   0.546   0.287 -0.2462  0.3973 -0.6715
  494TMC3    C5 7397   1.899   0.485   0.204 -0.4322 -0.0248 -0.6131
  494TMC3    C6 7398   1.967   0.370   0.234  0.0568 -0.2333 -0.2873
  494TMC3     C 7399   1.800   0.585   0.529 -0.2621 -0.6205  0.5147
  494TMC3     O 7400   1.856   0.533   0.624  0.5236  0.0049 -0.1211
  494TMC3     H 7401   1.856   0.332   0.550  1.0174 -2.0986 -1.4309
  494TMC3    H1 7402   1.765   0.642   0.265 -0.3161  0.2995 -0.9491
  494TMC3    H2 7403   2.053   0.336   0.177 -0.0366 -2.2251  0.7687
  494TMC3    C7 7404   1.954   0.560   0.084  0.9208 -0.2738  0.2608
  494TMC3    C8 7405   2.003   0.187   0.382  0.3687 -0.4725 -0.5627
  494TMC3    O1 7406   2.074   0.557   0.054 -0.4796  0.5356  0.1186
  494TMC3    O2 7407   2.120   0.163   0.355 -0.3726  1.0165  0.0861
  495TMC3    C1 7408   1.039   2.472  14.509  0.3492  0.3264  0.5077
  495TMC3    C2 7409   0.929   2.542  14.474 -0.3222  0.3990  0.4793
  495TMC3    C3 7410   0.863   2.607  14.576 -0.1095  0.7853  0.1129
  495TMC3    C4 7411   1.102   2.489  14.628  0.3314 -0.4293  0.7408
  495TMC3    C5 7412   1.036   2.568  14.725  0.8921 -0.2425 -0.2466
  495TMC3    C6 7413   0.918   2.627  14.697  0.1924  0.0824 -0.0955
  495TMC3     C 7414   1.028   2.335  14.466 -0.2533 -0.7463 -0.5047
  495TMC3     O 7415   0.911   2.288  14.471  0.1020  0.1220  0.2072
  495TMC3     H 7416   0.882   2.528  14.377 -0.5800 -1.8074  0.9125
  495TMC3    H1 7417   1.185   2.426  14.659  1.5335  0.9533  0.3306
  495TMC3    H2 7418   0.876   2.694  14.772  1.3573  0.9197 -0.1938
  495TMC3    C7 7419   1.053   2.539  14.862  1.0046  0.1833 -0.4598
  495TMC3    C8 7420   0.718   2.602  14.572 -0.2859  0.5214 -0.3711
  495TMC3    O1 7421   0.948   2.540  14.928  0.5847  0.3197 -0.2232
  495TMC3    O2 7422   0.651   2.682  14.637 -0.2420 -0.2935 -0.1799
  496MPD2     C 7423   3.145   2.411  14.949  0.1724 -0.0322  0.3883
  496MPD2    C1 7424   3.162   2.276  14.975  0.4636 -0.5387  0.1948
  496MPD2    C2 7425   3.059   2.201  15.020  0.3148  0.3047  0.9143
  496MPD2    C3 7426   2.942   2.265  15.063 -0.3078 -0.5313  0.5302
  496MPD2    C4 7427   2.926   2.400  15.052  0.1693  0.1797 -0.8309
  496MPD2    C5 7428   3.027   2.471  14.992  0.2722 -0.4755 -0.0964
  496MPD2     H 7429   3.066   2.093  15.027 -0.6613  0.2503  1.0300
  496MPD2    H1 7430   2.839   2.457  15.085 -0.2335  0.7862 -2.9117
  496MPD2    H2 7431   3.220   2.471  14.899  0.7641  1.3293  2.9451
  496MPD2    H3 7432   3.013   2.578  14.984  4.0619  0.0085 -0.4932
  496MPD2     N 7433   2.822   2.191  15.116 -0.2267 -0.0462 -0.3678
  496MPD2    H5 7434   2.746   2.254  15.139 -1.0487 -0.9491 -0.5788
  496MPD2    N1 7435   3.282   2.221  14.947  0.3678  0.3873  0.5432
  496MPD2    H7 7436   3.346   2.281  14.897  3.0212 -1.9946  1.0821
  497TMC3    C1 7437   2.663   2.021  15.152 -0.1098  0.1807  0.2247
  497TMC3    C2 7438   2.615   1.899  15.109  0.0616 -0.5737  0.2057
  497TMC3    C3 7439   2.500   1.856  15.167  0.4404 -0.6607  0.3824
  497TMC3    C4 7440   2.603   2.099  15.250  0.4381  0.7035 -0.6293
  497TMC3    C5 7441   2.493   2.046  15.310 -0.0352 -0.1758  0.7047
  497TMC3    C6 7442   2.439   1.928  15.270  0.0713 -0.0107 -0.6567
  497TMC3     C 7443   2.796   2.055  15.113 -0.6271 -0.1253 -0.1690
  497TMC3     O 7444   2.860   1.973  15.043 -0.4508  0.5024  0.0498
  497TMC3     H 7445   2.668   1.839  15.036  0.8503  1.1430 -0.6407
  497TMC3    H1 7446   2.654   2.188  15.285  0.4180  0.4352  0.0765
  497TMC3    H2 7447   2.354   1.891  15.326  0.9682 -0.7453  0.2207
  497TMC3    C7 7448   2.425   2.112  15.421  0.5238 -0.2154  0.6186
  497TMC3    C8 7449   2.418   1.750  15.109  0.2074 -0.0581  0.5928
  497TMC3    O1 7450   2.309   2.082  15.433 -0.2578  0.0031  0.5190
  497TMC3    O2 7451   2.309   1.737  15.163  0.3300  0.7243  1.2285
  498MPD2     C 7452   3.519   3.454  10.014 -0.3806 -0.2441 -0.0395
  498MPD2    C1 7453   3.649   3.425  10.041  0.2833 -0.4039 -0.0179
  498MPD2    C2 7454   3.688   3.297  10.057  0.3767 -1.3250 -0.1363
  498MPD2    C3 7455   3.592   3.193  10.058 -0.8730 -0.5205  0.2816
  498MPD2    C4 7456   3.460   3.228  10.047 -0.2333 -0.2213  0.2382
  498MPD2    C5 7457   3.425   3.356  10.020  0.0529  0.9531 -0.1712
  498MPD2     H 7458   3.789   3.261  10.076  0.7184  0.2261  0.9931
  498MPD2    H1 7459   3.382   3.153  10.045 -0.3631 -0.0758 -0.2098
  498MPD2    H2 7460   3.482   3.553   9.988  2.9056  0.8744 -0.5327
  498MPD2    H3 7461   3.319   3.381  10.023 -0.0566  0.3251  1.3259
  498MPD2     N 7462   3.639   3.060  10.078 -0.3698  0.4712 -0.2673
  498MPD2    H5 7463   3.738   3.038  10.076  0.0039  2.1378 -0.2277
  498MPD2    N1 7464   3.755   3.521  10.015  0.7972  0.1349  0.6099
  498MPD2    H7 7465   3.846   3.475  10.020  1.1868  0.9642  1.1533
  499TMC3    C1 7466   3.868   3.723   9.971 -0.4507 -0.2667 -0.0603
  499TMC3    C2 7467   3.979   3.660   9.912  0.1933  0.8037 -0.1645
  499TMC3    C3 7468   4.070   3.741   9.863  1.2977  0.2027  0.4298
  499TMC3    C4 7469   3.851   3.860   9.969  0.6439  0.5030 -0.0037
  499TMC3    C5 7470   3.955   3.929   9.917  0.4973 -0.3169  0.2848
  499TMC3    C6 7471   4.074   3.875   9.883  0.1359  0.4897 -0.1145
  499TMC3     C 7472   3.747   3.650   9.992 -0.7791 -0.6965 -0.3443
  499TMC3     O 7473   3.648   3.724  10.010 -0.1722 -0.1347  0.4567
  499TMC3     H 7474   3.989   3.552   9.915  2.0917  1.0307  2.0785
  499TMC3    H1 7475   3.771   3.908  10.025 -0.4930 -1.8955  0.4464
  499TMC3    H2 7476   4.153   3.932   9.836 -1.0449  1.1359 -1.2970
  499TMC3    C7 7477   3.932   4.073   9.875  0.1468 -0.7232 -0.2527
  499TMC3    C8 7478   4.188   3.678   9.803  0.0077 -0.9905 -0.9188
  499TMC3    O1 7479   4.022   4.137   9.822 -0.5533 -0.6005 -0.1714
  499TMC3    O2 7480   4.293   3.728   9.836 -0.2932 -0.4503 -0.0544
  500MPD2     C 7481   0.479   4.508  10.828  0.2518  0.5471  0.0431
  500MPD2    C1 7482   0.530   4.531  10.703  0.1620 -1.0162 -0.4610
  500MPD2    C2 7483   0.439   4.547  10.602  0.4730  0.7969 -0.7022
  500MPD2    C3 7484   0.302   4.553  10.638 -0.3784 -0.5326  0.3190
  500MPD2    C4 7485   0.255   4.522  10.761 -0.0149  0.3534 -0.1566
  500MPD2    C5 7486   0.349   4.496  10.854  0.7944  0.0156  0.5889
  500MPD2     H 7487   0.471   4.564  10.500  0.3783 -0.4596 -0.9407
  500MPD2    H1 7488   0.152   4.512  10.794  0.1743 -0.7337  0.0901
  500MPD2    H2 7489   0.544   4.487  10.912  1.0322  0.0641 -0.6650
  500MPD2    H3 7490   0.322   4.470  10.956  1.5453 -0.5125  0.6532
  500MPD2     N 7491   0.204   4.557  10.537  0.1827  0.0331 -0.2394
  500MPD2    H5 7492   0.111   4.541  10.573  0.9158 -2.5856  0.4895
  500MPD2    N1 7493   0.667   4.541  10.677  0.1674 -0.1585 -0.0367
  500MPD2    H7 7494   0.697   4.580  10.588 -2.0823  1.9974  0.1468
  501TMC3    C1 7495   0.896   4.548  10.711  0.4315  0.2888  0.3078
  501TMC3    C2 7496   0.899   4.664  10.647  0.1219 -0.0557 -0.4536
  501TMC3    C3 7497   1.022   4.718  10.646  0.0320  0.5185  0.1820
  501TMC3    C4 7498   0.995   4.508  10.799  0.2414  0.3158 -0.6074
  501TMC3    C5 7499   1.113   4.573  10.800  0.5059  0.5112 -0.7249
  501TMC3    C6 7500   1.131   4.679  10.721  0.6911  0.2067 -0.2298
  501TMC3     C 7501   0.765   4.507  10.762  0.3104 -0.4448  0.3331
  501TMC3     O 7502   0.758   4.452  10.871  0.2375 -0.1137  0.4279
  501TMC3     H 7503   0.815   4.716  10.601  0.9388  2.9140  1.3893
  501TMC3    H1 7504   0.991   4.416  10.856 -0.2093  1.7846  1.7180
  501TMC3    H2 7505   1.226   4.730  10.719  1.1237 -0.6540 -1.4491
  501TMC3    C7 7506   1.224   4.521  10.879 -0.1200  0.2928 -0.0664
  501TMC3    C8 7507   1.034   0.118  10.590 -0.7934 -0.9046  0.3018
  501TMC3    O1 7508   1.196   4.442  10.971  0.2305 -0.0255 -0.1163
  501TMC3    O2 7509   1.118   0.189  10.643 -0.3081 -0.2109 -0.0978
  502TMC3    C1 7510   0.861   3.285  14.924  0.0875  1.0514 -0.1624
  502TMC3    C2 7511   0.894   3.382  14.836  0.0487  0.1725  0.1002
  502TMC3    C3 7512   0.833   3.391  14.711  0.3914  0.7872 -0.1321
  502TMC3    C4 7513   0.762   3.195  14.889  0.3371 -0.3134 -0.2496
  502TMC3    C5 7514   0.693   3.205  14.769  0.3336  0.4239 -0.0317
  502TMC3    C6 7515   0.726   3.307  14.683 -0.2881  0.4477  0.6742
  502TMC3     C 7516   0.920   3.285  15.058 -0.0025 -0.1067 -0.2583
  502TMC3     O 7517   1.003   3.368  15.083 -0.2642 -0.1578 -0.1753
  502TMC3     H 7518   0.979   3.444  14.859  0.3840 -0.9467  1.8763
  502TMC3    H1 7519   0.754   3.104  14.946 -0.2617 -1.5888 -2.3602
  502TMC3    H2 7520   0.674   3.308  14.588  0.4301  0.1342  0.2812
  502TMC3    C7 7521   0.606   3.098  14.717 -0.1584 -0.2386  0.6368
  502TMC3    C8 7522   0.830   3.515  14.637 -0.0602 -0.3255  0.8225
  502TMC3    O1 7523   0.583   3.092  14.598 -0.6655  0.1081  0.0018
  502TMC3    O2 7524   0.722   3.545  14.579 -0.2610  0.3037 -0.1976
  503MPD2     C 7525   2.280   4.005  16.574 -0.3588  0.0854  0.2735
  503MPD2    C1 7526   2.261   4.047  16.704 -0.2002  0.1786  0.0721
  503MPD2    C2 7527   2.305   3.957  16.797  0.3793 -0.0340 -0.7380
  503MPD2    C3 7528   2.336   3.824  16.771 -0.2971  0.0512  0.4340
  503MPD2    C4 7529   2.374   3.791  16.637  0.3507  0.4028  0.5251
  503MPD2    C5 7530   2.347   3.887  16.544 -0.8385  0.3715 -0.2277
  503MPD2     H 7531   2.319   3.987  16.901 -0.3879  0.2008 -0.6992
  503MPD2    H1 7532   2.407   3.694  16.603  0.4087  0.9047 -0.8479
  503MPD2    H2 7533   2.249   4.059  16.485 -1.2040 -0.2149  0.3866
  503MPD2    H3 7534   2.364   3.851  16.443  1.4637 -0.1430  0.3347
  503MPD2     N 7535   2.358   3.749  16.882 -0.4470 -0.8376  0.1394
  503MPD2    H5 7536   2.344   3.795  16.971  0.9137  1.2607 -0.7296
  503MPD2    N1 7537   2.221   4.172  16.754  0.0257  0.1937  0.1495
  503MPD2    H7 7538   2.217   4.174  16.856  1.1384 -1.3942  0.2357
  504TMC3    C1 7539   2.459   3.592  17.021  0.5178  0.6986  0.0956
  504TMC3    C2 7540   2.426   3.675  17.126 -0.1806  0.1203 -0.1507
  504TMC3    C3 7541   2.471   3.635  17.248  0.3491  0.5196 -0.9338
  504TMC3    C4 7542   2.548   3.490  17.032  0.3479 -0.1635  0.7667
  504TMC3    C5 7543   2.581   3.449  17.160 -0.5862 -0.5730 -0.2061
  504TMC3    C6 7544   2.550   3.527  17.266  0.6685  0.6189 -0.0861
  504TMC3     C 7545   2.424   3.628  16.883  0.4281 -0.2441  0.6046
  504TMC3     O 7546   2.453   3.556  16.788  0.0664 -0.0595 -0.0110
  504TMC3     H 7547   2.353   3.756  17.122  1.5495  1.6333 -1.1248
  504TMC3    H1 7548   2.575   3.433  16.944  0.1192 -1.5492  1.5975
  504TMC3    H2 7549   2.591   3.511  17.366 -1.2526 -1.3805  0.3940
  504TMC3    C7 7550   2.705   3.371  17.161 -0.1188 -0.3570 -0.1806
  504TMC3    C8 7551   2.476   3.744  17.339 -0.4360 -0.3798  0.1595
  504TMC3    O1 7552   2.739   3.336  17.052 -0.0354  0.6641  0.0640
  504TMC3    O2 7553   2.509   3.853  17.288 -0.5916 -0.6883  0.1249
  505MPD2     C 7554   3.261   3.201  10.708 -0.3204 -0.5114 -0.2646
  505MPD2    C1 7555   3.318   3.128  10.811  0.2560  0.0056 -1.0089
  505MPD2    C2 7556   3.450   3.148  10.853 -0.6039 -0.6221  0.5498
  505MPD2    C3 7557   3.526   3.239  10.784 -0.0764  0.2249  0.3829
  505MPD2    C4 7558   3.471   3.312  10.681 -0.2354 -0.2433  0.3931
  505MPD2    C5 7559   3.344   3.297  10.648 -0.6500 -0.5214  0.6310
  505MPD2     H 7560   3.494   3.100  10.939  0.1541 -1.2552 -0.1873
  505MPD2    H1 7561   3.531   3.378  10.620  0.2292  1.0845  2.2734
  505MPD2    H2 7562   3.156   3.185  10.685 -0.1844  0.4466 -1.5213
  505MPD2    H3 7563   3.294   3.354  10.570  0.4755  0.3252  0.5348
  505MPD2     N 7564   3.659   3.271  10.821 -0.8084 -0.1180  0.2432
  505MPD2    H5 7565   3.711   3.334  10.760 -0.3299 -2.1211 -1.4433
  505MPD2    N1 7566   3.236   3.025  10.868 -0.1831  0.4939 -0.0063
  505MPD2    H7 7567   3.152   2.994  10.820 -1.7104  0.8787  2.3889
  506TMC3    C1 7568   3.168   2.870  11.018 -0.8270  0.7462  0.7213
  506TMC3    C2 7569   3.166   2.774  10.922 -0.1956  0.3900 -0.1195
  506TMC3    C3 7570   3.176   2.644  10.965  0.6194  0.4240  0.2567
  506TMC3    C4 7571   3.190   2.837  11.153 -0.0861  0.2243  0.1507
  506TMC3    C5 7572   3.194   2.707  11.193 -0.3011  0.8897 -0.0228
  506TMC3    C6 7573   3.174   2.613  11.093  0.3587  0.5550 -0.5832
  506TMC3     C 7574   3.257   2.976  10.994 -0.2342 -0.1152  0.2199
  506TMC3     O 7575   3.346   2.995  11.077  0.1464  0.2119 -0.2274
  506TMC3     H 7576   3.145   2.798  10.819  0.4506 -0.0913 -0.3638
  506TMC3    H1 7577   3.201   2.911  11.232 -2.6288  1.1684 -0.3631
  506TMC3    H2 7578   3.200   2.512  11.120 -2.7428 -0.4471 -1.3946
  506TMC3    C7 7579   3.312   2.677  11.278  0.5013  0.3975 -0.3965
  506TMC3    C8 7580   3.196   2.536  10.868  1.3762 -0.1704 -0.1295
  506TMC3    O1 7581   3.335   2.565  11.311  0.0716  0.3784  0.1750
  506TMC3    O2 7582   3.213   2.422  10.915  0.5662 -0.2092  0.0781
  507TMC3    C1 7583   3.987   4.123  14.658 -0.7464  0.1641 -0.3156
  507TMC3    C2 7584   4.054   4.082  14.547 -0.0387  0.0946 -0.2314
  507TMC3    C3 7585   3.985   4.122  14.434 -0.1328  0.2099  0.2738
  507TMC3    C4 7586   3.864   4.177  14.669 -0.0565 -0.3598  0.1414
  507TMC3    C5 7587   3.803   4.217  14.547  0.5827  0.6755 -0.3480
  507TMC3    C6 7588   3.874   4.206  14.434 -0.1715 -0.1337  0.0502
  507TMC3     C 7589   4.071   4.138  14.783 -0.4853  0.2225 -0.0060
  507TMC3     O 7590   4.030   4.229  14.854 -0.5030  0.0543 -0.7270
  507TMC3     H 7591   4.147   4.026  14.549  0.3772  0.8196  0.6420
  507TMC3    H1 7592   3.813   4.192  14.763 -1.1723  0.1933 -0.5528
  507TMC3    H2 7593   3.839   4.250  14.342  0.3032  0.9358  0.3792
  507TMC3    C7 7594   3.663   4.217  14.548 -0.3165  0.1925  0.0174
  507TMC3    C8 7595   3.945   4.013  14.349 -0.3020  0.0022  0.3213
  507TMC3    O1 7596   3.595   4.252  14.640 -0.3443 -0.4030 -0.0536
  507TMC3    O2 7597   3.843   4.035  14.284  0.4062 -0.3578  0.4600
  508MPD2     C 7598   4.019   1.230  16.036  0.1109 -0.0136 -0.4561
  508MPD2    C1 7599   4.149   1.209  16.070 -0.4461 -0.7764 -0.9350
  508MPD2    C2 7600   4.243   1.244  15.980 -0.1505  0.3160 -0.4182
  508MPD2    C3 7601   4.214   1.309  15.861 -0.2433  0.3501 -0.4095
  508MPD2    C4 7602   4.084   1.329  15.824 -0.3329 -0.0692 -0.3133
  508MPD2    C5 7603   3.989   1.280  15.912 -0.0073  0.5583 -0.2595
  508MPD2     H 7604   4.348   1.237  16.005 -0.1014 -1.6451 -1.1892
  508MPD2    H1 7605   4.047   1.381  15.737  3.9822  1.3616 -1.3116
  508MPD2    H2 7606   3.935   1.209  16.101 -0.2806  0.6285 -0.7595
  508MPD2    H3 7607   3.883   1.290  15.892 -0.5594  0.3294  2.6374
  508MPD2     N 7608   4.319   1.369  15.784  0.1657 -0.7263  0.1567
  508MPD2    H5 7609   4.298   1.405  15.691 -0.7290  1.2273  1.1235
  508MPD2    N1 7610   4.180   1.152  16.194 -0.8766 -0.2057 -0.6951
  508MPD2    H7 7611   4.095   1.136  16.247  0.6920 -0.0391  1.8467
  509TMC3    C1 7612   4.549   1.581  15.531 -0.3092  0.1946 -0.5116
  509TMC3    C2 7613   4.664   1.642  15.576  1.0530 -0.3583 -0.1640
  509TMC3    C3 7614   4.717   1.605  15.704 -0.0182  0.1522  0.4145
  509TMC3    C4 7615   4.482   1.483  15.594 -0.3023  0.3511  0.1386
  509TMC3    C5 7616   4.535   1.455  15.716 -0.4298 -0.8157  0.4468
  509TMC3    C6 7617   4.651   1.510  15.776  0.5887 -0.6887  0.1761
  509TMC3     C 7618   4.469   1.627  15.418 -0.0462 -0.3338  0.8344
  509TMC3     O 7619   4.415   1.544  15.347  0.0097 -0.0306  0.1012
  509TMC3     H 7620   4.716   1.702  15.502 -0.4729 -0.2990 -1.1991
  509TMC3    H1 7621   4.397   1.430  15.553  0.5832  0.2630 -1.5662
  509TMC3    H2 7622   4.671   1.497  15.882 -0.7079 -0.0570  0.5005
  509TMC3    C7 7623   4.453   1.382  15.821  0.5592 -0.1704  0.0032
  509TMC3    C8 7624   0.108   1.650  15.760 -0.4251  0.2702 -1.2292
  509TMC3    O1 7625   4.515   1.345  15.921  0.5773 -0.3397 -0.1347
  509TMC3    O2 7626   0.158   1.579  15.848  0.0936 -1.0324  0.2470
  510MPD2     C 7627   2.556   2.747  15.000  0.8145 -0.0264  0.4589
  510MPD2    C1 7628   2.563   2.613  14.976  0.1977 -0.1921 -0.0430
  510MPD2    C2 7629   2.664   2.565  14.897  0.0416 -0.8909  0.0335
  510MPD2    C3 7630   2.753   2.648  14.835 -0.2068  0.2689 -0.0607
  510MPD2    C4 7631   2.749   2.784  14.857  0.2961 -0.3735  0.2415
  510MPD2    C5 7632   2.659   2.826  14.951 -0.0533 -0.7684  0.1740
  510MPD2     H 7633   2.671   2.460  14.871  1.7536 -1.0265  1.0418
  510MPD2    H1 7634   2.824   2.851  14.817 -0.5435  0.4220  0.0076
  510MPD2    H2 7635   2.496   2.780  15.085 -0.8756 -1.3130 -0.2457
  510MPD2    H3 7636   2.645   2.927  14.987  0.1079  0.1589 -2.4268
  510MPD2     N 7637   2.828   2.604  14.724  0.2681  0.0912 -0.2942
  510MPD2    H5 7638   2.824   2.504  14.706 -1.3856  0.2069 -0.5466
  510MPD2    N1 7639   2.472   2.527  15.042  0.6714  0.3527 -0.1535
  510MPD2    H7 7640   2.393   2.577  15.083 -0.0990 -0.2298 -0.9160
  511TMC3    C1 7641   2.348   2.337  15.102 -0.1261  0.1092 -0.0303
  511TMC3    C2 7642   2.287   2.415  15.200 -0.1764 -0.1303 -0.2521
  511TMC3    C3 7643   2.179   2.343  15.258  0.5512  1.0536 -0.4086
  511TMC3    C4 7644   2.317   2.208  15.066 -0.1160  0.2188  1.2270
  511TMC3    C5 7645   2.206   2.152  15.123  0.1160 -0.7762  0.5011
  511TMC3    C6 7646   2.132   2.215  15.223  0.5130  0.1678  0.4026
  511TMC3     C 7647   2.468   2.393  15.047  0.2574 -0.1731 -0.4414
  511TMC3     O 7648   2.546   2.317  14.992 -0.1172 -0.3665 -0.1535
  511TMC3     H 7649   2.298   2.522  15.207  1.5469 -0.4030  1.1361
  511TMC3    H1 7650   2.368   2.164  14.982 -0.3560 -0.3608  1.3860
  511TMC3    H2 7651   2.028   2.187  15.237  0.3636 -0.4371 -1.9393
  511TMC3    C7 7652   2.165   2.022  15.073  0.7020  0.2637 -0.7502
  511TMC3    C8 7653   2.105   2.413  15.366  0.0878  0.1521 -0.0148
  511TMC3    O1 7654   2.205   1.994  14.958  0.3623 -0.3701 -0.3913
  511TMC3    O2 7655   2.133   2.527  15.390 -0.1568 -0.7884 -0.5708
  512TMC3    C1 7656   1.346   2.203  12.889  0.8195 -0.4121 -0.2115
  512TMC3    C2 7657   1.347   2.174  13.020 -0.3520 -0.1274 -0.1934
  512TMC3    C3 7658   1.336   2.040  13.056 -0.2539 -0.2769 -0.1728
  512TMC3    C4 7659   1.336   2.117  12.786 -0.5022 -0.4069 -0.0404
  512TMC3    C5 7660   1.325   1.983  12.825  0.4509 -0.0461  0.2597
  512TMC3    C6 7661   1.328   1.942  12.956 -0.2431 -0.1832 -1.1018
  512TMC3     C 7662   1.332   2.339  12.849  0.1916 -0.8213  0.3395
  512TMC3     O 7663   1.328   2.360  12.730 -0.4377 -0.4438 -0.4190
  512TMC3     H 7664   1.362   2.243  13.103  0.1890 -0.6907  0.1701
  512TMC3    H1 7665   1.356   2.155  12.686  0.6964 -0.5181  0.1561
  512TMC3    H2 7666   1.313   1.839  12.984 -2.9273  0.4589 -0.1843
  512TMC3    C7 7667   1.317   1.889  12.711 -0.0699  0.0422 -0.4104
  512TMC3    C8 7668   1.337   1.996  13.200 -0.2360 -0.8110 -0.3136
  512TMC3    O1 7669   1.263   1.918  12.608  0.3243 -0.1988  0.1816
  512TMC3    O2 7670   1.295   1.879  13.224  0.4888  0.2636 -0.2104
  513MPD2     C 7671   3.828   2.470  13.210  0.5402  0.3495 -0.2700
  513MPD2    C1 7672   3.795   2.358  13.144 -0.5113  0.2103  0.0067
  513MPD2    C2 7673   3.728   2.253  13.203 -0.2588  0.3056  0.5355
  513MPD2    C3 7674   3.678   2.259  13.333 -0.0233 -0.1979 -0.9236
  513MPD2    C4 7675   3.719   2.372  13.400 -0.3800 -0.1498  0.4416
  513MPD2    C5 7676   3.790   2.474  13.339 -0.2233 -0.0867 -0.2216
  513MPD2     H 7677   3.710   2.160  13.150 -1.4875 -0.0787  1.6308
  513MPD2    H1 7678   3.693   2.386  13.504  0.0941 -1.1574  0.7054
  513MPD2    H2 7679   3.893   2.549  13.176 -1.6611  2.2209 -0.1234
  513MPD2    H3 7680   3.811   2.555  13.408  0.7546 -0.0753 -0.5353
  513MPD2     N 7681   3.620   2.140  13.389  0.1681  0.0663  0.7440
  513MPD2    H5 7682   3.608   2.062  13.325  1.4742  0.5759 -0.1343
  513MPD2    N1 7683   3.835   2.351  13.011 -0.1408  0.2206 -0.5697
  513MPD2    H7 7684   3.898   2.425  12.980 -1.0584  0.9246 -0.7789
  514TMC3    C1 7685   3.863   2.277  12.795 -0.0112 -0.2529 -1.5154
  514TMC3    C2 7686   3.767   2.274  12.691 -0.2897 -0.0965 -0.5802
  514TMC3    C3 7687   3.784   2.186  12.581  0.2931  0.0095  0.0440
  514TMC3    C4 7688   3.974   2.195  12.788 -0.5123  0.2007 -0.3775
  514TMC3    C5 7689   3.983   2.107  12.682  0.4730  0.2436  0.1253
  514TMC3    C6 7690   3.895   2.103  12.583  0.7418 -0.3055 -0.2821
  514TMC3     C 7691   3.803   2.251  12.921  0.5845 -0.7675 -0.4602
  514TMC3     O 7692   3.747   2.146  12.927 -0.1267 -0.0950  0.6590
  514TMC3     H 7693   3.675   2.332  12.695  1.7540  3.0429  0.9066
  514TMC3    H1 7694   4.044   2.183  12.869  0.8983  1.0416 -1.4843
  514TMC3    H2 7695   3.891   2.024  12.508 -6.0248 -0.8239  0.5746
  514TMC3    C7 7696   4.006   1.969  12.735 -0.1108  0.3126  0.0792
  514TMC3    C8 7697   3.685   2.165  12.481  0.5915 -0.6806 -0.4621
  514TMC3    O1 7698   4.043   1.890  12.650 -0.1564  0.5946  0.2459
  514TMC3    O2 7699   3.605   2.259  12.477  0.7689 -0.0631 -0.0933
  515MPD2     C 7700   1.591   3.798  14.070 -0.0354 -0.1805 -0.8552
  515MPD2    C1 7701   1.544   3.744  14.190  0.0364  0.3021 -0.6188
  515MPD2    C2 7702   1.616   3.770  14.306 -0.7571 -0.5308  0.5207
  515MPD2    C3 7703   1.727   3.848  14.304 -0.3169  0.2245  0.4566
  515MPD2    C4 7704   1.759   3.916  14.186 -0.3318  0.2759  0.2110
  515MPD2    C5 7705   1.694   3.888  14.073  0.9980  0.4377 -0.2285
  515MPD2     H 7706   1.584   3.734  14.403 -1.7442 -1.1804 -0.0417
  515MPD2    H1 7707   1.842   3.984  14.173  0.7606 -1.0002  0.5178
  515MPD2    H2 7708   1.537   3.783  13.976 -1.2040  0.9456 -0.3710
  515MPD2    H3 7709   1.734   3.933  13.983 -0.5297  0.8979 -0.6731
  515MPD2     N 7710   1.792   3.866  14.427  1.0403 -0.6126  0.4393
  515MPD2    H5 7711   1.741   3.826  14.505 -0.9926  1.7091  0.3012
  515MPD2    N1 7712   1.419   3.673  14.198 -0.4626 -0.0434  0.0223
  515MPD2    H7 7713   1.402   3.634  14.290  2.2614 -1.3637 -0.0284
  516TMC3    C1 7714   1.207   3.597  14.156  0.8550 -0.3950 -0.0628
  516TMC3    C2 7715   1.085   3.655  14.126 -0.3243  0.2015  0.1782
  516TMC3    C3 7716   0.975   3.608  14.191 -0.0130 -0.1302  0.4493
  516TMC3    C4 7717   1.219   3.487  14.235  0.4186  0.3391 -0.1607
  516TMC3    C5 7718   1.103   3.429  14.279  0.4949 -0.6004  0.1053
  516TMC3    C6 7719   0.985   3.497  14.268  0.2629  0.1022  0.7489
  516TMC3     C 7720   1.320   3.669  14.105 -0.3828 -0.2883 -0.1987
  516TMC3     O 7721   1.308   3.733  14.002 -0.0957  0.3507 -0.5033
  516TMC3     H 7722   1.082   3.730  14.048  0.0873  1.8530  1.7289
  516TMC3    H1 7723   1.315   3.456  14.274 -0.6612 -1.0910  1.3564
  516TMC3    H2 7724   0.893   3.461  14.314  1.0422 -2.0054  0.6388
  516TMC3    C7 7725   1.114   3.326  14.381 -0.2986  0.1468  0.7171
  516TMC3    C8 7726   0.844   3.665  14.158 -0.2369  0.8652  0.9072
  516TMC3    O1 7727   1.209   3.325  14.458  0.1367  0.5498 -0.6737
  516TMC3    O2 7728   0.745   3.607  14.190 -0.0723 -0.0247  0.4436
  517MPD2     C 7729   0.474   0.252  17.700 -0.0707 -0.1451 -0.1618
  517MPD2    C1 7730   0.597   0.296  17.657 -0.3689 -0.0191 -0.4778
  517MPD2    C2 7731   0.633   0.427  17.676  0.2222  0.0174  0.1854
  517MPD2    C3 7732   0.553   0.514  17.744 -0.2521  0.4795 -0.9463
  517MPD2    C4 7733   0.436   0.470   0.048  1.3492 -0.1580  0.7886
  517MPD2    C5 7734   0.401   0.333   0.037  1.1414  0.2203  0.9367
  517MPD2     H 7735   0.729   0.467  17.648 -0.2453  0.0005 -1.4484
  517MPD2    H1 7736   0.370   0.535   0.105  0.8427  0.0038  0.0141
  517MPD2    H2 7737   0.450   0.148  17.686 -0.0131 -0.3376  1.0980
  517MPD2    H3 7738   0.308   0.306   0.085 -0.1330 -1.0805 -2.3332
  517MPD2     N 7739   0.593   0.652   0.009 -0.1402 -0.1691 -0.1760
  517MPD2    H5 7740   0.681   0.681  17.715 -0.4879  1.2084  0.0468
  517MPD2    N1 7741   0.690   0.209  17.593  0.0683 -0.6277 -0.3684
  517MPD2    H7 7742   0.772   0.256  17.557  0.3393 -0.7318  0.1027
  518TMC3    C1 7743   0.783   0.026  17.486  0.6665  0.6814 -0.2506
  518TMC3    C2 7744   0.760   4.635  17.436  0.2336  0.7729  0.2204
  518TMC3    C3 7745   0.874   4.562  17.404 -0.1895 -0.3387  0.0212
  518TMC3    C4 7746   0.903   0.084  17.481  0.9891 -0.2652  0.0456
  518TMC3    C5 7747   1.014   0.011  17.437 -0.3200  0.7097  0.5885
  518TMC3    C6 7748   0.998   4.618  17.400 -0.5516  0.2811  0.7127
  518TMC3     C 7749   0.665   0.085  17.546 -0.7015  0.5474  0.3442
  518TMC3     O 7750   0.565   0.016  17.551 -0.2199 -0.1059 -0.0594
  518TMC3     H 7751   0.665   4.586  17.453  0.6236  0.3422  1.1970
  518TMC3    H1 7752   0.914   0.185  17.519 -0.1000  0.1184 -0.6710
  518TMC3    H2 7753   1.079   4.561  17.355 -0.9896  0.9991 -0.9892
  518TMC3    C7 7754   1.125   0.094  17.414 -0.9640  0.3000 -0.0905
  518TMC3    C8 7755   0.862   4.440  17.326  0.0585  0.2355 -0.4822
  518TMC3    O1 7756   1.120   0.214  17.435 -0.0875 -0.4838 -0.1564
  518TMC3    O2 7757   0.967   4.382  17.310  0.1217 -0.1242  0.2854
  519MPD2     C 7758   2.922   3.036  14.516 -0.0964 -0.3540  0.0539
  519MPD2    C1 7759   2.861   2.959  14.420  0.4906 -0.0203 -0.1661
  519MPD2    C2 7760   2.922   2.935  14.301 -0.0307 -0.0253 -0.0387
  519MPD2    C3 7761   3.050   2.998  14.274 -0.3080  0.6154 -0.2045
  519MPD2    C4 7762   3.104   3.078  14.373  0.1639  0.5743  0.7185
  519MPD2    C5 7763   3.040   3.098  14.494  0.2027 -0.1318 -0.5549
  519MPD2     H 7764   2.880   2.884  14.215 -1.5374 -1.2479  1.4531
  519MPD2    H1 7765   3.194   3.136  14.356 -1.5290  2.1146 -3.0606
  519MPD2    H2 7766   2.878   3.054  14.613  0.5520  0.1324  0.2580
  519MPD2    H3 7767   3.075   3.173  14.564  0.9578 -0.8469 -0.1683
  519MPD2     N 7768   3.116   3.010  14.145 -0.0623 -0.4035 -0.0344
  519MPD2    H5 7769   3.192   3.077  14.139  0.8144 -1.4775 -1.0142
  519MPD2    N1 7770   2.725   2.913  14.445 -0.0084  0.1172  0.0633
  519MPD2    H7 7771   2.673   2.951  14.524 -1.6146 -4.4895  1.1937
  520TMC3    C1 7772   3.157   2.974  13.902 -0.0303 -0.4974 -0.2790
  520TMC3    C2 7773   3.106   2.928  13.781 -0.5517 -0.4327  0.1407
  520TMC3    C3 7774   3.183   2.925  13.668 -0.2115  0.1942 -0.2917
  520TMC3    C4 7775   3.288   3.022  13.892  0.1683  0.3154  0.6318
  520TMC3    C5 7776   3.354   3.033  13.772  0.0695  0.0758  0.3265
  520TMC3    C6 7777   3.304   2.982  13.654  0.3925  0.1570  0.0384
  520TMC3     C 7778   3.074   2.952  14.026  0.6012  0.2275 -0.1019
  520TMC3     O 7779   2.976   2.882  14.004 -0.0939  0.2495  0.3060
  520TMC3     H 7780   3.016   2.867  13.783 -0.7872 -0.0864  0.1004
  520TMC3    H1 7781   3.328   3.061  13.985 -0.9898  0.8981  0.8910
  520TMC3    H2 7782   3.347   2.986  13.554  0.0028 -1.3828 -0.1895
  520TMC3    C7 7783   3.490   3.084  13.785 -0.4208  0.3379  0.3626
  520TMC3    C8 7784   3.129   2.875  13.545  0.4458 -0.5008 -0.7108
  520TMC3    O1 7785   3.527   3.110  13.898  0.2450 -0.0288 -0.2340
  520TMC3    O2 7786   3.207   2.837  13.466  0.3271 -0.3955  0.5185
  521MPD2     C 7787   3.339   1.779  17.559 -0.4350 -0.1057  0.1422
  521MPD2    C1 7788   3.322   1.732  17.433  0.2852 -0.2301  0.0008
  521MPD2    C2 7789   3.428   1.739  17.349  0.0731 -0.7647 -0.4027
  521MPD2    C3 7790   3.543   1.811  17.382 -0.4421 -0.0222  0.3036
  521MPD2    C4 7791   3.552   1.866  17.505  0.0572  0.6955 -0.3622
  521MPD2    C5 7792   3.453   1.845  17.596  0.4802  0.8040 -0.4340
  521MPD2     H 7793   3.436   1.687  17.254  2.2540 -0.8038 -0.1953
  521MPD2    H1 7794   3.634   1.929  17.536 -0.6447 -0.2724  3.4825
  521MPD2    H2 7795   3.254   1.760  17.623  0.5569 -0.1779  1.4425
  521MPD2    H3 7796   3.464   1.864  17.702  0.7464  1.6355 -0.6113
  521MPD2     N 7797   3.645   1.834  17.289  0.2271  0.5126 -0.1889
  521MPD2    H5 7798   3.619   1.812  17.193  0.5000  0.9868 -0.3771
  521MPD2    N1 7799   3.196   1.677  17.399  0.1599  0.7138 -0.1773
  521MPD2    H7 7800   3.125   1.694  17.470 -1.7319 -2.6122 -1.2719
  522TMC3    C1 7801   3.841   1.870  17.188 -0.1477 -0.4907  0.4206
  522TMC3    C2 7802   3.975   1.855  17.198 -0.0606 -0.2891  0.5919
  522TMC3    C3 7803   4.044   1.846  17.080 -0.2790  0.3808  0.2703
  522TMC3    C4 7804   3.778   1.880  17.066 -0.8463 -0.7607 -0.2554
  522TMC3    C5 7805   3.852   1.872  16.951 -0.3500 -0.0869  0.0341
  522TMC3    C6 7806   3.983   1.852  16.958  0.5273  0.2939 -0.0171
  522TMC3     C 7807   3.772   1.882  17.312  0.3172 -0.1821 -0.2541
  522TMC3     O 7808   3.838   1.892  17.416 -0.1964  0.2478  0.3549
  522TMC3     H 7809   4.024   1.841  17.294 -1.8049  0.0211  1.5180
  522TMC3    H1 7810   3.675   1.914  17.063 -0.4097  0.5619 -0.2404
  522TMC3    H2 7811   4.047   1.857  16.871  0.2744  2.8860 -0.0507
  522TMC3    C7 7812   3.785   1.825  16.839 -0.2958 -0.7996  0.6707
  522TMC3    C8 7813   4.173   1.786  17.086 -0.3038 -0.2375  0.2347
  522TMC3    O1 7814   3.847   1.735  16.781 -0.3496 -0.1222  0.4021
  522TMC3    O2 7815   4.237   1.802  17.187  0.4096 -0.5509  0.0935
  523MPD2     C 7816   2.009   1.592  10.195 -0.4457  0.4547 -0.2123
  523MPD2    C1 7817   1.897   1.568  10.120  0.1012  0.0129  0.4259
  523MPD2    C2 7818   1.865   1.664  10.021 -0.5423 -0.2428 -0.4590
  523MPD2    C3 7819   1.927   1.789  10.015  0.0640 -0.3212 -0.1487
  523MPD2    C4 7820   2.037   1.808  10.093  0.2774 -0.2655 -0.1749
  523MPD2    C5 7821   2.074   1.715  10.181 -0.1875 -0.5297 -0.3159
  523MPD2     H 7822   1.785   1.653   9.949 -1.9017 -1.0303  1.1680
  523MPD2    H1 7823   2.099   1.895  10.079  2.0491 -1.4701  0.2122
  523MPD2    H2 7824   2.052   1.520  10.264  1.1794 -0.2267 -1.9399
  523MPD2    H3 7825   2.154   1.736  10.251  0.1222  0.3313 -0.9332
  523MPD2     N 7826   1.885   1.890   9.924 -0.2583  0.2825 -0.6303
  523MPD2    H5 7827   1.946   1.970   9.910 -0.5302  1.0539  2.7655
  523MPD2    N1 7828   1.841   1.438  10.137 -0.6304  0.8039  0.7535
  523MPD2    H7 7829   1.886   1.379  10.207  0.0749  0.9047  0.3844
  524TMC3    C1 7830   1.764   2.010   9.761  0.9796 -0.0541  0.0276
  524TMC3    C2 7831   1.680   2.006   9.646 -0.3424  0.3017 -0.1061
  524TMC3    C3 7832   1.648   2.123   9.583 -0.1039  0.3122 -0.2503
  524TMC3    C4 7833   1.774   2.129   9.838 -0.4879 -0.2369 -0.7827
  524TMC3    C5 7834   1.727   2.242   9.779  0.3574 -0.4751 -0.1431
  524TMC3    C6 7835   1.670   2.241   9.651  0.5639  0.2579  0.4165
  524TMC3     C 7836   1.781   1.888   9.836 -0.1334 -0.4819 -0.1909
  524TMC3     O 7837   1.706   1.795   9.806  0.7045  0.0515  0.2400
  524TMC3     H 7838   1.672   1.913   9.591 -1.3023  0.0425  0.4726
  524TMC3    H1 7839   1.811   2.123   9.940  1.6472  0.0184 -1.5328
  524TMC3    H2 7840   1.651   2.329   9.591  1.1014 -0.6861 -1.1307
  524TMC3    C7 7841   1.805   2.357   9.806  0.2822 -0.2797  0.2964
  524TMC3    C8 7842   1.568   2.135   9.456 -0.4848  0.3987  0.0070
  524TMC3    O1 7843   1.915   2.329   9.857 -0.4460 -0.6428  0.8275
  524TMC3    O2 7844   1.506   2.233   9.435 -0.4557  0.0423  0.4428
  525MPD2     C 7845   4.631   2.763  14.413  0.7668 -0.5533  0.9597
  525MPD2    C1 7846   4.601   2.820  14.537  0.0601 -0.1509 -0.2568
  525MPD2    C2 7847   4.630   2.947  14.558 -0.3608  0.7644  0.0032
  525MPD2    C3 7848   4.680   3.024  14.457  0.9227 -0.4230  0.3308
  525MPD2    C4 7849   4.717   2.968  14.332  0.0998 -0.3049 -0.1975
  525MPD2    C5 7850   4.696   2.836  14.320 -0.2712 -0.3737 -0.1886
  525MPD2     H 7851   4.597   2.986  14.654  2.1846 -0.0845  1.2060
  525MPD2    H1 7852   0.024   3.024  14.251  1.3908 -0.1483  0.6209
  525MPD2    H2 7853   4.606   2.664  14.377  0.8144 -0.2234  0.0065
  525MPD2    H3 7854   4.729   2.791  14.227 -0.6059  2.4702 -1.6520
  525MPD2     N 7855   4.671   3.165  14.460  0.5140 -0.1046 -0.2835
  525MPD2    H5 7856   4.699   3.218  14.378 -2.0205 -2.0884 -2.4626
  525MPD2    N1 7857   4.539   2.747  14.639  0.1473 -0.0296 -0.1805
  525MPD2    H7 7858   4.527   2.801  14.724 -0.0801 -1.6108  0.8005
  526TMC3    C1 7859   4.460   2.570  14.765  0.1205 -0.6247 -0.8163
  526TMC3    C2 7860   4.357   2.636  14.831 -0.4516  0.0566 -0.2567
  526TMC3    C3 7861   4.317   2.594  14.957  0.2638  0.0720 -0.3829
  526TMC3    C4 7862   4.518   2.459  14.824 -0.0747  0.0363  0.0575
  526TMC3    C5 7863   4.471   2.411  14.942 -0.4124  0.2214 -0.4244
  526TMC3    C6 7864   4.374   2.477  15.013 -0.2328 -0.3763 -0.0143
  526TMC3     C 7865   4.512   2.610  14.633 -0.0266 -0.1490  0.3620
  526TMC3     O 7866   4.519   2.523  14.548 -0.1854  0.4213 -0.2777
  526TMC3     H 7867   4.312   2.723  14.784  0.3679  1.8663  2.2671
  526TMC3    H1 7868   4.590   2.401  14.767 -2.0493 -1.5213 -0.8465
  526TMC3    H2 7869   4.338   2.436  15.106  2.4376 -1.4968  0.5316
  526TMC3    C7 7870   4.514   2.278  14.998 -0.3467  0.9622 -0.5093
  526TMC3    C8 7871   4.251   2.688  15.048  1.0641 -0.4799  0.2736
  526TMC3    O1 7872   4.500   2.267  15.119  0.6233  0.4271  0.0733
  526TMC3    O2 7873   4.271   2.669  15.167 -0.0795 -0.0431  0.4214
  527MPD2     C 7874   2.433   1.635   1.140  0.7512 -0.5035  0.4088
  527MPD2    C1 7875   2.347   1.551   1.068 -0.5049  0.0458  0.0886
  527MPD2    C2 7876   2.394   1.433   1.014 -1.0169 -0.4521  0.0992
  527MPD2    C3 7877   2.532   1.407   1.011 -0.3219  0.0531  0.2052
  527MPD2    C4 7878   2.621   1.494   1.079  0.3221  0.4702 -0.6393
  527MPD2    C5 7879   2.569   1.597   1.149  0.4405 -0.5045 -0.4790
  527MPD2     H 7880   2.331   1.366   0.957 -0.4373 -0.7035 -0.2513
  527MPD2    H1 7881   2.721   1.471   1.113 -0.1706 -1.6309 -0.6177
  527MPD2    H2 7882   2.405   1.722   1.199  0.7290 -2.1022  2.7941
  527MPD2    H3 7883   2.642   1.653   1.206  1.1782  0.3236 -2.2277
  527MPD2     N 7884   2.576   1.292   0.942 -0.0847 -0.3124 -0.7808
  527MPD2    H5 7885   2.508   1.250   0.880 -0.9628 -2.0878  1.3561
  527MPD2    N1 7886   2.209   1.577   1.053 -0.1831  1.2259 -0.3131
  527MPD2    H7 7887   2.151   1.516   0.997  1.0407 -1.4784  1.3344
  528TMC3    C1 7888   1.999   1.679   1.069 -0.2943 -0.5900  0.4169
  528TMC3    C2 7889   1.977   1.631   0.939 -0.4806  0.8050 -0.0661
  528TMC3    C3 7890   1.851   1.600   0.901  0.4783  0.2767 -0.6481
  528TMC3    C4 7891   1.894   1.684   1.161  0.0496 -0.2255 -0.7657
  528TMC3    C5 7892   1.772   1.642   1.113 -0.0971 -0.9328 -0.2420
  528TMC3    C6 7893   1.745   1.620   0.983  0.0394 -0.7489  0.0645
  528TMC3     C 7894   2.137   1.674   1.119  0.1553  0.9317  0.5188
  528TMC3     O 7895   2.167   1.750   1.211  0.4977 -0.1349 -0.5090
  528TMC3     H 7896   2.059   1.616   0.871 -0.7188 -0.5433 -0.0437
  528TMC3    H1 7897   1.909   1.708   1.265 -1.5595 -0.9516 -0.3653
  528TMC3    H2 7898   1.647   1.577   0.968  0.2491 -1.2968  0.2575
  528TMC3    C7 7899   1.648   1.660   1.194 -0.1318 -0.3691 -0.5994
  528TMC3    C8 7900   1.846   1.515   0.779  0.3273 -0.1393  0.5298
  528TMC3    O1 7901   1.540   1.671   1.135 -0.0420 -0.1700 -0.8249
  528TMC3    O2 7902   1.957   1.476   0.750 -0.0735  0.1738 -0.0479
  529MPD2     C 7903   4.064   3.956   0.402  0.2573  0.2389 -0.2863
  529MPD2    C1 7904   4.184   4.017   0.422  0.1205  0.3425 -0.4798
  529MPD2    C2 7905   4.201   4.137   0.349 -0.1310  0.1573  0.2766
  529MPD2    C3 7906   4.099   4.205   0.279 -0.4945 -0.4153 -0.3623
  529MPD2    C4 7907   3.978   4.139   0.270 -0.9281 -0.2052 -0.1091
  529MPD2    C5 7908   3.967   4.009   0.325  0.3361 -0.2851  0.9547
  529MPD2     H 7909   4.299   4.182   0.354  0.6356 -1.4125 -0.6958
  529MPD2    H1 7910   3.902   4.183   0.206  1.4217 -0.6588 -3.2213
  529MPD2    H2 7911   4.032   3.860   0.441 -1.4353  1.1299  0.5324
  529MPD2    H3 7912   3.870   3.961   0.317 -0.0005  0.2063  2.1141
  529MPD2     N 7913   4.115   4.326   0.217 -0.2236  0.0057  0.0683
  529MPD2    H5 7914   4.042   4.343   0.149 -0.3364  1.8883  0.6658
  529MPD2    N1 7915   4.285   3.961   0.510  0.2209 -0.3322 -0.3248
  529MPD2    H7 7916   4.371   4.014   0.519 -0.3159  0.5389 -0.3617
  530TMC3    C1 7917   4.408   3.791   0.601 -0.0590 -0.1496 -0.4616
  530TMC3    C2 7918   4.512   3.878   0.635 -0.1170 -0.2842  0.0659
  530TMC3    C3 7919   4.629   3.824   0.675  0.1323 -0.4954  0.2954
  530TMC3    C4 7920   4.421   3.658   0.620  0.2856  0.1852  0.0880
  530TMC3    C5 7921   4.551   3.612   0.633  0.3480 -0.3726 -1.0399
  530TMC3    C6 7922   4.657   3.688   0.655  0.8528  0.1940 -0.3985
  530TMC3     C 7923   4.280   3.837   0.568 -0.0749  0.3935 -0.8340
  530TMC3     O 7924   4.201   3.745   0.552  0.3195 -0.0960  0.1955
  530TMC3     H 7925   4.499   3.984   0.652  1.0282 -0.1067 -0.1835
  530TMC3    H1 7926   4.345   3.584   0.600 -0.1674  0.0158  2.3594
  530TMC3    H2 7927   0.019   3.649   0.675  1.6184  0.5421 -3.5212
  530TMC3    C7 7928   4.565   3.492   0.714  0.1599  0.1997 -0.0164
  530TMC3    C8 7929   4.732   3.917   0.715  0.2945 -0.0089  0.9816
  530TMC3    O1 7930   4.681   3.451   0.708 -0.0757 -0.3610 -0.4292
  530TMC3    O2 7931   4.716   4.033   0.686  0.3217 -0.2796  0.0111
  531MPD2     C 7932   3.865   1.594  13.039  0.3784 -0.5900  0.2706
  531MPD2    C1 7933   3.800   1.708  13.080 -0.2635 -0.3265 -0.1395
  531MPD2    C2 7934   3.824   1.830  13.017 -0.1000  0.2920 -0.6381
  531MPD2    C3 7935   3.912   1.826  12.911 -0.1262  0.1366  0.4557
  531MPD2    C4 7936   3.982   1.713  12.871  0.2474 -0.0930 -0.1223
  531MPD2    C5 7937   3.956   1.601  12.936 -0.1359  0.5307  0.3824
  531MPD2     H 7938   3.781   1.928  13.037  0.1808  0.1048  0.8386
  531MPD2    H1 7939   4.058   1.722  12.795  0.4233  2.7746  0.4017
  531MPD2    H2 7940   3.850   1.497  13.085 -1.9551  0.2970  1.3892
  531MPD2    H3 7941   4.024   1.519  12.917  1.5834  2.0566 -0.0372
  531MPD2     N 7942   3.939   1.948  12.852 -0.2299 -0.3596  0.3853
  531MPD2    H5 7943   3.905   2.032  12.897  2.7126  0.7033  0.6749
  531MPD2    N1 7944   3.713   1.700  13.194  0.2247  0.5362  0.4371
  531MPD2    H7 7945   3.708   1.615  13.249 -1.2601  0.6275  0.4307
  532TMC3    C1 7946   3.616   1.779  13.387  0.3191 -0.5433  0.0070
  532TMC3    C2 7947   3.555   1.891  13.424  0.2858  0.1842  0.2415
  532TMC3    C3 7948   3.585   1.965  13.531  0.1537  0.3833  0.2255
  532TMC3    C4 7949   3.719   1.736  13.467  0.1408 -0.3761 -1.0478
  532TMC3    C5 7950   3.733   1.788  13.593  0.4151  0.3051  0.5721
  532TMC3    C6 7951   3.669   1.907  13.623 -0.0540  0.1198 -0.0570
  532TMC3     C 7952   3.647   1.804  13.252 -0.3288  0.2329  0.0260
  532TMC3     O 7953   3.629   1.919  13.209  0.7882  0.4664  0.2979
  532TMC3     H 7954   3.470   1.925  13.367  0.3278 -1.8152 -0.9850
  532TMC3    H1 7955   3.780   1.656  13.427  0.1488 -0.5767 -0.6313
  532TMC3    H2 7956   3.692   1.948  13.720  1.1736 -2.2456  0.6592
  532TMC3    C7 7957   3.858   1.767  13.661  0.6529  0.7747  0.9523
  532TMC3    C8 7958   3.597   2.113  13.518  0.0166 -0.1700  0.3682
  532TMC3    O1 7959   3.903   1.853  13.735  0.0410 -0.1926 -0.6512
  532TMC3    O2 7960   3.613   2.189  13.615 -0.1696 -0.1745 -0.5763
  533TMC3    C1 7961   4.599   3.368  14.519 -0.0238 -0.4708  0.6273
  533TMC3    C2 7962   4.684   3.430  14.439  0.1711 -0.2425 -0.1490
  533TMC3    C3 7963   4.674   3.568  14.441  0.7925 -0.3259  0.4042
  533TMC3    C4 7964   4.507   3.434  14.602 -0.5790 -0.2074  0.2822
  533TMC3    C5 7965   4.494   3.575  14.587  0.1893 -0.2521  0.0661
  533TMC3    C6 7966   4.576   3.639  14.506 -0.0307 -0.0239 -0.4490
  533TMC3     C 7967   4.636   3.236  14.569 -0.1358  0.1997  0.9367
  533TMC3     O 7968   4.628   3.207  14.687  0.4435 -0.6445  0.5680
  533TMC3     H 7969   0.042   3.386  14.411  0.2045 -0.3514  0.1418
  533TMC3    H1 7970   4.475   3.379  14.689  0.5750  1.1203  1.5308
  533TMC3    H2 7971   4.593   3.743  14.532 -1.0433 -0.5139  2.1545
  533TMC3    C7 7972   4.453   3.652  14.705 -0.7590 -0.0385 -0.1766
  533TMC3    C8 7973   0.028   3.646  14.366  0.7490  0.6126  0.1816
  533TMC3    O1 7974   4.350   3.614  14.763 -0.4366  0.3371  0.0492
  533TMC3    O2 7975   0.143   3.605  14.366 -0.1200 -0.1403  0.3348
  534MPD2     C 7976   2.355   4.481   0.941 -0.4696 -0.0933  1.4798
  534MPD2    C1 7977   2.364   4.610   0.902  0.6414  0.6008 -0.5697
  534MPD2    C2 7978   2.244   4.679   0.892  0.3505  0.3904  0.4556
  534MPD2    C3 7979   2.122   4.609   0.897  0.0517  0.8662 -0.3768
  534MPD2    C4 7980   2.122   4.475   0.933  0.3157  0.5497  0.4457
  534MPD2    C5 7981   2.239   4.414   0.961 -0.3431  0.4114  0.4568
  534MPD2     H 7982   2.248   0.048   0.871  2.6599  0.2917  0.4138
  534MPD2    H1 7983   2.027   4.428   0.957 -0.7167  2.6075  0.3591
  534MPD2    H2 7984   2.443   4.423   0.964 -0.0265  0.6762  1.7216
  534MPD2    H3 7985   2.245   4.314   1.002 -4.1693  0.1763  0.3878
  534MPD2     N 7986   1.997   4.667   0.887  0.0726 -0.0387 -0.8675
  534MPD2    H5 7987   1.914   4.615   0.915 -0.3154 -0.7270 -3.2920
  534MPD2    N1 7988   2.486   4.684   0.898 -0.3159 -0.2210  0.4810
  534MPD2    H7 7989   2.483   0.038   0.856 -1.5068 -0.0920  0.8547
  535TMC3    C1 7990   1.839   0.090   0.878  0.0153 -0.5135 -0.0328
  535TMC3    C2 7991   1.774   0.070   0.999 -0.0049  0.4177 -0.1743
  535TMC3    C3 7992   1.646   0.119   1.016 -0.0935 -0.4740  0.5200
  535TMC3    C4 7993   1.784   0.163   0.778  0.2603  0.8034 -0.9463
  535TMC3    C5 7994   1.664   0.216   0.797 -0.1319  0.1973  0.4512
  535TMC3    C6 7995   1.592   0.191   0.912  0.3941 -0.6793  0.6610
  535TMC3     C 7996   1.977   0.058   0.851 -0.4600  0.2046 -0.2666
  535TMC3     O 7997   2.045   0.132   0.774 -0.7241 -0.5933 -0.4594
  535TMC3     H 7998   1.827   0.020   1.079  1.0086 -0.4959 -1.4145
  535TMC3    H1 7999   1.830   0.163   0.680  1.4530  1.8164 -0.3915
  535TMC3    H2 8000   1.498   0.241   0.933  1.1921 -0.0906  2.8253
  535TMC3    C7 8001   1.592   0.242   0.677 -0.7765 -0.1589  0.1634
  535TMC3    C8 8002   1.564   0.062   1.112 -0.0358 -0.1781  0.1116
  535TMC3    O1 8003   1.654   0.227   0.570 -0.3206 -0.0343  0.6473
  535TMC3    O2 8004   1.441   0.068   1.088  0.1877  0.5813  0.5355
  536MPD2     C 8005   0.942   2.916  16.365  0.0312 -0.2061 -0.7358
  536MPD2    C1 8006   0.822   2.854  16.353 -0.4653  0.1418  1.2546
  536MPD2    C2 8007   0.747   2.862  16.238 -0.5345  0.5765  0.3510
  536MPD2    C3 8008   0.786   2.957  16.145  0.1408  0.0949  0.4067
  536MPD2    C4 8009   0.907   3.019  16.155  0.5362 -0.4608 -0.1644
  536MPD2    C5 8010   0.988   3.003  16.261  0.5057 -0.2599 -0.0964
  536MPD2     H 8011   0.655   2.807  16.221 -0.7539  1.2524 -0.6813
  536MPD2    H1 8012   0.943   3.086  16.078 -1.5053  2.1718  1.1947
  536MPD2    H2 8013   1.006   2.886  16.447  0.5100  1.0238 -0.6626
  536MPD2    H3 8014   1.076   3.062  16.284  1.4502 -1.7191  0.0281
  536MPD2     N 8015   0.701   3.002  16.040 -0.7345  0.4682  0.1075
  536MPD2    H5 8016   0.743   3.067  15.974 -1.7099  3.3253  2.3093
  536MPD2    N1 8017   0.783   2.764  16.455 -0.2643  0.4057 -0.1439
  536MPD2    H7 8018   0.842   2.758  16.538  0.7736  3.0709 -0.6983
  537TMC3    C1 8019   0.650   2.622  16.597  0.7576 -0.4884 -0.4989
  537TMC3    C2 8020   0.747   2.641  16.692  0.1379  0.0975 -0.1317
  537TMC3    C3 8021   0.705   2.622  16.822  0.1348  0.6853 -0.1464
  537TMC3    C4 8022   0.518   2.577  16.636  0.0073  0.2024  0.1783
  537TMC3    C5 8023   0.484   2.564  16.768  0.7974  0.6260 -0.9412
  537TMC3    C6 8024   0.580   2.587  16.859 -0.5368  0.7801 -0.3623
  537TMC3     C 8025   0.670   2.681  16.467  0.1713  0.1826 -0.7535
  537TMC3     O 8026   0.571   2.678  16.395  0.8452  0.1351 -0.0239
  537TMC3     H 8027   0.850   2.652  16.659  0.3500 -0.5674  0.3033
  537TMC3    H1 8028   0.446   2.557  16.557  0.5251  2.2200 -0.7978
  537TMC3    H2 8029   0.554   2.579  16.964 -1.3022 -3.1826 -0.8304
  537TMC3    C7 8030   0.357   2.501  16.800  0.3055 -0.2854 -0.7685
  537TMC3    C8 8031   0.787   2.668  16.927 -0.1264 -0.1449 -0.2836
  537TMC3    O1 8032   0.260   2.545  16.735 -0.3682  0.1197 -0.5282
  537TMC3    O2 8033   0.737   2.729  17.020 -0.3922  0.3096 -0.4810
  538TMC3    C1 8034   2.207   1.066  11.085  0.0371 -0.2547 -0.0535
  538TMC3    C2 8035   2.324   1.016  11.035 -0.2393  0.1194 -0.2486
  538TMC3    C3 8036   2.391   1.096  10.940  0.0782  0.9288  0.5009
  538TMC3    C4 8037   2.140   1.176  11.038  0.3606 -0.0938 -0.5481
  538TMC3    C5 8038   2.205   1.239  10.930 -0.3012  0.1148 -0.1023
  538TMC3    C6 8039   2.324   1.200  10.885 -0.5607  0.1614 -0.0005
  538TMC3     C 8040   2.149   1.002  11.204  0.0010 -0.3949  0.6762
  538TMC3     O 8041   2.027   0.980  11.191  0.1031  0.1180  0.4236
  538TMC3     H 8042   2.370   0.923  11.067 -0.6395  0.8439  2.4537
  538TMC3    H1 8043   2.055   1.208  11.098  1.3763 -0.1480  0.9331
  538TMC3    H2 8044   2.365   1.249  10.798  0.1535  1.3362  0.9977
  538TMC3    C7 8045   2.132   1.341  10.868 -0.1438  0.3342  0.5220
  538TMC3    C8 8046   2.505   1.049  10.867  0.3436  0.3610 -0.9271
  538TMC3    O1 8047   2.015   1.353  10.898 -0.3073  0.2724  0.3758
  538TMC3    O2 8048   2.524   0.928  10.857  0.8122  0.3408  0.5333
  539MPD2     C 8049   1.735   0.412  11.728  0.0575 -0.3586 -0.0715
  539MPD2    C1 8050   1.726   0.424  11.588  0.1592  0.0999 -0.5062
  539MPD2    C2 8051   1.736   0.555  11.542 -0.1338  0.1214  0.0777
  539MPD2    C3 8052   1.743   0.668  11.621 -0.3909 -0.4916  0.2689
  539MPD2    C4 8053   1.751   0.649  11.758  0.1157  0.4398  0.1019
  539MPD2    C5 8054   1.754   0.518  11.810 -0.2498 -0.1201  1.1300
  539MPD2     H 8055   1.710   0.561  11.437  0.6410  0.2515 -0.1126
  539MPD2    H1 8056   1.774   0.732  11.823  1.2085  1.2177 -1.2753
  539MPD2    H2 8057   1.719   0.318  11.779 -0.6887  0.2449  0.8115
  539MPD2    H3 8058   1.776   0.506  11.915 -0.8286 -2.6479  0.9675
  539MPD2     N 8059   1.739   0.805  11.579 -0.6297 -0.0187  0.1579
  539MPD2    H5 8060   1.719   0.872  11.653  0.1107  0.6813 -0.2667
  539MPD2    N1 8061   1.715   0.317  11.502  0.3692  0.1566  0.2934
  539MPD2    H7 8062   1.727   0.330  11.402 -1.8141 -3.4792 -0.4245
  540TMC3    C1 8063   1.751   0.994  11.442 -0.4987  0.7665 -0.3744
  540TMC3    C2 8064   1.761   1.047  11.314  0.4519 -0.5685  0.1860
  540TMC3    C3 8065   1.722   1.175  11.292  0.6661  0.1936 -0.1089
  540TMC3    C4 8066   1.683   1.071  11.532 -0.0435  0.2632 -0.0092
  540TMC3    C5 8067   1.636   1.194  11.508  0.1682 -0.4278 -0.4520
  540TMC3    C6 8068   1.656   1.252  11.386  0.4444 -0.3083 -0.8826
  540TMC3     C 8069   1.757   0.850  11.448  0.2469  0.5568  0.0316
  540TMC3     O 8070   1.772   0.779  11.349  0.4370  0.0933  0.4638
  540TMC3     H 8071   1.810   0.992  11.235 -1.5535  1.1256 -2.2414
  540TMC3    H1 8072   1.638   1.028  11.621  0.1308 -3.7380 -1.8807
  540TMC3    H2 8073   1.598   1.332  11.341 -0.2762 -0.7016 -0.6601
  540TMC3    C7 8074   1.543   1.253  11.599 -0.3496 -0.6129 -0.3203
  540TMC3    C8 8075   1.703   1.219  11.154  0.2668  0.4826  0.0757
  540TMC3    O1 8076   1.488   1.185  11.688  0.5456  0.2113 -0.8375
  540TMC3    O2 8077   1.715   1.343  11.143  0.1423 -0.8075 -0.1933
  541MPD2     C 8078   0.087   1.782  13.012  0.2634 -0.2297 -0.5904
  541MPD2    C1 8079   0.210   1.721  13.019 -0.4337 -0.2309  0.2892
  541MPD2    C2 8080   0.330   1.787  12.988 -0.3626  0.2314 -0.2283
  541MPD2    C3 8081   0.323   1.917  12.935 -0.7530  0.7302  0.9732
  541MPD2    C4 8082   0.196   1.970  12.914 -0.1328 -0.3454 -0.2047
  541MPD2    C5 8083   0.082   1.904  12.959  0.1532  0.3916  0.2280
  541MPD2     H 8084   0.422   1.730  12.983  0.4474  1.5983 -0.8922
  541MPD2    H1 8085   0.193   2.068  12.868  1.9864  0.6352  1.8064
  541MPD2    H2 8086   4.733   1.724  13.018 -0.8095  1.6585  1.1071
  541MPD2    H3 8087   4.718   1.941  12.945 -0.2573 -0.9518 -0.3771
  541MPD2     N 8088   0.428   1.993  12.899 -0.0718  0.4320 -0.6397
  541MPD2    H5 8089   0.406   2.084  12.859  0.1126  0.3277 -0.9788
  541MPD2    N1 8090   0.217   1.588  13.079 -0.4284 -0.1336 -0.1282
  541MPD2    H7 8091   0.313   1.555  13.085 -0.9060 -1.3077  1.1506
  542TMC3    C1 8092   0.641   2.040  12.823  0.9406  0.6426  0.1328
  542TMC3    C2 8093   0.697   1.986  12.707 -0.5293 -0.4562  0.2835
  542TMC3    C3 8094   0.754   2.069  12.610  0.8487 -0.3423  0.2041
  542TMC3    C4 8095   0.624   2.173  12.839 -0.2342 -0.1398 -0.6701
  542TMC3    C5 8096   0.666   2.251  12.735 -0.0511 -0.7865 -0.0218
  542TMC3    C6 8097   0.721   2.205  12.626 -0.1677 -0.5490 -0.0998
  542TMC3     C 8098   0.562   1.944  12.889  0.6191  0.2525 -0.0222
  542TMC3     O 8099   0.617   1.842  12.919 -0.9328  0.3260  0.0564
  542TMC3     H 8100   0.696   1.878  12.698  1.3243 -0.6668  2.8554
  542TMC3    H1 8101   0.580   2.222  12.926  0.7678 -0.5180  0.0378
  542TMC3    H2 8102   0.730   2.274  12.543  0.5444  0.1426  0.5549
  542TMC3    C7 8103   0.608   2.382  12.728 -0.1964 -0.3562  0.0498
  542TMC3    C8 8104   0.808   2.029  12.483  1.4768  0.5138 -0.1491
  542TMC3    O1 8105   0.606   2.444  12.832  0.1381 -0.4660 -0.0115
  542TMC3    O2 8106   0.805   2.107  12.389 -0.0131 -0.1699 -0.1355
  543TMC3    C1 8107   3.914   3.601  17.209 -0.2472  0.0289  0.6456
  543TMC3    C2 8108   3.928   3.485  17.278  0.2469  0.3498 -0.8376
  543TMC3    C3 8109   3.894   3.477  17.408  0.1087  0.1320  0.1028
  543TMC3    C4 8110   3.844   3.708  17.259  0.4846 -0.1228  0.3083
  543TMC3    C5 8111   3.782   3.694  17.380  0.1042  0.6210 -0.4972
  543TMC3    C6 8112   3.820   3.584  17.452 -0.1644 -0.2198 -0.4342
  543TMC3     C 8113   3.975   3.607  17.073 -0.1383 -0.2470 -0.4947
  543TMC3     O 8114   4.023   3.500  17.029  0.4453  0.2785 -0.3396
  543TMC3     H 8115   3.983   3.402  17.234  0.0690  0.4861 -1.3165
  543TMC3    H1 8116   3.843   3.803  17.206  1.2946 -0.6435 -0.6475
  543TMC3    H2 8117   3.801   3.593  17.558 -1.4279  1.8223 -0.8423
  543TMC3    C7 8118   3.697   3.799  17.437  0.5444 -0.0921 -0.4951
  543TMC3    C8 8119   3.956   3.379  17.492  1.4776 -0.1958 -0.0066
  543TMC3    O1 8120   3.629   3.761  17.528  0.2264 -0.0561  0.2269
  543TMC3    O2 8121   4.050   3.321  17.445 -0.3653 -0.0577  0.0209
  544MPD2     C 8122   3.977   3.078   0.167  0.5830  0.1143  0.3160
  544MPD2    C1 8123   4.042   3.074   0.047 -0.2621 -0.5116 -0.4079
  544MPD2    C2 8124   4.013   3.165  17.700  0.2171 -0.1416  0.5796
  544MPD2    C3 8125   3.940   3.278  17.718 -0.2255  0.1626 -0.4120
  544MPD2    C4 8126   3.886   3.291   0.098 -0.4880 -0.2638 -0.1408
  544MPD2    C5 8127   3.899   3.190   0.193  0.3009  0.0669 -0.2763
  544MPD2     H 8128   4.056   3.140  17.604  1.0953  0.4375  0.8154
  544MPD2    H1 8129   3.823   3.376   0.121 -1.0148  0.4830 -4.4343
  544MPD2    H2 8130   3.986   3.003   0.245  1.1074 -0.1742 -0.0241
  544MPD2    H3 8131   3.834   3.192   0.280 -1.2633  0.6798 -1.4555
  544MPD2     N 8132   3.901   3.374  17.617  0.0639  0.7391  0.1983
  544MPD2    H5 8133   3.859   3.462  17.645  0.5758  1.3349 -0.9096
  544MPD2    N1 8134   4.132   2.957   0.025  0.0754 -0.0328  0.6081
  544MPD2    H7 8135   4.153   2.904   0.109 -1.8658  1.4373  2.0461
  545TMC3    C1 8136   4.346   2.888  17.707  0.1328 -0.1375 -0.2806
  545TMC3    C2 8137   4.384   2.868   0.092 -0.0744  0.4525 -0.1644
  545TMC3    C3 8138   4.495   2.789   0.109 -0.0065  0.0774 -0.5520
  545TMC3    C4 8139   4.412   2.834  17.601  0.8192  0.6570 -0.3850
  545TMC3    C5 8140   4.503   2.741  17.637 -0.1264 -0.5822 -0.3836
  545TMC3    C6 8141   4.567   2.731   0.012 -0.3660  0.1218 -0.6986
  545TMC3     C 8142   4.218   2.943  17.662 -0.2159  0.6028 -0.6502
  545TMC3     O 8143   4.201   2.975  17.544  0.0971 -0.0264  0.1520
  545TMC3     H 8144   4.333   2.900   0.182  0.0172  1.0525 -0.3283
  545TMC3    H1 8145   4.372   2.840  17.500  0.9977 -0.6204 -0.5393
  545TMC3    H2 8146   4.660   2.681   0.034 -1.0837  0.0058  2.0249
  545TMC3    C7 8147   4.523   2.637  17.540 -0.4171  0.9761  0.0893
  545TMC3    C8 8148   4.543   2.786   0.239 -0.1924 -0.1518  0.4447
  545TMC3    O1 8149   4.486   2.661  17.426  0.2146  0.3690 -0.3410
  545TMC3    O2 8150   4.623   2.699   0.263  0.0045 -0.5263 -0.1064
  546MPD2     C 8151   0.421   3.253  16.582  0.3923  0.6688 -0.3591
  546MPD2    C1 8152   0.513   3.215  16.676 -0.1291 -0.5695 -0.3042
  546MPD2    C2 8153   0.620   3.299  16.707 -0.1708  0.8062 -0.4693
  546MPD2    C3 8154   0.640   3.418  16.638  0.4085  0.6520  0.1034
  546MPD2    C4 8155   0.545   3.455  16.542 -0.3488  0.8154  0.9493
  546MPD2    C5 8156   0.438   3.378  16.522 -0.6042  0.0531 -0.4903
  546MPD2     H 8157   0.698   3.278  16.779 -0.3937 -1.1446 -0.8091
  546MPD2    H1 8158   0.552   3.546  16.483 -2.6167 -0.4518 -1.3337
  546MPD2    H2 8159   0.322   3.209  16.577  2.0160 -2.8557 -1.0397
  546MPD2    H3 8160   0.358   3.406  16.455 -0.0144 -0.2880 -1.3421
  546MPD2     N 8161   0.744   3.512  16.665 -0.0114  0.1288 -0.6073
  546MPD2    H5 8162   0.735   3.602  16.619 -0.0325 -0.3281 -1.5004
  546MPD2    N1 8163   0.480   3.101  16.761  0.6739  0.2828  0.3016
  546MPD2    H7 8164   0.398   3.046  16.737  1.5195 -1.0610  0.4640
  547TMC3    C1 8165   0.485   2.918  16.906 -0.5400  0.0373 -0.0024
  547TMC3    C2 8166   0.357   2.887  16.851 -0.0671 -0.0292 -0.0217
  547TMC3    C3 8167   0.258   2.881  16.938  0.4871 -0.0078  0.4826
  547TMC3    C4 8168   0.509   2.917  17.036  0.0482 -0.6908  0.2646
  547TMC3    C5 8169   0.408   2.880  17.120  0.3614  0.2182 -0.3540
  547TMC3    C6 8170   0.279   2.870  17.072 -0.4688  0.3238 -0.3935
  547TMC3     C 8171   0.560   3.032  16.850 -0.4423 -0.7154  0.4680
  547TMC3     O 8172   0.668   3.059  16.896  0.7334  0.7412 -0.2165
  547TMC3     H 8173   0.336   2.895  16.745 -0.1104 -0.9123 -0.0816
  547TMC3    H1 8174   0.608   2.947  17.070  0.7118 -2.7244  0.1033
  547TMC3    H2 8175   0.195   2.842  17.134  2.6602  1.5597  4.4165
  547TMC3    C7 8176   0.435   2.871  17.265 -0.4425  0.4077 -0.9789
  547TMC3    C8 8177   0.129   2.913  16.881  0.2483  0.4087  0.4849
  547TMC3    O1 8178   0.348   2.899  17.344 -0.2473 -0.3326  0.0091
  547TMC3    O2 8179   0.121   2.932  16.762 -0.3640 -0.1496 -0.1060
  548MPD2     C 8180   0.844   3.866  12.706  0.7754 -0.4931 -0.2000
  548MPD2    C1 8181   0.820   3.727  12.705  0.0578 -0.2234 -0.2116
  548MPD2    C2 8182   0.875   3.649  12.602 -0.5381 -0.1251 -0.1700
  548MPD2    C3 8183   0.961   3.706  12.515  0.2763  0.0622 -0.4587
  548MPD2    C4 8184   0.998   3.836  12.534  0.2210  0.0590 -0.4693
  548MPD2    C5 8185   0.935   3.918  12.627 -0.3206  0.7603  0.6062
  548MPD2     H 8186   0.856   3.543  12.613  3.0927 -0.5737  1.8126
  548MPD2    H1 8187   1.069   3.889  12.472 -0.3845  1.0452 -0.3249
  548MPD2    H2 8188   0.791   3.932  12.773 -1.1606 -0.9148 -1.3194
  548MPD2    H3 8189   0.964   4.021  12.643  2.1107  0.0195  0.9638
  548MPD2     N 8190   1.015   3.629  12.403  0.1679  0.7447  0.2969
  548MPD2    H5 8191   0.988   3.531  12.409  0.8222  0.3448 -3.7699
  548MPD2    N1 8192   0.727   3.682  12.808  0.2650  0.1677  0.3752
  548MPD2    H7 8193   0.704   3.758  12.871  0.5791  0.6446 -0.0860
  549TMC3    C1 8194   0.575   3.531  12.929 -0.8672  0.3880 -0.2048
  549TMC3    C2 8195   0.480   3.631  12.897  0.1785 -1.0525 -0.1751
  549TMC3    C3 8196   0.350   3.595  12.877 -0.0589  0.3269 -0.2507
  549TMC3    C4 8197   0.545   3.396  12.938 -0.1248 -0.9359  0.0320
  549TMC3    C5 8198   0.417   3.367  12.898  0.2243 -0.2609 -0.6769
  549TMC3    C6 8199   0.319   3.457  12.869  0.5331  0.6839 -0.1224
  549TMC3     C 8200   0.693   3.550  12.847 -0.1579 -0.1198 -0.6940
  549TMC3     O 8201   0.736   3.449  12.789  0.2930 -0.2506 -0.2329
  549TMC3     H 8202   0.494   3.736  12.921  1.7050 -1.4489  0.6758
  549TMC3    H1 8203   0.621   3.324  12.961  0.0573  0.0949  2.6554
  549TMC3    H2 8204   0.217   3.432  12.841  0.7323 -0.5439  0.2339
  549TMC3    C7 8205   0.365   3.229  12.916  0.0709  0.2922 -0.6255
  549TMC3    C8 8206   0.283   3.671  12.772 -0.0438 -0.6618  0.9369
  549TMC3    O1 8207   0.253   3.204  12.877  0.9426  0.2372  0.0120
  549TMC3    O2 8208   0.161   3.648  12.755  0.4462 -0.1234  0.0394
  550TMC3    C1 8209   4.416   1.116  12.258 -0.5306 -0.7073 -0.3018
  550TMC3    C2 8210   4.479   1.232  12.303  0.1147 -0.7855  0.6406
  550TMC3    C3 8211   4.455   1.282  12.429 -0.3216  0.1382  0.4008
  550TMC3    C4 8212   4.326   1.053  12.343 -0.1221 -0.0464 -0.1984
  550TMC3    C5 8213   4.298   1.112  12.464 -0.6557  0.3231 -0.3023
  550TMC3    C6 8214   4.357   1.228  12.514  0.1177 -0.1384  0.3623
  550TMC3     C 8215   4.360   1.132  12.123  0.1130  0.1020  0.6631
  550TMC3     O 8216   4.242   1.106  12.126  0.0240 -0.5037  0.1163
  550TMC3     H 8217   4.534   1.284  12.225  1.1738 -0.5829  1.5078
  550TMC3    H1 8218   4.279   0.960  12.313  0.2160 -0.4166  0.4256
  550TMC3    H2 8219   4.330   1.269  12.611  0.0588  2.9783 -0.9775
  550TMC3    C7 8220   4.161   1.122  12.474 -0.0626 -0.0933  0.4126
  550TMC3    C8 8221   4.495   1.409  12.461  0.7457  0.3572 -0.0040
  550TMC3    O1 8222   4.109   1.233  12.492  0.1925  0.0854 -0.5238
  550TMC3    O2 8223   4.416   1.482  12.523  0.6950 -0.4197 -0.7100
  551TMC3    C1 8224   1.638   3.992  13.316 -0.1899 -0.8388  0.1092
  551TMC3    C2 8225   1.758   3.941  13.270  0.8788 -0.2068  0.0001
  551TMC3    C3 8226   1.867   3.924  13.358  0.7675  0.4793  0.9387
  551TMC3    C4 8227   1.628   4.050  13.443 -0.8960  0.4700  0.7645
  551TMC3    C5 8228   1.739   4.029  13.526 -0.8232  0.0469  0.3687
  551TMC3    C6 8229   1.847   3.961  13.488  0.5886 -0.0266  0.4562
  551TMC3     C 8230   1.547   4.023  13.204  0.3034 -0.1854  1.2845
  551TMC3     O 8231   1.560   3.967  13.096  0.1130  0.0317  0.4222
  551TMC3     H 8232   1.780   3.931  13.165 -0.0835  1.2093 -0.3261
  551TMC3    H1 8233   1.537   4.082  13.492  0.1197  2.4818  1.3493
  551TMC3    H2 8234   1.930   3.943  13.556  0.2771 -3.4594 -0.1232
  551TMC3    C7 8235   1.739   4.090  13.658 -0.5419  0.0484  0.5130
  551TMC3    C8 8236   1.992   3.963  13.293 -0.1597 -0.3613 -0.4183
  551TMC3    O1 8237   1.825   4.053  13.738  0.2048 -0.1386  0.2960
  551TMC3    O2 8238   2.018   3.920  13.184 -0.6926 -0.1787  0.2189
  552MPD2     C 8239   3.229   1.865  13.834 -0.0933  0.1100  0.3556
  552MPD2    C1 8240   3.331   1.776  13.787 -0.1637  0.1956  0.4032
  552MPD2    C2 8241   3.451   1.762  13.855 -0.4012  0.0401  0.6784
  552MPD2    C3 8242   3.471   1.831  13.969  0.0705  0.2833  0.9959
  552MPD2    C4 8243   3.384   1.929  14.010  0.1402 -0.2160 -0.1330
  552MPD2    C5 8244   3.260   1.947  13.942  0.2816 -0.4742 -0.7825
  552MPD2     H 8245   3.527   1.696  13.816 -0.6474 -0.4545  1.0413
  552MPD2    H1 8246   3.413   2.012  14.073  0.1842 -0.2087 -0.1638
  552MPD2    H2 8247   3.136   1.883  13.782  2.3521  0.8992 -3.7089
  552MPD2    H3 8248   3.193   2.026  13.973  0.2651 -0.4064 -0.9905
  552MPD2     N 8249   3.587   1.814  14.038  0.1919  0.2163  0.4215
  552MPD2    H5 8250   3.587   1.861  14.128  2.6017 -0.2097  0.6550
  552MPD2    N1 8251   3.288   1.687  13.677 -0.1346 -0.2259 -0.2755
  552MPD2    H7 8252   3.199   1.706  13.632 -0.0758  1.6674  0.4066
  553TMC3    C1 8253   3.305   1.511  13.513  0.2278  0.5938 -0.2313
  553TMC3    C2 8254   3.384   1.495  13.408  0.3621 -0.5204  0.7067
  553TMC3    C3 8255   3.405   1.377  13.350  0.7894  0.8151  0.3539
  553TMC3    C4 8256   3.249   1.400  13.561  0.2683 -0.6645  0.4836
  553TMC3    C5 8257   3.295   1.280  13.521 -0.3052 -0.5015 -0.0232
  553TMC3    C6 8258   3.376   1.265  13.418  0.6982  0.3044 -0.8317
  553TMC3     C 8259   3.366   1.595  13.613 -0.0086 -0.1023 -0.7785
  553TMC3     O 8260   3.487   1.572  13.624  0.4128  0.2788 -0.0943
  553TMC3     H 8261   3.438   1.578  13.363  1.1542 -1.0170  0.7477
  553TMC3    H1 8262   3.202   1.415  13.658  1.9074 -1.9128  1.4731
  553TMC3    H2 8263   3.410   1.164  13.396 -1.5137 -0.1058 -2.4062
  553TMC3    C7 8264   3.294   1.184  13.628 -0.0359 -0.0232 -0.5359
  553TMC3    C8 8265   3.522   1.363  13.268 -0.4846 -0.1724 -0.9576
  553TMC3    O1 8266   3.211   1.194  13.718  0.2320 -0.2361 -0.2071
  553TMC3    O2 8267   3.615   1.443  13.288 -0.2608 -0.1532 -0.1854
  554TMC3    C1 8268   1.289   1.053  11.124  0.1259  0.3119 -0.4780
  554TMC3    C2 8269   1.235   0.972  11.025  1.0884  0.1900 -0.0041
  554TMC3    C3 8270   1.211   1.032  10.900 -0.2538  0.0354 -0.5824
  554TMC3    C4 8271   1.321   1.183  11.094 -0.2428 -0.0777  0.2842
  554TMC3    C5 8272   1.278   1.235  10.978 -0.0925 -0.2149 -0.5651
  554TMC3    C6 8273   1.237   1.159  10.875 -0.0416 -0.6879  0.1153
  554TMC3     C 8274   1.308   1.004  11.260  0.4321 -0.8616 -0.0139
  554TMC3     O 8275   1.369   1.082  11.333  0.2801  0.1659  0.2688
  554TMC3     H 8276   1.197   0.871  11.032  0.6602  0.3622  0.1785
  554TMC3    H1 8277   1.356   1.254  11.167  0.5271 -0.5651  0.3826
  554TMC3    H2 8278   1.231   1.208  10.778 -0.9182 -0.7041  0.1608
  554TMC3    C7 8279   1.286   1.379  10.960  0.1872  0.4161  0.1160
  554TMC3    C8 8280   1.127   0.970  10.801  0.5554  0.4568  0.3271
  554TMC3    O1 8281   1.374   1.448  11.012  0.7587 -0.0600 -0.0994
  554TMC3    O2 8282   1.099   1.034  10.702 -0.4782  0.1406 -0.4695
  555TMC3    C1 8283   4.075   0.553  15.017 -0.8767  0.0033 -0.2652
  555TMC3    C2 8284   4.149   0.671  15.015 -0.9531  0.1008  0.2505
  555TMC3    C3 8285   4.232   0.691  15.120 -0.3185 -0.1942 -0.5227
  555TMC3    C4 8286   4.111   0.446  15.096 -0.2375 -0.4159 -0.6714
  555TMC3    C5 8287   4.212   0.470  15.183  0.0065 -0.8854  0.0338
  555TMC3    C6 8288   4.272   0.591  15.207  0.1467  0.0301  0.0906
  555TMC3     C 8289   3.990   0.514  14.907  0.2945  0.1351 -0.0948
  555TMC3     O 8290   3.962   0.397  14.905  0.4056 -0.8339 -0.0652
  555TMC3     H 8291   4.143   0.751  14.941 -1.3602  0.1562  0.3414
  555TMC3    H1 8292   4.043   0.363  15.113 -3.3879  2.1472 -0.8040
  555TMC3    H2 8293   4.357   0.594  15.274 -0.4342 -1.1754  0.8792
  555TMC3    C7 8294   4.276   0.341  15.219  0.0468 -0.3663 -0.0753
  555TMC3    C8 8295   4.290   0.822  15.136  0.3027 -0.3160  0.1979
  555TMC3    O1 8296   4.207   0.241  15.230  0.5090 -0.0771 -0.2647
  555TMC3    O2 8297   4.293   0.892  15.036  0.0277  0.0356  0.2457
  556MPD2     C 8298   2.923   2.362  10.557  0.0150 -0.1703 -0.4757
  556MPD2    C1 8299   2.869   2.270  10.646 -0.3189  0.4198 -0.0331
  556MPD2    C2 8300   2.846   2.142  10.592 -0.1159 -0.2647  0.1978
  556MPD2    C3 8301   2.882   2.113  10.461  0.1617 -0.3599  0.4035
  556MPD2    C4 8302   2.952   2.206  10.380 -0.7225  0.4663  0.2505
  556MPD2    C5 8303   2.962   2.334  10.433 -0.2770 -0.0057  0.3313
  556MPD2     H 8304   2.795   2.070  10.654  1.9361 -1.0663  0.9432
  556MPD2    H1 8305   2.977   2.196  10.275 -0.1030 -0.0488  0.4500
  556MPD2    H2 8306   2.922   2.469  10.575  4.7661  0.0873 -1.6370
  556MPD2    H3 8307   3.016   2.412  10.379 -0.4369 -1.2390 -1.6032
  556MPD2     N 8308   2.858   1.984  10.411 -0.4317  0.2762 -0.1888
  556MPD2    H5 8309   2.812   1.918  10.472 -0.9868  0.1327 -0.7555
  556MPD2    N1 8310   2.841   2.294  10.777  0.6424  0.0691 -0.4910
  556MPD2    H7 8311   2.833   2.206  10.827 -1.8830 -0.4067 -1.7616
  557TMC3    C1 8312   2.869   1.799  10.279  0.4900  0.5640 -0.1097
  557TMC3    C2 8313   2.856   1.746  10.150 -0.5167  0.1208  0.1735
  557TMC3    C3 8314   2.856   1.612  10.128 -0.3084  0.5175  0.7274
  557TMC3    C4 8315   2.849   1.714  10.385  0.2529  0.3758  0.5218
  557TMC3    C5 8316   2.844   1.579  10.364 -0.9453 -0.1652 -0.1796
  557TMC3    C6 8317   2.849   1.523  10.235 -0.1272 -0.8700  1.0865
  557TMC3     C 8318   2.886   1.939  10.283  0.4369  0.0324 -0.0530
  557TMC3     O 8319   2.923   1.996  10.179 -0.5841  0.1888  0.2448
  557TMC3     H 8320   2.866   1.819  10.070  4.4713 -0.9950 -0.2447
  557TMC3    H1 8321   2.856   1.744  10.489 -2.5254  1.2856  0.4283
  557TMC3    H2 8322   2.819   1.421  10.215  0.7085 -0.6872 -1.0232
  557TMC3    C7 8323   2.808   1.497  10.478 -0.5711  0.6079  0.2052
  557TMC3    C8 8324   2.898   1.560   9.993  0.0877  0.3006  0.4328
  557TMC3    O1 8325   2.751   1.548  10.574 -0.2491  0.0792 -0.0378
  557TMC3    O2 8326   2.942   1.639   9.908  0.2648  0.1026 -0.0231
  558TMC3    C1 8327   0.082   4.593  10.348 -0.5814  0.1838 -0.0106
  558TMC3    C2 8328   4.723   4.510  10.401 -0.0929 -0.4095  0.3283
  558TMC3    C3 8329   4.612   4.498  10.321  0.1884 -0.2457 -0.3599
  558TMC3    C4 8330   0.079   4.638  10.220 -0.2952  0.2739 -0.1145
  558TMC3    C5 8331   4.708   4.606  10.145  0.2816  0.4289  0.1799
  558TMC3    C6 8332   4.607   4.530  10.192  0.5403  0.0172  0.1330
  558TMC3     C 8333   0.219   4.589  10.404 -0.7434 -0.2933 -0.1803
  558TMC3     O 8334   0.318   4.631  10.349  0.5059 -0.0379 -0.1619
  558TMC3     H 8335   4.734   4.465  10.499  1.3642 -0.5684  0.0842
  558TMC3    H1 8336   0.164   4.697  10.188 -0.0081 -0.8025 -1.3280
  558TMC3    H2 8337   4.528   4.488  10.130  1.3672 -0.7285 -0.4076
  558TMC3    C7 8338   4.695   4.677  10.020 -0.1308 -0.3298  0.0936
  558TMC3    C8 8339   4.495   4.439  10.375  0.2453 -0.6804 -0.1046
  558TMC3    O1 8340   0.062   4.721   9.977 -0.1709  0.1375  0.4113
  558TMC3    O2 8341   4.406   4.410  10.300  0.2604 -0.5971 -0.6610
  559MPD2     C 8342   0.389   0.302  10.425 -0.0036 -0.1202 -0.2691
  559MPD2    C1 8343   0.315   0.231  10.517  0.4272 -0.5086 -0.0181
  559MPD2    C2 8344   0.377   0.175  10.623 -0.1693 -0.6055 -0.1200
  559MPD2    C3 8345   0.513   0.197  10.645  0.1692  0.5021  1.8578
  559MPD2    C4 8346   0.588   0.257  10.541  0.3501  0.7712  0.2120
  559MPD2    C5 8347   0.522   0.301  10.431  0.1504  0.0134 -0.5342
  559MPD2     H 8348   0.317   0.123  10.697 -0.5382 -0.5929 -0.4132
  559MPD2    H1 8349   0.696   0.261  10.534  0.4009 -1.5967 -0.3504
  559MPD2    H2 8350   0.337   0.347  10.341 -0.4233  1.1085  0.6403
  559MPD2    H3 8351   0.574   0.341  10.345 -2.0143 -0.0986 -1.8967
  559MPD2     N 8352   0.563   0.143  10.764  0.2316 -0.0473  0.3701
  559MPD2    H5 8353   0.510   0.091  10.833  0.6247  0.5948  1.1691
  559MPD2    N1 8354   0.174   0.239  10.502 -0.5595  0.2001  0.3642
  559MPD2    H7 8355   0.142   0.307  10.434 -0.8348 -2.8366 -2.5721
  560TMC3    C1 8356   0.723   0.097  10.934 -1.1146  0.3380 -0.4138
  560TMC3    C2 8357   0.633   0.023  11.006 -0.6457 -0.6790  0.4209
  560TMC3    C3 8358   0.676   4.690  11.118  0.5063  0.3049 -0.1752
  560TMC3    C4 8359   0.862   0.104  10.976 -0.2135 -0.0862 -0.2800
  560TMC3    C5 8360   0.899   0.030  11.088 -0.0974  0.1121 -0.2946
  560TMC3    C6 8361   0.803   4.697  11.163  0.2432 -1.0544  0.3973
  560TMC3     C 8362   0.680   0.174  10.818  0.3240  0.6012 -0.1908
  560TMC3     O 8363   0.761   0.263  10.786 -0.1124 -0.1648  0.3110
  560TMC3     H 8364   0.527   0.014  10.980 -0.3693 -1.7629 -0.3549
  560TMC3    H1 8365   0.937   0.148  10.911  1.4670 -0.7574  1.2022
  560TMC3    H2 8366   0.834   4.646  11.254 -1.9446  0.4500  1.9616
  560TMC3    C7 8367   1.022   0.059  11.164  0.4850  0.1722 -0.2540
  560TMC3    C8 8368   0.583   4.595  11.174 -0.3334  0.7904 -0.9158
  560TMC3    O1 8369   1.047   4.717  11.251  0.1732  0.0783  1.5252
  560TMC3    O2 8370   0.471   4.608  11.137 -0.2928  0.1681  0.5508
  561TMC3    C1 8371   3.216   3.901  11.239 -0.7430 -0.5230  0.4257
  561TMC3    C2 8372   3.103   3.831  11.283 -0.2066 -0.1006 -1.2804
  561TMC3    C3 8373   3.014   3.900  11.368  0.5350 -0.4880 -0.2948
  561TMC3    C4 8374   3.244   4.031  11.287  0.6658  1.1781  0.0708
  561TMC3    C5 8375   3.149   4.088  11.368 -0.1777 -0.1314 -0.3477
  561TMC3    C6 8376   3.036   4.027  11.413 -0.4846  0.1304  0.5188
  561TMC3     C 8377   3.327   3.825  11.170 -0.6723  0.7001  0.9353
  561TMC3     O 8378   3.314   3.705  11.156  0.1085  0.4586 -1.1158
  561TMC3     H 8379   3.087   3.729  11.249  0.2776 -1.5261  2.7039
  561TMC3    H1 8380   3.341   4.077  11.279  1.0852  0.0990 -1.0173
  561TMC3    H2 8381   2.961   4.064  11.482  0.3027  1.1272  0.8412
  561TMC3    C7 8382   3.171   4.210  11.439  0.3832  0.0307 -0.4199
  561TMC3    C8 8383   2.888   3.829  11.401  0.4634 -0.0453 -0.2234
  561TMC3    O1 8384   3.113   4.208  11.546 -0.5241 -0.4046 -0.2979
  561TMC3    O2 8385   2.884   3.717  11.353 -0.0950  0.3138  0.1902
  562TMC3    C1 8386   3.905   0.764  16.092 -0.6879 -0.0138  0.5403
  562TMC3    C2 8387   3.870   0.887  16.053 -0.4928  0.9606 -0.6443
  562TMC3    C3 8388   3.892   0.919  15.920  0.2085  0.2287  0.1209
  562TMC3    C4 8389   3.984   0.676  16.017 -0.0275 -0.6361 -0.3561
  562TMC3    C5 8390   4.015   0.710  15.887  0.1306 -0.7346 -0.8282
  562TMC3    C6 8391   3.965   0.829  15.844  0.0832  0.0765 -0.1363
  562TMC3     C 8392   3.850   0.702  16.212  0.6801  0.2953 -0.3128
  562TMC3     O 8393   3.877   0.582  16.221 -0.1824 -0.1246 -0.5630
  562TMC3     H 8394   3.798   0.946  16.109 -1.1954 -1.6465  1.2117
  562TMC3    H1 8395   4.014   0.577  16.050 -0.1960 -0.7955 -0.6841
  562TMC3    H2 8396   3.976   0.850  15.738  1.4667  2.1859  0.4207
  562TMC3    C7 8397   4.074   0.616  15.795 -0.1870  0.1873  0.6123
  562TMC3    C8 8398   3.793   1.010  15.873 -0.9905 -0.4445  0.0696
  562TMC3    O1 8399   4.039   0.633  15.680  0.5169  0.4399  0.7413
  562TMC3    O2 8400   3.698   1.043  15.937 -0.4484 -0.8017 -0.1282
  563MPD2     C 8401   1.717   1.943  15.704  0.0109 -0.4287  0.4670
  563MPD2    C1 8402   1.767   1.922  15.826 -0.8501 -0.4313 -0.1414
  563MPD2    C2 8403   1.873   1.836  15.834 -0.1145  0.5506  1.0645
  563MPD2    C3 8404   1.937   1.783  15.722  0.3405 -0.1271 -0.4747
  563MPD2    C4 8405   1.874   1.795  15.607  0.1752 -0.0402  0.6360
  563MPD2    C5 8406   1.770   1.880  15.598 -0.4965 -0.7523  0.1573
  563MPD2     H 8407   1.922   1.820  15.929  1.6938 -1.4781 -0.2212
  563MPD2    H1 8408   1.904   1.760  15.509  2.4141  0.1311  1.2535
  563MPD2    H2 8409   1.638   2.014  15.687 -0.1354 -0.0074  2.8501
  563MPD2    H3 8410   1.719   1.894  15.503  1.5935 -0.7502 -0.9656
  563MPD2     N 8411   2.054   1.705  15.738  0.2652 -0.7704 -0.4794
  563MPD2    H5 8412   2.076   1.675  15.833 -0.9356 -0.5117 -0.1192
  563MPD2    N1 8413   1.706   1.992  15.936  0.4926 -0.4447 -0.4809
  563MPD2    H7 8414   1.618   2.034  15.908  0.0822 -1.8193 -1.2151
  564TMC3    C1 8415   1.642   2.040  16.171  0.5236  0.3121 -0.1151
  564TMC3    C2 8416   1.513   2.003  16.152  0.3726 -0.5389 -0.8877
  564TMC3    C3 8417   1.451   1.957  16.264  0.7472  0.1681 -0.2395
  564TMC3    C4 8418   1.699   2.047  16.296 -0.0190 -0.3796  0.2271
  564TMC3    C5 8419   1.624   2.009  16.405  1.3087  0.0482  0.7432
  564TMC3    C6 8420   1.498   1.967  16.391  0.3656  0.0387 -0.7446
  564TMC3     C 8421   1.733   1.980  16.073 -0.0618 -0.1628 -0.1325
  564TMC3     O 8422   1.832   1.927  16.118  0.0245  0.1350  0.4243
  564TMC3     H 8423   1.481   1.979  16.052  2.2642  0.6359 -1.7784
  564TMC3    H1 8424   1.805   2.065  16.306  0.3461 -1.6345 -1.4197
  564TMC3    H2 8425   1.445   1.938  16.481 -1.3664  2.3739 -1.0140
  564TMC3    C7 8426   1.703   1.929  16.494 -0.5853 -0.5807  0.7766
  564TMC3    C8 8427   1.376   1.835  16.255 -0.1548  0.5398  0.1199
  564TMC3    O1 8428   1.814   1.973  16.522  0.1173  0.7774  0.0670
  564TMC3    O2 8429   1.399   1.753  16.343  0.1506 -0.0203 -0.1304
  565TMC3    C1 8430   2.422   3.472  10.666  0.0930  0.3325 -0.7506
  565TMC3    C2 8431   2.477   3.379  10.747 -0.0324 -0.1931 -0.2418
  565TMC3    C3 8432   2.426   3.249  10.744  0.6368 -0.4239 -0.2553
  565TMC3    C4 8433   2.335   3.439  10.565 -0.0402 -0.3132 -0.2002
  565TMC3    C5 8434   2.298   3.308  10.559  0.2560  0.1641 -0.0292
  565TMC3    C6 8435   2.339   3.208  10.642 -0.2695  0.1825 -0.0584
  565TMC3     C 8436   2.474   3.610  10.676  0.8824 -0.1266  0.2617
  565TMC3     O 8437   2.454   3.688  10.582 -0.0519 -0.1601  0.6055
  565TMC3     H 8438   2.554   3.400  10.820  0.0136 -0.3414 -0.2475
  565TMC3    H1 8439   2.297   3.516  10.498  2.8806 -0.2457 -1.8043
  565TMC3    H2 8440   2.272   3.123  10.654  0.5838 -0.3384  0.9970
  565TMC3    C7 8441   2.178   3.284  10.477  0.2256 -0.3275 -0.3883
  565TMC3    C8 8442   2.464   3.160  10.852 -0.5616  0.0899 -0.4276
  565TMC3    O1 8443   2.115   3.384  10.445 -0.5457 -0.4212  0.7939
  565TMC3    O2 8444   2.463   3.216  10.963 -0.0475 -0.2114  0.6140
  566MPD2     C 8445   3.851   4.562  14.334 -0.0006 -0.6634  0.0038
  566MPD2    C1 8446   3.900   4.478  14.234  0.1465  0.2359  0.1665
  566MPD2    C2 8447   3.813   4.401  14.159  0.6256  0.0519 -0.6850
  566MPD2    C3 8448   3.675   4.397  14.191 -0.4120 -0.7628 -0.0615
  566MPD2    C4 8449   3.631   4.484  14.287 -0.5948  0.1239 -0.3881
  566MPD2    C5 8450   3.717   4.562  14.360 -0.0535 -0.0661  0.1175
  566MPD2     H 8451   3.847   4.331  14.083 -3.4053 -1.8461 -0.7361
  566MPD2    H1 8452   3.525   4.498  14.302 -0.4488  0.5867  0.2536
  566MPD2    H2 8453   3.921   4.615  14.397  1.2609 -1.3274 -0.8454
  566MPD2    H3 8454   3.670   4.619  14.439  0.0400 -0.8124  0.7150
  566MPD2     N 8455   3.594   4.309  14.118 -0.4191 -0.0650  0.1525
  566MPD2    H5 8456   3.650   4.255  14.052  0.6838  1.1338  0.1161
  566MPD2    N1 8457   4.036   4.458  14.217  0.6715 -0.6513 -0.3392
  566MPD2    H7 8458   4.063   4.395  14.142 -0.6168 -0.1375 -1.2325
  567TMC3    C1 8459   4.275   4.508  14.220 -0.0898 -0.5101 -0.8234
  567TMC3    C2 8460   4.271   4.549  14.093 -0.2399 -0.1567 -0.2927
  567TMC3    C3 8461   4.378   4.630  14.052  0.8830  0.2562 -0.2174
  567TMC3    C4 8462   4.380   4.544  14.302  1.1410 -0.6267  0.0916
  567TMC3    C5 8463   4.479   4.632  14.268 -0.5724  0.4969 -0.5182
  567TMC3    C6 8464   4.476   4.669  14.136  0.2922 -0.2251 -0.3733
  567TMC3     C 8465   4.139   4.514  14.285 -0.4936  0.5890  0.2864
  567TMC3     O 8466   4.142   4.588  14.384 -0.6069  1.0604 -0.1410
  567TMC3     H 8467   4.191   4.537  14.021 -0.5881  1.3447 -0.1558
  567TMC3    H1 8468   4.369   4.515  14.406  0.1869 -2.8376 -0.6308
  567TMC3    H2 8469   4.537   0.017  14.109 -0.2684  0.3898  0.3116
  567TMC3    C7 8470   4.478   0.013  14.350 -0.2971  0.6967 -0.4221
  567TMC3    C8 8471   4.365   4.693  13.917 -0.3320 -0.5775  0.4657
  567TMC3    O1 8472   4.582   0.079  14.361  0.3370 -0.6394  0.0205
  567TMC3    O2 8473   4.253   4.709  13.870  0.6502  0.6500 -0.1876
  568MPD2     C 8474   1.137   0.294  16.462  0.3866  0.1392  0.0700
  568MPD2    C1 8475   1.157   0.384  16.568 -0.1986 -0.1071  0.5582
  568MPD2    C2 8476   1.152   0.518  16.545 -0.4623  0.2226  0.1531
  568MPD2    C3 8477   1.127   0.564  16.418 -0.2872 -0.1312 -0.5074
  568MPD2    C4 8478   1.105   0.475  16.313 -0.2131 -0.6844 -0.6049
  568MPD2    C5 8479   1.106   0.343  16.334  0.5672  1.3937  1.0704
  568MPD2     H 8480   1.154   0.592  16.624  0.4427  0.4912 -0.1183
  568MPD2    H1 8481   1.073   0.506  16.214 -0.3056 -0.8478 -0.6260
  568MPD2    H2 8482   1.129   0.191  16.492 -1.5899  0.1189 -0.5264
  568MPD2    H3 8483   1.093   0.275  16.250 -2.0538  2.0824  0.9342
  568MPD2     N 8484   1.146   0.707  16.411 -0.1974 -0.1100 -0.1388
  568MPD2    H5 8485   1.168   0.756  16.497  0.2709  0.3665 -0.5363
  568MPD2    N1 8486   1.154   0.325  16.694 -0.4158  0.3660  0.0824
  568MPD2    H7 8487   1.175   0.225  16.688 -0.1231  0.3638  1.1626
  569TMC3    C1 8488   1.111   0.927  16.323  0.3773 -0.1730 -0.1839
  569TMC3    C2 8489   1.113   0.968  16.454 -0.0712  0.6062  0.1139
  569TMC3    C3 8490   1.120   1.100  16.480  0.4989  0.3388 -0.6827
  569TMC3    C4 8491   1.111   1.015  16.221 -0.5420 -0.4330  0.3202
  569TMC3    C5 8492   1.121   1.147  16.258 -0.5368 -0.1838 -0.6068
  569TMC3    C6 8493   1.142   1.190  16.382  0.4574  0.1519 -0.0703
  569TMC3     C 8494   1.119   0.779  16.294  0.3119  0.5293  0.9945
  569TMC3     O 8495   1.093   0.733  16.182 -0.6290 -0.4265 -0.0560
  569TMC3     H 8496   1.098   0.894  16.531 -1.9050  2.0455  1.1293
  569TMC3    H1 8497   1.119   0.977  16.119  1.6805 -1.2028  0.7743
  569TMC3    H2 8498   1.102   1.289  16.398  0.6743  0.3386 -0.6719
  569TMC3    C7 8499   1.113   1.244  16.151  0.0299 -0.6742 -0.5726
  569TMC3    C8 8500   1.155   1.122  16.618  0.5091 -0.3712 -0.1283
  569TMC3    O1 8501   1.050   1.217  16.049 -0.7253  0.1793  0.9594
  569TMC3    O2 8502   1.121   1.041  16.701 -0.4764 -0.1077 -0.6436
  570TMC3    C1 8503   0.625   4.025  16.146  0.0693  0.6627 -0.3824
  570TMC3    C2 8504   0.750   3.987  16.095  0.6695 -0.6348 -0.2051
  570TMC3    C3 8505   0.823   4.090  16.041  0.6813  0.0964 -0.4246
  570TMC3    C4 8506   0.573   4.151  16.125 -0.1806 -0.6197  0.3603
  570TMC3    C5 8507   0.658   4.247  16.078 -0.3930  0.1196  0.1104
  570TMC3    C6 8508   0.782   4.220  16.034  0.3288  0.7086  0.1651
  570TMC3     C 8509   0.551   3.916  16.209  0.2920 -0.5628 -0.0072
  570TMC3     O 8510   0.593   3.801  16.189  0.2164 -0.3821 -0.4412
  570TMC3     H 8511   0.792   3.889  16.117  1.6576 -0.1448  0.0645
  570TMC3    H1 8512   0.470   4.170  16.153  0.2762 -0.1616  1.7361
  570TMC3    H2 8513   0.858   4.296  16.015  1.6571 -0.1520  2.0193
  570TMC3    C7 8514   0.660   4.369  16.157  0.3729 -0.4487  0.5997
  570TMC3    C8 8515   0.971   4.068  16.033  0.0783  0.8991 -0.4209
  570TMC3    O1 8516   0.606   4.358  16.268  0.0521 -0.0673  0.2728
  570TMC3    O2 8517   1.040   4.166  16.062 -0.0809  0.2306  0.5614
  571MPD2     C 8518   4.137   2.018  17.660  0.7876 -1.2307 -0.4946
  571MPD2    C1 8519   4.043   1.979   0.008 -0.2157  0.3715  0.1303
  571MPD2    C2 8520   4.049   2.026   0.140 -0.4506 -0.3555 -0.2242
  571MPD2    C3 8521   4.147   2.118   0.170 -0.4238  0.1024  0.5639
  571MPD2    C4 8522   4.231   2.160   0.073 -0.6892  0.6347  0.9996
  571MPD2    C5 8523   4.232   2.114  17.693 -0.2076 -0.3943 -0.1944
  571MPD2     H 8524   3.983   1.995   0.220 -0.4685 -2.2286 -0.9691
  571MPD2    H1 8525   4.305   2.233   0.102  0.5874  0.0010 -0.6419
  571MPD2    H2 8526   4.133   1.989  17.556 -1.9099  0.5889 -0.9074
  571MPD2    H3 8527   4.302   2.139  17.614 -2.8246  1.6154 -1.8649
  571MPD2     N 8528   4.144   2.188   0.294 -0.2862 -0.5650  0.0137
  571MPD2    H5 8529   4.211   2.263   0.308  1.2864 -2.1928  1.1333
  571MPD2    N1 8530   3.954   1.880  17.709 -0.1337  0.4820  0.4025
  571MPD2    H7 8531   3.971   1.849  17.614  2.3318  0.5746  0.8144
  572TMC3    C1 8532   4.083   2.266   0.498 -0.0200  0.0058 -0.0124
  572TMC3    C2 8533   4.110   2.238   0.625 -1.0133  0.1719  0.5374
  572TMC3    C3 8534   4.077   2.333   0.717 -0.0929  0.0700 -0.7248
  572TMC3    C4 8535   4.018   2.376   0.453  1.1488  0.4713  0.2546
  572TMC3    C5 8536   3.990   2.473   0.544  1.2333 -0.5566  0.9441
  572TMC3    C6 8537   4.014   2.450   0.679 -0.1732  0.8439 -0.4825
  572TMC3     C 8538   4.080   2.151   0.410 -0.7808  0.6137 -0.0989
  572TMC3     O 8539   4.021   2.048   0.432 -0.4266  0.4826 -0.3455
  572TMC3     H 8540   4.194   2.170   0.626  0.3221  1.8285  0.5920
  572TMC3    H1 8541   3.985   2.397   0.352  0.8869  0.8974  0.4276
  572TMC3    H2 8542   3.998   2.536   0.743 -1.3986  0.8768 -0.8375
  572TMC3    C7 8543   3.924   2.595   0.488 -0.0758 -0.0787 -0.4432
  572TMC3    C8 8544   4.151   2.350   0.843  0.2448  0.2932 -0.4453
  572TMC3    O1 8545   3.900   2.597   0.367  0.1080 -0.2141 -0.1788
  572TMC3    O2 8546   4.165   2.465   0.885 -0.7425  0.1264 -0.3719
  573MPD2     C 8547   4.310   1.802   0.830  0.8364 -0.4030 -0.1989
  573MPD2    C1 8548   4.373   1.907   0.756 -0.0558 -0.3571 -0.0310
  573MPD2    C2 8549   4.371   1.902   0.620  0.7542 -0.0100  0.3621
  573MPD2    C3 8550   4.298   1.802   0.549  0.9873  0.1798 -0.7744
  573MPD2    C4 8551   4.236   1.703   0.623 -0.0698 -0.4146  0.2968
  573MPD2    C5 8552   4.242   1.708   0.762 -0.1172 -0.1498 -0.2749
  573MPD2     H 8553   4.407   1.986   0.562 -0.6114 -0.4178 -1.0756
  573MPD2    H1 8554   4.183   1.619   0.579 -2.1494 -0.0180  1.9790
  573MPD2    H2 8555   4.309   1.788   0.937 -0.0208  0.0177 -0.1517
  573MPD2    H3 8556   4.210   1.617   0.812  0.9755 -1.2014 -1.4811
  573MPD2     N 8557   4.295   1.781   0.407  0.6233  0.1425 -0.0972
  573MPD2    H5 8558   4.237   1.708   0.367  2.5305 -0.4946 -1.6482
  573MPD2    N1 8559   4.447   2.006   0.829 -0.0699  0.6219 -0.1128
  573MPD2    H7 8560   4.458   1.998   0.929 -1.1397  0.3803 -0.0132
  574TMC3    C1 8561   4.389   1.815   0.189  0.0029 -0.1605 -0.0366
  574TMC3    C2 8562   4.455   1.893   0.091 -0.2087 -0.2662 -0.6368
  574TMC3    C3 8563   4.515   1.839  17.731 -0.4948  0.2232 -0.0042
  574TMC3    C4 8564   4.390   1.682   0.171  0.0103 -0.4057 -0.0998
  574TMC3    C5 8565   4.455   1.626   0.060  0.2912  0.4833 -0.2790
  574TMC3    C6 8566   4.507   1.704  17.708  0.0969 -0.7400  0.9251
  574TMC3     C 8567   4.361   1.866   0.318  0.1045  0.1268  0.0605
  574TMC3     O 8568   4.429   1.963   0.348 -0.5262  0.1633 -0.6961
  574TMC3     H 8569   4.450   2.001   0.102 -2.1142 -0.5621  1.5089
  574TMC3    H1 8570   4.336   1.625   0.245 -1.0216  0.7071  0.0007
  574TMC3    H2 8571   4.555   1.659  17.621  0.8965  0.3746  0.8002
  574TMC3    C7 8572   4.418   1.484   0.036  0.4841 -0.0529 -0.1995
  574TMC3    C8 8573   4.568   1.918  17.617  0.0392  0.6713 -0.3486
  574TMC3    O1 8574   4.357   1.419   0.123 -0.1414  0.2469 -0.0141
  574TMC3    O2 8575   4.591   1.861  17.512 -0.3698 -0.5914  0.5563
  575TMC3    C1 8576   2.492   2.739  11.657  0.4571  0.7271 -0.4188
  575TMC3    C2 8577   2.569   2.818  11.739  0.6787 -0.9011 -0.3857
  575TMC3    C3 8578   2.636   2.922  11.675 -0.4936  0.3957 -0.3478
  575TMC3    C4 8579   2.478   2.762  11.526 -0.5969 -0.5802  0.7376
  575TMC3    C5 8580   2.541   2.869  11.473 -0.2120 -0.0499  0.3462
  575TMC3    C6 8581   2.621   2.951  11.549 -0.1161 -0.1161  0.2860
  575TMC3     C 8582   2.451   2.608  11.704  0.1984 -0.6192 -0.4703
  575TMC3     O 8583   2.457   2.514  11.625 -0.5218  0.0053 -0.1549
  575TMC3     H 8584   2.585   2.793  11.843  1.8791  3.2074  0.3916
  575TMC3    H1 8585   2.422   2.692  11.465  1.3228 -1.6454  0.2141
  575TMC3    H2 8586   2.665   3.037  11.500 -0.7384  1.1523  1.9624
  575TMC3    C7 8587   2.525   2.905  11.333 -0.4930 -0.7190  1.0802
  575TMC3    C8 8588   2.730   2.997  11.754 -0.1655 -0.6714 -0.2214
  575TMC3    O1 8589   2.558   3.018  11.303  0.1591  0.6965  0.6098
  575TMC3    O2 8590   2.743   2.958  11.871  0.7594  0.3930  0.4296
  576MPD2     C 8591   2.085   3.889  12.621 -0.4602 -0.1714 -0.6870
  576MPD2    C1 8592   2.109   4.021  12.574 -0.2079 -0.3238  0.1457
  576MPD2    C2 8593   2.082   4.133  12.651  0.1596  0.0331  0.2076
  576MPD2    C3 8594   2.027   4.111  12.776 -0.6727  0.1804 -0.0288
  576MPD2    C4 8595   2.004   3.984  12.824 -0.2534 -0.0163  0.4994
  576MPD2    C5 8596   2.039   3.871  12.751  0.3295  0.5332 -0.0099
  576MPD2     H 8597   2.097   4.235  12.619 -0.4373  0.0372 -0.0519
  576MPD2    H1 8598   1.948   3.965  12.914 -1.9117 -0.6092 -0.6597
  576MPD2    H2 8599   2.108   3.805  12.557  3.9334 -0.7477  1.7063
  576MPD2    H3 8600   2.014   3.775  12.795 -1.1409  0.9002 -0.0575
  576MPD2     N 8601   2.000   4.216  12.868  0.2034 -0.1659 -0.2100
  576MPD2    H5 8602   1.979   4.187  12.963  0.5398 -0.9522 -0.3756
  576MPD2    N1 8603   2.161   4.049  12.446  0.0437 -0.2491 -0.0501
  576MPD2    H7 8604   2.203   4.141  12.446  0.1539 -0.2909  0.8394
  577TMC3    C1 8605   2.255   4.007  12.230 -0.6261  0.4341 -0.4712
  577TMC3    C2 8606   2.280   3.925  12.121 -0.5600  0.1681  0.1009
  577TMC3    C3 8607   2.331   3.979  12.010  0.0778 -0.2681 -0.2961
  577TMC3    C4 8608   2.272   4.144  12.215 -0.1245  1.3120  0.7404
  577TMC3    C5 8609   2.313   4.195  12.093  0.2983  0.2156 -0.6317
  577TMC3    C6 8610   2.338   4.113  11.985  0.1674 -0.1427 -0.3689
  577TMC3     C 8611   2.193   3.950  12.353 -0.6570  0.7002  0.0593
  577TMC3     O 8612   2.154   3.835  12.340  0.8139  0.3359 -0.3805
  577TMC3     H 8613   2.264   3.818  12.131 -0.0942  0.0092 -0.8950
  577TMC3    H1 8614   2.279   4.216  12.296  1.7923  0.5422  1.2507
  577TMC3    H2 8615   2.382   4.152  11.893  2.3621 -2.2692 -0.2209
  577TMC3    C7 8616   2.273   4.338  12.076  0.6993 -0.5969 -0.7624
  577TMC3    C8 8617   2.382   3.872  11.926  0.3264  0.2472  0.5541
  577TMC3    O1 8618   2.301   4.404  12.172 -0.2496  0.3335 -0.0842
  577TMC3    O2 8619   2.359   3.756  11.954  0.2098 -0.3307  0.6084
  578MPD2     C 8620   0.847   0.106   1.018 -1.0757 -0.1105 -0.5217
  578MPD2    C1 8621   0.807   4.725   0.947 -0.2890  0.6771  0.1951
  578MPD2    C2 8622   0.826   4.603   1.004  0.1846 -0.4009 -0.1045
  578MPD2    C3 8623   0.891   4.593   1.126 -0.5069  0.4887  0.2355
  578MPD2    C4 8624   0.936   4.708   1.191  0.3705 -0.4099  0.1539
  578MPD2    C5 8625   0.912   0.093   1.135 -0.7830 -0.1680 -0.2000
  578MPD2     H 8626   0.775   4.516   0.965 -0.4954 -0.1714  0.2904
  578MPD2    H1 8627   0.998   4.704   1.279  3.2233 -0.4694 -1.8483
  578MPD2    H2 8628   0.841   0.210   0.986  0.2457  0.3749  0.8497
  578MPD2    H3 8629   0.941   0.184   1.187  1.1536 -0.7327 -0.3139
  578MPD2     N 8630   0.932   4.473   1.196  0.1440  0.2693 -0.6953
  578MPD2    H5 8631   0.985   4.480   1.282 -0.8966  1.5522 -0.1467
  578MPD2    N1 8632   0.733   0.009   0.833 -0.6864 -0.3937  0.0250
  578MPD2    H7 8633   0.729   0.109   0.814  2.1684  0.0759  1.9301
  579TMC3    C1 8634   0.979   4.249   1.237 -0.0416 -0.9560  0.4039
  579TMC3    C2 8635   1.085   4.296   1.308 -0.3921  0.0424  0.1230
  579TMC3    C3 8636   1.199   4.222   1.308  0.0194 -0.0555 -0.4019
  579TMC3    C4 8637   0.969   4.122   1.198  0.1836 -0.3812 -0.5460
  579TMC3    C5 8638   1.075   4.045   1.230  0.2452 -0.2961  0.8710
  579TMC3    C6 8639   1.193   4.095   1.274 -0.6546 -0.0708  0.1653
  579TMC3     C 8640   0.896   4.343   1.165  0.6394  0.1466 -0.2703
  579TMC3     O 8641   0.820   4.304   1.077 -0.1644 -0.0390 -0.0330
  579TMC3     H 8642   1.101   4.402   1.323 -1.7834  0.5231 -1.7595
  579TMC3    H1 8643   0.884   4.083   1.144 -1.0884  0.6811  0.6784
  579TMC3    H2 8644   1.285   4.041   1.293 -0.5215  0.6407  1.5020
  579TMC3    C7 8645   1.064   3.899   1.231 -0.2719  0.3024 -0.0628
  579TMC3    C8 8646   1.317   4.276   1.371  0.1946  0.6067 -0.1913
  579TMC3    O1 8647   1.162   3.837   1.272  0.1561 -0.2463 -0.1094
  579TMC3    O2 8648   1.395   4.197   1.433  0.0391 -0.5690 -0.2653
  580TMC3    C1 8649   0.228   3.238  12.578 -0.3832  0.0786  0.6126
  580TMC3    C2 8650   0.109   3.189  12.532 -0.6075  0.2171 -0.3705
  580TMC3    C3 8651   0.101   3.073  12.463  0.3166  0.2876  0.0002
  580TMC3    C4 8652   0.339   3.159  12.577  0.2109  1.0265  0.2482
  580TMC3    C5 8653   0.327   3.036  12.521  0.4724 -0.1939  0.1257
  580TMC3    C6 8654   0.209   2.989  12.470  0.8362 -0.2357  0.3666
  580TMC3     C 8655   0.249   3.368  12.530  0.7850  0.0808 -0.1098
  580TMC3     O 8656   0.148   3.434  12.497 -0.2406  0.1051  0.6331
  580TMC3     H 8657   0.022   3.253  12.539  0.1204  1.5978 -3.5553
  580TMC3    H1 8658   0.438   3.178  12.617 -1.1941  0.1483  4.1369
  580TMC3    H2 8659   0.195   2.900  12.410 -2.3523  0.1619  0.5106
  580TMC3    C7 8660   0.442   2.950  12.543 -0.4793  0.5223 -0.7004
  580TMC3    C8 8661   0.075   3.114  12.329  0.5243 -0.1687 -0.2403
  580TMC3    O1 8662   0.525   2.974  12.629  0.2208 -0.3906  0.3911
  580TMC3    O2 8663   4.736   3.048  12.262 -0.0919 -0.0596  0.2443
  581MPD2     C 8664   2.896   3.395  15.259  0.0051 -0.6184  0.6187
  581MPD2    C1 8665   2.860   3.259  15.240  0.1888 -0.1011 -0.1738
  581MPD2    C2 8666   2.731   3.240  15.197  0.5981 -0.6354  0.7884
  581MPD2    C3 8667   2.643   3.346  15.180 -0.2781 -0.5693  0.5701
  581MPD2    C4 8668   2.677   3.471  15.199  0.1783  0.1082  0.3778
  581MPD2    C5 8669   2.801   3.495  15.244 -0.0493 -0.7127  0.1797
  581MPD2     H 8670   2.706   3.140  15.163 -1.1295  0.0038  0.2121
  581MPD2    H1 8671   2.601   3.549  15.191  0.9183  0.8066  0.1417
  581MPD2    H2 8672   2.996   3.429  15.286  0.3872 -1.0893 -0.1996
  581MPD2    H3 8673   2.831   3.600  15.248 -1.9867 -0.1071 -1.6060
  581MPD2     N 8674   2.510   3.320  15.133 -0.0122 -0.5710 -0.2274
  581MPD2    H5 8675   2.465   3.406  15.104 -0.0532  0.0092  1.5638
  581MPD2    N1 8676   2.960   3.161  15.246  0.0335  0.3168  0.5714
  581MPD2    H7 8677   3.052   3.194  15.274 -0.4684  0.0178  2.5365
  582TMC3    C1 8678   3.072   2.947  15.221 -0.4604  0.4016  0.8471
  582TMC3    C2 8679   3.148   2.969  15.333  0.7336 -0.1906  0.3444
  582TMC3    C3 8680   3.192   2.857  15.403  0.6979  0.3051  0.6906
  582TMC3    C4 8681   3.038   2.822  15.183  0.5872  0.3428 -0.7851
  582TMC3    C5 8682   3.076   2.712  15.252  0.0502 -0.3856  0.0370
  582TMC3    C6 8683   3.159   2.727  15.362  0.0343 -0.5929 -0.0056
  582TMC3     C 8684   2.954   3.032  15.197  0.9810  0.3731 -0.2248
  582TMC3     O 8685   2.860   2.977  15.146 -0.0294 -0.0719 -0.1576
  582TMC3     H 8686   3.182   3.071  15.353  2.1253 -0.0482 -2.6494
  582TMC3    H1 8687   2.998   2.806  15.083 -1.6769 -0.8668  0.3136
  582TMC3    H2 8688   3.183   2.640  15.423  2.2032  0.5468  0.7749
  582TMC3    C7 8689   2.966   2.620  15.278 -0.3215  0.5793  0.1242
  582TMC3    C8 8690   3.194   2.886  15.544 -0.1601  0.2245 -0.9275
  582TMC3    O1 8691   2.974   2.524  15.351  0.3682 -0.2923  0.1601
  582TMC3    O2 8692   3.140   2.994  15.569  0.1404 -0.4646  0.3131
  583MPD2     C 8693   2.653   0.090  16.851  0.6853  0.1940 -0.5827
  583MPD2    C1 8694   2.630   0.189  16.760  0.7065  0.2801  0.3992
  583MPD2    C2 8695   2.558   0.301  16.794 -0.4982  0.3282 -0.2499
  583MPD2    C3 8696   2.494   0.312  16.916  0.6789 -0.2104 -0.4711
  583MPD2    C4 8697   2.529   0.218  17.009  0.2181 -0.1708  0.1260
  583MPD2    C5 8698   2.601   0.110  16.977  0.4019 -0.7729 -0.3866
  583MPD2     H 8699   2.561   0.368  16.709  0.0761  1.9822  1.0982
  583MPD2    H1 8700   2.516   0.232  17.116 -1.2703 -1.5351  0.1113
  583MPD2    H2 8701   2.703   4.736  16.822  0.3188 -0.0146 -0.5547
  583MPD2    H3 8702   2.636   0.051  17.061 -3.1081 -0.7672  1.1072
  583MPD2     N 8703   2.435   0.436  16.940 -0.0394 -0.0341 -0.3931
  583MPD2    H5 8704   2.437   0.496  16.858  0.3174  0.8465  0.2601
  583MPD2    N1 8705   2.693   0.183  16.631  0.0161 -0.2318  0.6012
  583MPD2    H7 8706   2.673   0.260  16.567  0.9201  0.9265  1.7273
  584TMC3    C1 8707   2.301   0.612  17.040 -0.1547  0.3683  0.5662
  584TMC3    C2 8708   2.320   0.691  16.930  0.4819  0.3469 -0.4305
  584TMC3    C3 8709   2.268   0.818  16.939  0.3449  0.7261  0.4565
  584TMC3    C4 8710   2.215   0.655  17.145 -0.0957  0.7894  0.7072
  584TMC3    C5 8711   2.177   0.785  17.148  0.1290  0.0570  0.3817
  584TMC3    C6 8712   2.205   0.870  17.044 -0.1794 -0.4541 -0.0725
  584TMC3     C 8713   2.377   0.486  17.057  0.2258 -0.1670 -0.1848
  584TMC3     O 8714   2.369   0.430  17.168  0.2739 -0.0643  0.0196
  584TMC3     H 8715   2.376   0.665  16.841 -1.2419 -3.6466 -0.3398
  584TMC3    H1 8716   2.184   0.579  17.215  0.2057 -3.6973 -4.0018
  584TMC3    H2 8717   2.168   0.972  17.043  1.6068  0.1887  0.0518
  584TMC3    C7 8718   2.061   0.824  17.227  0.7825  0.4006  0.1026
  584TMC3    C8 8719   2.322   0.912  16.842  0.2819  1.0179 -0.6300
  584TMC3    O1 8720   2.018   0.940  17.204  0.3724 -0.4431 -0.0973
  584TMC3    O2 8721   2.317   0.873  16.728  0.4822 -0.3551  0.1115
  585MPD2     C 8722   1.201   4.303   0.191  0.1870  0.1818 -0.3672
  585MPD2    C1 8723   1.326   4.364   0.149 -0.9132  0.4354 -0.2060
  585MPD2    C2 8724   1.441   4.293   0.149 -0.6147 -0.0408  0.2023
  585MPD2    C3 8725   1.433   4.157   0.177 -0.0838  0.6290 -0.2097
  585MPD2    C4 8726   1.316   4.094   0.200  0.5017 -0.6898 -0.3341
  585MPD2    C5 8727   1.200   4.167   0.220  0.0829 -0.0179 -0.4174
  585MPD2     H 8728   1.529   4.339   0.106 -0.7129  0.3301  0.4006
  585MPD2    H1 8729   1.307   3.988   0.216 -0.1336 -0.9533 -2.4267
  585MPD2    H2 8730   1.111   4.362   0.197  0.0087 -0.1100 -0.1750
  585MPD2    H3 8731   1.102   4.125   0.241 -0.1264  0.8453  0.3199
  585MPD2     N 8732   1.543   4.068   0.155 -0.0043 -0.9545 -0.3322
  585MPD2    H5 8733   1.524   3.971   0.134  1.0711 -0.2903 -4.3077
  585MPD2    N1 8734   1.321   4.502   0.122  0.2351 -0.1876 -0.2574
  585MPD2    H7 8735   1.227   4.538   0.117  0.4278  0.2998 -0.4047
  586TMC3    C1 8736   1.758   3.987   0.138  1.1604  0.3840  0.0896
  586TMC3    C2 8737   1.880   3.992   0.092 -0.4014  0.4953 -0.8342
  586TMC3    C3 8738   1.958   3.882   0.087  0.0222 -0.0253 -0.0460
  586TMC3    C4 8739   1.699   3.871   0.190  0.0062 -0.6958  0.2027
  586TMC3    C5 8740   1.770   3.762   0.172 -0.1443  0.7447 -0.4300
  586TMC3    C6 8741   1.901   3.767   0.130  0.2832  0.1703  0.2119
  586TMC3     C 8742   1.675   4.103   0.145  0.3748  0.2367 -0.0240
  586TMC3     O 8743   1.719   4.213   0.147  0.0242  0.5045 -0.1760
  586TMC3     H 8744   1.922   4.089   0.069  2.3347  0.2139  2.9450
  586TMC3    H1 8745   1.594   3.861   0.215 -0.2408  1.5406  0.1294
  586TMC3    H2 8746   1.959   3.678   0.150 -1.0678 -0.9223 -0.7415
  586TMC3    C7 8747   1.703   3.654   0.094 -0.8563 -0.2394  0.0454
  586TMC3    C8 8748   2.055   3.857  17.730 -0.1679 -0.0185 -0.6113
  586TMC3    O1 8749   1.589   3.621   0.127 -0.1862  0.2447 -0.8851
  586TMC3    O2 8750   2.104   3.747  17.738  0.1645  0.7259 -0.0247
  587TMC3    C1 8751   3.899   2.363  16.292 -0.3571  0.5474  0.3584
  587TMC3    C2 8752   3.928   2.490  16.339 -0.4856  0.2067 -0.5453
  587TMC3    C3 8753   4.056   2.511  16.386 -0.5127  0.2925 -0.5961
  587TMC3    C4 8754   3.998   2.265  16.301 -0.7831 -0.5956 -0.4148
  587TMC3    C5 8755   4.121   2.292  16.348  0.1268 -0.4109 -0.4370
  587TMC3    C6 8756   4.152   2.417  16.397  0.7843 -0.7167 -0.3807
  587TMC3     C 8757   3.818   2.342  16.173  0.2568 -0.4450 -1.0937
  587TMC3     O 8758   3.840   2.252  16.095 -0.0996  0.1253  0.1843
  587TMC3     H 8759   3.862   2.574  16.318  1.3966  1.9597  0.5320
  587TMC3    H1 8760   3.965   2.165  16.275  2.9518 -1.9935  0.2194
  587TMC3    H2 8761   4.251   2.449  16.428  0.2003 -0.5681  1.3529
  587TMC3    C7 8762   4.217   2.178  16.338 -0.2001 -0.0058 -0.3687
  587TMC3    C8 8763   4.093   2.641  16.446 -0.2376  0.3036 -0.4039
  587TMC3    O1 8764   4.175   2.065  16.340 -0.3743 -0.6976  0.4195
  587TMC3    O2 8765   4.208   2.675  16.466  0.0069  0.4194  0.5899
  588TMC3    C1 8766   1.901   0.566   9.855 -0.0548  0.0454  0.6327
  588TMC3    C2 8767   1.814   0.460   9.851  0.7311  0.0713 -1.1188
  588TMC3    C3 8768   1.857   0.345   9.912  0.0294  0.5840 -0.7114
  588TMC3    C4 8769   2.034   0.562   9.904 -0.3173  0.7973 -0.0023
  588TMC3    C5 8770   2.074   0.437   9.945 -0.7857  0.2896 -0.0562
  588TMC3    C6 8771   1.993   0.327   9.951  0.4635 -0.1090 -0.0457
  588TMC3     C 8772   1.849   0.699   9.815 -0.3216 -0.0778  0.3586
  588TMC3     O 8773   1.756   0.705   9.732 -0.0979 -0.0785 -0.4416
  588TMC3     H 8774   1.709   0.477   9.829  0.2643  1.8296  2.4312
  588TMC3    H1 8775   2.100   0.648   9.906  1.7178 -0.7900  0.4712
  588TMC3    H2 8776   2.032   0.231   9.984 -0.3283 -0.0104  1.1933
  588TMC3    C7 8777   2.182   0.439  10.040  0.3274 -0.5880 -0.2472
  588TMC3    C8 8778   1.769   0.231   9.926  0.2252  0.9273 -0.0447
  588TMC3    O1 8779   2.174   0.358  10.130  0.0907  0.2557 -0.3748
  588TMC3    O2 8780   1.684   0.209   9.838  0.2175 -0.2221  0.4864
  589TMC3    C1 8781   0.769   2.382   1.002 -0.2207 -0.3006  0.2749
  589TMC3    C2 8782   0.871   2.397   1.093 -0.4428  0.2466  0.3768
  589TMC3    C3 8783   0.949   2.286   1.112  0.1231  0.4816  0.2318
  589TMC3    C4 8784   0.776   2.283   0.909  0.4927 -0.1179  0.1967
  589TMC3    C5 8785   0.862   2.174   0.927 -0.0852  0.3288 -0.3798
  589TMC3    C6 8786   0.950   2.181   1.027 -0.3171  0.0800  0.2546
  589TMC3     C 8787   0.684   2.495   0.970 -0.4816  0.2220 -0.0079
  589TMC3     O 8788   0.628   2.509   0.862 -0.0795  0.2935 -0.3570
  589TMC3     H 8789   0.879   2.479   1.163 -0.3434  1.0904 -0.6203
  589TMC3    H1 8790   0.715   2.279   0.820  0.4491  1.0418  0.1748
  589TMC3    H2 8791   1.021   2.099   1.033  0.0361  0.4848  1.6874
  589TMC3    C7 8792   0.850   2.060   0.840 -0.4477 -0.5286 -0.7483
  589TMC3    C8 8793   1.054   2.313   1.202 -0.3047  0.2043  0.0868
  589TMC3    O1 8794   0.738   2.027   0.803 -0.2763  0.0792 -0.3301
  589TMC3    O2 8795   1.020   2.367   1.308 -0.7407 -0.5092  0.1544
  590MPD2     C 8796   0.064   0.702  16.432  0.8887  0.3965  0.5361
  590MPD2    C1 8797   0.048   0.832  16.426 -0.4634  0.0060  0.7718
  590MPD2    C2 8798   0.153   0.918  16.397  0.2738  0.0387  0.2273
  590MPD2    C3 8799   0.272   0.873  16.356 -0.4789 -0.4133 -1.3464
  590MPD2    C4 8800   0.289   0.731  16.365  0.4929  0.4749  0.5080
  590MPD2    C5 8801   0.188   0.646  16.415 -0.4028 -0.2311  0.1006
  590MPD2     H 8802   0.135   1.023  16.378 -0.5592 -0.2906 -0.7915
  590MPD2    H1 8803   0.383   0.688  16.332  0.3325  0.2910  0.2895
  590MPD2    H2 8804   4.718   0.640  16.463 -0.4182  1.5211 -0.7692
  590MPD2    H3 8805   0.211   0.541  16.429 -0.2245 -0.2120 -0.0416
  590MPD2     N 8806   0.380   0.935  16.304 -0.2531 -0.0134 -0.2393
  590MPD2    H5 8807   0.453   0.880  16.261 -0.4775 -1.4557  1.2516
  590MPD2    N1 8808   4.661   0.888  16.456  0.2374  0.0934 -0.2243
  590MPD2    H7 8809   4.590   0.815  16.466  0.7730 -0.4220 -0.1604
  591TMC3    C1 8810   0.499   1.123  16.216  0.3245  0.8239  0.0966
  591TMC3    C2 8811   0.574   1.032  16.143  0.2720 -0.5735 -0.2849
  591TMC3    C3 8812   0.668   1.087  16.061 -0.0292 -0.7588 -0.1405
  591TMC3    C4 8813   0.527   1.254  16.226 -0.8229 -0.2097 -0.1767
  591TMC3    C5 8814   0.627   1.300  16.145  0.1921 -0.1726  0.7308
  591TMC3    C6 8815   0.707   1.221  16.059 -0.0014  0.1894  0.5578
  591TMC3     C 8816   0.390   1.072  16.296  0.4387  0.0205 -0.3936
  591TMC3     O 8817   0.313   1.156  16.348  0.2147 -0.2539 -0.3646
  591TMC3     H 8818   0.548   0.927  16.131 -1.4125 -0.2491  0.5329
  591TMC3    H1 8819   0.465   1.322  16.283 -1.2240 -1.4735  0.9025
  591TMC3    H2 8820   0.801   1.262  16.023 -0.1402 -0.9517 -1.0607
  591TMC3    C7 8821   0.671   1.432  16.181  0.0999  0.4833 -0.0804
  591TMC3    C8 8822   0.773   0.997  16.019 -0.6638 -0.4554  0.8729
  591TMC3    O1 8823   0.647   1.470  16.296  0.1755  0.3142 -0.1174
  591TMC3    O2 8824   0.797   0.903  16.095  0.3866  0.2475  0.6618
  592MPD2     C 8825   1.131   3.006  11.264 -0.2934  1.3643 -0.2780
  592MPD2    C1 8826   1.096   3.063  11.380 -0.0833 -0.5373 -0.9619
  592MPD2    C2 8827   1.032   2.981  11.478  0.5498  0.3057  0.3707
  592MPD2    C3 8828   1.012   2.850  11.461  0.7532 -0.0396 -0.2714
  592MPD2    C4 8829   1.063   2.793  11.348 -0.7186 -0.6840  0.0098
  592MPD2    C5 8830   1.116   2.869  11.244  0.7684  0.1907  0.3001
  592MPD2     H 8831   1.025   3.023  11.577 -0.1983  2.4477 -0.5812
  592MPD2    H1 8832   1.055   2.685  11.337 -0.2989 -0.6704 -0.4216
  592MPD2    H2 8833   1.187   3.056  11.186  1.4652 -0.2541 -0.0670
  592MPD2    H3 8834   1.141   2.831  11.146 -1.7180 -0.2177 -0.1670
  592MPD2     N 8835   0.965   2.768  11.568 -0.5293 -0.2254 -0.5579
  592MPD2    H5 8836   0.950   2.815  11.656  0.2986 -0.9310 -0.0464
  592MPD2    N1 8837   1.128   3.199  11.402 -0.2899  0.7578  0.2775
  592MPD2    H7 8838   1.163   3.245  11.319  0.9992 -1.2303 -0.2827
  593TMC3    C1 8839   1.119   3.405  11.516 -0.1826  0.1710  0.1546
  593TMC3    C2 8840   1.034   3.487  11.590  0.0653 -0.7254 -0.5399
  593TMC3    C3 8841   1.068   3.620  11.589  0.0809  0.0411  0.5889
  593TMC3    C4 8842   1.243   3.448  11.481  0.3582 -0.0849  0.4432
  593TMC3    C5 8843   1.274   3.582  11.477 -0.5611  0.1247 -0.1498
  593TMC3    C6 8844   1.176   3.668  11.522 -0.3875 -0.1280  0.2916
  593TMC3     C 8845   1.088   3.266  11.516  0.3028  0.3708 -0.3411
  593TMC3     O 8846   1.009   3.241  11.605 -0.2002 -0.4079  0.4011
  593TMC3     H 8847   0.947   3.459  11.649  0.3157 -1.2394 -0.4219
  593TMC3    H1 8848   1.323   3.377  11.467 -0.0491 -0.6451  1.0039
  593TMC3    H2 8849   1.188   3.776  11.520 -0.2841 -0.1480 -0.0566
  593TMC3    C7 8850   1.405   3.633  11.503  0.1170 -0.5838 -0.7684
  593TMC3    C8 8851   1.035   3.692  11.706 -0.1632  0.0010  0.1504
  593TMC3    O1 8852   1.401   3.726  11.584 -0.1966  0.3867  0.2590
  593TMC3    O2 8853   0.920   3.690  11.740 -0.4443  0.1242 -0.2874
  594MPD2     C 8854   4.336   1.959  13.899  0.6144 -0.3403 -0.1807
  594MPD2    C1 8855   4.322   1.870  14.000 -0.2102  0.3709  0.6804
  594MPD2    C2 8856   4.438   1.821  14.058  0.4870 -0.1246 -0.1421
  594MPD2    C3 8857   4.558   1.869  14.016  0.4740  0.4465  0.0565
  594MPD2    C4 8858   4.574   1.962  13.910 -0.1822  0.5334 -0.3399
  594MPD2    C5 8859   4.455   2.012  13.861  0.6083  0.0396 -0.6666
  594MPD2     H 8860   4.438   1.770  14.154 -1.1744 -1.5419 -0.9075
  594MPD2    H1 8861   4.672   1.999  13.883 -0.4450 -0.5164 -2.7228
  594MPD2    H2 8862   4.247   1.999  13.850 -1.5856 -4.9934  0.0343
  594MPD2    H3 8863   4.452   2.093  13.788  0.7239  1.2991  0.7334
  594MPD2     N 8864   4.661   1.835  14.106  0.0188  0.3546  0.1311
  594MPD2    H5 8865   4.630   1.771  14.178  0.5709 -1.0188 -0.8568
  594MPD2    N1 8866   4.190   1.840  14.045 -0.1274  0.4961 -0.0836
  594MPD2    H7 8867   4.118   1.894  13.997 -2.0159 -1.5661  0.4041
  595TMC3    C1 8868   0.302   1.935  14.355  0.3002 -0.2733  0.6004
  595TMC3    C2 8869   0.255   1.909  14.234 -0.4860 -0.4659 -1.0212
  595TMC3    C3 8870   0.130   1.861  14.220  0.3750  0.6057  0.1204
  595TMC3    C4 8871   0.233   1.899  14.472 -0.3957  0.0764 -0.1847
  595TMC3    C5 8872   0.109   1.849  14.454 -0.3344  0.2117 -0.0139
  595TMC3    C6 8873   0.059   1.817  14.330 -0.8939  0.0154  0.4139
  595TMC3     C 8874   0.402   2.044  14.381  0.1306  0.3990  0.5202
  595TMC3     O 8875   0.464   2.039  14.486 -0.3162 -0.0698  0.4587
  595TMC3     H 8876   0.308   1.940  14.145  1.4255  1.7291  0.8892
  595TMC3    H1 8877   0.275   1.930  14.567 -0.9862  1.4131 -0.3627
  595TMC3    H2 8878   4.697   1.775  14.341  0.4806 -2.7692  2.2130
  595TMC3    C7 8879   0.012   1.867  14.557 -0.8871  0.1180 -0.3774
  595TMC3    C8 8880   0.057   1.879  14.096  0.1721  0.6987 -0.1304
  595TMC3    O1 8881   4.639   1.903  14.516  0.1856  0.3015  0.3319
  595TMC3    O2 8882   0.110   1.948  14.013  0.2567  0.4882  0.0369
  596MPD2     C 8883   3.412   4.585  16.798  0.1804  0.1547  0.6538
  596MPD2    C1 8884   3.424   4.714  16.753  0.2546  0.4457  0.1036
  596MPD2    C2 8885   3.451   0.001  16.620 -0.1540 -0.8222 -0.7724
  596MPD2    C3 8886   3.459   4.630  16.528 -0.3342  0.0235 -0.0836
  596MPD2    C4 8887   3.441   4.506  16.578 -0.7179 -0.6871  0.2244
  596MPD2    C5 8888   3.408   4.481  16.715  0.0069 -0.1170  0.4347
  596MPD2     H 8889   3.467   0.101  16.583 -0.5562 -0.2328  0.6503
  596MPD2    H1 8890   3.452   4.426  16.506  1.5592  0.1046 -0.2875
  596MPD2    H2 8891   3.395   4.567  16.903  1.2954  0.7862  0.9410
  596MPD2    H3 8892   3.400   4.381  16.757 -0.0626 -0.5267 -0.5541
  596MPD2     N 8893   3.483   4.650  16.388 -0.4336  0.0812  0.8540
  596MPD2    H5 8894   3.501   4.568  16.331  1.2432  1.7523 -1.0180
  596MPD2    N1 8895   3.412   0.092  16.835 -0.0950 -0.3652  0.6530
  596MPD2    H7 8896   3.424   0.176  16.780 -0.0868 -1.1856 -0.6023
  597TMC3    C1 8897   3.376   0.239  17.019  0.3093  0.5785 -0.1455
  597TMC3    C2 8898   3.479   0.321  16.976 -0.0191 -0.3342 -0.8295
  597TMC3    C3 8899   3.475   0.447  17.027 -0.0720  0.3185 -0.7369
  597TMC3    C4 8900   3.278   0.276  17.103 -0.0219  0.3244  0.2276
  597TMC3    C5 8901   3.280   0.406  17.140  0.3200 -0.6029 -0.3867
  597TMC3    C6 8902   3.378   0.492  17.111 -0.4294 -0.0736 -0.3820
  597TMC3     C 8903   3.380   0.099  16.973  0.0742 -0.4820 -0.3920
  597TMC3     O 8904   3.343   0.015  17.054  0.3919  0.5377  0.0308
  597TMC3     H 8905   3.558   0.282  16.914  1.4446 -2.5216  2.3831
  597TMC3    H1 8906   3.200   0.207  17.133  1.6008 -1.7025 -0.1904
  597TMC3    H2 8907   3.396   0.584  17.166  0.6775  0.7315 -2.0969
  597TMC3    C7 8908   3.151   0.461  17.186  0.2487 -0.0424  0.0653
  597TMC3    C8 8909   3.596   0.527  17.005 -0.0060  0.2330 -0.5699
  597TMC3    O1 8910   3.058   0.389  17.222 -0.0119  0.2800  0.0556
  597TMC3    O2 8911   3.693   0.463  16.966 -0.3946 -0.0647 -0.2986
  598TMC3    C1 8912   1.494   1.511  15.533 -0.0209  0.2190  0.4406
  598TMC3    C2 8913   1.443   1.384  15.518  0.3126  0.6190  0.0025
  598TMC3    C3 8914   1.430   1.331  15.387  0.0269 -0.3287  0.1355
  598TMC3    C4 8915   1.541   1.581  15.423  0.6179  0.4657  0.1716
  598TMC3    C5 8916   1.545   1.512  15.303 -0.0715  0.1512 -0.0530
  598TMC3    C6 8917   1.480   1.398  15.282 -0.2259  0.3190 -0.0359
  598TMC3     C 8918   1.501   1.574  15.663  0.5723  0.2370  0.6896
  598TMC3     O 8919   1.496   1.695  15.672 -0.3470  0.0869  0.2081
  598TMC3     H 8920   1.403   1.324  15.599  0.6691 -0.4761 -0.6266
  598TMC3    H1 8921   1.590   1.677  15.434  1.2933 -0.2606  3.3366
  598TMC3    H2 8922   1.470   1.363  15.180 -0.8266  0.6136 -0.0749
  598TMC3    C7 8923   1.613   1.567  15.189 -0.4463  0.0335 -0.3931
  598TMC3    C8 8924   1.343   1.218  15.362 -0.0017  0.3666 -0.0410
  598TMC3    O1 8925   1.579   1.517  15.080  0.7174 -0.4500  0.3167
  598TMC3    O2 8926   1.267   1.190  15.454 -0.4817 -0.2871  0.1328
  599MPD2     C 8927   1.951   3.831  16.013 -0.1499  0.4041 -0.3178
  599MPD2    C1 8928   1.904   3.708  15.998 -0.1218  0.4391  0.4988
  599MPD2    C2 8929   1.775   3.671  16.045 -0.2061 -0.7344  0.6694
  599MPD2    C3 8930   1.694   3.773  16.096  0.4347  0.4921 -0.5965
  599MPD2    C4 8931   1.750   3.892  16.118  0.4518 -0.1320  0.1632
  599MPD2    C5 8932   1.877   3.922  16.081  0.2666  0.4601 -0.3288
  599MPD2     H 8933   1.738   3.571  16.030 -0.3513 -0.1837 -2.6309
  599MPD2    H1 8934   1.688   3.966  16.168  1.0431  0.0892  0.5638
  599MPD2    H2 8935   2.043   3.857  15.963  0.8660 -0.0885  1.2819
  599MPD2    H3 8936   1.919   4.020  16.097 -1.0252  0.9337  0.1251
  599MPD2     N 8937   1.565   3.755  16.146  0.6230 -0.0858  0.6987
  599MPD2    H5 8938   1.532   3.827  16.209  1.3308  1.9507 -1.2364
  599MPD2    N1 8939   1.999   3.612  15.953 -0.1870 -0.0466  0.0788
  599MPD2    H7 8940   2.090   3.648  15.924 -0.5707  2.2927  1.7742
  600TMC3    C1 8941   1.347   3.666  16.183  0.3346  0.8201 -0.0221
  600TMC3    C2 8942   1.261   3.557  16.179 -0.0801  0.5629  0.1354
  600TMC3    C3 8943   1.127   3.573  16.204 -0.4882 -0.0958 -0.8680
  600TMC3    C4 8944   1.304   3.780  16.244 -0.1275 -0.2949 -0.5756
  600TMC3    C5 8945   1.172   3.790  16.273  0.3493  0.1430  0.3062
  600TMC3    C6 8946   1.078   3.694  16.244  0.5356  0.8129 -0.0451
  600TMC3     C 8947   1.483   3.645  16.128 -0.3933 -0.6950 -0.8406
  600TMC3     O 8948   1.507   3.531  16.095 -0.8603  0.1381 -0.3913
  600TMC3     H 8949   1.292   3.458  16.147  0.8657  0.8315  0.2385
  600TMC3    H1 8950   1.363   3.872  16.240 -1.8960  0.9778  3.4018
  600TMC3    H2 8951   0.973   3.716  16.256  0.5594 -0.5831  2.7107
  600TMC3    C7 8952   1.127   3.893  16.362  0.4809 -0.3345 -0.3137
  600TMC3    C8 8953   1.038   3.462  16.187 -0.1417  0.3227 -0.0758
  600TMC3    O1 8954   1.020   3.950  16.358 -0.6103 -0.6549  0.3289
  600TMC3    O2 8955   1.078   3.350  16.221 -0.3756  0.1891 -0.5501
  601MPD2     C 8956   3.704   3.062   0.505 -1.0030  0.0614 -0.5456
  601MPD2    C1 8957   3.686   2.953   0.420  0.1018  0.2993  0.4011
  601MPD2    C2 8958   3.737   2.829   0.457 -0.1439 -0.1089  0.0601
  601MPD2    C3 8959   3.832   2.812   0.559  0.6023  0.3540  0.1535
  601MPD2    C4 8960   3.851   2.924   0.638 -0.4410  0.3988 -0.6503
  601MPD2    C5 8961   3.785   3.042   0.614 -0.4873  0.2319  0.8617
  601MPD2     H 8962   3.696   2.750   0.395  0.2746 -0.4650  0.2393
  601MPD2    H1 8963   3.909   2.916   0.730  0.5817 -0.6936 -1.3827
  601MPD2    H2 8964   3.681   3.163   0.473 -1.7164 -0.1097 -0.5741
  601MPD2    H3 8965   3.810   3.128   0.676  0.3546  0.4613  0.2065
  601MPD2     N 8966   3.903   2.695   0.583  0.2058  0.4879  0.0442
  601MPD2    H5 8967   3.938   2.683   0.678  0.6769  0.6623 -0.1075
  601MPD2    N1 8968   3.626   2.953   0.291  0.0213  0.1617  0.6724
  601MPD2    H7 8969   3.641   2.870   0.235 -1.7253 -0.2578  0.8388
  602TMC3    C1 8970   3.526   3.052   0.113  0.5052  0.1685  0.1432
  602TMC3    C2 8971   3.405   3.100   0.092  0.2399  0.1673 -0.4702
  602TMC3    C3 8972   3.350   3.082  17.714 -0.6625  0.1613  0.2806
  602TMC3    C4 8973   3.599   2.980   0.029 -0.3156  0.0754 -0.4429
  602TMC3    C5 8974   3.542   2.957  17.655 -0.0809 -0.4845  0.2384
  602TMC3    C6 8975   3.421   3.010  17.621 -0.5121 -1.2048  0.2592
  602TMC3     C 8976   3.563   3.059   0.249  0.3019 -0.1663 -1.1110
  602TMC3     O 8977   3.532   3.164   0.304  0.3722  0.1417 -0.9146
  602TMC3     H 8978   3.349   3.142   0.175 -0.0488 -0.3706 -0.3926
  602TMC3    H1 8979   3.699   2.949   0.057  0.2379  3.6781  1.4119
  602TMC3    H2 8980   3.375   2.987  17.526 -1.1095  0.1663  0.2135
  602TMC3    C7 8981   3.579   2.830  17.590 -0.8661 -0.4656 -0.1801
  602TMC3    C8 8982   3.208   3.106  17.695 -0.0320  0.7863  0.0747
  602TMC3    O1 8983   3.699   2.801  17.597 -0.5828  0.9505  0.1004
  602TMC3    O2 8984   3.163   3.220  17.715 -0.4335 -0.2297  0.0651
  603TMC3    C1 8985   2.110   2.656  10.918 -0.7719  0.2075  0.7259
  603TMC3    C2 8986   2.126   2.637  11.055  0.4166  0.2702 -0.1084
  603TMC3    C3 8987   2.126   2.740  11.147 -0.2299  0.5827 -0.3482
  603TMC3    C4 8988   2.101   2.786  10.872  0.4417  0.1542  0.0452
  603TMC3    C5 8989   2.099   2.886  10.970  0.4527 -0.0017 -0.5687
  603TMC3    C6 8990   2.114   2.866  11.105 -0.3784 -0.1526 -0.2865
  603TMC3     C 8991   2.093   2.540  10.825  0.1000 -0.4224 -0.1064
  603TMC3     O 8992   2.013   2.554  10.727 -0.3613  0.3769  0.1900
  603TMC3     H 8993   2.125   2.533  11.086 -0.5560  0.3589  0.1475
  603TMC3    H1 8994   2.084   2.799  10.766  2.4448  0.1265 -0.2871
  603TMC3    H2 8995   2.127   2.954  11.167 -1.0526 -0.2601  0.0057
  603TMC3    C7 8996   2.053   3.019  10.932  0.5155  0.1880  0.1469
  603TMC3    C8 8997   2.153   2.703  11.283 -0.1731  0.2938  0.8112
  603TMC3    O1 8998   2.043   3.117  11.007  0.7765 -0.5710 -0.2034
  603TMC3    O2 8999   2.210   2.596  11.309 -0.7413 -0.1716 -0.2253
  604MPD2     C 9000   2.638   1.724  16.458  0.2150 -0.6307  0.2213
  604MPD2    C1 9001   2.584   1.600  16.479 -0.4073 -0.3050 -0.5094
  604MPD2    C2 9002   2.578   1.508  16.381  0.3265  0.0922 -0.0661
  604MPD2    C3 9003   2.643   1.535  16.263  0.0992  0.4179 -0.4824
  604MPD2    C4 9004   2.708   1.656  16.244  1.2444  0.1967 -0.6534
  604MPD2    C5 9005   2.709   1.749  16.349 -0.6491  0.3450  0.5217
  604MPD2     H 9006   2.527   1.413  16.388  0.9943 -0.3648 -1.4462
  604MPD2    H1 9007   2.753   1.691  16.152  1.5769 -1.6964 -1.2087
  604MPD2    H2 9008   2.632   1.800  16.535 -0.2437  0.6255 -1.0381
  604MPD2    H3 9009   2.755   1.847  16.344  0.6030 -0.4125 -2.8187
  604MPD2     N 9010   2.645   1.437  16.163 -0.2492 -0.3160 -0.3870
  604MPD2    H5 9011   2.599   1.353  16.195  0.1170  0.3850  1.9916
  604MPD2    N1 9012   2.520   1.580  16.602  0.3595  0.8070 -0.0214
  604MPD2    H7 9013   2.541   1.644  16.678  2.3775 -0.8759  0.8668
  605TMC3    C1 9014   2.359   1.498  16.762  0.2529 -0.2833  0.1510
  605TMC3    C2 9015   2.437   1.569  16.845 -0.3410  0.8019 -0.5532
  605TMC3    C3 9016   2.376   1.662  16.926  0.2061  0.2369  0.0082
  605TMC3    C4 9017   2.219   1.496  16.773  0.1897  0.4609  0.3107
  605TMC3    C5 9018   2.170   1.589  16.863 -0.1245 -0.0105 -0.5461
  605TMC3    C6 9019   2.242   1.673  16.937  0.1375 -0.0113  0.1829
  605TMC3     C 9020   2.412   1.494  16.629  0.3306  0.0523  0.3070
  605TMC3     O 9021   2.348   1.432  16.546 -0.3959  0.4915  0.0128
  605TMC3     H 9022   2.545   1.568  16.839 -0.3581 -2.1924 -0.2498
  605TMC3    H1 9023   2.158   1.465  16.689 -1.2202  1.2706  1.0385
  605TMC3    H2 9024   2.209   1.765  16.984 -2.2154 -0.6683 -0.2012
  605TMC3    C7 9025   2.047   1.647  16.815  0.7144 -0.3459  0.2041
  605TMC3    C8 9026   2.450   1.782  16.904 -0.1443 -0.1912 -0.3218
  605TMC3    O1 9027   2.038   1.771  16.810  0.2197 -0.3252  0.7313
  605TMC3    O2 9028   2.514   1.794  16.799 -0.6638 -0.7262 -0.3224
  606TMC3    C1 9029   3.758   4.536  16.738  0.6588  0.1804 -0.1778
  606TMC3    C2 9030   3.767   4.613  16.852 -0.0188  0.4531 -0.0624
  606TMC3    C3 9031   3.719   4.559  16.974 -0.6573 -0.5875  0.1467
  606TMC3    C4 9032   3.718   4.402  16.736 -0.2821  1.1456 -0.1927
  606TMC3    C5 9033   3.684   4.347  16.855 -0.9527  0.2533  0.1805
  606TMC3    C6 9034   3.684   4.429  16.971 -0.0526 -0.1345 -0.4137
  606TMC3     C 9035   3.801   4.599  16.619  0.0791  0.2957 -0.0213
  606TMC3     O 9036   3.836   4.716  16.630  1.4838 -0.2327  0.3674
  606TMC3     H 9037   3.802   4.715  16.850 -1.4145  0.9615  2.5842
  606TMC3    H1 9038   3.722   4.339  16.647  0.8342 -0.0426  0.6962
  606TMC3    H2 9039   3.638   4.390  17.062  1.6287  0.3966  0.6621
  606TMC3    C7 9040   3.657   4.209  16.854 -0.2178 -0.1358  0.2280
  606TMC3    C8 9041   3.785   4.601  17.095 -0.2838 -0.7550  0.2926
  606TMC3    O1 9042   3.697   4.133  16.769 -0.0801  0.3973  0.0989
  606TMC3    O2 9043   3.806   4.505  17.171 -0.3517  0.1223  0.5899
  607MPD2     C 9044   1.218   2.417  11.695 -0.3849 -0.0428 -0.5960
  607MPD2    C1 9045   1.230   2.500  11.807 -0.2981  0.2091 -0.0149
  607MPD2    C2 9046   1.196   2.455  11.925  0.0276  0.0062 -0.6980
  607MPD2    C3 9047   1.140   2.327  11.935 -0.3497  0.5915  0.4348
  607MPD2    C4 9048   1.130   2.243  11.823  0.5315 -0.0403  0.7045
  607MPD2    C5 9049   1.170   2.288  11.701 -0.6404 -0.4365  0.5282
  607MPD2     H 9050   1.202   2.529  12.003  0.4306  0.4671 -1.1711
  607MPD2    H1 9051   1.095   2.141  11.832 -1.1541  0.3939 -0.9210
  607MPD2    H2 9052   1.239   2.444  11.593 -3.4329  0.5259 -1.0651
  607MPD2    H3 9053   1.180   2.219  11.618 -2.5997 -1.8268  1.4115
  607MPD2     N 9054   1.116   2.285  12.065  0.3572  0.4257  0.2870
  607MPD2    H5 9055   1.129   2.357  12.136  2.2093  1.4717 -1.1209
  607MPD2    N1 9056   1.281   2.623  11.796  0.4524  0.0536 -0.0333
  607MPD2    H7 9057   1.289   2.674  11.883  0.6712  0.3013 -0.1973
  608TMC3    C1 9058   1.465   2.758  11.757  0.1396 -0.4946  0.1783
  608TMC3    C2 9059   1.513   2.739  11.884  0.0858 -0.5542  0.1896
  608TMC3    C3 9060   1.618   2.811  11.923  0.8343 -0.0463  0.1957
  608TMC3    C4 9061   1.523   2.842  11.671  0.7754  0.1666  0.1571
  608TMC3    C5 9062   1.631   2.913  11.715 -0.3617 -0.5504 -0.0924
  608TMC3    C6 9063   1.680   2.908  11.841  0.3135  0.4188 -0.2792
  608TMC3     C 9064   1.376   2.650  11.700  0.7293 -0.4309 -0.9146
  608TMC3     O 9065   1.393   2.617  11.582 -0.2526  0.5689 -0.9015
  608TMC3     H 9066   1.487   2.647  11.935  1.1908 -1.9011 -1.6828
  608TMC3    H1 9067   1.487   2.859  11.570 -0.2831 -3.6561 -0.1062
  608TMC3    H2 9068   1.762   2.970  11.877 -1.2536  2.2140  0.2036
  608TMC3    C7 9069   1.704   2.979  11.604  0.3344  0.5343  0.1782
  608TMC3    C8 9070   1.651   2.816  12.066 -0.7109 -0.9582 -0.4378
  608TMC3    O1 9071   1.669   2.947  11.488  0.1307  0.0126  0.3388
  608TMC3    O2 9072   1.759   2.862  12.112  0.2400 -0.6165  0.3282
  609TMC3    C1 9073   4.628   1.587   9.395 -0.1553  0.3064 -0.2677
  609TMC3    C2 9074   4.671   1.586   9.267 -0.2835 -0.8320  0.1036
  609TMC3    C3 9075   0.070   1.592   9.253  0.4094  0.2787 -0.7040
  609TMC3    C4 9076   4.708   1.588   9.505  0.0193  0.9573  0.4802
  609TMC3    C5 9077   0.106   1.591   9.484  0.1128 -0.9122 -0.4182
  609TMC3    C6 9078   0.158   1.595   9.354  0.0527  0.0485  1.2055
  609TMC3     C 9079   4.487   1.618   9.418 -1.0582 -0.0395  0.0389
  609TMC3     O 9080   4.441   1.580   9.524  0.0903 -0.3273  0.6747
  609TMC3     H 9081   4.610   1.594   9.177  1.2545  0.4991 -0.8103
  609TMC3    H1 9082   4.657   1.603   9.599 -1.4266  0.2874 -0.1991
  609TMC3    H2 9083   0.265   1.590   9.337 -0.4348 -1.0173 -1.5380
  609TMC3    C7 9084   0.194   1.638   9.581 -0.1133 -0.5393 -0.2392
  609TMC3    C8 9085   0.113   1.577   9.115 -0.1952 -0.1063 -0.0268
  609TMC3    O1 9086   0.313   1.657   9.547  0.1696  0.3920 -0.6834
  609TMC3    O2 9087   0.046   1.611   9.022 -0.6553 -0.1256 -0.0998
  610TMC3    C1 9088   1.896   2.499  12.653 -0.0661 -0.3588  0.3155
  610TMC3    C2 9089   1.868   2.508  12.521 -0.0653 -0.5877 -0.1770
  610TMC3    C3 9090   1.771   2.431  12.469  0.4544  0.6505  0.1629
  610TMC3    C4 9091   1.825   2.422  12.736 -0.6608  0.5406  0.2452
  610TMC3    C5 9092   1.731   2.339  12.685 -0.4903 -0.4149 -0.9072
  610TMC3    C6 9093   1.701   2.342  12.548  0.0105  0.0628  0.2948
  610TMC3     C 9094   2.013   2.569  12.701 -0.6444  0.1664 -0.4859
  610TMC3     O 9095   2.042   2.677  12.651  0.0497 -0.1638 -0.5774
  610TMC3     H 9096   1.917   2.585  12.463 -0.8510  1.7246  2.2281
  610TMC3    H1 9097   1.861   2.431  12.838 -0.9126  1.0470  0.2876
  610TMC3    H2 9098   1.620   2.282  12.507  0.2386  0.8867 -1.3585
  610TMC3    C7 9099   1.673   2.241  12.776  1.0175 -0.2254  0.3603
  610TMC3    C8 9100   1.750   2.447  12.323  0.7014  0.2673  0.6455
  610TMC3    O1 9101   1.644   2.129  12.740 -0.3899 -0.1575  0.1408
  610TMC3    O2 9102   1.824   2.528  12.270 -0.1500 -0.2791  0.2566
  611MPD2     C 9103   1.130   2.501  10.629  0.0356  0.5417  0.1904
  611MPD2    C1 9104   1.034   2.571  10.551  0.4222  0.2384 -0.2580
  611MPD2    C2 9105   1.091   2.683  10.482 -0.3528 -0.5628 -0.2135
  611MPD2    C3 9106   1.224   2.728  10.490  0.5050  0.5646  0.1619
  611MPD2    C4 9107   1.307   2.649  10.563  0.6379  0.3723  0.0393
  611MPD2    C5 9108   1.257   2.547  10.643 -0.1787  0.4317  0.1318
  611MPD2     H 9109   1.025   2.728  10.410  0.5439 -0.6168 -1.0617
  611MPD2    H1 9110   1.409   2.683  10.569  0.5947  0.6096 -0.6089
  611MPD2    H2 9111   1.098   2.421  10.694 -2.6953  2.9673  1.7766
  611MPD2    H3 9112   1.328   2.500  10.710  0.7663 -2.1851 -2.6930
  611MPD2     N 9113   1.280   2.849  10.435  0.5945 -0.4073  0.3086
  611MPD2    H5 9114   1.380   2.864  10.431  0.4769 -0.3560 -2.7210
  611MPD2    N1 9115   0.897   2.533  10.548  0.5120 -0.1442 -0.4513
  611MPD2    H7 9116   0.879   2.461  10.618  0.7505 -0.7634 -1.0260
  612TMC3    C1 9117   1.297   3.041  10.303 -0.2884  0.0153 -0.5552
  612TMC3    C2 9118   1.423   3.069  10.363 -0.3433  0.0840  0.5005
  612TMC3    C3 9119   1.507   3.163  10.312 -0.1981  0.1032 -0.0474
  612TMC3    C4 9120   1.268   3.097  10.182 -0.4733 -0.2214  0.1495
  612TMC3    C5 9121   1.351   3.191  10.133  0.2701 -0.4237  0.1494
  612TMC3    C6 9122   1.467   3.231  10.197 -0.0687  0.0223 -0.0295
  612TMC3     C 9123   1.211   2.930  10.345  0.4411 -0.3228  0.2937
  612TMC3     O 9124   1.106   2.908  10.287 -0.3255  0.3643  0.4583
  612TMC3     H 9125   1.426   3.041  10.468 -1.2146 -2.9596 -0.2855
  612TMC3    H1 9126   1.179   3.081  10.122  0.1452 -1.6001 -0.3983
  612TMC3    H2 9127   1.529   3.316  10.171  0.0767  0.0113  0.2812
  612TMC3    C7 9128   1.337   3.222   9.988  0.1421  0.9531  0.4195
  612TMC3    C8 9129   1.598   3.231  10.401  0.9691  0.2796 -0.1261
  612TMC3    O1 9130   1.262   3.153   9.920 -0.4039  0.4235 -1.0697
  612TMC3    O2 9131   1.623   3.350  10.378 -0.4356  0.3894 -0.2059
  613MPD2     C 9132   4.342   0.724  16.175  0.2348  0.1462 -0.2305
  613MPD2    C1 9133   4.474   0.738  16.142 -0.2394 -0.1952 -0.3086
  613MPD2    C2 9134   4.547   0.623  16.158 -0.2244  0.2216 -0.0836
  613MPD2    C3 9135   4.489   0.506  16.211 -1.0986  0.1851  0.0606
  613MPD2    C4 9136   4.356   0.500  16.247  0.5474  0.4242 -0.3211
  613MPD2    C5 9137   4.279   0.614  16.225  0.1714 -0.6191  0.0364
  613MPD2     H 9138   4.653   0.615  16.135 -0.4494 -0.0456 -1.0083
  613MPD2    H1 9139   4.301   0.412  16.278  1.7430 -0.2319 -0.0596
  613MPD2    H2 9140   4.270   0.804  16.161 -0.2403 -0.4795 -1.3686
  613MPD2    H3 9141   4.170   0.618  16.225  0.1448 -1.3112  2.0491
  613MPD2     N 9142   4.579   0.397  16.211 -0.1632 -0.2209  0.1028
  613MPD2    H5 9143   4.673   0.420  16.183 -0.4681  1.4373  0.4634
  613MPD2    N1 9144   4.515   0.860  16.075 -0.0971 -0.5552  0.5486
  613MPD2    H7 9145   4.441   0.920  16.038  0.3941 -0.1355  0.2507
  614TMC3    C1 9146   4.680   1.027  16.027  0.3255 -0.2648 -0.0938
  614TMC3    C2 9147   0.074   1.042  16.055 -0.5678  0.4864  0.0555
  614TMC3    C3 9148   0.164   1.082  15.968 -0.5704 -0.1095  0.7298
  614TMC3    C4 9149   4.626   1.066  15.910  0.0864  0.2402  0.9398
  614TMC3    C5 9150   4.720   1.116  15.823 -0.4272 -0.2822  0.1784
  614TMC3    C6 9151   0.121   1.127  15.852 -0.1336  0.2081  0.0582
  614TMC3     C 9152   4.646   0.896  16.069  0.3630  0.1981  0.2395
  614TMC3     O 9153   0.006   0.828  16.093 -0.6494 -0.4808 -0.0640
  614TMC3     H 9154   0.111   1.000  16.148 -1.3880  0.5250  0.4052
  614TMC3    H1 9155   4.519   1.074  15.896 -0.0964  0.4251  2.4907
  614TMC3    H2 9156   0.193   1.143  15.773  0.9678  2.0586  1.4325
  614TMC3    C7 9157   4.688   1.147  15.689 -0.8616  0.2644  0.2523
  614TMC3    C8 9158   0.286   0.998  15.953 -0.1694  0.4993  0.2596
  614TMC3    O1 9159   0.033   1.223  15.633 -0.0912 -0.0416  0.3260
  614TMC3    O2 9160   0.377   1.036  15.886 -0.1572  0.2873 -0.7161
  615MPD2     C 9161   4.329   1.592  16.395 -0.3025 -0.0351 -0.4222
  615MPD2    C1 9162   4.241   1.694  16.377  0.2970  0.4397  0.3007
  615MPD2    C2 9163   4.184   1.719  16.255  0.4978 -0.1948 -0.2974
  615MPD2    C3 9164   4.209   1.634  16.147  0.0550  0.1137  0.1956
  615MPD2    C4 9165   4.302   1.534  16.160  0.2171  0.0164 -0.0861
  615MPD2    C5 9166   4.362   1.516  16.281 -0.4347 -0.4372 -0.6212
  615MPD2     H 9167   4.132   1.814  16.240  0.9689  0.3696  1.6885
  615MPD2    H1 9168   4.335   1.486  16.069  1.8337 -0.2520  0.6524
  615MPD2    H2 9169   4.386   1.577  16.485 -3.0217  0.0488  1.3159
  615MPD2    H3 9170   4.433   1.433  16.279 -2.4120 -2.0956 -1.5158
  615MPD2     N 9171   4.164   1.661  16.016  0.3346 -1.1889 -0.3102
  615MPD2    H5 9172   4.213   1.609  15.945  1.1864 -1.0024  0.1413
  615MPD2    N1 9173   4.185   1.781  16.475  0.1678  0.0218 -0.0270
  615MPD2    H7 9174   4.123   1.857  16.449  1.1684  0.3733 -1.3682
  616TMC3    C1 9175   4.193   1.934  16.658 -0.3277  0.0593 -0.6126
  616TMC3    C2 9176   4.276   2.008  16.728  0.3620  0.0047 -0.7534
  616TMC3    C3 9177   4.237   2.131  16.769  0.0416  0.1376 -0.1050
  616TMC3    C4 9178   4.062   1.973  16.639  0.3088  0.3190  0.1529
  616TMC3    C5 9179   4.015   2.089  16.700 -0.0487  0.2797  0.4333
  616TMC3    C6 9180   4.104   2.167  16.767  0.2402  0.6209 -0.0725
  616TMC3     C 9181   4.245   1.807  16.602  0.7331  0.0503  0.7609
  616TMC3     O 9182   4.344   1.762  16.659  0.4220  0.4178 -0.2618
  616TMC3     H 9183   4.380   1.978  16.730 -0.3595 -2.5690 -0.9627
  616TMC3    H1 9184   3.998   1.913  16.576  0.8042 -0.2252  0.1690
  616TMC3    H2 9185   4.070   2.263  16.804 -0.5033  0.3936 -0.1602
  616TMC3    C7 9186   3.891   2.156  16.656  0.6751  0.1774 -1.0636
  616TMC3    C8 9187   4.325   2.243  16.740 -0.4654 -0.3322  0.2620
  616TMC3    O1 9188   3.858   2.252  16.725 -0.0486  0.1199 -0.0496
  616TMC3    O2 9189   4.276   2.355  16.753  0.5824  0.3481 -0.3816
  617MPD2     C 9190   2.578   4.175  13.712 -0.0792 -0.0679 -0.0696
  617MPD2    C1 9191   2.520   4.072  13.629 -0.0189  0.1041  0.2794
  617MPD2    C2 9192   2.412   4.009  13.682 -0.2814 -0.7615 -0.1675
  617MPD2    C3 9193   2.342   4.047  13.793 -0.3917 -0.2122 -0.2366
  617MPD2    C4 9194   2.395   4.148  13.867  0.3811  0.3525  0.6487
  617MPD2    C5 9195   2.509   4.217  13.827 -0.3915  0.8050 -0.1734
  617MPD2     H 9196   2.375   3.923  13.627  1.6367 -1.1951 -0.7751
  617MPD2    H1 9197   2.343   4.189  13.953 -0.1952  0.4241  0.2661
  617MPD2    H2 9198   2.655   4.245  13.681  0.3961 -0.9232 -0.8108
  617MPD2    H3 9199   2.541   4.302  13.887 -1.9896  1.6445 -0.4985
  617MPD2     N 9200   2.219   3.981  13.839 -0.0843  0.0022  0.1251
  617MPD2    H5 9201   2.184   3.997  13.933 -0.0456  2.2441 -0.2589
  617MPD2    N1 9202   2.578   4.019  13.513  0.1122  0.2305  0.3166
  617MPD2    H7 9203   2.529   3.953  13.453  1.0954 -0.9280  0.7954
  618TMC3    C1 9204   2.703   4.026  13.314 -0.5135  0.8888  0.1748
  618TMC3    C2 9205   2.742   3.894  13.305 -0.2734 -0.0921 -0.8354
  618TMC3    C3 9206   2.790   3.853  13.180  0.0785 -0.5875 -0.2835
  618TMC3    C4 9207   2.713   4.114  13.219 -0.1000  0.0559  0.7638
  618TMC3    C5 9208   2.747   4.062  13.096  0.8053  0.2534 -0.1380
  618TMC3    C6 9209   2.793   3.942  13.076  0.6183  0.3397 -0.9941
  618TMC3     C 9210   2.682   4.082  13.447  0.1759  0.2691  0.1528
  618TMC3     O 9211   2.757   4.176  13.470 -0.1498  0.2041  0.1737
  618TMC3     H 9212   2.758   3.832  13.393 -0.3133 -0.8793 -1.3776
  618TMC3    H1 9213   2.661   4.208  13.231  0.4823  0.6637 -1.3540
  618TMC3    H2 9214   2.807   3.915  12.972 -1.8491  0.5347 -1.3676
  618TMC3    C7 9215   2.700   4.142  12.986 -0.0294 -0.2443 -1.1967
  618TMC3    C8 9216   2.848   3.718  13.178 -0.1406 -0.5444 -0.5700
  618TMC3    O1 9217   2.760   4.249  12.979 -0.1867  0.6887  0.4441
  618TMC3    O2 9218   2.806   3.637  13.252 -0.2414 -0.0696  0.2703
  619MPD2     C 9219   4.131   0.701  13.580  0.3273  0.5183 -0.4381
  619MPD2    C1 9220   4.054   0.795  13.510 -0.8168 -0.7074 -0.0709
  619MPD2    C2 9221   3.916   0.774  13.501 -0.0561 -0.2184 -0.8475
  619MPD2    C3 9222   3.854   0.666  13.557  0.5693 -0.2203 -0.0636
  619MPD2    C4 9223   3.930   0.579  13.637 -0.3736  0.1451  0.1430
  619MPD2    C5 9224   4.070   0.597  13.633  0.1291  0.0599 -0.2287
  619MPD2     H 9225   3.855   0.852  13.458  2.0976  1.6401 -0.5675
  619MPD2    H1 9226   3.891   0.485  13.675 -2.0095  1.3773  1.5144
  619MPD2    H2 9227   4.237   0.708  13.599  0.2328  0.4091  0.1418
  619MPD2    H3 9228   4.128   0.523  13.687 -1.3904  0.3705  1.8417
  619MPD2     N 9229   3.714   0.651  13.549 -0.2563  0.1758 -0.0095
  619MPD2    H5 9230   3.684   0.583  13.618  1.5227 -0.5725  0.0495
  619MPD2    N1 9231   4.115   0.900  13.440  0.5999 -0.0839 -0.2080
  619MPD2    H7 9232   4.057   0.980  13.419 -0.8169 -1.2257 -0.6646
  620TMC3    C1 9233   4.273   1.025  13.336 -0.4749  0.8503 -0.2993
  620TMC3    C2 9234   4.178   1.055  13.246 -0.4545 -0.4419  0.0464
  620TMC3    C3 9235   4.171   1.182  13.210  0.3083  0.1209  0.2875
  620TMC3    C4 9236   4.375   1.109  13.378  0.5814 -0.4088  0.7225
  620TMC3    C5 9237   4.359   1.234  13.335  0.7460  0.5930  0.2266
  620TMC3    C6 9238   4.254   1.273  13.255  0.7757 -0.3498  0.5512
  620TMC3     C 9239   4.243   0.904  13.400  0.2351 -0.7922 -0.7631
  620TMC3     O 9240   4.339   0.842  13.442 -0.3114 -0.5996  0.3264
  620TMC3     H 9241   4.112   0.977  13.212  0.0128 -0.3253 -1.1257
  620TMC3    H1 9242   4.459   1.078  13.439  0.8116  1.2387  1.2378
  620TMC3    H2 9243   4.240   1.377  13.231  0.6320 -0.3327  0.7139
  620TMC3    C7 9244   4.383   1.335  13.434 -0.8015  0.0148 -0.5862
  620TMC3    C8 9245   4.043   1.235  13.173 -0.3743  0.0464  0.3391
  620TMC3    O1 9246   4.486   1.400  13.429  0.3208  0.4174 -0.0031
  620TMC3    O2 9247   4.004   1.344  13.220  0.2382  0.2804 -0.2743
  621MPD2     C 9248   4.409   0.653  10.628  0.1620  0.2398  0.0104
  621MPD2    C1 9249   4.326   0.719  10.545  0.1484  0.1371 -0.2235
  621MPD2    C2 9250   4.379   0.796  10.444  0.1517 -0.2244  0.7173
  621MPD2    C3 9251   4.514   0.834  10.441  0.0651 -0.1049 -0.4225
  621MPD2    C4 9252   4.596   0.780  10.537 -0.0453  0.2054 -0.4219
  621MPD2    C5 9253   4.547   0.693  10.628 -0.3222 -0.1190  0.2541
  621MPD2     H 9254   4.316   0.839  10.367 -3.0267 -1.0856  2.8104
  621MPD2    H1 9255   4.703   0.798  10.539 -0.2274  1.5517 -2.5011
  621MPD2    H2 9256   4.381   0.571  10.694  0.5391  1.5304  1.7887
  621MPD2    H3 9257   4.616   0.638  10.691 -0.9115 -0.8169  0.2954
  621MPD2     N 9258   4.549   0.924  10.344  0.4650 -0.1363  0.3617
  621MPD2    H5 9259   4.471   0.971  10.298  0.0451 -2.5326 -1.3578
  621MPD2    N1 9260   4.191   0.683  10.527 -0.0397 -0.6459  0.4240
  621MPD2    H7 9261   4.151   0.741  10.454  0.8259 -1.7237 -0.9033
  622TMC3    C1 9262   3.978   0.597  10.588 -0.4136  0.5666 -0.3590
  622TMC3    C2 9263   3.878   0.607  10.683 -0.2431 -0.6548 -0.6410
  622TMC3    C3 9264   3.749   0.604  10.641  0.3568  0.6732 -0.0091
  622TMC3    C4 9265   3.955   0.600  10.453  0.2222 -0.5381  0.9875
  622TMC3    C5 9266   3.823   0.606  10.414  0.0350 -0.0330 -0.7285
  622TMC3    C6 9267   3.724   0.620  10.508  0.6639 -0.1125  0.1884
  622TMC3     C 9268   4.120   0.612  10.619 -0.3491  0.2459  0.8642
  622TMC3     O 9269   4.148   0.585  10.737  0.2269 -0.1620 -0.2028
  622TMC3     H 9270   3.904   0.614  10.788  1.3010  0.1487 -1.0747
  622TMC3    H1 9271   4.025   0.580  10.373 -1.6704  2.4240 -1.3691
  622TMC3    H2 9272   3.623   0.620  10.467  0.4965  0.5093  0.5902
  622TMC3    C7 9273   3.779   0.619  10.266  0.3659  0.4959 -0.2790
  622TMC3    C8 9274   3.643   0.640  10.736  0.6003 -0.1331 -0.5810
  622TMC3    O1 9275   3.667   0.590  10.230 -0.5245 -0.6555 -0.2906
  622TMC3    O2 9276   3.605   0.551  10.813  0.7861  0.1570  0.4750
  623MPD2     C 9277   2.773   2.081  15.795  0.2529 -0.2883  0.4218
  623MPD2    C1 9278   2.691   2.025  15.892 -0.3533 -0.5664 -0.4705
  623MPD2    C2 9279   2.720   2.039  16.029 -0.1154  0.0724 -0.1687
  623MPD2    C3 9280   2.820   2.124  16.070  0.6502 -0.0790  0.0784
  623MPD2    C4 9281   2.904   2.183  15.971  0.1439 -0.1953  0.4209
  623MPD2    C5 9282   2.880   2.160  15.836  0.3665 -0.2923  0.5539
  623MPD2     H 9283   2.643   1.997  16.093 -0.8253  1.1678 -0.3122
  623MPD2    H1 9284   2.992   2.237  16.004  0.1771  0.2341 -0.3636
  623MPD2    H2 9285   2.762   2.063  15.688 -2.0561 -1.1981  0.8167
  623MPD2    H3 9286   2.947   2.200  15.761 -1.9097  0.8720 -0.8359
  623MPD2     N 9287   2.847   2.139  16.205  0.0224  0.2923  0.2773
  623MPD2    H5 9288   2.778   2.092  16.264 -0.7482  1.5413  0.3753
  623MPD2    N1 9289   2.583   1.936  15.862 -0.5124  0.2179 -0.5729
  623MPD2    H7 9290   2.521   1.916  15.940  0.4644 -0.9620 -0.0979
  624TMC3    C1 9291   3.105   2.133  16.588  0.4463  0.0701  0.3264
  624TMC3    C2 9292   3.000   2.149  16.672 -0.1892  0.1813  0.4630
  624TMC3    C3 9293   2.878   2.187  16.625  0.3083  0.4573 -0.3030
  624TMC3    C4 9294   3.088   2.150  16.454 -0.8555 -0.7354  0.7351
  624TMC3    C5 9295   2.970   2.185  16.408  0.3819  0.9974  0.3740
  624TMC3    C6 9296   2.863   2.203  16.492 -0.7300  0.1201 -0.3380
  624TMC3     C 9297   3.227   2.086  16.635  0.5809 -0.0108 -0.4966
  624TMC3     O 9298   3.274   2.129  16.738 -0.2405 -0.0526 -0.4030
  624TMC3     H 9299   3.016   2.123  16.776  3.7999  1.5022  0.1808
  624TMC3    H1 9300   3.169   2.130  16.385 -1.4195 -0.8347  0.1015
  624TMC3    H2 9301   2.769   2.232  16.445  1.5867  4.2332 -2.4349
  624TMC3    C7 9302   2.953   2.204  16.261 -0.5619 -0.4362 -0.0658
  624TMC3    C8 9303   2.760   2.166  16.702 -0.6698  0.7461  0.2150
  624TMC3    O1 9304   3.050   2.257  16.212  0.2600 -0.0563  0.5031
  624TMC3    O2 9305   2.663   2.113  16.642 -0.5153 -0.3115 -0.2052
  625MPD2     C 9306   3.020   3.212   0.694  0.4869  0.0448 -0.1221
  625MPD2    C1 9307   3.067   3.341   0.679  0.1382 -1.0052  0.8331
  625MPD2    C2 9308   3.198   3.368   0.727  0.3295 -0.3091  0.2425
  625MPD2    C3 9309   3.281   3.276   0.781  0.3224  0.6100  0.0511
  625MPD2    C4 9310   3.226   3.152   0.795  0.9150  0.3028 -0.2202
  625MPD2    C5 9311   3.102   3.119   0.748  1.0860  0.7245  0.0336
  625MPD2     H 9312   3.230   3.469   0.706 -1.8625  0.3669  0.1381
  625MPD2    H1 9313   3.287   3.069   0.830 -0.0538  0.5920  2.1971
  625MPD2    H2 9314   2.924   3.174   0.663 -0.4093  2.3869 -0.1964
  625MPD2    H3 9315   3.074   3.014   0.742  1.6342  0.5270  0.8173
  625MPD2     N 9316   3.419   3.306   0.806  0.0922 -0.0868 -0.0586
  625MPD2    H5 9317   3.446   3.399   0.776 -0.8616 -0.3640 -1.7792
  625MPD2    N1 9318   2.988   3.449   0.626  0.1806 -0.4878  0.1832
  625MPD2    H7 9319   3.013   3.544   0.654  0.0897 -0.0091 -1.3212
  626TMC3    C1 9320   2.799   3.544   0.517  0.4658  0.0525  0.4573
  626TMC3    C2 9321   2.732   3.532   0.397 -0.0719  0.2245  0.2629
  626TMC3    C3 9322   2.636   3.629   0.378  0.2759  0.1184 -0.4989
  626TMC3    C4 9323   2.772   3.631   0.615  0.7548  0.0354 -0.3075
  626TMC3    C5 9324   2.677   3.730   0.581 -0.1507  0.0122 -0.0147
  626TMC3    C6 9325   2.602   3.729   0.464 -0.4755  0.1336 -0.8324
  626TMC3     C 9326   2.888   3.429   0.540 -0.9510 -0.2077 -0.2800
  626TMC3     O 9327   2.846   3.330   0.490  0.3881 -0.2321 -0.1732
  626TMC3     H 9328   2.750   3.462   0.317 -4.7078 -0.0028 -0.5690
  626TMC3    H1 9329   2.814   3.634   0.715  0.4532  0.6406 -0.2049
  626TMC3    H2 9330   2.524   3.797   0.431  0.0221  1.1096  0.0196
  626TMC3    C7 9331   2.657   3.835   0.687  0.2688  0.5387  0.3385
  626TMC3    C8 9332   2.594   3.649   0.237  0.5605  0.0222 -0.7539
  626TMC3    O1 9333   2.738   3.837   0.781 -0.2003  1.2187 -0.0681
  626TMC3    O2 9334   2.539   3.557   0.179 -0.1409 -0.1549 -0.5865
  627MPD2     C 9335   2.180   2.793  14.536  0.3589  0.2298 -0.5270
  627MPD2    C1 9336   2.125   2.919  14.544  0.7205  0.0761  0.1608
  627MPD2    C2 9337   2.009   2.940  14.475 -0.5891  0.0032  0.0154
  627MPD2    C3 9338   1.952   2.843  14.389  0.2294 -0.2175  0.3327
  627MPD2    C4 9339   2.021   2.733  14.369  0.5482  0.4253 -0.4593
  627MPD2    C5 9340   2.131   2.709  14.441  0.6625  0.7564  0.7300
  627MPD2     H 9341   1.952   3.029  14.497 -1.9852 -0.6897 -0.8621
  627MPD2    H1 9342   1.997   2.662  14.290  0.9773 -1.0103  0.7015
  627MPD2    H2 9343   2.266   2.770  14.599 -0.0041  2.4556  0.8040
  627MPD2    H3 9344   2.182   2.616  14.420  1.3036  0.8650  1.8088
  627MPD2     N 9345   1.811   2.849  14.359  0.0624 -0.4812  0.7739
  627MPD2    H5 9346   1.761   2.938  14.357 -0.4264 -0.8122 -1.7984
  627MPD2    N1 9347   2.166   3.014  14.639  0.0895 -0.0998  0.0671
  627MPD2    H7 9348   2.113   3.100  14.647 -1.2040 -0.7729 -1.2646
  628TMC3    C1 9349   2.288   3.104  14.812 -0.4057 -0.0936  0.4787
  628TMC3    C2 9350   2.317   3.078  14.945 -0.2035  0.3954  0.0684
  628TMC3    C3 9351   2.332   3.193  15.023 -0.3303  0.5265  0.6688
  628TMC3    C4 9352   2.266   3.228  14.763  0.0729  0.2311  0.1594
  628TMC3    C5 9353   2.267   3.335  14.844  0.2026  0.1197 -0.7278
  628TMC3    C6 9354   2.312   3.318  14.970  0.4586 -0.6928  0.1048
  628TMC3     C 9355   2.274   2.992  14.724  0.0558  0.0988  0.3953
  628TMC3     O 9356   2.341   2.894  14.749  0.0358 -0.2539 -0.1340
  628TMC3     H 9357   2.333   2.982  14.993  1.5345  1.4362  1.6037
  628TMC3    H1 9358   2.245   3.243  14.658  2.2028  0.4495 -0.2271
  628TMC3    H2 9359   2.306   3.405  15.033  0.4493  0.8263 -1.9884
  628TMC3    C7 9360   2.268   3.468  14.786  0.8799 -0.3814 -0.1975
  628TMC3    C8 9361   2.451   3.197  15.106  0.4443  0.1218  0.1080
  628TMC3    O1 9362   2.304   3.552  14.865 -0.0234 -0.1967 -0.3012
  628TMC3    O2 9363   2.495   3.090  15.141 -0.0745  0.1985 -0.1851
  629MPD2     C 9364   0.006   2.453  16.540  0.0879  0.2305  0.2453
  629MPD2    C1 9365   0.039   2.327  16.560  0.2967  0.3236 -1.1030
  629MPD2    C2 9366   4.672   2.253  16.624 -0.7660  0.2970  0.2644
  629MPD2    C3 9367   4.544   2.296  16.643  1.0814  0.2246  0.0468
  629MPD2    C4 9368   4.516   2.429  16.606 -0.2878 -0.1530  0.0668
  629MPD2    C5 9369   4.621   2.509  16.559  0.5717 -0.3857 -0.6518
  629MPD2     H 9370   4.704   2.162  16.671 -1.9035 -0.1952  0.0887
  629MPD2    H1 9371   4.420   2.473  16.632 -1.2266 -1.6232 -0.8880
  629MPD2    H2 9372   0.082   2.525  16.512 -0.2397  0.2807 -0.5216
  629MPD2    H3 9373   4.598   2.614  16.549 -0.0344 -0.4749 -0.1778
  629MPD2     N 9374   4.454   2.206  16.706 -0.4488 -0.2132  0.4602
  629MPD2    H5 9375   4.483   2.109  16.708  0.5371  0.0617 -0.8914
  629MPD2    N1 9376   0.176   2.271  16.547 -0.3352  0.3059  0.3739
  629MPD2    H7 9377   0.181   2.175  16.579 -0.7258  0.5750  1.2534
  630TMC3    C1 9378   0.402   2.252  16.476 -0.0741 -0.3053 -0.6657
  630TMC3    C2 9379   0.509   2.300  16.398 -0.1684  0.0619  1.0780
  630TMC3    C3 9380   0.641   2.275  16.443 -0.0052 -0.4263 -0.2081
  630TMC3    C4 9381   0.428   2.167  16.580  0.1050 -0.1183 -0.6561
  630TMC3    C5 9382   0.559   2.150  16.620 -0.0845 -0.1976  1.1645
  630TMC3    C6 9383   0.667   2.195  16.555 -0.3327  0.2442  0.0055
  630TMC3     C 9384   0.280   2.324  16.477 -0.3321 -0.4263  0.7196
  630TMC3     O 9385   0.274   2.425  16.403 -0.3875 -0.3842  0.9104
  630TMC3     H 9386   0.497   2.369  16.315  1.4671  0.2024  0.9518
  630TMC3    H1 9387   0.354   2.133  16.651  0.5183  0.8980  0.2722
  630TMC3    H2 9388   0.766   2.168  16.590 -0.3101 -0.4023 -0.5660
  630TMC3    C7 9389   0.582   2.086  16.751  0.1963  0.0079  0.2918
  630TMC3    C8 9390   0.760   2.345  16.394 -0.6884  0.0331  0.2503
  630TMC3    O1 9391   0.498   2.010  16.800  0.0705  1.1453 -0.2263
  630TMC3    O2 9392   0.849   2.368  16.479  0.2933 -0.5090 -0.2679
  631MPD2     C 9393   4.008   1.616  15.033  0.0592  0.4046  0.1551
  631MPD2    C1 9394   3.933   1.721  15.085 -0.0254  0.3509 -0.5438
  631MPD2    C2 9395   3.946   1.753  15.222  0.1869 -0.1455 -0.5186
  631MPD2    C3 9396   4.031   1.673  15.299  0.0354  0.0616  0.9378
  631MPD2    C4 9397   4.094   1.566  15.247  0.2698  0.0570 -0.2975
  631MPD2    C5 9398   4.084   1.539  15.113 -1.2329  0.2126  0.9879
  631MPD2     H 9399   3.897   1.840  15.266 -1.4461 -1.5073  0.3705
  631MPD2    H1 9400   4.162   1.500  15.300 -0.7924 -0.6538  0.1868
  631MPD2    H2 9401   4.008   1.601  14.925  0.0760 -2.4278  0.5617
  631MPD2    H3 9402   4.149   1.460  15.079 -0.6033  0.8010  0.8290
  631MPD2     N 9403   4.066   1.729  15.424  0.4325 -0.3235 -0.0192
  631MPD2    H5 9404   4.042   1.827  15.437 -1.0536 -0.4478 -1.8491
  631MPD2    N1 9405   3.842   1.797  15.004  0.4832  0.5266  0.1555
  631MPD2    H7 9406   3.849   1.800  14.903 -3.9379 -1.7179 -0.2337
  632TMC3    C1 9407   3.641   1.914  14.944  0.7270  0.1928  0.0443
  632TMC3    C2 9408   3.517   1.956  14.987 -0.5887  0.6269  0.1221
  632TMC3    C3 9409   3.455   2.065  14.933  0.7185 -0.3415  0.3324
  632TMC3    C4 9410   3.688   1.976  14.826 -0.6300 -0.1638  0.5063
  632TMC3    C5 9411   3.614   2.073  14.765  0.1398  0.1760  0.0984
  632TMC3    C6 9412   3.497   2.113  14.814  0.0951 -0.1233  0.7621
  632TMC3     C 9413   3.730   1.860  15.048  0.3091 -0.0818  1.0535
  632TMC3     O 9414   3.695   1.891  15.161  0.1508  0.2563  0.1900
  632TMC3     H 9415   3.474   1.923  15.081 -1.8594  0.7293 -0.4247
  632TMC3    H1 9416   3.782   1.946  14.782  0.6600 -1.0097  3.8565
  632TMC3    H2 9417   3.439   2.181  14.753 -1.7600 -0.7847  1.7820
  632TMC3    C7 9418   3.679   2.154  14.665 -0.4893  0.1833 -0.1425
  632TMC3    C8 9419   3.325   2.097  14.986 -0.0252 -1.2576 -0.0957
  632TMC3    O1 9420   3.612   2.214  14.579  0.6035  0.2120  0.2689
  632TMC3    O2 9421   3.260   2.007  15.037  0.2500 -0.4378  0.1821
  633MPD2     C 9422   3.055   4.576  17.485 -0.5813 -0.2305 -0.1738
  633MPD2    C1 9423   3.018   4.520  17.364  0.5624 -0.4675  0.0247
  633MPD2    C2 9424   3.001   4.385  17.362 -0.1192  0.0484 -0.5385
  633MPD2    C3 9425   3.037   4.301  17.462 -0.1473  0.3209 -0.2284
  633MPD2    C4 9426   3.090   4.358  17.579 -0.0751  0.5739  0.5192
  633MPD2    C5 9427   3.098   4.495  17.585  0.4504 -0.6946 -0.4103
  633MPD2     H 9428   2.970   4.350  17.264 -1.3765  1.0405 -0.5087
  633MPD2    H1 9429   3.125   4.295  17.659  0.4819 -0.5604 -0.6188
  633MPD2    H2 9430   3.069   4.684  17.488 -0.8121 -0.2355  0.9661
  633MPD2    H3 9431   3.135   4.544  17.674  1.7865 -0.4045 -1.1284
  633MPD2     N 9432   3.026   4.163  17.452  0.2560 -0.1345 -0.0049
  633MPD2    H5 9433   3.068   4.108  17.525 -0.5669  1.5591  1.7555
  633MPD2    N1 9434   2.990   4.588  17.241 -0.7548  0.0173  0.2515
  633MPD2    H7 9435   2.952   4.533  17.165  0.1583 -0.5872  0.2356
  634TMC3    C1 9436   2.999   0.003  17.062 -0.5493 -0.7923 -0.2958
  634TMC3    C2 9437   3.054   4.656  16.975 -0.5377  0.5824  0.3763
  634TMC3    C3 9438   3.058   4.690  16.844 -0.5746  0.2959 -0.2447
  634TMC3    C4 9439   2.972   0.131  17.030 -0.1623  0.1324 -0.3802
  634TMC3    C5 9440   2.988   0.167  16.897 -0.4491  0.4927 -0.8074
  634TMC3    C6 9441   3.026   0.077  16.808  0.5837  0.8248 -0.1134
  634TMC3     C 9442   3.012   4.717  17.210  0.4991  0.1320  0.3490
  634TMC3     O 9443   3.029   0.071  17.289 -0.2591  0.0411 -0.7610
  634TMC3     H 9444   3.083   4.555  17.000  0.8182  1.1541  1.1005
  634TMC3    H1 9445   2.939   0.198  17.109 -3.2764 -3.4940  1.3683
  634TMC3    H2 9446   3.022   0.111  16.705  0.1750 -1.5653 -0.8860
  634TMC3    C7 9447   2.950   0.298  16.854  0.9968  0.0445 -0.2549
  634TMC3    C8 9448   3.063   4.583  16.746 -0.0265 -0.2589  0.2572
  634TMC3    O1 9449   2.998   0.333  16.748  0.6444  0.0198  0.1295
  634TMC3    O2 9450   3.015   4.477  16.785 -0.3221  0.0682  0.0314
  635TMC3    C1 9451   3.801   1.709  17.718  0.5403  0.1437 -0.5624
  635TMC3    C2 9452   3.864   1.647  17.610 -0.3921 -0.2407 -0.2267
  635TMC3    C3 9453   3.792   1.555  17.538  0.4933 -0.6508  0.4272
  635TMC3    C4 9454   3.686   1.646   0.019 -0.2641 -0.7480  0.0436
  635TMC3    C5 9455   3.614   1.560  17.689  0.2515  0.0562  0.3122
  635TMC3    C6 9456   3.673   1.515  17.571  0.3963  0.3645 -0.4692
  635TMC3     C 9457   3.853   1.826   0.040 -0.6885 -0.0962 -0.2066
  635TMC3     O 9458   3.806   1.859   0.148  0.0036  0.6242 -0.0090
  635TMC3     H 9459   3.954   1.691  17.568 -1.7437  2.1586 -0.6424
  635TMC3    H1 9460   3.639   1.681   0.110  1.0186  0.7967  0.1173
  635TMC3    H2 9461   3.613   1.458  17.501 -0.6884  0.8944  0.0233
  635TMC3    C7 9462   3.478   1.518  17.733  0.9489 -0.0175  0.6545
  635TMC3    C8 9463   3.834   1.535  17.400  0.0100 -0.2760  0.0591
  635TMC3    O1 9464   3.448   1.556   0.097 -0.5300  0.1810 -0.4448
  635TMC3    O2 9465   3.743   1.503  17.325  0.4543  0.1182  0.4546
  636MPD2     C 9466   4.217   0.392  15.667  0.8668  0.3949 -0.2088
  636MPD2    C1 9467   4.235   0.424  15.800 -0.7652 -0.0001  0.1210
  636MPD2    C2 9468   4.336   0.365  15.880  0.3586  0.4888  0.3905
  636MPD2    C3 9469   4.424   0.280  15.820  0.7953 -0.7852 -0.1118
  636MPD2    C4 9470   4.412   0.248  15.689 -0.9286 -0.0499  0.3420
  636MPD2    C5 9471   4.305   0.302  15.614  0.1924  0.4469 -0.3318
  636MPD2     H 9472   4.351   0.392  15.984  0.3601  0.0069  0.5180
  636MPD2    H1 9473   4.486   0.188  15.639  0.7532  1.7199  0.7269
  636MPD2    H2 9474   4.145   0.429  15.595  0.1392  0.0822  0.3543
  636MPD2    H3 9475   4.284   0.275  15.511 -1.7050 -0.0470  0.1798
  636MPD2     N 9476   4.525   0.232  15.908  0.0038  0.2808  0.1314
  636MPD2    H5 9477   4.522   0.263  16.005  0.0849  1.8086 -0.3569
  636MPD2    N1 9478   4.164   0.528  15.861  0.0370  0.5641 -0.0889
  636MPD2    H7 9479   4.179   0.543  15.960 -0.8820 -2.7565  0.5403
  637TMC3    C1 9480   4.717   0.132  15.991 -0.4227 -0.0632 -0.3721
  637TMC3    C2 9481   4.633   0.119  16.095  0.2992  0.8422  0.2051
  637TMC3    C3 9482   4.661   0.189  16.208 -0.3368 -0.2103 -0.1183
  637TMC3    C4 9483   0.098   0.205  16.000 -0.2146 -0.8173  0.5374
  637TMC3    C5 9484   0.131   0.259  16.120  1.0193  0.4654  0.1515
  637TMC3    C6 9485   0.042   0.255  16.227  0.1038  0.3324  0.3917
  637TMC3     C 9486   4.636   0.162  15.873  0.8065  0.2939 -0.0957
  637TMC3     O 9487   4.678   0.125  15.764 -0.0371  0.3954 -0.6177
  637TMC3     H 9488   4.548   0.054  16.073  0.3274  0.4590  1.2508
  637TMC3    H1 9489   0.157   0.225  15.911  0.6107  2.4176  1.8518
  637TMC3    H2 9490   0.061   0.303  16.322  1.2974  1.6098 -0.4907
  637TMC3    C7 9491   0.174   0.394  16.107  0.5360  0.4705 -1.0699
  637TMC3    C8 9492   4.542   0.266  16.227 -0.0471 -0.1021  0.6579
  637TMC3    O1 9493   0.086   0.473  16.117  1.2294  0.3891 -0.2738
  637TMC3    O2 9494   4.433   0.219  16.210 -0.0936  0.0012 -0.0874
  638MPD2     C 9495   0.017   3.685  14.916  1.0961 -0.7415 -0.3552
  638MPD2    C1 9496   4.638   3.623  14.873 -0.5999 -0.2474  0.1297
  638MPD2    C2 9497   4.596   3.507  14.935 -0.0354  0.3707  0.4005
  638MPD2    C3 9498   4.666   3.449  15.036 -0.2755 -0.5561  0.3264
  638MPD2    C4 9499   0.050   3.511  15.071 -0.7396  0.2598  0.3956
  638MPD2    C5 9500   0.087   3.629  15.013 -0.0742 -0.4727  0.0170
  638MPD2     H 9501   4.499   3.462  14.914  1.0771 -2.8646  2.2960
  638MPD2    H1 9502   0.121   3.470  15.141 -3.5800 -2.5865  1.6346
  638MPD2    H2 9503   0.055   3.777  14.871 -1.8137 -0.1842 -1.6673
  638MPD2    H3 9504   0.179   3.676  15.044  0.2013 -1.4198  0.6335
  638MPD2     N 9505   4.623   3.329  15.096 -0.9001 -0.4740 -0.0501
  638MPD2    H5 9506   4.553   3.280  15.042 -0.0152 -1.0997 -0.6279
  638MPD2    N1 9507   4.569   3.683  14.767  0.1555 -0.3240 -0.3477
  638MPD2    H7 9508   4.628   3.754  14.723 -1.4873  1.3951  0.2268
  639TMC3    C1 9509   4.642   3.129  15.213 -0.1238  0.2125  0.2395
  639TMC3    C2 9510   4.530   3.091  15.142 -0.1973 -0.7380 -0.4603
  639TMC3    C3 9511   4.535   2.962  15.085  0.2427  0.2507  0.2100
  639TMC3    C4 9512   0.014   3.040  15.226  0.0098 -0.2784  0.1348
  639TMC3    C5 9513   0.005   2.911  15.166 -0.1963 -0.1926  0.2170
  639TMC3    C6 9514   4.634   2.869  15.098  0.4421  0.0535  0.3005
  639TMC3     C 9515   4.676   3.268  15.206  0.2426  0.1400 -0.4458
  639TMC3     O 9516   0.007   3.315  15.293  0.0356 -0.4208  0.1110
  639TMC3     H 9517   4.434   3.142  15.151  0.5406  0.8109 -1.2969
  639TMC3    H1 9518   0.106   3.073  15.272  0.6931 -0.6259 -0.9902
  639TMC3    H2 9519   4.623   2.778  15.040 -0.7982  0.6241 -0.3648
  639TMC3    C7 9520   0.134   2.866  15.113  0.0274  0.4645 -0.4350
  639TMC3    C8 9521   4.470   2.960  14.955 -0.0299  0.2248 -0.2736
  639TMC3    O1 9522   0.227   2.907  15.184  0.2013  0.0884 -0.3471
  639TMC3    O2 9523   4.503   2.879  14.875 -0.1991 -0.1699  0.2366
  640MPD2     C 9524   4.635   2.567   9.838  0.3803 -0.5028 -0.8655
  640MPD2    C1 9525   4.694   2.678   9.777 -0.6217  0.2469  0.4967
  640MPD2    C2 9526   4.644   2.803   9.799 -0.0371 -0.0798  0.5902
  640MPD2    C3 9527   4.523   2.820   9.870  0.0741  0.2206  0.6809
  640MPD2    C4 9528   4.452   2.707   9.907  1.1305 -0.0143 -0.1982
  640MPD2    C5 9529   4.507   2.585   9.889 -0.1238  1.0479 -0.0148
  640MPD2     H 9530   4.700   2.893   9.777 -1.3749  0.8160  0.8521
  640MPD2    H1 9531   4.357   2.716   9.958  1.0181 -0.4894 -0.3240
  640MPD2    H2 9532   4.657   2.462   9.822  0.7647 -0.4599 -0.6096
  640MPD2    H3 9533   4.459   2.499   9.933  0.8159  2.3782  3.5430
  640MPD2     N 9534   4.458   2.941   9.895 -0.7232  0.7447  0.1913
  640MPD2    H5 9535   4.363   2.922   9.924 -0.0803 -1.4171  0.8550
  640MPD2    N1 9536   0.084   2.653   9.712  0.8895  1.0035 -0.2179
  640MPD2    H7 9537   0.124   2.560   9.721  2.0995  1.5835  0.4571
  641TMC3    C1 9538   0.280   2.708   9.591  0.3333 -0.3184  0.0480
  641TMC3    C2 9539   0.350   2.599   9.643 -0.2763  0.8633 -0.0528
  641TMC3    C3 9540   0.476   2.571   9.593 -0.1634  0.2348 -0.1881
  641TMC3    C4 9541   0.324   2.788   9.495 -0.8552  0.2003  0.0520
  641TMC3    C5 9542   0.454   2.756   9.449 -0.3467 -0.7389 -0.1850
  641TMC3    C6 9543   0.529   2.651   9.494 -0.3491  0.0154 -0.1910
  641TMC3     C 9544   0.144   2.746   9.631  0.0399 -0.2137 -1.2859
  641TMC3     O 9545   0.100   2.852   9.597 -0.6652  0.0372 -0.2991
  641TMC3     H 9546   0.322   2.545   9.732 -0.1115  3.8042  1.7926
  641TMC3    H1 9547   0.258   2.853   9.439 -0.1693  0.7970 -0.0624
  641TMC3    H2 9548   0.628   2.629   9.456  0.0319 -0.6786  1.1855
  641TMC3    C7 9549   0.497   2.796   9.326  0.3943  0.0515  0.2568
  641TMC3    C8 9550   0.558   2.481   9.668 -0.0109 -0.9801 -0.2207
  641TMC3    O1 9551   0.554   2.717   9.247 -0.4761 -0.3205  0.1828
  641TMC3    O2 9552   0.498   2.385   9.714 -0.6184  0.0240  0.3883
  642TMC3    C1 9553   1.129   3.570  12.207  0.0324  0.5925 -0.0226
  642TMC3    C2 9554   1.230   3.598  12.116 -0.6158  0.2798 -0.0547
  642TMC3    C3 9555   1.223   3.537  12.001 -0.8368  0.3507 -0.6686
  642TMC3    C4 9556   1.047   3.472  12.194  0.1225 -0.1954  0.4466
  642TMC3    C5 9557   1.052   3.399  12.085  0.3815  0.5824  0.3613
  642TMC3    C6 9558   1.141   3.427  11.987  0.1719  0.0623  0.1607
  642TMC3     C 9559   1.112   3.665  12.317  0.1852  0.0722  0.4662
  642TMC3     O 9560   1.199   3.747  12.330 -0.3853  0.2007  0.5627
  642TMC3     H 9561   1.280   3.694  12.126  1.4467 -0.6842 -1.1729
  642TMC3    H1 9562   0.978   3.436  12.270 -1.9712 -0.2191 -1.4560
  642TMC3    H2 9563   1.147   3.360  11.902  1.6374  1.3060 -0.7244
  642TMC3    C7 9564   1.008   3.261  12.087 -0.0546 -0.5310 -0.0605
  642TMC3    C8 9565   1.344   3.534  11.924 -0.2355  0.2744  0.5462
  642TMC3    O1 9566   0.948   3.225  11.983  0.6290 -0.1500  0.3664
  642TMC3    O2 9567   1.327   3.494  11.810  0.2881  0.0742 -0.0075
  643TMC3    C1 9568   0.436   3.161   0.360  0.0559  0.6609 -0.6371
  643TMC3    C2 9569   0.305   3.211   0.364 -0.0262 -0.1351 -0.4865
  643TMC3    C3 9570   0.215   3.161   0.278  0.2122 -0.6661  0.8100
  643TMC3    C4 9571   0.475   3.086   0.253 -0.4542 -0.7719 -0.3928
  643TMC3    C5 9572   0.388   3.056   0.157 -0.2707 -0.8444  0.0706
  643TMC3    C6 9573   0.254   3.089   0.168 -0.3637  0.1645 -0.4414
  643TMC3     C 9574   0.524   3.240   0.444  0.0886  0.3040  0.7993
  643TMC3     O 9575   0.479   3.350   0.477  0.2117  0.4811 -0.3716
  643TMC3     H 9576   0.265   3.252   0.456 -1.5106 -0.5701 -0.9477
  643TMC3    H1 9577   0.578   3.052   0.250 -0.2781 -0.2022 -0.9966
  643TMC3    H2 9578   0.190   3.036   0.098 -0.3245  0.4474 -0.6908
  643TMC3    C7 9579   0.431   2.985   0.031  0.8166 -0.7788  0.6819
  643TMC3    C8 9580   0.090   3.236   0.265  0.1289 -1.2200 -0.5341
  643TMC3    O1 9581   0.338   2.936  17.711  0.1860 -0.2065  0.0282
  643TMC3    O2 9582   0.003   3.185   0.197  0.0907  0.0693 -0.1655
  644MPD2     C 9583   1.208   2.988   9.073  0.3122 -0.6530  0.0053
  644MPD2    C1 9584   1.211   2.964   9.204 -0.3159  0.3483 -0.0794
  644MPD2    C2 9585   1.128   2.868   9.255  0.1969  0.7985  0.3540
  644MPD2    C3 9586   1.041   2.793   9.178 -0.2459 -0.2118  0.0918
  644MPD2    C4 9587   1.040   2.824   9.040  0.2185  0.1072  1.8286
  644MPD2    C5 9588   1.133   2.914   8.989 -0.0796 -0.2881  0.2022
  644MPD2     H 9589   1.153   2.825   9.351 -1.6765 -0.0668  0.4598
  644MPD2    H1 9590   0.983   2.775   8.962 -0.3116  0.5513  1.9346
  644MPD2    H2 9591   1.281   3.056   9.031 -1.3262  1.0363 -0.1106
  644MPD2    H3 9592   1.150   2.937   8.884 -0.9499 -0.9810 -0.0930
  644MPD2     N 9593   0.971   2.685   9.227  0.1568 -0.3356 -0.0658
  644MPD2    H5 9594   0.994   2.660   9.323 -0.6609 -0.9246 -0.0202
  644MPD2    N1 9595   1.314   3.029   9.280 -0.3942  0.4044 -0.1851
  644MPD2    H7 9596   1.381   3.090   9.233 -0.1468  0.5586  0.3715
  645TMC3    C1 9597   0.839   2.480   9.231  0.2131  0.0042  0.3210
  645TMC3    C2 9598   0.708   2.445   9.222 -0.5588 -0.0309  0.3064
  645TMC3    C3 9599   0.676   2.355   9.316  0.0295 -0.1430  0.3369
  645TMC3    C4 9600   0.927   2.422   9.314 -0.6822 -0.4181 -0.0464
  645TMC3    C5 9601   0.894   2.310   9.384 -0.5682 -0.1365 -0.3835
  645TMC3    C6 9602   0.762   2.285   9.394  0.0931  0.0700  0.2718
  645TMC3     C 9603   0.877   2.601   9.161  1.0062 -0.0034  0.1667
  645TMC3     O 9604   0.837   2.623   9.043  0.4157  0.6813  0.1436
  645TMC3     H 9605   0.640   2.494   9.153 -1.0900 -1.7332 -0.3933
  645TMC3    H1 9606   1.031   2.451   9.314 -1.3868  2.0642  3.7577
  645TMC3    H2 9607   0.726   2.208   9.461 -0.9112  0.9247  0.7006
  645TMC3    C7 9608   0.988   2.266   9.481 -0.5366  0.3502  0.5203
  645TMC3    C8 9609   0.536   2.330   9.342 -0.1798 -0.0249 -0.1668
  645TMC3    O1 9610   1.069   2.351   9.517 -0.0556  0.2386 -0.1788
  645TMC3    O2 9611   0.505   2.220   9.389  0.4324 -0.4593  0.3026
  646MPD2     C 9612   4.615   2.171  14.283  0.1870  0.4229 -0.5650
  646MPD2    C1 9613   4.482   2.165  14.326 -0.3625 -0.4487 -0.3584
  646MPD2    C2 9614   4.405   2.287  14.309 -0.5670  0.5294 -0.5044
  646MPD2    C3 9615   4.456   2.399  14.250  0.1954 -0.4223  0.0013
  646MPD2    C4 9616   4.588   2.398  14.210  0.3881  0.0071  0.6327
  646MPD2    C5 9617   4.666   2.293  14.238  0.7805 -0.6171  0.5878
  646MPD2     H 9618   4.300   2.289  14.336 -0.4333 -1.4825  0.2095
  646MPD2    H1 9619   4.639   2.481  14.162 -0.2995 -0.8543 -1.5907
  646MPD2    H2 9620   4.694   2.100  14.307  1.2500  1.3199 -1.3953
  646MPD2    H3 9621   0.035   2.294  14.219  0.3790  0.9803 -1.5220
  646MPD2     N 9622   4.371   2.511  14.226  0.1916 -0.3283 -0.2741
  646MPD2    H5 9623   4.277   2.523  14.263  0.8530  1.8645  0.7305
  646MPD2    N1 9624   4.434   2.057  14.407  0.2057  0.2687  0.0459
  646MPD2    H7 9625   4.502   1.988  14.437  1.0302  1.8678  1.8354
  647TMC3    C1 9626   4.291   1.934  14.536  0.0239  0.6710 -0.4096
  647TMC3    C2 9627   4.222   1.954  14.652  0.6827 -0.6611 -0.4465
  647TMC3    C3 9628   4.228   1.866  14.754 -0.2727  0.2389  0.0847
  647TMC3    C4 9629   4.357   1.817  14.515  0.4208 -0.0494  0.3943
  647TMC3    C5 9630   4.342   1.718  14.613  0.2602 -0.2743 -0.0717
  647TMC3    C6 9631   4.280   1.745  14.732 -0.5102  0.6619  0.1864
  647TMC3     C 9632   4.309   2.046  14.459  0.3043  0.7579  0.6435
  647TMC3     O 9633   4.212   2.117  14.445 -0.2574  0.1259  0.1826
  647TMC3     H 9634   4.168   2.047  14.659 -1.5808 -2.0284  0.2773
  647TMC3    H1 9635   4.416   1.795  14.428  2.1143 -0.2683  1.6046
  647TMC3    H2 9636   4.290   1.674  14.813 -0.6046  2.4923  1.7881
  647TMC3    C7 9637   4.408   1.589  14.601  0.0996  0.1061 -0.4249
  647TMC3    C8 9638   4.201   1.918  14.890  0.0595 -0.2277  0.1522
  647TMC3    O1 9639   4.519   1.583  14.542  0.2304  0.0991 -0.2536
  647TMC3    O2 9640   4.135   2.025  14.901  0.3186  0.0279  0.4395
  648TMC3    C1 9641   3.470   0.020  16.184 -0.2669  0.1410  0.1205
  648TMC3    C2 9642   3.568   4.682  16.124  1.4808  0.4517 -0.4056
  648TMC3    C3 9643   3.587   4.684  15.983  0.0059 -0.9847  0.1393
  648TMC3    C4 9644   3.426   0.128  16.110 -0.5458  0.2871 -0.3341
  648TMC3    C5 9645   3.438   0.133  15.973  0.4066 -0.5483  0.2174
  648TMC3    C6 9646   3.517   0.040  15.913  0.7221 -0.5386 -0.2611
  648TMC3     C 9647   3.458   0.029  16.329  0.4498  0.2961 -0.1699
  648TMC3     O 9648   3.439   0.143  16.370  0.2451 -0.3844 -0.2750
  648TMC3     H 9649   3.629   4.616  16.184  0.4562 -0.0044  0.1272
  648TMC3    H1 9650   3.365   0.196  16.168 -0.5171 -2.0417  2.4179
  648TMC3    H2 9651   3.544   0.053  15.809 -2.9494 -1.8429 -1.3751
  648TMC3    C7 9652   3.396   0.247  15.891 -0.2344 -0.6410  0.3990
  648TMC3    C8 9653   3.683   4.602  15.909 -0.2921  0.0440  0.3637
  648TMC3    O1 9654   3.442   0.258  15.777 -0.0067 -0.4273 -0.2705
  648TMC3    O2 9655   3.709   4.639  15.792 -0.3821 -0.4927  0.2133
  649TMC3    C1 9656   2.691   0.666  13.076  0.7641  0.5845  0.3446
  649TMC3    C2 9657   2.826   0.661  13.088  0.7248  0.1487 -0.8111
  649TMC3    C3 9658   2.892   0.580  13.175  0.9846 -0.4341 -0.1760
  649TMC3    C4 9659   2.617   0.592  13.159 -0.3075  0.5219 -0.2805
  649TMC3    C5 9660   2.682   0.522  13.259 -0.7853  0.5308  0.3456
  649TMC3    C6 9661   2.819   0.509  13.267 -0.1615 -0.3454  0.1410
  649TMC3     C 9662   2.617   0.752  12.981  0.5499 -0.4122  0.0899
  649TMC3     O 9663   2.493   0.745  12.995  0.1576  0.4351 -0.5312
  649TMC3     H 9664   2.881   0.726  13.021  0.7685 -0.1148 -1.0274
  649TMC3    H1 9665   2.509   0.598  13.159 -0.1530  3.2372 -1.1976
  649TMC3    H2 9666   2.864   0.426  13.321  0.1702  0.4288  1.0733
  649TMC3    C7 9667   2.597   0.465  13.359  0.0220 -0.1500 -0.3086
  649TMC3    C8 9668   3.032   0.581  13.192 -0.1467  0.1392  0.3589
  649TMC3    O1 9669   2.478   0.446  13.327 -0.4823 -0.1473  0.2616
  649TMC3    O2 9670   3.060   0.543  13.301 -0.2788  0.4370 -0.2559
  650TMC3    C1 9671   0.922   2.413  12.922  0.2246  0.1899 -0.4491
  650TMC3    C2 9672   0.864   2.520  12.983 -1.3005  0.0421 -0.0624
  650TMC3    C3 9673   0.872   2.632  12.916  0.1229 -0.3749  0.5294
  650TMC3    C4 9674   0.977   2.408  12.794 -0.6677  0.4622 -0.4087
  650TMC3    C5 9675   0.987   2.534  12.738 -0.1521  0.6713  0.3275
  650TMC3    C6 9676   0.942   2.641  12.806 -0.0153 -0.6866 -0.7023
  650TMC3     C 9677   0.923   2.285  13.000 -0.6197 -0.0681 -0.6668
  650TMC3     O 9678   0.872   2.294  13.115 -0.4813  0.3920  0.4976
  650TMC3     H 9679   0.803   2.517  13.073 -0.8052 -1.2343  0.2227
  650TMC3    H1 9680   1.003   2.317  12.742  0.9884  0.5170  0.3175
  650TMC3    H2 9681   0.957   2.739  12.761  1.4970 -0.7463 -0.3175
  650TMC3    C7 9682   0.943   2.532  12.604 -0.0042  0.2936  0.6286
  650TMC3    C8 9683   0.784   2.747  12.942  0.1036  0.3784 -0.7758
  650TMC3    O1 9684   0.962   2.435  12.537  0.0846 -0.2694  0.3803
  650TMC3    O2 9685   0.811   2.862  12.897  0.0404 -0.2438 -0.1364
  651MPD2     C 9686   3.835   0.230  10.636 -0.1750 -0.6410 -0.2525
  651MPD2    C1 9687   3.885   0.246  10.761 -0.0572  0.5217 -0.6939
  651MPD2    C2 9688   4.025   0.251  10.779 -0.4053  0.1977  0.5823
  651MPD2    C3 9689   4.119   0.261  10.674 -0.5065  0.8030  0.1794
  651MPD2    C4 9690   4.061   0.264  10.547  0.7916 -0.0341 -0.6441
  651MPD2    C5 9691   3.925   0.232  10.532 -0.1229 -0.3835  0.3285
  651MPD2     H 9692   4.070   0.262  10.876 -3.5051  1.6476  1.8554
  651MPD2    H1 9693   4.116   0.272  10.454 -2.0411 -0.0915 -2.3524
  651MPD2    H2 9694   3.728   0.218  10.620 -0.4415 -0.1585  1.1489
  651MPD2    H3 9695   3.893   0.225  10.428 -0.4674  1.1818  0.3338
  651MPD2     N 9696   4.258   0.264  10.695  0.0229 -0.1389 -0.4057
  651MPD2    H5 9697   4.284   0.272  10.793  1.0944  2.0191 -0.8744
  651MPD2    N1 9698   3.792   0.246  10.871 -1.2769  0.4497 -0.3591
  651MPD2    H7 9699   3.846   0.262  10.955 -2.0581  1.1663  0.0005
  652TMC3    C1 9700   4.711   0.265  10.601  0.1945 -0.4862  0.3924
  652TMC3    C2 9701   4.586   0.221  10.568 -0.7761 -0.8432  0.0100
  652TMC3    C3 9702   4.494   0.268  10.648  0.5508  0.0210  0.3071
  652TMC3    C4 9703   0.005   0.346  10.703 -0.6283  0.3450 -0.2457
  652TMC3    C5 9704   4.648   0.372  10.792 -0.0601 -0.2990  0.5120
  652TMC3    C6 9705   4.519   0.347  10.767  0.4566  0.3793  0.1044
  652TMC3     C 9706   0.081   0.177  10.577 -0.6048 -0.1545 -0.3665
  652TMC3     O 9707   0.092   0.081  10.648  0.0326 -0.2544  0.0490
  652TMC3     H 9708   4.561   0.144  10.495 -0.6879 -1.5051  0.6770
  652TMC3    H1 9709   0.105   0.339  10.745 -0.2871  1.9702 -0.8019
  652TMC3    H2 9710   4.442   0.380  10.836  0.7170  2.1951 -0.4965
  652TMC3    C7 9711   4.685   0.453  10.913  0.3165 -0.5315 -0.3041
  652TMC3    C8 9712   4.359   0.250  10.602 -0.2134 -0.2497  0.2057
  652TMC3    O1 9713   4.620   0.431  11.017 -0.4057  0.2564  0.3692
  652TMC3    O2 9714   4.345   0.237  10.481 -0.0368  0.5778  0.8627
  653MPD2     C 9715   2.337   0.030  17.516  0.7301 -0.0412  0.4017
  653MPD2    C1 9716   2.325   0.131  17.421  0.0821 -0.3425  0.4230
  653MPD2    C2 9717   2.308   0.093  17.291 -0.0789  0.0818  0.0945
  653MPD2    C3 9718   2.294   4.698  17.251  0.3577  0.2575 -0.3227
  653MPD2    C4 9719   2.310   4.599  17.348 -0.0991 -0.3267  0.1222
  653MPD2    C5 9720   2.331   4.636  17.480  0.4918  0.1212 -0.3886
  653MPD2     H 9721   2.321   0.165  17.212  1.2662  1.0769  1.2161
  653MPD2    H1 9722   2.300   4.493  17.331 -4.4284  0.1098 -0.0236
  653MPD2    H2 9723   2.358   0.049  17.621 -2.7225  0.3185  1.0290
  653MPD2    H3 9724   2.351   4.560  17.554 -0.1968 -0.3985 -0.7262
  653MPD2     N 9725   2.267   4.663  17.118  0.3902  0.1990 -0.7269
  653MPD2    H5 9726   2.233   4.732  17.052 -1.9984 -1.9593 -1.7660
  653MPD2    N1 9727   2.361   0.276  17.438  0.4621 -0.1361  0.1159
  653MPD2    H7 9728   2.357   0.334  17.355 -0.2744 -0.7466 -0.2760
  654TMC3    C1 9729   2.198   4.536  16.937  0.0868  0.2992 -0.2541
  654TMC3    C2 9730   2.076   4.599  16.920  0.7369  0.5629  0.4148
  654TMC3    C3 9731   1.994   4.563  16.813 -0.6176 -0.0717  0.0363
  654TMC3    C4 9732   2.240   4.426  16.864  0.5283 -0.2108  0.5414
  654TMC3    C5 9733   2.166   4.399  16.750 -0.2358  0.0050 -0.3231
  654TMC3    C6 9734   2.046   4.464  16.729  1.0832 -0.0351 -0.8490
  654TMC3     C 9735   2.262   4.537  17.063  0.4356  0.4183  0.6002
  654TMC3     O 9736   2.298   4.430  17.106 -0.0784 -0.5975  0.5005
  654TMC3     H 9737   2.041   4.660  17.002 -0.5636 -1.1403  1.1432
  654TMC3    H1 9738   2.336   4.376  16.860 -0.2304 -1.8262  2.3145
  654TMC3    H2 9739   1.976   4.431  16.653 -0.8592  1.0992  0.4224
  654TMC3    C7 9740   2.174   4.281  16.680 -0.2714  0.1496  0.8043
  654TMC3    C8 9741   1.853   4.599  16.816  0.7941 -0.2714 -0.0280
  654TMC3    O1 9742   2.137   4.276  16.564 -0.3754  0.1826  0.2337
  654TMC3    O2 9743   1.824   4.713  16.845  0.2156 -0.0088  0.0958
  655MPD2     C 9744   3.954   0.202  15.623 -0.2441 -0.1414 -0.7872
  655MPD2    C1 9745   3.874   0.306  15.569  0.5537 -0.4007 -0.2495
  655MPD2    C2 9746   3.854   0.300  15.431  0.7897  0.1534  0.4843
  655MPD2    C3 9747   3.918   0.204  15.352 -0.0855  0.1986  0.4530
  655MPD2    C4 9748   4.011   0.119  15.401 -0.7186  0.4570 -0.0467
  655MPD2    C5 9749   4.024   0.115  15.533 -0.2050  0.3897 -0.5926
  655MPD2     H 9750   3.789   0.376  15.392 -1.7333 -1.4476  1.5370
  655MPD2    H1 9751   4.070   0.052  15.340 -0.7936  1.4344 -1.1789
  655MPD2    H2 9752   3.962   0.185  15.730  0.6023 -3.2805 -1.3530
  655MPD2    H3 9753   4.087   0.040  15.579  0.7119  2.9676  2.3836
  655MPD2     N 9754   3.896   0.185  15.213  0.6088  0.2278  0.6525
  655MPD2    H5 9755   3.957   0.122  15.162 -0.1531 -0.0205  0.0504
  655MPD2    N1 9756   3.807   0.406  15.647  0.1089 -0.2353 -0.6256
  655MPD2    H7 9757   3.736   0.468  15.609 -0.4091 -0.6115 -0.2614
  656TMC3    C1 9758   3.713   0.503  15.831 -0.0481  0.7697 -0.1766
  656TMC3    C2 9759   3.664   0.491  15.960  1.2328 -0.0927 -0.2748
  656TMC3    C3 9760   3.588   0.586  16.013 -0.1612  0.3537 -0.2129
  656TMC3    C4 9761   3.672   0.611  15.760 -0.7259  0.1533  0.3702
  656TMC3    C5 9762   3.592   0.702  15.813  0.9486 -0.1488  0.3729
  656TMC3    C6 9763   3.543   0.686  15.936 -0.3370  0.2208 -0.2359
  656TMC3     C 9764   3.808   0.410  15.782  0.0413  0.2013 -0.6521
  656TMC3     O 9765   3.866   0.344  15.872 -0.8332 -0.0820 -0.2371
  656TMC3     H 9766   3.692   0.414  16.031 -0.1707  0.2754  0.6605
  656TMC3    H1 9767   3.705   0.622  15.658 -0.9213 -1.3053  0.1459
  656TMC3    H2 9768   3.483   0.760  15.988  2.2359  0.9642  1.6837
  656TMC3    C7 9769   3.552   0.815  15.726 -0.2167 -0.4646  0.2060
  656TMC3    C8 9770   3.510   0.552  16.127  0.4301  0.3082  0.0373
  656TMC3    O1 9771   3.609   0.817  15.618  0.2056  0.7528  0.4257
  656TMC3    O2 9772   3.511   0.436  16.155 -0.1448  0.8430  0.5318
  657TMC3    C1 9773   3.166   3.870  14.592 -0.4891  0.0190 -0.2190
  657TMC3    C2 9774   3.159   3.916  14.717  0.2297 -0.2214  0.3410
  657TMC3    C3 9775   3.049   3.979  14.754 -0.1724 -0.2409 -0.1722
  657TMC3    C4 9776   3.063   3.879  14.502  0.5140 -0.2142  0.5806
  657TMC3    C5 9777   2.950   3.944  14.546  1.1389  0.0368 -0.7289
  657TMC3    C6 9778   2.950   3.997  14.669 -0.1875 -0.0867 -0.9814
  657TMC3     C 9779   3.289   3.815  14.539 -0.2392 -0.0311  0.0389
  657TMC3     O 9780   3.287   3.752  14.434  0.0766 -0.6506  0.1893
  657TMC3     H 9781   3.235   3.892  14.790  1.9790 -0.1859 -1.4693
  657TMC3    H1 9782   3.084   3.853  14.399 -2.0396 -1.8636  0.4893
  657TMC3    H2 9783   2.855   4.030  14.709  0.1806  0.9785 -0.9859
  657TMC3    C7 9784   2.839   3.984  14.466  0.0193 -0.4259  0.1842
  657TMC3    C8 9785   3.044   4.033  14.886 -0.6750  0.6093  1.1989
  657TMC3    O1 9786   2.759   4.064  14.507 -0.2227 -0.2987  0.2218
  657TMC3    O2 9787   3.093   3.964  14.976 -0.2632 -0.8181  0.2144
  658MPD2     C 9788   4.253   0.290  14.723 -0.9230 -0.5111  0.7420
  658MPD2    C1 9789   4.173   0.190  14.686  0.2318  0.5507  0.3086
  658MPD2    C2 9790   4.213   0.108  14.585  0.2547  0.1994  0.2238
  658MPD2    C3 9791   4.335   0.114  14.530  0.0974  0.0409  0.2112
  658MPD2    C4 9792   4.420   0.223  14.562 -0.3479 -0.3055  0.2520
  658MPD2    C5 9793   4.376   0.305  14.664 -0.6667  0.0044 -0.9112
  658MPD2     H 9794   4.148   0.032  14.543 -1.4362  1.8028 -0.0709
  658MPD2    H1 9795   4.516   0.250  14.519  1.5450 -1.6351  3.6226
  658MPD2    H2 9796   4.225   0.362  14.799 -2.0362 -0.9197  0.7237
  658MPD2    H3 9797   4.431   0.396  14.683  0.0348 -1.0187  1.9196
  658MPD2     N 9798   4.365   0.017  14.431 -0.4875  1.1456  0.2062
  658MPD2    H5 9799   4.290   4.695  14.398  0.5303 -1.1079  1.9851
  658MPD2    N1 9800   4.050   0.172  14.757 -0.1605  0.6028  0.1657
  658MPD2    H7 9801   4.028   0.238  14.831 -1.8944 -1.8211  1.8478
  659TMC3    C1 9802   3.845   0.077  14.822 -0.0625 -0.6266  0.2940
  659TMC3    C2 9803   3.868   0.130  14.945  0.8915 -0.5542  0.3433
  659TMC3    C3 9804   3.762   0.163  15.020 -0.0587  0.4856  0.3294
  659TMC3    C4 9805   3.721   0.076  14.759 -0.0522  0.2457  0.6318
  659TMC3    C5 9806   3.615   0.117  14.839  0.4155  0.1118  0.6224
  659TMC3    C6 9807   3.636   0.147  14.966 -0.1221  0.0137 -0.2588
  659TMC3     C 9808   3.954   0.080  14.728 -0.7563 -0.9608  0.2574
  659TMC3     O 9809   3.947   0.003  14.631  0.3697  0.7403 -0.5250
  659TMC3     H 9810   3.967   0.145  14.986  0.9216  2.2977 -0.7341
  659TMC3    H1 9811   3.712   0.031  14.660 -1.0370 -0.7736  1.1784
  659TMC3    H2 9812   3.550   0.163  15.029  0.6270  1.8810  0.2725
  659TMC3    C7 9813   3.486   0.062  14.804 -0.4378 -0.7772  0.2571
  659TMC3    C8 9814   3.775   0.226  15.155  0.2652 -1.0648  0.1955
  659TMC3    O1 9815   3.403   0.032  14.887  0.3865 -0.2100  0.1329
  659TMC3    O2 9816   3.678   0.278  15.210  0.0868 -1.0956 -0.3082
  660MPD2     C 9817   2.100   3.519  12.470  0.0016  0.7490  0.4187
  660MPD2    C1 9818   1.974   3.575  12.466  0.2510  0.9216 -0.0914
  660MPD2    C2 9819   1.888   3.533  12.565 -0.5437 -0.6523 -0.2090
  660MPD2    C3 9820   1.930   3.444  12.666  0.2948 -0.1258  0.4131
  660MPD2    C4 9821   2.061   3.402  12.672 -0.6317  0.5758  0.2452
  660MPD2    C5 9822   2.148   3.444  12.575 -0.1024  0.4058  0.4133
  660MPD2     H 9823   1.782   3.556  12.555 -0.2223 -0.2501 -2.5776
  660MPD2    H1 9824   2.096   3.342  12.754  1.1565  0.6816 -0.4455
  660MPD2    H2 9825   2.173   3.554  12.399 -2.3537  0.1084 -2.3293
  660MPD2    H3 9826   2.249   3.410  12.595  0.1524 -0.2812 -2.0162
  660MPD2     N 9827   1.851   3.381  12.764 -0.3517  0.6193 -0.5256
  660MPD2    H5 9828   1.903   3.335  12.838 -2.1897  0.2071  0.5005
  660MPD2    N1 9829   1.936   3.659  12.362  0.1540 -0.0599 -0.3411
  660MPD2    H7 9830   2.012   3.712  12.321 -0.8329 -0.4216 -2.6292
  661TMC3    C1 9831   1.801   3.825  12.255  0.4275  0.5434  0.9280
  661TMC3    C2 9832   1.878   3.824  12.137  0.0160  0.7191  0.3599
  661TMC3    C3 9833   1.825   3.889  12.030  0.2393 -0.1400 -0.2194
  661TMC3    C4 9834   1.688   3.899  12.272  0.5480 -0.4185  0.0143
  661TMC3    C5 9835   1.659   3.982  12.170 -0.2813 -0.2385  0.0296
  661TMC3    C6 9836   1.719   3.974  12.048  0.2156 -0.8106 -0.0695
  661TMC3     C 9837   1.815   3.718  12.354  0.2078 -0.5688  0.2155
  661TMC3     O 9838   1.713   3.705  12.410  0.5211 -0.3386  0.4840
  661TMC3     H 9839   1.974   3.774  12.139 -0.0895  0.5413  1.1367
  661TMC3    H1 9840   1.640   3.906  12.369  0.0731 -0.8436 -0.1890
  661TMC3    H2 9841   1.683   4.033  11.964 -1.5610  2.3903  2.9279
  661TMC3    C7 9842   1.520   4.014  12.160  0.6053  0.3124  1.1176
  661TMC3    C8 9843   1.920   3.921  11.927  0.4178 -0.7801 -0.1082
  661TMC3    O1 9844   1.457   4.029  12.263 -0.6242 -0.1275 -0.6973
  661TMC3    O2 9845   1.919   4.041  11.896 -0.1948 -0.1194  0.1410
  662MPD2     C 9846   2.085   3.776  17.230 -0.4048  0.3303  0.4393
  662MPD2    C1 9847   2.126   3.699  17.333  0.0777  0.0753  0.2637
  662MPD2    C2 9848   2.123   3.743  17.464 -0.6173  0.4150  0.7732
  662MPD2    C3 9849   2.074   3.878  17.485 -0.0797 -0.3000 -0.6995
  662MPD2    C4 9850   2.036   3.954  17.377 -0.2324  0.2782  0.4990
  662MPD2    C5 9851   2.042   3.905  17.253 -0.9459 -0.2615  0.0500
  662MPD2     H 9852   2.145   3.669  17.539  0.7367  1.0042  0.9576
  662MPD2    H1 9853   1.988   4.049  17.396 -2.0068 -0.2675 -1.2399
  662MPD2    H2 9854   2.096   3.749  17.126 -0.0780  1.5690  0.1492
  662MPD2    H3 9855   2.012   3.959  17.164  1.6817  0.0750 -0.6384
  662MPD2     N 9856   2.033   3.929  17.615  0.1772 -0.8261  0.3629
  662MPD2    H5 9857   1.981   4.016  17.612 -1.2765 -1.7431 -0.7317
  662MPD2    N1 9858   2.153   3.563  17.324 -0.3319  0.4112  0.6549
  662MPD2    H7 9859   2.187   3.522  17.410  0.3697  0.9000  0.6040
  663TMC3    C1 9860   2.156   3.346  17.248 -0.3005 -0.5217 -0.6750
  663TMC3    C2 9861   2.119   3.301  17.372 -0.2313  0.0578  0.3785
  663TMC3    C3 9862   2.122   3.166  17.402  0.1848  0.2056  0.9406
  663TMC3    C4 9863   2.164   3.259  17.140  0.2355  0.3721  0.0322
  663TMC3    C5 9864   2.156   3.128  17.177 -0.7236 -0.2584 -0.3317
  663TMC3    C6 9865   2.149   3.078  17.302  0.9086  0.5342  0.5478
  663TMC3     C 9866   2.144   3.485  17.208  0.4247 -1.4879 -0.1246
  663TMC3     O 9867   2.132   3.512  17.089  0.1406  0.3595  0.0543
  663TMC3     H 9868   2.091   3.365  17.455  1.6799  3.7745 -1.8457
  663TMC3    H1 9869   2.190   3.287  17.039 -1.9248  2.0739 -0.0546
  663TMC3    H2 9870   2.140   2.973  17.326 -0.6923  0.3323 -0.9149
  663TMC3    C7 9871   2.125   3.041  17.059 -0.5271 -0.8062 -0.0784
  663TMC3    C8 9872   1.993   3.135  17.457  0.3213  0.5666 -0.9133
  663TMC3    O1 9873   2.105   3.100  16.956 -0.4115  0.1989  0.7536
  663TMC3    O2 9874   1.927   3.049  17.397 -0.4927 -0.2553 -0.2412
  664MPD2     C 9875   0.112   1.408  17.670  0.0016 -0.6628 -0.4542
  664MPD2    C1 9876   0.132   1.535  17.702  0.2059  0.2106  0.4652
  664MPD2    C2 9877   0.096   1.583   0.076  0.3478 -0.1448 -0.4232
  664MPD2    C3 9878   0.043   1.498   0.165 -0.3548  0.9986 -0.4120
  664MPD2    C4 9879   0.018   1.369   0.142 -0.0481  0.7410 -0.4137
  664MPD2    C5 9880   0.060   1.323   0.018 -0.0888 -0.3239 -0.3147
  664MPD2     H 9881   0.098   1.688   0.102 -0.6948 -0.0187 -0.8689
  664MPD2    H1 9882   4.730   1.298   0.219  1.7380 -1.0292 -1.4664
  664MPD2    H2 9883   0.138   1.359  17.577 -1.1289 -1.0529 -0.5566
  664MPD2    H3 9884   0.064   1.218  17.739 -0.0857 -0.1415 -1.0213
  664MPD2     N 9885   4.733   1.559   0.282  0.5141  0.5701 -0.2995
  664MPD2    H5 9886   0.028   1.655   0.281 -2.1543  1.4593 -1.8968
  664MPD2    N1 9887   0.186   1.635  17.614  0.1225 -0.0313 -0.6482
  664MPD2    H7 9888   0.178   1.731  17.646  1.5894  0.1102 -0.6894
  665TMC3    C1 9889   4.617   1.591   0.486 -0.5746  0.5485 -0.3771
  665TMC3    C2 9890   4.599   1.532   0.608 -0.2645 -0.1641  0.2686
  665TMC3    C3 9891   4.615   1.613   0.719  0.1935 -0.1708 -0.0312
  665TMC3    C4 9892   4.650   1.722   0.472  0.3251  0.8485 -1.1241
  665TMC3    C5 9893   4.678   1.793   0.580  0.1746  0.8976  0.1479
  665TMC3    C6 9894   4.656   1.742   0.708  0.3340 -0.1633  0.4057
  665TMC3     C 9895   4.650   1.497   0.379  0.0770 -0.2370  0.0170
  665TMC3     O 9896   4.597   1.387   0.383 -0.2551  0.0772 -0.0018
  665TMC3     H 9897   4.570   1.428   0.609  2.0086 -0.8005 -1.4030
  665TMC3    H1 9898   4.653   1.766   0.374  1.5843 -1.1132 -1.9756
  665TMC3    H2 9899   4.668   1.812   0.790  2.1668 -0.4691  0.3948
  665TMC3    C7 9900   4.731   1.926   0.562  0.2975  0.0382 -0.7717
  665TMC3    C8 9901   4.590   1.568   0.858  0.5743 -0.4725  0.4100
  665TMC3    O1 9902   4.707   1.985   0.457  0.0696  0.2331 -0.1191
  665TMC3    O2 9903   4.591   1.659   0.938 -0.4033  0.2601 -0.2252
  666TMC3    C1 9904   4.683   1.057  10.209 -0.6862  0.2208 -0.7952
  666TMC3    C2 9905   0.071   1.070  10.153  0.3928  0.3465  0.1901
  666TMC3    C3 9906   0.093   1.187  10.084  0.6899  0.0041  0.2986
  666TMC3    C4 9907   4.582   1.150  10.198 -0.3441  0.1692 -0.0688
  666TMC3    C5 9908   4.614   1.264  10.124  0.9169  0.7024  0.0803
  666TMC3    C6 9909   4.737   1.282  10.064 -0.2483 -0.4479 -0.0993
  666TMC3     C 9910   4.674   0.952  10.307 -0.1696 -0.1255 -0.1416
  666TMC3     O 9911   0.039   0.884  10.333  0.1681 -0.1807  0.1944
  666TMC3     H 9912   0.136   0.984  10.151 -0.5159 -0.3140 -0.9984
  666TMC3    H1 9913   4.482   1.134  10.236 -0.4345 -0.8550 -0.7616
  666TMC3    H2 9914   0.021   1.381  10.027 -0.6988  1.0004  3.4629
  666TMC3    C7 9915   4.511   1.369  10.122  0.3709  0.4773 -0.1102
  666TMC3    C8 9916   0.226   1.228  10.081 -0.1525  0.4184  0.0106
  666TMC3    O1 9917   4.418   1.362  10.202 -0.2651  0.0909 -0.3128
  666TMC3    O2 9918   0.254   1.326  10.016 -0.5255  0.0020  0.2610
  667MPD2     C 9919   1.020   1.441  14.898  0.1748  0.5943  0.3061
  667MPD2    C1 9920   0.954   1.392  15.009  0.1199 -0.5124 -0.0100
  667MPD2    C2 9921   0.847   1.307  14.993  0.7381 -0.1717  0.3084
  667MPD2    C3 9922   0.815   1.243  14.876 -0.4672 -0.4899 -0.9359
  667MPD2    C4 9923   0.887   1.290  14.762 -0.1589  0.4880  0.5447
  667MPD2    C5 9924   0.987   1.387  14.772 -1.2127  0.4323  0.0696
  667MPD2     H 9925   0.797   1.268  15.081  2.1156  0.4354  1.3657
  667MPD2    H1 9926   0.874   1.240  14.668  0.4006  1.0060  0.1957
  667MPD2    H2 9927   1.088   1.526  14.902  2.3089 -0.9704 -2.6798
  667MPD2    H3 9928   1.040   1.415  14.682 -1.6570 -4.3617 -1.6919
  667MPD2     N 9929   0.725   1.133  14.859  0.5223 -0.1983  0.0155
  667MPD2    H5 9930   0.716   1.100  14.764 -0.0565  0.6584 -0.2194
  667MPD2    N1 9931   0.992   1.431  15.135 -0.4256 -0.3251  0.0507
  667MPD2    H7 9932   0.937   1.390  15.210 -0.8679 -0.7840 -0.5298
  668TMC3    C1 9933   1.107   1.564  15.294  0.5113  0.0750 -1.0231
  668TMC3    C2 9934   1.189   1.669  15.320 -0.2016 -0.1789  0.1850
  668TMC3    C3 9935   1.166   1.734  15.434  0.6876 -0.2432  0.0275
  668TMC3    C4 9936   1.016   1.531  15.384  0.2160 -0.0348  0.3539
  668TMC3    C5 9937   1.001   1.599  15.503  0.5605  0.9229  0.0820
  668TMC3    C6 9938   1.081   1.705  15.532  0.0811 -0.1837 -0.3770
  668TMC3     C 9939   1.095   1.521  15.160 -0.0061 -0.0339  0.5235
  668TMC3     O 9940   1.187   1.566  15.093 -0.2102  0.0783 -0.2282
  668TMC3     H 9941   1.270   1.687  15.250  2.2591 -0.8854  2.8463
  668TMC3    H1 9942   0.952   1.447  15.357 -1.5876  1.9437 -1.4574
  668TMC3    H2 9943   1.055   1.765  15.619  1.0281  0.6260 -0.6490
  668TMC3    C7 9944   0.879   1.593  15.570  0.6309 -0.8585  0.5180
  668TMC3    C8 9945   1.262   1.834  15.466 -0.3787  0.4821 -0.3171
  668TMC3    O1 9946   0.822   1.692  15.612  0.1780  0.2874 -0.0233
  668TMC3    O2 9947   1.266   1.874  15.581  0.0840 -0.1073  0.5121
  669TMC3    C1 9948   3.852   1.784  14.332  0.1569  0.0207  0.3937
  669TMC3    C2 9949   3.755   1.764  14.241  0.0783  0.5027 -0.1655
  669TMC3    C3 9950   3.791   1.755  14.115 -0.2673 -0.1636  0.9124
  669TMC3    C4 9951   3.985   1.771  14.304 -0.0672 -0.6388  0.1713
  669TMC3    C5 9952   4.020   1.756  14.173 -0.1265 -0.5394  0.7807
  669TMC3    C6 9953   3.922   1.747  14.079 -0.1045  0.2774 -0.2997
  669TMC3     C 9954   3.827   1.777  14.475 -0.9512 -0.1908 -0.2406
  669TMC3     O 9955   3.919   1.741  14.546 -0.5837  0.0773 -0.1614
  669TMC3     H 9956   3.655   1.739  14.274  0.3075  0.9813  0.8943
  669TMC3    H1 9957   4.061   1.773  14.381 -2.0136 -1.6511  2.1277
  669TMC3    H2 9958   3.955   1.742  13.976 -1.2905 -0.5019 -0.6427
  669TMC3    C7 9959   4.160   1.750  14.138 -0.9412  0.0554 -0.4519
  669TMC3    C8 9960   3.697   1.738  14.010 -0.2647  0.2312  0.3021
  669TMC3    O1 9961   4.224   1.664  14.197 -0.0966 -0.3339 -0.2149
  669TMC3    O2 9962   3.721   1.671  13.912  0.0769 -0.5062  0.3812
  670MPD2     C 9963   2.389   3.592  14.002  0.3506  0.3024  0.7412
  670MPD2    C1 9964   2.334   3.482  13.937  0.3608 -0.4942 -0.3854
  670MPD2    C2 9965   2.318   3.370  14.016 -0.0692  0.0388  0.2165
  670MPD2    C3 9966   2.359   3.364  14.150 -0.3674 -0.6976 -0.0955
  670MPD2    C4 9967   2.388   3.482  14.220 -0.0451  0.1661 -0.0833
  670MPD2    C5 9968   2.405   3.589  14.139  0.0837 -0.1180  0.6153
  670MPD2     H 9969   2.285   3.281  13.964  0.4587  1.9315 -3.3598
  670MPD2    H1 9970   2.404   3.479  14.327  1.2456  1.9006 -0.2265
  670MPD2    H2 9971   2.416   3.683  13.949  0.1106 -0.2173 -0.2780
  670MPD2    H3 9972   2.453   3.679  14.177  0.9275 -0.0922 -0.5015
  670MPD2     N 9973   2.359   3.232  14.212  0.6080  0.4578 -0.3801
  670MPD2    H5 9974   2.339   3.157  14.147 -0.4366 -1.3170  2.0370
  670MPD2    N1 9975   2.304   3.472  13.799  0.4132 -0.0704  0.6269
  670MPD2    H7 9976   2.260   3.391  13.757 -1.0882  1.1383 -0.1079
  671TMC3    C1 9977   2.360   3.063  14.352 -0.2253  0.6392  0.1894
  671TMC3    C2 9978   2.478   3.001  14.399 -0.0085 -1.4409 -0.4683
  671TMC3    C3 9979   2.512   2.884  14.345 -0.1573 -0.7178  0.0429
  671TMC3    C4 9980   2.267   3.002  14.272 -0.1461  0.3243  0.7519
  671TMC3    C5 9981   2.309   2.882  14.222  0.6015 -0.0136 -0.4375
  671TMC3    C6 9982   2.433   2.827  14.248 -0.6972 -0.2829 -0.4409
  671TMC3     C 9983   2.371   3.208  14.344 -0.3698  0.3441 -0.1076
  671TMC3     O 9984   2.412   3.269  14.441 -0.3242 -0.4070  0.3240
  671TMC3     H 9985   2.550   3.069  14.442  1.1041 -0.9312 -3.2015
  671TMC3    H1 9986   2.167   3.041  14.258  0.9047  1.9159 -2.6082
  671TMC3    H2 9987   2.467   2.728  14.221 -1.1866 -0.6284  0.2164
  671TMC3    C7 9988   2.219   2.825  14.122 -0.0824 -0.1199  0.8410
  671TMC3    C8 9989   2.650   2.841  14.355  0.1941 -0.7559  0.2192
  671TMC3    O1 9990   2.138   2.908  14.088  0.8612  0.2713  0.3491
  671TMC3    O2 9991   2.686   2.747  14.287  0.2994 -0.2021 -0.1444
  672MPD2     C 9992   2.731   0.149   0.521  0.1507 -0.4752 -0.5880
  672MPD2    C1 9993   2.801   0.032   0.532  0.7101 -0.1253 -0.1204
  672MPD2    C2 9994   2.937   0.038   0.567  0.1492  0.2426 -0.6912
  672MPD2    C3 9995   3.010   0.154   0.574  0.2884  0.5781  0.1264
  672MPD2    C4 9996   2.940   0.269   0.545 -0.1860  0.8791 -0.7588
  672MPD2    C5 9997   2.802   0.266   0.519  0.1736 -0.2214 -0.1023
  672MPD2     H 9998   2.985   4.686   0.607  1.1291  0.3600 -1.5985
  672MPD2    H1 9999   2.989   0.366   0.540  0.7262  0.4104 -0.9235
  672MPD2    H210000   2.631   0.160   0.479 -0.2691  0.2605  0.6097
  672MPD2    H310001   2.740   0.353   0.503 -1.5719 -1.4268 -0.0010
  672MPD2     N10002   3.143   0.170   0.612  0.3831 -0.1504  0.3753
  672MPD2    H510003   3.182   0.263   0.626 -0.2266  0.7054 -3.4315
  672MPD2    N110004   2.747   4.636   0.516 -0.0938  0.2844 -0.1725
  672MPD2    H710005   2.810   4.559   0.537 -3.4122 -1.9778  1.4773
  673TMC3    C110006   2.574   4.470   0.529 -0.4750 -0.1560  0.4315
  673TMC3    C210007   2.629   4.368   0.458 -0.2620  0.2148 -0.0438
  673TMC3    C310008   2.562   4.255   0.446  0.4707  0.8956  0.2581
  673TMC3    C410009   2.455   4.456   0.586 -0.5930  0.1536  0.0909
  673TMC3    C510010   2.392   4.338   0.581  0.4431  0.0541 -0.3789
  673TMC3    C610011   2.446   4.230   0.518  0.1097 -0.6413 -0.5502
  673TMC3     C10012   2.612   4.611   0.504 -0.2145  0.1553 -0.3275
  673TMC3     O10013   2.521   4.688   0.501  0.2001 -0.0774 -0.1952
  673TMC3     H10014   2.712   4.386   0.391 -0.4097 -0.7010 -0.4681
  673TMC3    H110015   2.423   4.537   0.652  1.9225  1.3192 -0.1336
  673TMC3    H210016   2.390   4.139   0.500 -2.5169  0.8241  0.1598
  673TMC3    C710017   2.249   4.345   0.587 -0.0630 -0.3540 -0.5475
  673TMC3    C810018   2.629   4.142   0.396 -0.7068  0.1222 -0.1576
  673TMC3    O110019   2.187   4.243   0.609  0.1410  0.3976  0.1965
  673TMC3    O210020   2.575   4.035   0.368  0.3820  0.3549  0.0310
  674MPD2     C10021   2.007   0.317  17.570  0.1154  0.8880 -0.2799
  674MPD2    C110022   1.979   0.208  17.637 -0.5087 -0.1487  0.0073
  674MPD2    C210023   1.851   0.172  17.653 -0.4543 -0.3313 -0.2433
  674MPD2    C310024   1.746   0.239  17.600 -0.2483  0.1117 -0.0016
  674MPD2    C410025   1.773   0.355  17.528 -0.3591 -0.3646  0.1002
  674MPD2    C510026   1.906   0.387  17.512  0.1160 -0.1550  0.7487
  674MPD2     H10027   1.829   0.083  17.710  1.7198  0.2020  1.4541
  674MPD2    H110028   1.693   0.392  17.465 -0.4128 -0.5146  0.0786
  674MPD2    H210029   2.109   0.353  17.566  1.3312 -2.5521 -0.2672
  674MPD2    H310030   1.935   0.465  17.444  0.9122 -0.3498  0.8667
  674MPD2     N10031   1.616   0.186  17.617 -0.6060  0.3427 -0.0579
  674MPD2    H510032   1.613   0.093  17.658 -1.9375 -0.0074 -0.9275
  674MPD2    N110033   2.086   0.136  17.707 -0.0318  0.0777  0.5401
  674MPD2    H710034   2.180   0.170  17.690  0.6626 -0.9859  2.3154
  675TMC3    C110035   2.195   4.718   0.100  0.0509  0.0487  0.8587
  675TMC3    C210036   2.195   4.583   0.137 -0.2484  0.0713 -0.3106
  675TMC3    C310037   2.306   4.521   0.169  0.1473 -0.5597  0.1799
  675TMC3    C410038   2.310   0.054   0.119  0.3935 -0.2824 -0.4125
  675TMC3    C510039   2.417   4.726   0.168 -0.1364  0.9986  0.4894
  675TMC3    C610040   2.419   4.593   0.191  0.8374  0.8292 -0.2081
  675TMC3     C10041   2.070   0.036   0.044  0.2095 -0.1174 -0.3213
  675TMC3     O10042   1.972   4.714   0.089 -0.3809  0.0493  0.2232
  675TMC3     H10043   2.108   4.527   0.104 -2.2617  1.0360  3.4320
  675TMC3    H110044   2.297   0.161   0.108  3.3022  0.1204 -0.0034
  675TMC3    H210045   2.512   4.546   0.222  0.5245 -0.3051 -0.9715
  675TMC3    C710046   2.543   0.064   0.189  0.0567  0.7897  0.6001
  675TMC3    C810047   2.320   4.379   0.169  0.0821  0.4370 -0.2535
  675TMC3    O110048   2.635   4.718   0.195 -0.4409 -0.2062 -0.3213
  675TMC3    O210049   2.437   4.348   0.159  0.6873  0.0349 -0.5672
  676MPD2     C10050   0.677   2.297  11.088 -0.0322 -0.9442  0.1838
  676MPD2    C110051   0.574   2.234  11.157  0.1292 -0.0687  0.5821
  676MPD2    C210052   0.528   2.110  11.121  0.2210  0.8255 -0.2015
  676MPD2    C310053   0.575   2.056  10.998 -0.0529  0.7970 -0.1622
  676MPD2    C410054   0.672   2.125  10.918  0.0720  1.5591  0.1204
  676MPD2    C510055   0.727   2.240  10.973 -0.6722 -0.1450  0.0467
  676MPD2     H10056   0.460   2.058  11.188 -0.6348  0.0016 -1.6999
  676MPD2    H110057   0.711   2.081  10.828  1.8640 -0.3322  1.8245
  676MPD2    H210058   0.703   2.399  11.117  0.2070 -1.6389  2.4167
  676MPD2    H310059   0.799   2.287  10.907 -0.6725 -0.9693 -0.5474
  676MPD2     N10060   0.526   1.937  10.942  0.4279 -0.4730  0.2212
  676MPD2    H510061   0.567   1.910  10.853 -0.3769  0.3901 -0.4071
  676MPD2    N110062   0.505   2.284  11.268 -0.0507  0.3715  0.0844
  676MPD2    H710063   0.443   2.223  11.320  0.1220  0.3472  0.2619
  677TMC3    C110064   0.407   2.438  11.413 -0.1979 -0.6017 -0.4194
  677TMC3    C210065   0.302   2.354  11.425 -0.2163 -0.5563 -0.7383
  677TMC3    C310066   0.217   2.373  11.531  0.7449 -0.2941  0.8539
  677TMC3    C410067   0.435   2.543  11.493  0.3462 -0.0577  0.0221
  677TMC3    C510068   0.332   2.572  11.590 -0.6027  0.0703 -0.1727
  677TMC3    C610069   0.232   2.484  11.604  0.7969  0.6041  0.0290
  677TMC3     C10070   0.507   2.415  11.311 -0.3539  0.0583 -0.5544
  677TMC3     O10071   0.576   2.504  11.274 -0.3342 -0.2758  0.6054
  677TMC3     H10072   0.282   2.281  11.348 -3.3462 -1.8571  1.2952
  677TMC3    H110073   0.526   2.598  11.471 -0.6218  2.3320  2.0176
  677TMC3    H210074   0.162   2.497  11.686 -0.8642  2.8975 -1.7434
  677TMC3    C710075   0.373   2.622  11.717  0.2444  0.1897 -0.2976
  677TMC3    C810076   0.121   2.268  11.556 -0.2295  0.6955  0.3626
  677TMC3    O110077   0.337   2.574  11.825 -0.3997  0.5417  0.2277
  677TMC3    O210078   0.056   2.230  11.456 -0.0387  0.4445 -0.0970
  678MPD2     C10079   1.534   2.478   1.320 -0.5636  0.0003 -0.3231
  678MPD2    C110080   1.535   2.415   1.200  0.0617 -0.0243 -0.4251
  678MPD2    C210081   1.417   2.359   1.144 -0.5561  0.1196  0.3875
  678MPD2    C310082   1.297   2.350   1.214  0.3421  0.3266 -0.7170
  678MPD2    C410083   1.303   2.411   1.341 -0.5638  0.5904 -0.5024
  678MPD2    C510084   1.417   2.474   1.391 -0.2316  0.0507  0.6173
  678MPD2     H10085   1.420   2.319   1.043  1.6451 -3.4806  1.8891
  678MPD2    H110086   1.226   2.395   1.415 -1.0646 -0.2194 -1.1949
  678MPD2    H210087   1.623   2.521   1.365 -0.7964 -0.3338  0.4528
  678MPD2    H310088   1.402   2.506   1.493  0.2304 -0.7714  0.9456
  678MPD2     N10089   1.176   2.302   1.150  0.0711 -0.3746 -0.4093
  678MPD2    H510090   1.187   2.258   1.059  0.2574 -1.3100  0.0697
  678MPD2    N110091   1.663   2.408   1.136  0.5007 -0.0481 -0.4950
  678MPD2    H710092   1.741   2.453   1.182  1.3562 -0.7864 -1.2113
  679TMC3    C110093   2.038   2.263   0.963  0.6030 -0.5808 -0.9867
  679TMC3    C210094   1.904   2.238   0.977 -0.0880  0.1587 -0.3019
  679TMC3    C310095   1.829   2.352   0.989  0.2550 -0.4141 -0.5177
  679TMC3    C410096   2.086   2.387   0.982 -0.2815  0.0773 -0.0714
  679TMC3    C510097   2.009   2.500   0.993 -0.6142  0.0839 -0.1921
  679TMC3    C610098   1.873   2.486   0.994  0.0407 -0.3611 -0.3222
  679TMC3     C10099   2.112   2.152   0.918 -0.0691  0.5159 -0.7830
  679TMC3     O10100   2.233   2.152   0.930 -0.5348 -0.0792 -0.2611
  679TMC3     H10101   1.854   2.142   0.982 -0.0799  0.2543  1.8803
  679TMC3    H110102   2.193   2.405   0.981 -0.3219  0.2216 -1.6212
  679TMC3    H210103   1.804   2.569   1.006 -0.7677 -1.2676  1.3195
  679TMC3    C710104   2.081   2.626   0.984 -0.1400  0.5894  0.5107
  679TMC3    C810105   1.699   2.323   1.041 -0.4820  0.1694  0.4966
  679TMC3    O110106   2.178   2.632   1.054 -0.4092 -0.2363  0.4115
  679TMC3    O210107   1.633   2.225   1.002  0.0653  0.8185  0.6269
  680MPD2     C10108   1.660   0.517  13.450  0.0582  0.5556  0.4253
  680MPD2    C110109   1.731   0.494  13.561  0.3158 -0.3587 -0.6195
  680MPD2    C210110   1.730   0.589  13.665  0.0876  0.2041 -0.0986
  680MPD2    C310111   1.667   0.706  13.651  0.0585 -0.0622 -0.0900
  680MPD2    C410112   1.600   0.731  13.534  0.2090  0.0827  0.7581
  680MPD2    C510113   1.593   0.636  13.437  0.2725 -0.6479 -0.5520
  680MPD2     H10114   1.794   0.557  13.746  2.0218  1.6674 -1.0536
  680MPD2    H110115   1.534   0.816  13.516  0.5517 -0.0228 -0.9925
  680MPD2    H210116   1.639   0.434  13.383 -0.9288  1.0327  0.1444
  680MPD2    H310117   1.540   0.659  13.345 -1.9309  0.3266  0.9824
  680MPD2     N10118   1.664   0.811  13.743 -0.7919 -0.4328  0.9887
  680MPD2    H510119   1.599   0.887  13.722 -0.3894 -0.6648 -1.1729
  680MPD2    N110120   1.815   0.384  13.578  0.0860 -0.2653  0.1825
  680MPD2    H710121   1.872   0.386  13.662  0.6211  0.7723 -0.2134
  681TMC3    C110122   1.905   0.176  13.600  0.4894 -0.4572 -0.4201
  681TMC3    C210123   1.822   0.121  13.696 -0.3651  0.0711  0.2113
  681TMC3    C310124   1.850   0.130  13.828  0.2641  0.1228 -0.4144
  681TMC3    C410125   2.022   0.243  13.639 -0.1283 -0.3600  0.1602
  681TMC3    C510126   2.057   0.237  13.769 -0.0787 -0.1581  0.0152
  681TMC3    C610127   1.964   0.193  13.866  0.4738 -0.1117 -0.3944
  681TMC3     C10128   1.819   0.264  13.514  1.0140 -0.2130  0.3130
  681TMC3     O10129   1.733   0.213  13.441  0.1429 -0.2535  0.4905
  681TMC3     H10130   1.732   0.068  13.666 -0.3659 -0.3051  0.8742
  681TMC3    H110131   2.097   0.260  13.562 -1.0926  1.4912 -0.3717
  681TMC3    H210132   1.998   0.192  13.969 -1.6816  0.3584  0.3130
  681TMC3    C710133   2.185   0.284  13.824 -0.1603  0.1287  0.1016
  681TMC3    C810134   1.741   0.183  13.908 -0.2487  0.2154  0.4799
  681TMC3    O110135   2.197   0.289  13.946 -0.6928 -0.0504 -0.1165
  681TMC3    O210136   1.633   0.159  13.856 -0.9696  0.2230 -0.2446
  682MPD2     C10137   3.761   2.405  10.544 -0.2425  0.8200 -0.1200
  682MPD2    C110138   3.869   2.345  10.603 -0.2570 -0.7196  0.2619
  682MPD2    C210139   3.887   2.360  10.740  0.0508 -0.3784 -0.4460
  682MPD2    C310140   3.799   2.435  10.817  0.2563 -0.4172 -0.1906
  682MPD2    C410141   3.676   2.473  10.761  0.1566  0.1508  0.5121
  682MPD2    C510142   3.664   2.464  10.625 -0.3216 -0.4371 -0.3974
  682MPD2     H10143   3.972   2.307  10.782 -0.1089  0.4093  0.8677
  682MPD2    H110144   3.601   2.521  10.823 -0.6313 -0.5853  0.1323
  682MPD2    H210145   3.737   2.394  10.439  2.1923  3.1401 -0.9096
  682MPD2    H310146   3.565   2.476  10.582 -0.4181  0.3271  0.0370
  682MPD2     N10147   3.805   2.425  10.960 -0.2862 -0.4597 -0.1892
  682MPD2    H510148   3.718   2.451  11.005  0.0357  1.2407 -0.5304
  682MPD2    N110149   3.949   2.256  10.530 -0.1489 -0.1693 -0.1493
  682MPD2    H710150   4.011   2.199  10.588 -1.5298 -1.2842  0.2216
  683TMC3    C110151   3.982   2.310  11.378 -0.4523  0.2789 -0.9644
  683TMC3    C210152   3.868   2.252  11.421  0.0485  0.3924 -0.3172
  683TMC3    C310153   3.763   2.249  11.335  0.1742 -0.5283  0.0692
  683TMC3    C410154   4.005   2.357  11.254  0.1210  0.0767 -0.1153
  683TMC3    C510155   3.894   2.364  11.171 -0.5713  0.0308 -0.6706
  683TMC3    C610156   3.770   2.316  11.211 -0.1372  0.1079  0.2072
  683TMC3     C10157   4.071   2.361  11.480  0.2728  0.3358 -0.3604
  683TMC3     O10158   4.128   2.468  11.462  0.1296 -0.1733 -0.1333
  683TMC3     H10159   3.841   2.226  11.523 -2.1131  0.1256 -0.9564
  683TMC3    H110160   4.093   2.418  11.236  0.6395 -0.0144  2.1467
  683TMC3    H210161   3.691   2.306  11.137  1.0736 -2.6847 -0.7133
  683TMC3    C710162   3.917   2.383  11.030  0.3348  0.0107  0.3981
  683TMC3    C810163   3.656   2.152  11.357 -0.0434 -0.1517  0.6090
  683TMC3    O110164   4.032   2.384  10.985  1.0577 -1.1789  0.9792
  683TMC3    O210165   3.551   2.173  11.303 -0.0354 -0.2498  0.3042
  684MPD2     C10166   2.231   1.669  16.337  0.7574  0.8801  0.0684
  684MPD2    C110167   2.238   1.763  16.240  0.6989  0.8105 -0.1164
  684MPD2    C210168   2.204   1.891  16.271  0.0465 -0.8358 -0.2299
  684MPD2    C310169   2.150   1.929  16.396  0.3079 -0.1297 -0.4851
  684MPD2    C410170   2.138   1.827  16.492  0.2777  0.4353  0.0744
  684MPD2    C510171   2.178   1.703  16.461  0.2072 -0.2888 -0.4077
  684MPD2     H10172   2.218   1.966  16.193 -1.2841  0.4240  0.7379
  684MPD2    H110173   2.101   1.840  16.593  1.1650 -2.8852  0.8192
  684MPD2    H210174   2.264   1.566  16.328  2.5531  1.4819 -0.1517
  684MPD2    H310175   2.170   1.629  16.540 -1.7080  1.4995  1.1073
  684MPD2     N10176   2.109   2.061  16.435 -0.0083  0.1673  0.4276
  684MPD2    H510177   2.090   2.081  16.533 -2.5826  0.0656 -0.0514
  684MPD2    N110178   2.283   1.736  16.109  0.1396  0.1253  0.5107
  684MPD2    H710179   2.285   1.813  16.043 -1.4945 -0.4159 -0.1639
  685TMC3    C110180   2.365   1.625  15.915  0.7619 -0.6094 -0.6107
  685TMC3    C210181   2.273   1.590  15.822 -0.1010 -0.6762  0.3389
  685TMC3    C310182   2.278   1.650  15.698  0.3242  0.0991 -0.3057
  685TMC3    C410183   2.463   1.715  15.884 -0.2379 -0.2099  0.4585
  685TMC3    C510184   2.469   1.763  15.765  0.1093 -0.7553  0.1066
  685TMC3    C610185   2.377   1.735  15.666  0.1404 -0.2779  0.3760
  685TMC3     C10186   2.324   1.611  16.056  0.2673  0.1965  0.5941
  685TMC3     O10187   2.314   1.499  16.100 -0.6583  0.0701  0.7885
  685TMC3     H10188   2.210   1.506  15.849  2.6855 -3.2249 -1.0906
  685TMC3    H110189   2.543   1.716  15.957  0.5682 -1.2608 -0.4155
  685TMC3    H210190   2.365   1.791  15.574 -2.6883 -1.2153  0.1830
  685TMC3    C710191   2.549   1.882  15.742  0.5006 -0.4866  0.7305
  685TMC3    C810192   2.152   1.688  15.643  0.0561  0.6703 -0.1447
  685TMC3    O110193   2.580   1.914  15.626  0.2602  0.0068 -0.5934
  685TMC3    O210194   2.150   1.722  15.525 -0.5126  0.3601 -0.0404
  686MPD2     C10195   3.449   2.133  15.541  0.3153 -0.1987 -0.2880
  686MPD2    C110196   3.454   2.079  15.665 -0.4118  0.1085  0.4672
  686MPD2    C210197   3.583   2.056  15.717  0.1692 -0.0335 -0.1964
  686MPD2    C310198   3.697   2.082  15.640  1.3837  0.5131  0.1838
  686MPD2    C410199   3.682   2.128  15.510  0.2072  0.1402  0.4070
  686MPD2    C510200   3.562   2.153  15.465  0.2284  0.7278  0.3674
  686MPD2     H10201   3.588   2.016  15.817 -0.8945 -0.5627 -0.3629
  686MPD2    H110202   3.762   2.164  15.445 -1.8188  3.6940 -0.1214
  686MPD2    H210203   3.353   2.153  15.495  0.5633 -0.2783 -0.8470
  686MPD2    H310204   3.548   2.205  15.371 -1.5192 -0.6613 -0.1303
  686MPD2     N10205   3.815   2.039  15.694  0.2591  0.2802  0.5444
  686MPD2    H510206   3.808   2.010  15.791 -0.5366  0.8534  0.6597
  686MPD2    N110207   3.333   2.048  15.744 -0.0774 -0.5253  0.0035
  686MPD2    H710208   3.245   2.070  15.698 -0.4539 -2.1395 -0.0506
  687TMC3    C110209   4.026   1.942  15.706  0.1636  0.7957  1.3412
  687TMC3    C210210   4.114   1.881  15.628 -0.4910 -0.1965  0.0543
  687TMC3    C310211   4.149   1.751  15.646  0.6198  0.1229 -0.2946
  687TMC3    C410212   3.979   1.892  15.821 -0.8209 -0.2434  0.3792
  687TMC3    C510213   4.024   1.766  15.843  0.2755 -0.2581  0.3509
  687TMC3    C610214   4.100   1.696  15.755  0.2830  0.7019  0.2186
  687TMC3     C10215   3.933   2.016  15.626 -0.5049  0.2582  0.3534
  687TMC3     O10216   3.965   2.029  15.508  0.3165 -0.9905  0.4762
  687TMC3     H10217   4.157   1.930  15.542  0.9332  1.9797  2.0195
  687TMC3    H110218   3.924   1.951  15.893 -5.1518 -0.7620 -2.5471
  687TMC3    H210219   4.117   1.593  15.784 -2.8098  0.0048 -0.4949
  687TMC3    C710220   4.050   1.741  15.986 -0.0002 -0.7544 -0.1894
  687TMC3    C810221   4.132   1.663  15.527  0.5839  0.6711  0.0434
  687TMC3    O110222   3.972   1.797  16.064  0.3246  0.2944 -0.6286
  687TMC3    O210223   4.153   1.544  15.540 -1.0138 -0.2011 -0.1796
  688MPD2     C10224   2.834   0.865  17.270 -0.0461 -0.0882 -0.1046
  688MPD2    C110225   2.816   0.730  17.289  0.3648  0.7150 -0.6392
  688MPD2    C210226   2.924   0.646  17.266 -0.8004  0.1610  0.5798
  688MPD2    C310227   3.054   0.687  17.218  0.2262 -0.4715  0.2445
  688MPD2    C410228   3.062   0.827  17.207 -0.1150 -0.6657  0.2974
  688MPD2    C510229   2.955   0.909  17.221 -0.2817  0.1081 -0.0366
  688MPD2     H10230   2.904   0.539  17.269  0.4149 -0.0314  1.7880
  688MPD2    H110231   3.150   0.865  17.158 -0.1699  0.3627  0.9960
  688MPD2    H210232   2.759   0.929  17.313 -0.6213  1.0484 -2.8100
  688MPD2    H310233   2.985   1.011  17.200  0.1331 -0.1909 -0.9096
  688MPD2     N10234   3.155   0.597  17.182  0.1888 -0.3423  0.1772
  688MPD2    H510235   3.238   0.643  17.147  1.0878 -2.2181 -0.1415
  688MPD2    N110236   2.700   0.675  17.349  0.0644 -0.4599  0.2200
  688MPD2    H710237   2.707   0.575  17.369 -2.7011 -0.3689  1.6477
  689TMC3    C110238   2.486   0.677  17.469  0.1646 -0.1875  0.1652
  689TMC3    C210239   2.429   0.752  17.571 -0.6235  0.4290  0.4376
  689TMC3    C310240   2.361   0.682  17.667  0.4214 -0.0442 -0.1643
  689TMC3    C410241   2.473   0.541  17.460  0.6389  0.4001  0.2073
  689TMC3    C510242   2.409   0.478  17.562 -0.4684  0.5707 -0.8983
  689TMC3    C610243   2.350   0.548  17.660  0.5687  0.3252 -0.7777
  689TMC3     C10244   2.589   0.746  17.387 -0.1538  1.3920  0.5459
  689TMC3     O10245   2.567   0.864  17.377 -0.1094  0.9472  0.2144
  689TMC3     H10246   2.449   0.858  17.583 -0.5361  0.2752  1.6971
  689TMC3    H110247   2.516   0.482  17.379  1.3368 -1.6684  2.0935
  689TMC3    H210248   2.295   0.497  17.739  0.3505 -0.0986 -1.2076
  689TMC3    C710249   2.389   0.328  17.559  0.1029  0.2512 -0.0565
  689TMC3    C810250   2.366   0.736   0.052  0.1736 -0.3591  0.0940
  689TMC3    O110251   2.367   0.286  17.672  0.3186  0.7420  0.4702
  689TMC3    O210252   2.442   0.829   0.074 -0.7545 -0.0224  0.1690
  690MPD2     C10253   0.841   2.879  15.744 -0.0319  0.0107 -0.1071
  690MPD2    C110254   0.778   2.839  15.620  0.8751 -0.2787  0.1838
  690MPD2    C210255   0.850   2.848  15.501 -0.6063  0.1091  0.0668
  690MPD2    C310256   0.977   2.896  15.508 -0.1918 -0.1890 -0.5553
  690MPD2    C410257   1.035   2.950  15.623 -0.3562 -0.3202 -0.4896
  690MPD2    C510258   0.965   2.941  15.738 -0.4443 -0.3898  0.0726
  690MPD2     H10259   0.802   2.825  15.406 -0.9212  4.1632 -0.7849
  690MPD2    H110260   1.138   2.981  15.631 -0.1265 -2.2671  3.9361
  690MPD2    H210261   0.798   2.867  15.842  0.4528  0.4955  0.1667
  690MPD2    H310262   1.015   2.979  15.826 -1.7824  0.0164  0.6400
  690MPD2     N10263   1.039   2.896  15.382  0.2735 -0.0151  0.2418
  690MPD2    H510264   0.993   2.851  15.303 -0.2079  1.8763 -0.5546
  690MPD2    N110265   0.658   2.762  15.620  0.0515 -0.1463 -0.2511
  690MPD2    H710266   0.634   2.720  15.530 -0.2049 -3.8306  1.5187
  691TMC3    C110267   0.483   2.633  15.699 -0.0102 -0.6416  0.6859
  691TMC3    C210268   0.415   2.652  15.583  0.9624 -0.2629 -0.4830
  691TMC3    C310269   0.368   2.537  15.526 -0.5701  0.9271  0.2097
  691TMC3    C410270   0.500   2.512  15.763 -0.5113  0.6414 -0.2281
  691TMC3    C510271   0.451   2.400  15.703 -0.0398 -0.0936  0.6494
  691TMC3    C610272   0.393   2.414  15.582  0.4786  0.3555 -0.6149
  691TMC3     C10273   0.580   2.729  15.733 -0.0793 -0.0007  0.3315
  691TMC3     O10274   0.610   2.740  15.853  0.3921 -0.3920  0.0311
  691TMC3     H10275   0.399   2.754  15.549 -1.3101 -0.1305  0.9486
  691TMC3    H110276   0.550   2.509  15.860 -0.1875  0.6139 -0.3950
  691TMC3    H210277   0.360   2.334  15.516 -0.3981  0.2872 -0.1022
  691TMC3    C710278   0.488   2.263  15.748 -0.0814  0.1427  0.1502
  691TMC3    C810279   0.244   2.541  15.443  0.4126 -0.4757 -0.9268
  691TMC3    O110280   0.583   2.255  15.823 -0.3310  0.4761  0.3074
  691TMC3    O210281   0.209   2.441  15.384  0.4531 -0.2630 -0.6013
  692TMC3    C110282   2.100   3.419  15.881  0.2847  0.3756 -0.6979
  692TMC3    C210283   2.216   3.457  15.943  0.1647  0.0513 -0.6492
  692TMC3    C310284   2.317   3.361  15.958 -0.0213 -0.6130  0.0255
  692TMC3    C410285   2.087   3.286  15.847 -0.1731  0.6480  0.3903
  692TMC3    C510286   2.193   3.204  15.862  0.5157 -0.0687  0.1123
  692TMC3    C610287   2.314   3.238  15.907  0.3493  0.3704 -0.4160
  692TMC3     C10288   1.983   3.480  15.930  0.2167 -0.1196 -0.3284
  692TMC3     O10289   1.889   3.403  15.937 -0.1243  0.4990 -0.0466
  692TMC3     H10290   2.237   3.561  15.965  1.6428 -0.5449  0.7571
  692TMC3    H110291   1.997   3.249  15.799 -0.4092  0.9598  0.5936
  692TMC3    H210292   2.393   3.166  15.927 -0.3906  0.2351  1.9408
  692TMC3    C710293   2.170   3.069  15.819  0.0103  0.0239  0.2471
  692TMC3    C810294   2.353   3.359  16.093 -0.1658 -0.3265 -0.0476
  692TMC3    O110295   2.116   3.051  15.711 -0.4543  0.0447  0.2434
  692TMC3    O210296   2.435   3.278  16.132 -0.1109 -0.1495  0.3074
  693MPD2     C10297   2.066   1.757  10.570  0.2795  0.1698  0.1861
  693MPD2    C110298   1.969   1.654  10.596  0.3921  0.0546  0.7778
  693MPD2    C210299   2.011   1.551  10.681  0.7173  0.0034 -0.0052
  693MPD2    C310300   2.145   1.538  10.713  0.5022 -0.7827 -0.2645
  693MPD2    C410301   2.239   1.627  10.665 -0.4306  0.3855 -0.0451
  693MPD2    C510302   2.196   1.733  10.595 -0.0304 -0.4249  0.3825
  693MPD2     H10303   1.939   1.477  10.715 -0.0394  0.9466  0.4472
  693MPD2    H110304   2.345   1.605  10.669 -0.0703  2.1215  0.0154
  693MPD2    H210305   2.037   1.849  10.521 -0.2111 -1.5245 -2.6726
  693MPD2    H310306   2.278   1.797  10.563 -0.1108 -0.5331 -0.0453
  693MPD2     N10307   2.205   1.435  10.792  0.5428  0.1373  0.1304
  693MPD2    H510308   2.304   1.448  10.804  0.0634  2.8076  1.1664
  693MPD2    N110309   1.840   1.663  10.546  0.4697  0.5781  0.4012
  693MPD2    H710310   1.801   1.749  10.508  2.1947  0.7216 -1.0272
  694TMC3    C110311   1.627   1.597  10.481  0.0410 -0.4502 -0.0805
  694TMC3    C210312   1.559   1.500  10.411 -0.3601 -0.6336 -1.2384
  694TMC3    C310313   1.455   1.536  10.332 -0.3277 -0.8490 -0.0388
  694TMC3    C410314   1.581   1.728  10.483  0.3301 -0.1027  0.4067
  694TMC3    C510315   1.461   1.762  10.423 -0.0132 -0.1149 -0.1612
  694TMC3    C610316   1.404   1.668  10.338  0.6534 -0.4099  0.3064
  694TMC3     C10317   1.753   1.556  10.542 -0.3659  0.0199 -0.0200
  694TMC3     O10318   1.788   1.438  10.537 -0.0997  0.4411 -0.1047
  694TMC3     H10319   1.601   1.400  10.400  1.1378 -0.3129  1.6586
  694TMC3    H110320   1.625   1.806  10.544 -1.5905  1.6124 -0.3931
  694TMC3    H210321   1.303   1.682  10.303  0.5955 -0.4818  0.4431
  694TMC3    C710322   1.369   1.827  10.516  1.2813 -0.2473  0.1338
  694TMC3    C810323   1.399   1.428  10.248  0.3194  0.3994 -0.2656
  694TMC3    O110324   1.268   1.874  10.460  0.8811  0.0249  0.7103
  694TMC3    O210325   1.400   1.315  10.287  0.4596  0.0762  0.4383
  695MPD2     C10326   2.989   2.927  13.282 -0.2673  0.7677 -0.6339
  695MPD2    C110327   2.926   2.910  13.406  0.3651 -0.0270  0.2738
  695MPD2    C210328   2.785   2.912  13.416  0.3651  0.0208 -0.4732
  695MPD2    C310329   2.707   2.917  13.303  0.4245  0.4126 -0.8537
  695MPD2    C410330   2.768   2.921  13.179  0.1265 -0.0257 -0.4164
  695MPD2    C510331   2.907   2.931  13.168  0.0163 -0.1000  0.4180
  695MPD2     H10332   2.737   2.915  13.514 -1.8074  2.8315 -1.5976
  695MPD2    H110333   2.718   2.923  13.083  1.9754 -0.1353 -1.3887
  695MPD2    H210334   3.097   2.931  13.273  0.0231 -0.6515  2.4220
  695MPD2    H310335   2.952   2.940  13.069 -0.7264 -0.0711  0.0834
  695MPD2     N10336   2.566   2.911  13.322  0.3041  0.3714  0.2346
  695MPD2    H510337   2.529   2.901  13.416 -0.9581 -2.2033 -0.5337
  695MPD2    N110338   2.996   2.900  13.531  0.0015 -0.0250  0.4255
  695MPD2    H710339   2.935   2.892  13.612  0.6150 -0.2656  0.8633
  696TMC3    C110340   2.334   2.930  13.271 -0.5553  0.4929  0.4665
  696TMC3    C210341   2.316   2.860  13.390 -0.0571 -0.3531  0.1603
  696TMC3    C310342   2.217   2.912  13.466  0.4168  0.4423  0.8728
  696TMC3    C410343   2.256   3.031  13.224  0.5593  0.2609  0.1007
  696TMC3    C510344   2.167   3.083  13.311  0.8651  0.3050  0.4079
  696TMC3    C610345   2.143   3.021  13.431  0.1241  0.2105  0.3074
  696TMC3     C10346   2.471   2.928  13.227 -0.4677 -0.2599 -0.0447
  696TMC3     O10347   2.490   2.964  13.114  0.1932 -0.6997  0.1637
  696TMC3     H10348   2.366   2.767  13.412 -1.1916 -0.5329  1.9644
  696TMC3    H110349   2.268   3.078  13.127  2.2655 -0.9931 -0.3067
  696TMC3    H210350   2.068   3.059  13.499 -1.4620 -1.7136 -0.3461
  696TMC3    C710351   2.114   3.213  13.272 -0.1918 -0.5591  0.3719
  696TMC3    C810352   2.192   2.868  13.599 -0.7391  0.5658  0.2963
  696TMC3    O110353   2.114   3.244  13.155  0.6568 -0.0122  0.2402
  696TMC3    O210354   2.176   2.954  13.687  0.5123 -0.0226  0.3862
  697MPD2     C10355   1.700   0.164  16.079  0.5959 -0.5828 -0.6406
  697MPD2    C110356   1.655   0.141  15.949  0.5164 -0.3752  1.1734
  697MPD2    C210357   1.635   0.248  15.863 -0.3706  0.2198 -0.2854
  697MPD2    C310358   1.656   0.372  15.913 -0.5230 -0.1426  0.2605
  697MPD2    C410359   1.712   0.389  16.042 -0.4733 -0.6092  0.6475
  697MPD2    C510360   1.739   0.282  16.122  0.3655 -0.1025  0.1906
  697MPD2     H10361   1.585   0.239  15.767  1.7173 -1.2440 -1.2463
  697MPD2    H110362   1.751   0.489  16.059 -1.9505  0.3820 -1.6587
  697MPD2    H210363   1.718   0.081  16.146 -0.8616 -0.8206 -0.5493
  697MPD2    H310364   1.783   0.291  16.221  1.5049  0.3701 -0.3636
  697MPD2     N10365   1.647   0.482  15.828 -0.1544 -0.6526 -0.0344
  697MPD2    H510366   1.653   0.470  15.728  1.1457 -0.0545 -0.0196
  697MPD2    N110367   1.629   0.013  15.900  0.4776  0.0334  0.0688
  697MPD2    H710368   1.608   0.003  15.801 -1.8000 -1.7876  0.7354
  698TMC3    C110369   1.607   0.703  15.761  0.4047 -0.5457  0.6636
  698TMC3    C210370   1.573   0.835  15.796 -0.4648  0.3959  0.2181
  698TMC3    C310371   1.520   0.913  15.693 -0.3956 -0.6350  0.0105
  698TMC3    C410372   1.592   0.664  15.627 -0.4588 -0.0975 -0.0140
  698TMC3    C510373   1.526   0.739  15.539  0.3102 -0.1647 -0.0080
  698TMC3    C610374   1.478   0.869  15.567 -0.1678 -0.3741 -0.1616
  698TMC3     C10375   1.631   0.615  15.868  0.2622  0.0835 -0.4346
  698TMC3     O10376   1.602   0.665  15.978 -0.4165  0.3263  0.8026
  698TMC3     H10377   1.598   0.882  15.890  0.3277  0.7608 -0.1771
  698TMC3    H110378   1.636   0.567  15.605 -1.2840 -0.3179 -0.6965
  698TMC3    H210379   1.433   0.931  15.491  0.1345  1.2988  1.0298
  698TMC3    C710380   1.531   0.699  15.399 -0.3738 -0.1951  0.3207
  698TMC3    C810381   1.577   1.047  15.699 -0.9790 -1.5075  0.2514
  698TMC3    O110382   1.452   0.751  15.323 -0.0422 -0.0723  0.5138
  698TMC3    O210383   1.550   1.107  15.802 -0.5207  0.2074  0.1375
  699TMC3    C110384   1.674   3.370  12.916 -0.0252 -0.7402 -0.8008
  699TMC3    C210385   1.748   3.292  13.000  0.2948  0.0173 -0.2354
  699TMC3    C310386   1.706   3.275  13.129 -0.6826 -0.4243 -0.1398
  699TMC3    C410387   1.553   3.423  12.952  0.9066  0.2806 -0.1662
  699TMC3    C510388   1.517   3.406  13.078 -0.0595  0.6012 -0.1116
  699TMC3    C610389   1.588   3.319  13.162 -0.6051 -0.7231 -0.1756
  699TMC3     C10390   1.719   3.404  12.784 -0.5675 -0.7155  0.3742
  699TMC3     O10391   1.638   3.450  12.705 -0.3605 -0.7993  0.1552
  699TMC3     H10392   1.846   3.256  12.972 -0.8856 -1.0555 -3.0219
  699TMC3    H110393   1.498   3.489  12.885  1.9660  0.8675 -0.4619
  699TMC3    H210394   1.565   3.325  13.268  0.5477 -0.2333  0.0442
  699TMC3    C710395   1.427   3.504  13.143 -0.3668  0.4577 -0.3551
  699TMC3    C810396   1.750   3.169  13.214  1.3529 -0.2163 -1.0982
  699TMC3    O110397   1.399   3.492  13.262  0.0291  0.0789 -0.1864
  699TMC3    O210398   1.721   3.167  13.334  0.0208 -0.1479  0.1049
  700TMC3    C110399   0.508   1.110  17.303 -0.6192 -0.0131  0.2425
  700TMC3    C210400   0.567   0.991  17.274 -0.4121  0.4995  0.1496
  700TMC3    C310401   0.682   0.967  17.344  0.2322  0.2237  0.1238
  700TMC3    C410402   0.540   1.194  17.405 -0.1726  0.5478 -0.1735
  700TMC3    C510403   0.661   1.167  17.476 -0.2769 -0.2086  0.2812
  700TMC3    C610404   0.734   1.055  17.439 -0.3792  0.4041  0.4805
  700TMC3     C10405   0.469   1.179  17.186  0.0790  0.2246 -0.1705
  700TMC3     O10406   0.404   1.118  17.105  0.2733 -0.1621  0.1970
  700TMC3     H10407   0.553   0.942  17.178 -1.2696 -0.2743  0.6642
  700TMC3    H110408   0.486   1.287  17.419 -0.6928  0.0945  0.8408
  700TMC3    H210409   0.833   1.032  17.477 -0.6430 -1.6682 -0.1129
  700TMC3    C710410   0.724   1.259  17.563 -0.3907  0.2129  0.2186
  700TMC3    C810411   0.730   0.831  17.341 -0.3891 -0.2368  0.0429
  700TMC3    O110412   0.846   1.261  17.567 -0.2628  0.1471 -0.1437
  700TMC3    O210413   0.844   0.809  17.379 -0.3500  0.2828 -0.6272
  701TMC3    C110414   1.002   4.303  15.274  0.9657  0.6369  0.7425
  701TMC3    C210415   0.897   4.362  15.196 -0.1719  0.3470  0.4920
  701TMC3    C310416   0.848   4.485  15.244 -0.1629 -0.3319 -0.2258
  701TMC3    C410417   1.046   4.360  15.395 -0.3784 -0.4083  0.5627
  701TMC3    C510418   0.983   4.479  15.438  0.8761  0.1173  0.3790
  701TMC3    C610419   0.893   4.539  15.359 -0.1064  0.8072  0.2226
  701TMC3     C10420   1.067   4.178  15.235  0.0975 -0.5081 -0.3581
  701TMC3     O10421   1.134   4.124  15.325 -0.5761 -0.4259 -0.3737
  701TMC3     H10422   0.859   4.313  15.108 -1.1408  2.0814 -0.0482
  701TMC3    H110423   1.122   4.310  15.455 -1.1614  0.2877  2.1357
  701TMC3    H210424   0.855   4.632  15.401 -0.1837  0.4045  1.0372
  701TMC3    C710425   1.052   4.549  15.541  1.0639  0.1932 -0.2295
  701TMC3    C810426   0.755   4.558  15.159 -0.3254  0.2867 -0.2167
  701TMC3    O110427   1.059   4.672  15.521  0.0916  0.2210 -0.6192
  701TMC3    O210428   0.701   4.652  15.221 -0.0519 -0.3223 -0.1210
  702MPD2     C10429   0.099   1.934  10.398  0.4142  0.1200  0.0261
  702MPD2    C110430   0.224   1.957  10.449  0.9394 -1.1824  0.8287
  702MPD2    C210431   0.292   2.073  10.428 -0.0788  0.1191 -0.2858
  702MPD2    C310432   0.231   2.180  10.361  0.0058 -0.2693  0.0335
  702MPD2    C410433   0.106   2.158  10.319  0.0639  0.0504 -0.4910
  702MPD2    C510434   0.041   2.039  10.329  0.2841 -0.4653  0.2112
  702MPD2     H10435   0.391   2.083  10.469 -1.6707  1.8133  3.1184
  702MPD2    H110436   0.041   2.237  10.284 -0.4259 -0.0255  0.2644
  702MPD2    H210437   0.047   1.840  10.404 -3.0276  2.0209 -0.3121
  702MPD2    H310438   4.683   2.037  10.278  0.8939 -0.7544 -0.9059
  702MPD2     N10439   0.288   2.306  10.351  0.4430 -0.2035 -0.0659
  702MPD2    H510440   0.229   2.388  10.356  0.6125 -0.2690  2.8028
  702MPD2    N110441   0.290   1.865  10.537 -0.6155  0.1533  0.3537
  702MPD2    H710442   0.372   1.890  10.591 -0.6178 -0.5967  0.7040
  703TMC3    C110443   0.461   2.454  10.412  0.4301  0.1869  0.2516
  703TMC3    C210444   0.411   2.468  10.540 -0.2251  0.5185 -0.5704
  703TMC3    C310445   0.500   2.494  10.642  0.3372  0.4708 -0.5569
  703TMC3    C410446   0.592   2.481  10.381  0.2745 -0.4068  0.5637
  703TMC3    C510447   0.679   2.513  10.482 -0.1783 -0.4898 -0.1540
  703TMC3    C610448   0.633   2.519  10.616 -1.0391 -0.7105  0.3772
  703TMC3     C10449   0.424   2.325  10.353  0.2234 -0.2817 -0.6782
  703TMC3     O10450   0.508   2.238  10.339  0.6166  0.3999  0.1030
  703TMC3     H10451   0.305   2.449  10.557 -0.0788 -0.9846 -1.4024
  703TMC3    H110452   0.633   2.458  10.284  2.0424 -0.4985  1.3209
  703TMC3    H210453   0.708   2.523  10.694  0.1461 -0.3442 -0.7783
  703TMC3    C710454   0.804   2.574  10.459  0.2084 -0.3323  0.2593
  703TMC3    C810455   0.460   2.506  10.784 -0.1186 -0.8079  0.5414
  703TMC3    O110456   0.811   2.615  10.345 -0.0269 -0.2831 -0.1720
  703TMC3    O210457   0.547   2.561  10.848 -0.2450 -0.0834 -0.6684
  704TMC3    C110458   2.879   4.261  12.643  0.1081 -0.5867 -0.2109
  704TMC3    C210459   2.993   4.334  12.676 -0.1934 -0.9139  0.3739
  704TMC3    C310460   3.091   4.269  12.743  0.1809 -0.3046  0.0310
  704TMC3    C410461   2.874   4.126  12.661 -0.3745  0.1657 -0.6852
  704TMC3    C510462   2.986   4.065  12.704  0.1528 -0.9341  0.6123
  704TMC3    C610463   3.089   4.138  12.764  0.4757  0.4708 -0.2625
  704TMC3     C10464   2.757   4.329  12.616 -0.5609  0.4727  0.4928
  704TMC3     O10465   2.658   4.257  12.628  0.1803  0.0338  0.1203
  704TMC3     H10466   3.008   4.438  12.648 -1.4667 -0.2235  2.2937
  704TMC3    H110467   2.790   4.069  12.625 -0.3176  0.3978 -1.1917
  704TMC3    H210468   3.180   4.083  12.783  0.5869 -0.0242 -2.2259
  704TMC3    C710469   3.046   3.987  12.595 -0.3623  0.1336  0.2967
  704TMC3    C810470   3.227   4.328  12.737 -0.3982  0.1459 -0.0647
  704TMC3    O110471   3.168   3.990  12.573 -0.2764 -0.9112 -0.1750
  704TMC3    O210472   3.251   4.402  12.646 -0.5976  0.0539  0.3499
  705MPD2     C10473   2.634   3.129  16.738  0.0701 -0.3025 -0.0077
  705MPD2    C110474   2.593   3.084  16.620 -1.0138 -0.2193  0.0515
  705MPD2    C210475   2.460   3.055  16.602 -0.0936  0.5823 -0.3189
  705MPD2    C310476   2.372   3.079  16.709  0.0709  0.0892 -0.1144
  705MPD2    C410477   2.416   3.122  16.829  1.3180  0.0832  0.3965
  705MPD2    C510478   2.549   3.134  16.842 -0.6554  0.6001 -0.2092
  705MPD2     H10479   2.427   3.036  16.501  0.3519  1.1619 -0.5693
  705MPD2    H110480   2.350   3.139  16.913 -1.3525  0.1973 -1.7109
  705MPD2    H210481   2.739   3.153  16.749 -0.1800  1.6670 -2.1503
  705MPD2    H310482   2.586   3.173  16.936 -0.5036 -2.0946  0.8609
  705MPD2     N10483   2.233   3.067  16.693  0.7035 -0.6823  0.0937
  705MPD2    H510484   2.173   3.084  16.773 -0.6521  0.9661 -1.2709
  705MPD2    N110485   2.678   3.092  16.506 -0.2492  0.2372 -0.0193
  705MPD2    H710486   2.632   3.069  16.418  1.3979  2.2771 -1.4116
  706TMC3    C110487   3.032   3.130  16.223 -0.1479 -0.0532  0.0583
  706TMC3    C210488   2.970   3.213  16.136  0.0341  0.3361  0.1418
  706TMC3    C310489   2.858   3.278  16.184 -0.3425  0.3176 -0.2030
  706TMC3    C410490   2.975   3.092  16.342  0.1055 -0.2423 -0.4135
  706TMC3    C510491   2.853   3.147  16.373  0.2450 -0.2201  0.1106
  706TMC3    C610492   2.790   3.245  16.301  0.1070  0.2875  0.4085
  706TMC3     C10493   3.150   3.071  16.173 -0.3285 -0.2654 -0.5195
  706TMC3     O10494   3.235   3.064  16.258 -0.0861 -0.1686 -0.8077
  706TMC3     H10495   3.021   3.263  16.054  0.4613 -0.0911  0.1463
  706TMC3    H110496   3.041   3.033  16.404  0.8687  1.5486  0.4840
  706TMC3    H210497   2.686   3.265  16.326  0.2052  0.8301  0.3801
  706TMC3    C710498   2.810   3.114  16.500  0.1253  0.3658  0.6876
  706TMC3    C810499   2.803   3.386  16.102 -0.4249  0.2639 -0.5208
  706TMC3    O110500   2.896   3.128  16.584  0.4482 -0.4730  0.1621
  706TMC3    O210501   2.864   3.417  16.001  0.2803  0.0566  0.3404
  707TMC3    C110502   4.252   2.729   1.502 -0.5973  0.3489 -0.1815
  707TMC3    C210503   4.296   2.692   1.628 -0.4669 -0.0606 -0.2208
  707TMC3    C310504   4.207   2.632   1.715 -0.7045 -1.0894 -0.1245
  707TMC3    C410505   4.136   2.686   1.457 -1.1321  0.8776 -0.8131
  707TMC3    C510506   4.046   2.628   1.548 -0.2194  0.0704 -0.0020
  707TMC3    C610507   4.079   2.596   1.675  0.5084  0.2165 -0.3410
  707TMC3     C10508   4.351   2.715   1.404  0.1367  0.1314 -0.2559
  707TMC3     O10509   4.454   2.652   1.433 -0.3313  0.1390  0.0144
  707TMC3     H10510   4.390   2.725   1.670 -1.3638  1.4933  0.5699
  707TMC3    H110511   4.089   2.721   1.365 -1.5194  1.6034 -0.3394
  707TMC3    H210512   4.002   2.554   1.739  0.2083 -0.9435 -1.4494
  707TMC3    C710513   3.928   2.554   1.496  0.5593 -0.3512  0.4010
  707TMC3    C810514   4.275   2.560   1.819  0.5528 -0.5947  0.1985
  707TMC3    O110515   3.855   2.511   1.583  0.3066  0.0451 -0.1071
  707TMC3    O210516   4.305   2.622   1.916  0.0413  0.1951  0.5474
  708MPD2     C10517   0.964   1.333  13.897  0.1742 -0.2545  0.2105
  708MPD2    C110518   0.869   1.433  13.906  0.4938 -0.1316 -0.4074
  708MPD2    C210519   0.817   1.462  14.029 -0.2542  0.0194  0.3927
  708MPD2    C310520   0.850   1.387  14.139  0.4396  0.4336 -0.6999
  708MPD2    C410521   0.944   1.284  14.132 -0.1357  0.3036  0.0667
  708MPD2    C510522   0.999   1.261  14.008  0.5148 -1.0486  0.5389
  708MPD2     H10523   0.743   1.539  14.041  1.4981  2.5146 -4.5921
  708MPD2    H110524   0.980   1.227  14.217  2.7729 -0.0338 -1.3897
  708MPD2    H210525   1.020   1.309  13.808  0.0753  1.6825 -0.3702
  708MPD2    H310526   1.071   1.182  13.992  0.0636 -1.5250  0.8418
  708MPD2     N10527   0.775   1.413  14.257 -0.5977  0.6479 -0.0043
  708MPD2    H510528   0.707   1.488  14.262 -3.9549 -2.3521 -1.1082
  708MPD2    N110529   0.833   1.496  13.783 -0.2476  0.0113  0.0019
  708MPD2    H710530   0.872   1.455  13.698  0.3520  0.2935  0.1401
  709TMC3    C110531   0.677   1.603  13.634 -0.1015 -0.1235 -0.5611
  709TMC3    C210532   0.695   1.491  13.557  0.1892 -0.4735 -0.0376
  709TMC3    C310533   0.585   1.448  13.487  0.2009 -0.0365 -0.5128
  709TMC3    C410534   0.547   1.655  13.646  0.3905  0.2948 -0.0440
  709TMC3    C510535   0.437   1.594  13.593  0.0072  0.3571 -0.0725
  709TMC3    C610536   0.456   1.484  13.516  0.8577 -0.0856  0.2155
  709TMC3     C10537   0.734   1.593  13.771 -1.1694 -0.9209 -0.5072
  709TMC3     O10538   0.656   1.630  13.857  0.4553  0.3154  0.3933
  709TMC3     H10539   0.797   1.455  13.550 -0.0793 -1.4583  1.0367
  709TMC3    H110540   0.520   1.735  13.713 -1.2877 -1.8528  1.8229
  709TMC3    H210541   0.377   1.418  13.482 -0.1037  0.1443  1.9777
  709TMC3    C710542   0.327   1.566  13.690 -0.2453 -0.0661 -0.4058
  709TMC3    C810543   0.608   1.319  13.420 -0.1064  0.1055  0.6676
  709TMC3    O110544   0.227   1.509  13.648 -0.1315  0.2846 -0.0176
  709TMC3    O210545   0.549   1.220  13.457 -0.1683  0.0451  0.0720
  710TMC3    C110546   1.555   3.382   0.551 -0.2961  0.1494 -0.5085
  710TMC3    C210547   1.623   3.412   0.434 -0.0578 -0.1988 -0.4074
  710TMC3    C310548   1.756   3.369   0.432 -0.6765 -0.4065 -0.2033
  710TMC3    C410549   1.604   3.307   0.657  0.0992  0.2972  0.3268
  710TMC3    C510550   1.735   3.266   0.642  0.1744 -0.3776  0.4755
  710TMC3    C610551   1.809   3.300   0.531 -0.0213  0.0230  0.5137
  710TMC3     C10552   1.431   3.452   0.550  0.9395  0.1087 -0.4122
  710TMC3     O10553   1.335   3.399   0.493  0.4296  0.5906  0.4866
  710TMC3     H10554   1.572   3.467   0.355 -1.1553 -1.1408 -0.3579
  710TMC3    H110555   1.543   3.282   0.743 -0.9112 -1.4097 -0.8973
  710TMC3    H210556   1.902   3.248   0.517 -1.8791 -3.0962 -0.3029
  710TMC3    C710557   1.787   3.164   0.730 -0.9850 -0.3227  0.6692
  710TMC3    C810558   1.802   3.323   0.303 -0.0192  0.0723  0.4585
  710TMC3    O110559   1.714   3.072   0.763 -0.3674 -0.2856 -0.2743
  710TMC3    O210560   1.919   3.286   0.302 -0.2861 -0.2225 -0.3115
  711TMC3    C110561   1.935   3.932  14.602 -0.1336 -0.3650  0.7413
  711TMC3    C210562   1.985   4.048  14.659 -0.4919  0.0849  0.2809
  711TMC3    C310563   2.026   4.040  14.791  0.1544 -0.6386  0.2057
  711TMC3    C410564   1.913   3.820  14.676  0.2006 -0.5072 -0.0462
  711TMC3    C510565   1.962   3.815  14.806  0.5101 -0.0113 -0.3858
  711TMC3    C610566   2.000   3.929  14.866 -0.1386  0.6361 -0.1558
  711TMC3     C10567   1.887   3.954  14.465  0.7453 -0.7207  0.3864
  711TMC3     O10568   1.944   4.038  14.395 -0.6633 -0.2087 -0.7700
  711TMC3     H10569   2.006   4.139  14.604  0.6280  1.9013  3.7020
  711TMC3    H110570   1.886   3.730  14.622 -2.3017  1.3264 -1.8613
  711TMC3    H210571   2.011   3.926  14.974 -2.0686  0.1848  0.0296
  711TMC3    C710572   1.959   3.694  14.883 -0.4383 -0.0787  0.0124
  711TMC3    C810573   2.071   4.162  14.860  0.3074 -0.0793  0.0712
  711TMC3    O110574   2.033   3.698  14.982  0.6110  0.0599  0.2165
  711TMC3    O210575   2.046   4.270  14.811  0.6761  0.7483  0.3700
  712MPD2     C10576   3.349   0.132  14.114 -0.0700 -0.0469 -0.3927
  712MPD2    C110577   3.249   0.143  14.019  0.2075 -0.6491 -0.4616
  712MPD2    C210578   3.254   0.249  13.927  0.6435  0.6213 -0.0700
  712MPD2    C310579   3.360   0.334  13.929  0.8456 -0.2940  0.0311
  712MPD2    C410580   3.458   0.321  14.023 -0.8950  0.5908  0.6957
  712MPD2    C510581   3.451   0.223  14.117 -0.4795  0.0707 -0.1957
  712MPD2     H10582   3.193   0.241  13.838 -1.5975 -2.1438  1.7054
  712MPD2    H110583   3.531   0.400  14.034  1.7400 -1.4551 -2.3112
  712MPD2    H210584   3.343   0.060  14.194  0.1031 -0.3890 -0.6874
  712MPD2    H310585   3.522   0.247  14.196 -1.5098 -0.2435  0.8227
  712MPD2     N10586   3.380   0.438  13.833  0.6415  0.6986 -0.0422
  712MPD2    H510587   3.476   0.470  13.826  0.5469  1.4106  2.0834
  712MPD2    N110588   3.161   0.036  13.999  0.2708  0.0106 -0.2469
  712MPD2    H710589   3.111   0.043  13.911  3.3110 -0.7665 -2.0197
  713TMC3    C110590   3.327   0.586  13.646 -0.4296  0.8508  0.4240
  713TMC3    C210591   3.452   0.589  13.601  0.0622  0.2768  0.2367
  713TMC3    C310592   3.490   0.693  13.513 -0.4670 -0.7598  0.2968
  713TMC3    C410593   3.233   0.681  13.606  0.7909 -0.5391 -0.1017
  713TMC3    C510594   3.272   0.777  13.519 -0.1516  1.0281  0.2278
  713TMC3    C610595   3.403   0.785  13.471  0.3620  0.6071 -0.2121
  713TMC3     C10596   3.279   0.493  13.754  0.2409 -0.3734  0.4725
  713TMC3     O10597   3.163   0.470  13.750  0.3725  0.8436  0.3203
  713TMC3     H10598   3.510   0.497  13.608  1.7860  1.2529 -1.5156
  713TMC3    H110599   3.127   0.668  13.628  0.9294  0.3356  1.0780
  713TMC3    H210600   3.426   0.852  13.389  2.9094  0.8170  0.6898
  713TMC3    C710601   3.173   0.854  13.456  0.1494  0.0530  0.0095
  713TMC3    C810602   3.624   0.724  13.477  0.2963  0.2266  0.1442
  713TMC3    O110603   3.201   0.967  13.415 -0.6342 -0.1043 -0.2601
  713TMC3    O210604   3.643   0.812  13.389 -0.3044 -0.5793  0.1528
  714MPD2     C10605   0.363   4.062   1.033  0.1738  0.2493  0.3590
  714MPD2    C110606   0.343   3.931   1.058  0.2787  0.1121  0.2654
  714MPD2    C210607   0.259   3.866   0.966  0.3706  0.0002 -0.1944
  714MPD2    C310608   0.181   3.938   0.870 -0.1608 -0.4791  0.3659
  714MPD2    C410609   0.221   4.065   0.840  0.1761 -0.2288 -0.1838
  714MPD2    C510610   0.312   4.127   0.927 -0.2982 -0.5795  0.5296
  714MPD2     H10611   0.231   3.762   0.978  1.2132 -0.2323 -0.3113
  714MPD2    H110612   0.177   4.122   0.759 -0.1682 -1.2717 -0.7251
  714MPD2    H210613   0.427   4.126   1.093 -0.0324  1.9597 -1.2302
  714MPD2    H310614   0.336   4.231   0.909  1.2777 -1.0917 -0.2930
  714MPD2     N10615   0.085   3.863   0.801 -0.0274  0.2018  0.0554
  714MPD2    H510616   0.075   3.768   0.835 -0.3997  0.3294  0.3068
  714MPD2    N110617   0.407   3.868   1.166  0.2710 -0.6589  0.1303
  714MPD2    H710618   0.469   3.927   1.221  0.6993 -2.0674  1.1594
  715TMC3    C110619   0.467   3.695   1.314  0.5123  0.1161  0.1221
  715TMC3    C210620   0.457   3.561   1.350  0.4048 -0.2315 -0.6145
  715TMC3    C310621   0.546   3.504   1.434 -0.0457 -0.6206 -0.6830
  715TMC3    C410622   0.546   3.778   1.383 -0.6438  0.5376  0.2952
  715TMC3    C510623   0.634   3.718   1.474 -0.1298 -0.9797 -0.7301
  715TMC3    C610624   0.637   3.585   1.500 -0.3204  0.0884 -0.2499
  715TMC3     C10625   0.385   3.736   1.208  0.3055 -0.2591  0.4699
  715TMC3     O10626   0.309   3.654   1.162 -0.0202 -0.3685 -0.3973
  715TMC3     H10627   0.393   3.494   1.293  1.6228 -1.6557 -0.3124
  715TMC3    H110628   0.546   3.884   1.363  2.3792  0.1267 -1.9295
  715TMC3    H210629   0.710   3.545   1.569 -1.6665 -1.4585  0.2824
  715TMC3    C710630   0.758   3.789   1.506  0.5197  1.0613 -0.6390
  715TMC3    C810631   0.565   3.358   1.424  0.4638 -0.0855 -0.0771
  715TMC3    O110632   0.852   3.718   1.542 -0.7386 -0.1851 -0.4786
  715TMC3    O210633   0.522   3.295   1.331 -0.9288  0.2848  0.4539
  716MPD2     C10634   0.888   2.546   9.798 -0.6953 -0.2032  0.6687
  716MPD2    C110635   0.782   2.467   9.762  0.0499  0.5848  0.0319
  716MPD2    C210636   0.775   2.338   9.793  0.2155 -0.0867  0.2407
  716MPD2    C310637   0.884   2.272   9.850  0.8157  0.5707  0.2699
  716MPD2    C410638   0.989   2.343   9.890 -0.5307  0.1377  0.0131
  716MPD2    C510639   0.984   2.476   9.863 -0.3267  0.3802  0.7172
  716MPD2     H10640   0.698   2.269   9.760 -0.2557  0.7968 -0.4834
  716MPD2    H110641   1.075   2.306   9.945 -0.8929 -1.0191 -0.2002
  716MPD2    H210642   0.904   2.652   9.783 -0.3703 -0.2347  0.7873
  716MPD2    H310643   1.069   2.538   9.889  1.2421 -1.4502 -0.0217
  716MPD2     N10644   0.874   2.133   9.855 -0.3284  0.7384  0.1280
  716MPD2    H510645   0.791   2.089   9.818 -0.0224  0.8606 -0.7072
  716MPD2    N110646   0.685   2.535   9.687  0.8726  0.5114  0.0909
  716MPD2    H710647   0.704   2.633   9.666  1.5666  0.6298  1.2849
  717TMC3    C110648   0.921   1.910   9.918  0.0432  0.7002  0.2348
  717TMC3    C210649   0.781   1.894   9.937 -0.1495 -0.0735 -0.3150
  717TMC3    C310650   0.736   1.766   9.969 -0.3779  0.8308  0.3889
  717TMC3    C410651   1.006   1.821   9.967  0.2158  0.2581 -0.1587
  717TMC3    C510652   0.953   1.700  10.004 -0.4696 -0.5632  0.1937
  717TMC3    C610653   0.818   1.665  10.005  0.1812 -0.5057 -0.3633
  717TMC3     C10654   0.973   2.049   9.888  0.0883 -0.3520  0.2453
  717TMC3     O10655   1.093   2.061   9.924 -0.1229  0.3272 -0.1956
  717TMC3     H10656   0.718   1.973   9.901 -2.0331 -0.8867  1.2153
  717TMC3    H110657   1.113   1.837   9.957  0.1109  0.3918 -1.0748
  717TMC3    H210658   0.778   1.574  10.049  2.0050 -1.0416  0.1789
  717TMC3    C710659   1.030   1.638  10.118 -0.1586  0.6281  0.0923
  717TMC3    C810660   0.597   1.741   9.941  0.6018 -0.6321 -0.2848
  717TMC3    O110661   1.120   1.702  10.166 -0.0812 -0.0233  0.1944
  717TMC3    O210662   0.565   1.625   9.935 -0.4589 -0.1793  0.0868
  718MPD2     C10663   4.622   0.670  12.709 -0.2380 -0.4068  0.0199
  718MPD2    C110664   4.722   0.590  12.745  1.0337  0.1824 -0.1801
  718MPD2    C210665   4.711   0.491  12.843  0.0569  0.6720  0.1294
  718MPD2    C310666   4.596   0.493  12.914  0.2076 -0.1270  0.7988
  718MPD2    C410667   4.493   0.581  12.887  0.3063  0.4970 -0.3020
  718MPD2    C510668   4.508   0.663  12.779 -0.2219  0.2597 -0.1762
  718MPD2     H10669   0.052   0.419  12.863 -1.6906 -1.4204 -0.4948
  718MPD2    H110670   4.406   0.578  12.952 -0.3847  3.2161 -1.1476
  718MPD2    H210671   4.642   0.749  12.638  2.1374 -2.2851 -1.3965
  718MPD2    H310672   4.420   0.720  12.749 -0.1818  0.1066 -0.5784
  718MPD2     N10673   4.589   0.385  13.001  0.0089  0.4757 -0.2647
  718MPD2    H510674   4.667   0.323  13.013 -0.8032 -0.6303 -0.6914
  718MPD2    N110675   0.112   0.596  12.683  0.1579  0.0551 -0.2454
  718MPD2    H710676   0.184   0.535  12.721 -1.6520 -0.9918  1.4975
  719TMC3    C110677   0.259   0.597  12.512 -0.0406  0.2163 -0.3144
  719TMC3    C210678   0.240   0.462  12.526 -0.4668 -0.3482  0.2343
  719TMC3    C310679   0.342   0.378  12.560  0.1666  0.1745 -0.0403
  719TMC3    C410680   0.377   0.652  12.547  0.3821  0.8011 -0.3800
  719TMC3    C510681   0.485   0.564  12.557  0.0307 -1.1999 -0.2573
  719TMC3    C610682   0.470   0.426  12.563  0.2308 -0.1340 -0.0120
  719TMC3     C10683   0.145   0.663  12.566  0.2736 -1.0203 -0.1092
  719TMC3     O10684   0.071   0.728  12.494 -0.3324  0.0620  0.3194
  719TMC3     H10685   0.144   0.422  12.497 -2.3099  4.7503 -0.5704
  719TMC3    H110686   0.388   0.758  12.565 -0.0057  1.0010 -1.3079
  719TMC3    H210687   0.557   0.372  12.599  0.4656 -0.4435 -1.0539
  719TMC3    C710688   0.625   0.605  12.548 -0.3235  0.0444 -0.2279
  719TMC3    C810689   0.306   0.264  12.641  0.4723 -0.3915  0.2477
  719TMC3    O110690   0.717   0.549  12.615  0.2473  0.3435  0.1076
  719TMC3    O210691   0.395   0.203  12.702 -0.6608  0.3547 -0.4133
  720MPD2     C10692   3.063   2.277  13.810  0.9299 -0.0857 -0.0375
  720MPD2    C110693   3.148   2.229  13.712  0.2565  0.1515 -0.0894
  720MPD2    C210694   3.286   2.241  13.719 -0.4504  0.1560 -0.6542
  720MPD2    C310695   3.347   2.287  13.836  0.5679 -0.5046  0.1734
  720MPD2    C410696   3.263   2.335  13.935 -0.3246  0.5521 -0.0801
  720MPD2    C510697   3.127   2.329  13.920  0.5269 -0.5475  0.5044
  720MPD2     H10698   3.346   2.226  13.630  0.6248  0.2787  0.0528
  720MPD2    H110699   3.295   2.375  14.031 -1.6093  1.6206 -0.0942
  720MPD2    H210700   2.955   2.269  13.801  0.8684 -0.8442  1.5019
  720MPD2    H310701   3.067   2.383  13.992 -0.2777 -0.2676 -0.3815
  720MPD2     N10702   3.488   2.300  13.843 -0.3127 -0.4201  0.0609
  720MPD2    H510703   3.543   2.269  13.763 -0.3564 -3.4383  1.1943
  720MPD2    N110704   3.100   2.166  13.593  0.3651 -0.1017  0.6014
  720MPD2    H710705   3.166   2.152  13.517  1.2059  0.8205  1.1596
  721TMC3    C110706   3.705   2.385  13.948  0.8891  0.5567  0.5469
  721TMC3    C210707   3.758   2.455  14.055  0.1021 -0.2902 -0.8082
  721TMC3    C310708   3.901   2.470  14.053 -0.3953 -0.2770  0.5010
  721TMC3    C410709   3.782   2.356  13.837 -0.5036 -0.3081  0.2956
  721TMC3    C510710   3.911   2.395  13.830  0.1296 -0.4422  0.5695
  721TMC3    C610711   3.977   2.441  13.943 -0.4434  0.2302 -0.3867
  721TMC3     C10712   3.560   2.358  13.952 -0.1789 -0.3655 -0.3094
  721TMC3     O10713   3.511   2.390  14.059  0.1191 -0.0869 -0.0811
  721TMC3     H10714   3.708   2.476  14.148 -0.0873  0.3555 -1.0585
  721TMC3    H110715   3.734   2.310  13.751  0.4984  1.6133 -1.2869
  721TMC3    H210716   4.084   2.457  13.936  0.1076 -2.9609  0.9143
  721TMC3    C710717   3.994   2.343  13.717 -0.1008  0.4376 -0.7364
  721TMC3    C810718   3.978   2.476  14.179  0.1772 -0.1990  0.3473
  721TMC3    O110719   4.112   2.383  13.726 -0.2339 -0.5001 -0.0383
  721TMC3    O210720   4.089   2.518  14.187 -0.0970 -0.2129  0.2901
  722MPD2     C10721   2.124   0.562  13.187 -0.3089 -0.1423  0.7424
  722MPD2    C110722   2.027   0.623  13.267 -0.0034 -0.4600  0.2285
  722MPD2    C210723   1.931   0.707  13.209  0.0661  0.2667  1.1505
  722MPD2    C310724   1.920   0.724  13.072  0.3556 -0.5793 -0.3558
  722MPD2    C410725   2.015   0.653  12.994  0.8444  0.2944 -0.2384
  722MPD2    C510726   2.120   0.574  13.047 -0.3521 -0.3339 -0.4513
  722MPD2     H10727   1.860   0.753  13.278 -1.2578 -2.6352  1.7233
  722MPD2    H110728   2.003   0.654  12.886  1.7875 -0.6539 -0.3524
  722MPD2    H210729   2.199   0.501  13.235 -2.0311 -1.8727  1.2413
  722MPD2    H310730   2.195   0.525  12.986 -1.7188 -2.9963  0.0378
  722MPD2     N10731   1.821   0.801  13.011  0.3866  1.0857  0.2433
  722MPD2    H510732   1.752   0.835  13.077  0.8343 -0.9406  1.7627
  722MPD2    N110733   2.037   0.640  13.405 -0.2025 -0.8306  0.2959
  722MPD2    H710734   1.985   0.709  13.458  0.9371 -1.1148  1.7990
  723TMC3    C110735   1.684   0.913  12.864 -0.1434  0.2582  0.5390
  723TMC3    C210736   1.572   0.872  12.936  0.0526 -0.2218  0.0401
  723TMC3    C310737   1.455   0.956  12.934 -0.3262 -0.0429 -0.5093
  723TMC3    C410738   1.680   1.005  12.765 -0.1271 -0.5267 -0.2682
  723TMC3    C510739   1.581   1.100  12.784  1.0951 -0.0649 -0.4281
  723TMC3    C610740   1.475   1.076  12.868  0.1990 -0.2634  0.3080
  723TMC3     C10741   1.811   0.843  12.881  0.1053  1.1191  0.8540
  723TMC3     O10742   1.899   0.850  12.796  0.0898 -0.2749 -0.2256
  723TMC3     H10743   1.568   0.779  12.992  0.4543 -1.2567 -1.6626
  723TMC3    H110744   1.754   1.019  12.688  1.0477 -1.9134  0.5983
  723TMC3    H210745   1.387   1.138  12.850 -0.3269 -0.7671  1.1257
  723TMC3    C710746   1.556   1.203  12.687  0.4162  0.7614  0.1978
  723TMC3    C810747   1.322   0.902  12.928 -0.3558  0.1016 -0.6571
  723TMC3    O110748   1.612   1.195  12.579 -0.1081 -0.2051  0.0136
  723TMC3    O210749   1.221   0.969  12.934 -0.0294  0.2145 -0.6336
  724TMC3    C110750   2.320   4.081  11.088  0.4639 -0.3061 -0.3186
  724TMC3    C210751   2.320   4.085  10.955 -0.4659 -0.4224 -0.4695
  724TMC3    C310752   2.346   4.208  10.897  0.1293  0.2312  0.3383
  724TMC3    C410753   2.321   4.192  11.165  0.7876 -0.0757 -0.3606
  724TMC3    C510754   2.343   4.309  11.102 -0.0613  0.5181  0.1133
  724TMC3    C610755   2.352   4.324  10.972 -0.6085  0.7198  0.8207
  724TMC3     C10756   2.328   3.959  11.162  0.3684  0.0759 -0.1527
  724TMC3     O10757   2.346   3.968  11.283  0.2086  0.3995  0.1020
  724TMC3     H10758   2.345   3.993  10.903 -1.3797  0.9349 -3.2818
  724TMC3    H110759   2.333   4.183  11.272 -0.6969  0.4878 -0.1443
  724TMC3    H210760   2.367   4.423  10.932 -0.3729  0.0152 -0.8652
  724TMC3    C710761   2.408   4.420  11.173 -0.0241  0.4287  0.1764
  724TMC3    C810762   2.365   4.203  10.748 -0.8448 -0.3670  0.5595
  724TMC3    O110763   2.499   4.466  11.107  0.7547  0.0418  0.0709
  724TMC3    O210764   2.322   4.106  10.686  0.1192  0.0520 -0.0202
  725TMC3    C110765   4.426   2.305  12.491  0.5018  0.6796 -0.7903
  725TMC3    C210766   4.310   2.336  12.424 -0.2758 -0.0160  0.0402
  725TMC3    C310767   4.231   2.233  12.382  0.0206  0.4131 -0.7169
  725TMC3    C410768   4.469   2.173  12.499  0.1299 -0.1502 -0.2373
  725TMC3    C510769   4.385   2.076  12.445  0.3498  0.1555 -0.4388
  725TMC3    C610770   4.261   2.105  12.397  0.3358 -0.1130 -0.2864
  725TMC3     C10771   4.479   2.411  12.580 -0.3176 -0.3999  0.0994
  725TMC3     O10772   4.417   2.520  12.585 -0.1079 -0.3856  0.1461
  725TMC3     H10773   4.274   2.438  12.423 -1.0083 -0.2964 -2.3718
  725TMC3    H110774   4.556   2.156  12.561  0.3382  0.0372 -0.4790
  725TMC3    H210775   4.204   2.022  12.356 -0.6680  0.7755 -0.7039
  725TMC3    C710776   4.435   1.936  12.454  0.2480  0.3020 -0.5957
  725TMC3    C810777   4.097   2.260  12.320 -0.6476  0.5171  0.5614
  725TMC3    O110778   4.356   1.850  12.429 -0.1088 -0.2022  0.1115
  725TMC3    O210779   4.019   2.170  12.317 -0.1022  0.0852 -0.0378
  726MPD2     C10780   1.355   4.304  10.546  0.3392  0.1968 -0.8013
  726MPD2    C110781   1.238   4.349  10.496  0.0303  0.0092 -0.9396
  726MPD2    C210782   1.118   4.282  10.528 -0.1941 -0.5841  0.3413
  726MPD2    C310783   1.111   4.187  10.629  0.4889  0.6179 -0.0915
  726MPD2    C410784   1.237   4.149  10.686  0.0291 -0.4036  0.8837
  726MPD2    C510785   1.355   4.203  10.642 -0.5816 -0.2174  0.1078
  726MPD2     H10786   1.031   4.326  10.479  0.2278 -0.3554 -0.1978
  726MPD2    H110787   1.229   4.069  10.759 -0.1951 -0.6510  0.5932
  726MPD2    H210788   1.451   4.346  10.518  1.2126  0.9925  3.3437
  726MPD2    H310789   1.451   4.165  10.674 -0.1809 -1.4022 -2.4632
  726MPD2     N10790   0.985   4.136  10.683  0.9386  0.2535 -0.1716
  726MPD2    H510791   0.981   4.057  10.747 -0.4531 -0.9152 -1.7417
  726MPD2    N110792   1.234   4.463  10.414  0.0938  0.9967 -0.0770
  726MPD2    H710793   1.167   4.461  10.337 -0.0236  2.1618 -0.0056
  727TMC3    C110794   1.312   4.676  10.336  0.3769  0.0116 -0.5509
  727TMC3    C210795   1.424   0.018  10.326 -0.6566 -0.1914 -0.2205
  727TMC3    C310796   1.433   0.110  10.225 -0.1462  0.2500  0.1140
  727TMC3    C410797   1.205   4.693  10.247  0.2661  0.1448  0.4366
  727TMC3    C510798   1.214   0.059  10.160 -0.9542  0.3403  0.2932
  727TMC3    C610799   1.316   0.143  10.148  0.1013 -1.0231 -0.0721
  727TMC3     C10800   1.316   4.572  10.435 -0.5829  0.4288  0.2800
  727TMC3     O10801   1.395   4.596  10.524  0.0290 -0.6309  0.1698
  727TMC3     H10802   1.516   4.733  10.379 -1.4352 -0.5908  0.9504
  727TMC3    H110803   1.129   4.617  10.233  0.4577  0.2818 -1.3743
  727TMC3    H210804   1.307   0.230  10.084  0.5072  0.7595  2.3358
  727TMC3    C710805   1.099   0.059  10.072  0.3242 -0.5247 -0.5043
  727TMC3    C810806   1.541   0.206  10.242  0.1304 -0.6464  0.3322
  727TMC3    O110807   1.001   4.734  10.106  0.7640 -0.0898  0.4698
  727TMC3    O210808   1.603   0.202  10.347 -0.7890  0.3119  0.2210
  728TMC3    C110809   1.174   2.928  15.209 -0.5167  0.1912  0.6500
  728TMC3    C210810   1.304   2.890  15.185 -1.0326  0.3112  0.7768
  728TMC3    C310811   1.341   2.875  15.057 -0.2410  0.1546  0.1378
  728TMC3    C410812   1.078   2.940  15.118  0.1597  0.0619  0.0394
  728TMC3    C510813   1.122   2.923  14.990  0.1374  0.3232 -0.1361
  728TMC3    C610814   1.251   2.896  14.955  0.1427 -0.0643 -0.2409
  728TMC3     C10815   1.155   2.947  15.348  0.8114 -0.2111  0.6179
  728TMC3     O10816   1.246   2.987  15.419  0.2340 -0.1076 -0.5039
  728TMC3     H10817   1.362   2.861  15.272 -0.3177 -2.6394 -0.6584
  728TMC3    H110818   0.973   2.959  15.137  0.6689 -1.3431  4.3240
  728TMC3    H210819   1.287   2.892  14.852  0.9549  1.9052 -0.0240
  728TMC3    C710820   1.027   2.946  14.886 -0.1654  0.4568 -0.1971
  728TMC3    C810821   1.480   2.837  15.021 -0.7022 -0.4921  0.0273
  728TMC3    O110822   0.914   2.917  14.916  0.0597  0.2566  0.4564
  728TMC3    O210823   1.512   2.865  14.902  0.4347  0.0033  0.1326
  729MPD2     C10824   2.664   4.072  16.793 -0.4314  0.9018  0.7023
  729MPD2    C110825   2.753   3.970  16.771 -0.1034  0.8160  0.0051
  729MPD2    C210826   2.750   3.884  16.878  0.2164 -0.4830  0.0993
  729MPD2    C310827   2.683   3.907  17.000 -0.3209  0.4951  0.2674
  729MPD2    C410828   2.599   4.016  17.009  0.7708  0.3989  0.6491
  729MPD2    C510829   2.597   4.106  16.910  0.0028  0.1642  0.0098
  729MPD2     H10830   2.806   3.792  16.871 -2.1344 -1.8906 -0.3369
  729MPD2    H110831   2.547   4.049  17.098  0.3884 -0.8267  0.8909
  729MPD2    H210832   2.650   4.127  16.700  0.1914 -1.1310 -0.6075
  729MPD2    H310833   2.541   4.198  16.907 -0.8011 -0.4107 -2.2124
  729MPD2     N10834   2.718   3.838  17.118 -0.0866  0.2722 -0.4399
  729MPD2    H510835   2.659   3.851  17.199  1.4100  0.6101  0.6021
  729MPD2    N110836   2.844   3.969  16.658  0.4087 -0.3098 -0.1407
  729MPD2    H710837   2.813   4.031  16.584  1.7671  0.1816 -0.2931
  730TMC3    C110838   2.880   3.757  17.264 -0.7661 -0.5150  0.1895
  730TMC3    C210839   3.004   3.700  17.272  0.3029  0.4917  1.0171
  730TMC3    C310840   3.108   3.780  17.313 -0.3838  0.0071 -0.1553
  730TMC3    C410841   2.853   3.880  17.318 -0.1121  0.4312 -0.4859
  730TMC3    C510842   2.957   3.954  17.382 -0.7140  0.0750  0.3242
  730TMC3    C610843   3.087   3.905  17.366  0.1308  0.8579 -0.6038
  730TMC3     C10844   2.832   3.761  17.131  0.0533 -0.5291  0.3764
  730TMC3     O10845   2.899   3.701  17.049 -0.6444 -0.0824  0.6455
  730TMC3     H10846   3.018   3.602  17.228  0.3269  1.1584 -0.4723
  730TMC3    H110847   2.755   3.924  17.328 -0.7526 -0.4855 -2.7386
  730TMC3    H210848   3.164   3.963  17.416 -0.7025 -0.3367  2.0967
  730TMC3    C710849   2.941   4.092  17.366 -0.5569  0.7714 -0.0665
  730TMC3    C810850   3.224   3.751  17.237 -0.6254  1.2356 -1.1158
  730TMC3    O110851   2.848   4.131  17.296 -0.1662  0.3381 -0.0122
  730TMC3    O210852   3.243   3.642  17.187 -0.2824  0.6833  0.1388
  731MPD2     C10853   3.400   1.915  12.131  0.5021  0.4249  0.0789
  731MPD2    C110854   3.454   1.819  12.214 -1.1295 -0.7344 -0.5925
  731MPD2    C210855   3.541   1.863  12.313  0.6635  0.3239 -0.6195
  731MPD2    C310856   3.570   2.002  12.332  0.6401  0.2060  0.3361
  731MPD2    C410857   3.502   2.091  12.254 -0.8478 -0.3827  0.5469
  731MPD2    C510858   3.428   2.045  12.148 -0.1731 -0.1203  0.4458
  731MPD2     H10859   3.590   1.791  12.378  0.3909  0.9029  0.2210
  731MPD2    H110860   3.528   2.196  12.250 -1.6167 -0.1719  1.2676
  731MPD2    H210861   3.337   1.880  12.049 -1.8391 -1.3030  2.6012
  731MPD2    H310862   3.378   2.118  12.086  1.0509  1.1455  0.9326
  731MPD2     N10863   3.668   2.038  12.421  0.1203 -0.1371 -0.7540
  731MPD2    H510864   3.724   1.961  12.456  1.4172  1.0744 -0.1442
  731MPD2    N110865   3.431   1.681  12.195 -0.0186  1.4565  0.1370
  731MPD2    H710866   3.382   1.657  12.109 -0.8591 -0.7269  1.2197
  732TMC3    C110867   3.430   1.450  12.251 -0.0270  0.3749 -0.0301
  732TMC3    C210868   3.331   1.423  12.155 -0.1218  0.4260 -0.3311
  732TMC3    C310869   3.302   1.296  12.126  0.2716 -0.8517 -0.3651
  732TMC3    C410870   3.498   1.343  12.303  0.1359 -0.9221  0.4369
  732TMC3    C510871   3.456   1.217  12.284 -0.5406 -0.2962  0.3011
  732TMC3    C610872   3.357   1.190  12.198 -0.1292 -0.3676 -0.5758
  732TMC3     C10873   3.474   1.582  12.281  0.7950 -0.3508 -0.2332
  732TMC3     O10874   3.515   1.586  12.394 -0.9331  0.2330  0.6718
  732TMC3     H10875   3.286   1.502  12.095  1.0657  1.8379  0.6282
  732TMC3    H110876   3.576   1.360  12.376  0.8559 -1.5142 -0.2054
  732TMC3    H210877   3.328   1.088  12.175  0.8919 -0.9788  0.8728
  732TMC3    C710878   3.514   1.105  12.349 -0.8808 -0.2173  0.0002
  732TMC3    C810879   3.174   1.254  12.063 -0.2968 -0.2466 -1.1648
  732TMC3    O110880   3.453   0.998  12.338 -0.1953 -0.0936  0.2807
  732TMC3    O210881   3.170   1.147  12.003  0.2153 -0.4572 -0.4523
  733TMC3    C110882   4.424   0.032  13.226  0.3101  0.1574  0.8775
  733TMC3    C210883   4.394   0.153  13.175  0.0968  0.3104  0.7399
  733TMC3    C310884   4.499   0.239  13.162  0.0762  0.3128 -0.1256
  733TMC3    C410885   4.548   4.735  13.267  0.4012  0.4287 -0.2062
  733TMC3    C510886   4.657   0.083  13.242  1.0276  0.0907  0.4031
  733TMC3    C610887   4.627   0.212  13.202 -0.0596  0.2252  0.4181
  733TMC3     C10888   4.312   4.708  13.291  0.5684  0.2010  0.6996
  733TMC3     O10889   4.203   4.716  13.239  0.4850 -0.1330 -0.2040
  733TMC3     H10890   4.298   0.173  13.128  0.5124 -0.0458 -0.2706
  733TMC3    H110891   4.563   4.629  13.282 -1.3891  0.2385  0.2617
  733TMC3    H210892   4.715   0.274  13.192 -0.6747  0.6740 -2.1610
  733TMC3    C710893   0.047   0.019  13.218  0.6851 -0.1297  0.0467
  733TMC3    C810894   4.474   0.351  13.071 -0.1555  0.5214  0.5563
  733TMC3    O110895   0.093   4.700  13.316  1.2502  0.3906  0.5690
  733TMC3    O210896   4.360   0.381  13.052 -0.1604 -0.2078 -0.2766
  734MPD2     C10897   1.505   2.643  12.519 -0.2400  0.0246 -0.2662
  734MPD2    C110898   1.415   2.600  12.428 -0.2848 -0.7150  0.1476
  734MPD2    C210899   1.426   2.661  12.300  0.2520  0.3866  0.0673
  734MPD2    C310900   1.531   2.747  12.269  0.7881 -0.4901 -0.1065
  734MPD2    C410901   1.619   2.789  12.366 -0.0757 -0.0948  0.4351
  734MPD2    C510902   1.598   2.738  12.493 -0.5016 -0.1322 -0.4553
  734MPD2     H10903   1.351   2.648  12.222 -1.7193  0.6286  1.9341
  734MPD2    H110904   1.686   2.872  12.345  0.0439 -0.7333 -1.7023
  734MPD2    H210905   1.489   2.605  12.619 -0.9948  0.9835 -0.0220
  734MPD2    H310906   1.665   2.764  12.574 -1.2473  0.5561 -0.0491
  734MPD2     N10907   1.541   2.772  12.131 -0.3260 -0.0303  0.5784
  734MPD2    H510908   1.457   2.763  12.075 -0.3165  1.3134  0.3457
  734MPD2    N110909   1.320   2.500  12.461  0.1163 -0.2484  0.1855
  734MPD2    H710910   1.329   2.442  12.544  0.3615  1.4335  1.3247
  735TMC3    C110911   1.182   2.314  12.390 -0.1298  0.5063 -0.5547
  735TMC3    C210912   1.086   2.276  12.299 -0.3122  0.5063 -0.2100
  735TMC3    C310913   1.102   2.147  12.245 -0.1609 -0.2571 -0.2930
  735TMC3    C410914   1.282   2.229  12.418  0.0305 -0.4063 -0.2641
  735TMC3    C510915   1.289   2.105  12.369  0.2387  0.0482  0.3384
  735TMC3    C610916   1.199   2.056  12.277  0.0976 -0.1467  0.0281
  735TMC3     C10917   1.230   2.450  12.365 -0.1642 -0.6826  0.0663
  735TMC3     O10918   1.208   2.490  12.249 -0.3601 -0.7345  0.2279
  735TMC3     H10919   0.990   2.326  12.300 -1.2623 -1.3262 -0.9214
  735TMC3    H110920   1.360   2.263  12.485 -2.2111  2.2574  0.9792
  735TMC3    H210921   1.207   1.955  12.239 -0.6411 -1.4418  3.2490
  735TMC3    C710922   1.421   2.061  12.358 -0.5406  0.0349 -0.0737
  735TMC3    C810923   1.083   2.154  12.098  0.1916 -0.6091 -0.4813
  735TMC3    O110924   1.510   2.143  12.372  0.1103 -0.5647  0.1035
  735TMC3    O210925   1.079   2.047  12.033  0.4275  0.0692 -0.0043
  736MPD2     C10926   1.573   1.740  12.291 -0.0391 -0.0782  0.1628
  736MPD2    C110927   1.551   1.875  12.279 -0.1506  0.2486  0.1177
  736MPD2    C210928   1.662   1.943  12.232  0.1000  0.4104 -0.2661
  736MPD2    C310929   1.769   1.884  12.164 -0.2316  0.4384 -0.0880
  736MPD2    C410930   1.783   1.747  12.189  0.2586 -0.1872  0.4738
  736MPD2    C510931   1.691   1.678  12.260 -0.4338 -0.1368 -0.0358
  736MPD2     H10932   1.666   2.051  12.222  0.6103  0.4655  0.5602
  736MPD2    H110933   1.872   1.691  12.159  0.1569  0.9565 -1.9183
  736MPD2    H210934   1.502   1.676  12.343 -1.0935 -0.9818 -2.4055
  736MPD2    H310935   1.699   1.572  12.279  0.7464  0.4362  2.7080
  736MPD2     N10936   1.873   1.955  12.099 -0.0121 -0.4874 -0.2330
  736MPD2    H510937   1.933   1.905  12.034 -0.8825 -1.4686 -0.2926
  736MPD2    N110938   1.430   1.930  12.324  0.1694 -0.4745 -0.6047
  736MPD2    H710939   1.343   1.880  12.339 -0.6930  0.7024 -1.6252
  737TMC3    C110940   2.017   2.129  12.042 -0.6401  0.1353  0.4769
  737TMC3    C210941   2.022   2.268  12.035 -0.6268  0.1397  0.2706
  737TMC3    C310942   2.089   2.316  11.924 -0.3467 -0.6300  1.1796
  737TMC3    C410943   2.078   2.041  11.955  0.0892 -0.2670 -0.1346
  737TMC3    C510944   2.152   2.103  11.856  0.4891 -0.8277 -0.6089
  737TMC3    C610945   2.168   2.236  11.845 -0.1898  0.1662 -0.6737
  737TMC3     C10946   1.906   2.084  12.126 -0.4981 -0.0026 -0.2782
  737TMC3     O10947   1.882   2.149  12.228 -0.1263 -0.0115  0.0280
  737TMC3     H10948   1.964   2.328  12.103 -0.7601  2.2359 -1.6906
  737TMC3    H110949   2.080   1.934  11.975  1.0521 -0.2969 -0.3866
  737TMC3    H210950   2.232   2.285  11.772  0.2468  0.9300  0.2106
  737TMC3    C710951   2.238   2.016  11.773 -0.3391  0.0827  0.1974
  737TMC3    C810952   2.077   2.457  11.894 -0.3294 -0.2554  0.0816
  737TMC3    O110953   2.242   1.899  11.806  0.1691  0.2321 -0.4500
  737TMC3    O210954   2.037   2.522  11.986  0.4748  0.3748 -0.8506
  738MPD2     C10955   1.761   1.280  15.694 -0.6660  0.3388  0.3123
  738MPD2    C110956   1.711   1.209  15.584  0.3303  0.2253  0.1715
  738MPD2    C210957   1.766   1.239  15.462  0.1596  0.9222 -0.1737
  738MPD2    C310958   1.848   1.351  15.436  0.0194  0.1448  0.6765
  738MPD2    C410959   1.882   1.426  15.543 -0.1370  0.6344  0.0300
  738MPD2    C510960   1.836   1.389  15.668  0.5226  0.1076 -0.4938
  738MPD2     H10961   1.740   1.174  15.379  0.7739  0.1596  0.2274
  738MPD2    H110962   1.935   1.521  15.540  2.2779 -0.7890 -2.1574
  738MPD2    H210963   1.727   1.268  15.797 -0.0007  1.1130  0.6163
  738MPD2    H310964   1.863   1.442  15.759  0.3439 -0.1901 -0.2698
  738MPD2     N10965   1.902   1.385  15.310 -0.1500  0.5204  0.5063
  738MPD2    H510966   1.985   1.444  15.314 -1.2159  1.9360  1.5301
  738MPD2    N110967   1.651   1.083  15.592  0.0670  1.1844  0.2439
  738MPD2    H710968   1.657   1.034  15.503  0.0842  0.3911  0.6938
  739TMC3    C110969   1.995   1.305  15.101  0.2221  0.3101  0.0633
  739TMC3    C210970   1.972   1.245  14.980  0.6841 -0.3516 -0.2938
  739TMC3    C310971   2.078   1.212  14.897  0.7332 -0.0281 -0.1722
  739TMC3    C410972   2.120   1.325  15.149  0.0156 -0.1122 -0.0018
  739TMC3    C510973   2.219   1.276  15.069 -1.2285 -0.3501 -0.0795
  739TMC3    C610974   2.204   1.220  14.946 -0.1930  0.2656  0.5497
  739TMC3     C10975   1.879   1.312  15.195 -0.2761 -0.4717 -0.0792
  739TMC3     O10976   1.773   1.265  15.158  0.1700  0.0744 -0.4658
  739TMC3     H10977   1.870   1.231  14.945  0.6915 -0.0860 -0.4145
  739TMC3    H110978   2.130   1.327  15.256 -1.2254  1.9938  0.0713
  739TMC3    H210979   2.289   1.200  14.882  1.6585 -0.3193  3.1817
  739TMC3    C710980   2.347   1.308  15.123 -0.4182  0.1587  0.1526
  739TMC3    C810981   2.046   1.169  14.765  0.8236  0.0212  0.1510
  739TMC3    O110982   2.431   1.239  15.070  0.9403 -0.1277  0.1462
  739TMC3    O210983   1.948   1.219  14.712 -0.0732  1.0418  0.6657
  740TMC3    C110984   2.979   2.617  14.536 -0.0601 -0.1759  0.3098
  740TMC3    C210985   2.921   2.505  14.483  0.3033 -0.8511  0.5341
  740TMC3    C310986   2.972   2.465  14.363 -0.0438  1.1035  0.7317
  740TMC3    C410987   3.081   2.692  14.473  0.4305  0.6711  0.2774
  740TMC3    C510988   3.117   2.653  14.349  0.2934 -0.1607 -0.3669
  740TMC3    C610989   3.069   2.530  14.296 -0.0098  0.3411 -0.1911
  740TMC3     C10990   2.935   2.668  14.665 -0.1436 -0.8649  0.2314
  740TMC3     O10991   3.011   2.751  14.710  0.2126 -0.4049  0.3136
  740TMC3     H10992   2.827   2.470  14.525 -0.1047 -0.3405  0.0589
  740TMC3    H110993   3.112   2.782  14.524  0.1203  0.6018  0.5877
  740TMC3    H210994   3.115   2.487  14.209  0.9879 -0.3575  0.6899
  740TMC3    C710995   3.225   2.720  14.281 -0.1442 -0.0027 -0.5488
  740TMC3    C810996   2.926   2.340  14.299 -0.2698  0.4528  0.1040
  740TMC3    O110997   3.288   2.791  14.355 -0.0985  0.1594 -0.1825
  740TMC3    O210998   2.942   2.322  14.181 -0.1507  0.5308 -0.3045
  741TMC3    C110999   2.123   1.825  13.343  0.6842 -0.1043 -0.4214
  741TMC3    C211000   2.026   1.785  13.430  0.0761 -0.1573 -0.0771
  741TMC3    C311001   2.064   1.726  13.546  0.3057  0.2922  0.3316
  741TMC3    C411002   2.255   1.822  13.378  0.4953  0.7153 -0.3396
  741TMC3    C511003   2.282   1.773  13.499  0.2699  0.2288 -0.4272
  741TMC3    C611004   2.190   1.711  13.579  0.1587 -0.8176  0.1738
  741TMC3     C11005   2.083   1.867  13.209  0.2257  0.8928 -0.0064
  741TMC3     O11006   1.964   1.904  13.200  0.2038 -0.0300  0.2694
  741TMC3     H11007   1.921   1.808  13.412  0.5709  1.7529 -0.5285
  741TMC3    H111008   2.337   1.876  13.333  1.5263  0.6808  1.4893
  741TMC3    H211009   2.222   1.686  13.680  3.0393  0.8228 -0.3395
  741TMC3    C711010   2.414   1.719  13.520 -0.0833  0.1597 -0.1231
  741TMC3    C811011   1.958   1.689  13.638 -0.6456 -0.1131 -0.2698
  741TMC3    O111012   2.450   1.700  13.636  0.2833 -0.8650 -0.2079
  741TMC3    O211013   1.855   1.760  13.640  0.8170  0.1260  0.4015
  742TMC3    C111014   2.075   4.725  15.545  0.3932  0.2643 -0.3025
  742TMC3    C211015   1.986   0.049  15.464 -0.1907 -0.4812 -0.1433
  742TMC3    C311016   2.029   0.082  15.338  0.1106 -0.3975  0.6583
  742TMC3    C411017   2.209   4.704  15.512  0.6795  0.0027  0.7079
  742TMC3    C511018   2.248   0.024  15.397 -0.6922 -0.0890  0.1845
  742TMC3    C611019   2.161   0.074  15.306  0.8142 -0.1697  0.4549
  742TMC3     C11020   2.019   4.662  15.663 -0.1713  0.1682 -0.1491
  742TMC3     O11021   1.927   4.716  15.720  0.2730  0.0139  0.6843
  742TMC3     H11022   1.881   0.048  15.489  0.1872 -1.4202  1.4296
  742TMC3    H111023   2.278   4.661  15.584 -0.7393  0.1593  2.1584
  742TMC3    H211024   2.201   0.115  15.213  0.4997  1.3659  0.9872
  742TMC3    C711025   2.387   0.007  15.355  0.3292  0.1076 -0.1872
  742TMC3    C811026   1.938   0.113  15.231  0.4516  0.3245 -0.3471
  742TMC3    O111027   2.411   4.737  15.235 -0.2350  0.0036  0.0654
  742TMC3    O211028   1.825   0.147  15.265 -0.1015  0.0868 -0.1898
  743MPD2     C11029   0.110   1.585   2.115  0.0998 -0.0205 -0.3624
  743MPD2    C111030   0.099   1.562   1.982  0.4918  0.0132 -0.1981
  743MPD2    C211031   0.209   1.506   1.916 -0.2362  0.4192 -0.3121
  743MPD2    C311032   0.333   1.489   1.985 -0.2303  0.0038 -0.3013
  743MPD2    C411033   0.342   1.518   2.121  0.6047  0.2262 -0.3304
  743MPD2    C511034   0.225   1.560   2.181 -0.4039  0.6810  0.0352
  743MPD2     H11035   0.202   1.465   1.816 -2.4575 -1.1757  0.4867
  743MPD2    H111036   0.433   1.494   2.174 -0.6093  0.0689  1.6862
  743MPD2    H211037   0.022   1.619   2.170  1.1389  0.7196  0.8535
  743MPD2    H311038   0.223   1.563   2.289  2.8624  0.2353  0.1045
  743MPD2     N11039   0.441   1.439   1.904 -0.0551 -0.6361 -0.3621
  743MPD2    H511040   0.420   1.434   1.805 -1.0214  0.3242 -0.2041
  743MPD2    N111041   4.712   1.588   1.926  0.5109 -0.0212  0.1372
  743MPD2    H711042   4.642   1.645   1.972  1.6856  1.8165 -0.3717
  744TMC3    C111043   4.557   1.583   1.740  0.3312 -0.8991  0.7438
  744TMC3    C211044   4.524   1.711   1.773  0.2134 -0.1276  0.1631
  744TMC3    C311045   4.468   1.791   1.678 -0.5029 -0.2821  0.4305
  744TMC3    C411046   4.537   1.533   1.611 -1.2824 -0.1626 -0.2970
  744TMC3    C511047   4.476   1.619   1.517  0.4341  1.2077 -0.2052
  744TMC3    C611048   4.462   1.752   1.544 -0.7179  0.0313 -0.8373
  744TMC3     C11049   4.667   1.519   1.814 -0.1525  0.3202 -0.0874
  744TMC3     O11050   4.715   1.420   1.764  0.1560  0.3342  0.4311
  744TMC3     H11051   4.527   1.741   1.877  1.6222 -1.8361  0.6201
  744TMC3    H111052   4.573   1.432   1.593 -0.1676 -0.0471  1.2506
  744TMC3    H211053   4.422   1.816   1.466 -0.7263  2.1891  0.9539
  744TMC3    C711054   4.492   1.584   1.376 -1.0083  0.5179  0.0899
  744TMC3    C811055   4.448   1.930   1.708 -0.1538  1.0264 -0.1268
  744TMC3    O111056   4.471   1.675   1.297 -0.4505  0.0468 -0.3900
  744TMC3    O211057   4.415   1.997   1.609 -0.6538  0.2670 -0.1202
  745TMC3    C111058   3.035   4.584  14.029  0.4154 -0.4357 -0.7508
  745TMC3    C211059   2.924   4.554  14.090  0.1487 -0.1747 -0.3765
  745TMC3    C311060   2.813   4.513  14.019 -0.0363  0.2244 -0.5901
  745TMC3    C411061   3.055   4.574  13.890  0.9632 -0.5084  0.5026
  745TMC3    C511062   2.945   4.522  13.818  0.4283  0.0058 -0.0153
  745TMC3    C611063   2.824   4.492  13.878 -0.0917 -0.2655 -0.3846
  745TMC3     C11064   3.115   4.691  14.093 -0.7167 -0.0361  0.0288
  745TMC3     O11065   3.104   4.715  14.215 -0.4771 -0.0376  0.1495
  745TMC3     H11066   2.925   4.548  14.198  0.2330  1.0042 -0.3049
  745TMC3    H111067   3.152   4.594  13.846  1.3907 -2.6636  0.4291
  745TMC3    H211068   2.733   4.458  13.831 -0.7692 -1.0531  1.4965
  745TMC3    C711069   2.945   4.538  13.671  0.0821 -0.5443  0.3235
  745TMC3    C811070   2.688   4.534  14.076 -0.0748  0.6245  1.0109
  745TMC3    O111071   2.840   4.549  13.611  1.0381 -0.7105 -0.0769
  745TMC3    O211072   2.591   4.498  14.008 -0.5671 -0.0721  0.0370
  746TMC3    C111073   0.391   1.748  10.905 -1.0471  0.1614  0.2765
  746TMC3    C211074   0.376   1.783  10.775  0.1856  0.1360 -0.0195
  746TMC3    C311075   0.317   1.694  10.697 -0.8498 -0.3390 -0.0004
  746TMC3    C411076   0.328   1.647  10.969  0.5413  0.1915 -0.2937
  746TMC3    C511077   0.261   1.564  10.878  0.1118 -0.3919 -0.2462
  746TMC3    C611078   0.265   1.576  10.745  0.0764  0.5095 -0.4781
  746TMC3     C11079   0.437   1.855  10.996  0.6998  0.4452  0.0533
  746TMC3     O11080   0.383   1.859  11.106 -0.5652  0.2202 -0.1271
  746TMC3     H11081   0.420   1.876  10.739 -0.3582 -0.3974 -2.0562
  746TMC3    H111082   0.320   1.639  11.077  0.1244 -0.6868 -0.3938
  746TMC3    H211083   0.211   1.506  10.683 -1.9652  0.4576  1.3577
  746TMC3    C711084   0.150   1.491  10.922 -0.6928 -0.4036 -0.1547
  746TMC3    C811085   0.245   1.743  10.576  0.4791 -1.0156 -0.4545
  746TMC3    O111086   0.063   1.467  10.837 -0.0099  1.1048 -0.3024
  746TMC3    O211087   0.151   1.681  10.526 -0.0643  0.4749 -0.6530
  747TMC3    C111088   2.823   2.418  10.985  0.0099  0.4759  0.2254
  747TMC3    C211089   2.809   2.298  11.061  0.4143  0.3519 -0.6370
  747TMC3    C311090   2.768   2.310  11.190 -0.0686  0.1601 -0.2605
  747TMC3    C411091   2.809   2.542  11.050  0.2458  0.5957 -0.1216
  747TMC3    C511092   2.782   2.541  11.184 -0.3786  0.0417 -0.3675
  747TMC3    C611093   2.751   2.428  11.252 -0.2764  0.4813  0.4384
  747TMC3     C11094   2.844   2.419  10.838 -0.0788 -0.2489  1.0571
  747TMC3     O11095   2.839   2.527  10.782  0.6235 -0.4636 -0.3243
  747TMC3     H11096   2.830   2.199  11.021 -1.2820  0.7486 -2.5056
  747TMC3    H111097   2.847   2.634  11.007  2.9907 -1.7910 -2.8302
  747TMC3    H211098   2.734   2.442  11.358  2.4029 -0.0455  0.9378
  747TMC3    C711099   2.830   2.655  11.266  0.4310 -0.2522 -0.5802
  747TMC3    C811100   2.733   2.187  11.255  0.0583 -0.7543  0.2405
  747TMC3    O111101   2.890   2.633  11.370 -0.1662  0.2434  0.4742
  747TMC3    O211102   2.777   2.084  11.214 -0.0914 -0.0147 -0.6345
  748MPD2     C11103   3.942   2.981   1.677  0.8462  0.1822  0.4036
  748MPD2    C111104   4.011   3.003   1.557  0.1358 -0.1959 -0.3702
  748MPD2    C211105   4.147   3.034   1.552  0.2868 -0.6440 -0.0623
  748MPD2    C311106   4.220   3.022   1.673  0.3934 -1.0206  0.2095
  748MPD2    C411107   4.154   2.994   1.794  0.3824 -0.0039  0.1802
  748MPD2    C511108   4.014   2.974   1.791  0.6669  0.7862  0.0025
  748MPD2     H11109   4.191   3.076   1.462  0.3267 -2.8224 -1.0556
  748MPD2    H111110   4.205   2.986   1.889  0.0073  1.3527  0.4958
  748MPD2    H211111   3.837   2.956   1.672  1.3613 -1.6488 -1.3062
  748MPD2    H311112   3.953   2.942   1.874 -0.4662  1.6040 -0.5050
  748MPD2     N11113   4.360   3.050   1.661 -0.0728 -0.1035 -0.1464
  748MPD2    H511114   4.391   3.060   1.565 -0.7689 -2.1029 -0.5939
  748MPD2    N111115   3.939   2.982   1.436  0.1191  0.2058  0.5350
  748MPD2    H711116   3.841   2.957   1.447  0.0865 -0.6457 -1.5728
  749TMC3    C111117   4.586   3.030   1.721 -0.2913 -0.6370 -0.0202
  749TMC3    C211118   4.673   2.950   1.789  0.3771  0.6779 -0.7137
  749TMC3    C311119   0.031   2.880   1.720  0.3608  0.2782  0.4883
  749TMC3    C411120   4.606   3.045   1.586 -0.2287 -0.2714  0.2496
  749TMC3    C511121   4.715   2.990   1.524  0.0500 -0.6922 -1.0412
  749TMC3    C611122   0.054   2.901   1.583  0.0514 -0.2051  0.1673
  749TMC3     C11123   4.448   3.038   1.761 -0.3478  0.3260 -0.2008
  749TMC3     O11124   4.428   3.012   1.878  0.2100 -0.1822 -0.3466
  749TMC3     H11125   4.657   2.933   1.895  2.5607 -0.9328 -0.6543
  749TMC3    H111126   4.550   3.114   1.524  0.4502  0.8877  0.9125
  749TMC3    H211127   0.144   2.874   1.528  1.8984  0.8228  2.6728
  749TMC3    C711128   0.009   3.037   1.388 -0.1449  0.1676 -0.4644
  749TMC3    C811129   0.108   2.775   1.795  0.2085 -0.3664  0.1928
  749TMC3    O111130   0.007   3.157   1.378 -0.0516  0.2374 -1.2564
  749TMC3    O211131   0.090   2.768   1.916 -0.5518 -0.2133  0.0530
  750MPD2     C11132   0.341   3.761  11.434 -0.3738 -0.2073 -0.0940
  750MPD2    C111133   0.247   3.688  11.504 -0.2979  0.0830 -0.6343
  750MPD2    C211134   0.240   3.555  11.478 -0.5992 -0.3847 -0.1993
  750MPD2    C311135   0.302   3.498  11.366 -0.0146 -0.1461  0.7932
  750MPD2    C411136   0.375   3.585  11.287 -0.7870 -0.5264 -0.3424
  750MPD2    C511137   0.408   3.707  11.326 -0.6482  0.1086 -0.3754
  750MPD2     H11138   0.179   3.488  11.538 -0.2675 -0.3122  0.2121
  750MPD2    H111139   0.421   3.554  11.193 -4.4152 -2.5699 -1.4634
  750MPD2    H211140   0.358   3.867  11.449  1.2442 -0.7115  1.7606
  750MPD2    H311141   0.483   3.765  11.273 -1.1635  1.3628  0.2726
  750MPD2     N11142   0.286   3.363  11.319 -0.2700 -0.2726 -0.6044
  750MPD2    H511143   0.330   3.339  11.230 -0.1469  2.1644 -1.2081
  750MPD2    N111144   0.179   3.759  11.607  0.7098 -0.5602 -0.5119
  750MPD2    H711145   0.213   3.854  11.622 -1.4614  0.5300 -2.6351
  751TMC3    C111146   0.216   3.131  11.331  0.4701 -0.1506  0.3825
  751TMC3    C211147   0.106   3.057  11.373  0.3595  0.6079  0.3004
  751TMC3    C311148   0.066   2.948  11.296  0.3340  0.2677 -0.2945
  751TMC3    C411149   0.270   3.116  11.206  0.0248  0.0526  0.2578
  751TMC3    C511150   0.218   3.013  11.129 -0.7071  0.0330 -0.2190
  751TMC3    C611151   0.114   2.932  11.172  0.0313 -0.0171 -0.4334
  751TMC3     C11152   0.233   3.263  11.396 -0.8761  0.6523 -0.3160
  751TMC3     O11153   0.198   3.268  11.513 -0.2128  0.9796 -0.1763
  751TMC3     H11154   0.056   3.071  11.467 -0.2045  1.9378 -0.2008
  751TMC3    H111155   0.353   3.179  11.175 -1.3727  0.3306 -2.8181
  751TMC3    H211156   0.083   2.844  11.117 -1.5092  0.5372 -0.4705
  751TMC3    C711157   0.285   2.993  11.007  0.7394 -0.6566 -0.6942
  751TMC3    C811158   4.707   2.848  11.345 -1.0106  0.3872  0.1350
  751TMC3    O111159   0.391   3.050  10.988  0.5070 -0.8281  0.2731
  751TMC3    O211160   4.634   2.794  11.260  0.4190 -0.6320 -0.0671
  752TMC3    C111161   3.753   3.302  16.950  0.1942 -0.2182  0.3363
  752TMC3    C211162   3.802   3.178  16.967  0.4370 -0.8945 -0.7295
  752TMC3    C311163   3.750   3.114  17.074  0.3081  0.5481  0.4662
  752TMC3    C411164   3.691   3.374  17.047  0.2377 -0.4986  0.6472
  752TMC3    C511165   3.641   3.304  17.158  0.5050  0.5608 -0.3516
  752TMC3    C611166   3.668   3.168  17.167 -0.1549 -0.2684  0.3098
  752TMC3     C11167   3.788   3.378  16.828  0.0329  0.3737 -0.7166
  752TMC3     O11168   3.881   3.331  16.767 -0.0985  0.1052 -0.2023
  752TMC3     H11169   3.845   3.121  16.886 -0.2470 -0.9879 -1.0281
  752TMC3    H111170   3.669   3.480  17.043 -0.6050 -0.7791 -2.2055
  752TMC3    H211171   3.633   3.109  17.251  0.3623 -0.6375  0.2665
  752TMC3    C711172   3.558   3.378  17.255 -0.0467 -0.1655  0.5266
  752TMC3    C811173   3.767   2.966  17.090 -0.1319  0.1201  0.4651
  752TMC3    O111174   3.500   3.472  17.206  0.2929 -0.2475  0.3141
  752TMC3    O211175   3.684   2.914  17.161 -0.0368 -0.0956  0.1079
  753TMC3    C111176   1.383   0.305  13.549 -0.4202  0.2051  0.6162
  753TMC3    C211177   1.365   0.273  13.680  0.1583 -0.7004  1.0685
  753TMC3    C311178   1.371   0.141  13.718  0.1931  0.2229 -0.2007
  753TMC3    C411179   1.421   0.218  13.459  0.0900 -0.5220 -0.6415
  753TMC3    C511180   1.449   0.091  13.499  0.1431 -1.1385  0.3673
  753TMC3    C611181   1.420   0.052  13.625  0.2391 -0.1173 -1.9016
  753TMC3     C11182   1.323   0.431  13.508  0.4884 -0.1957 -1.0491
  753TMC3     O11183   1.338   0.526  13.584 -0.2081  0.4625 -0.2713
  753TMC3     H11184   1.321   0.352  13.739 -2.1732 -2.3768  1.5710
  753TMC3    H111185   1.436   0.262  13.361  3.0694 -0.7287 -0.2827
  753TMC3    H211186   1.414   4.684  13.651 -0.3710  0.6850  1.2138
  753TMC3    C711187   1.490   4.730  13.405  0.7606  0.4577  0.2877
  753TMC3    C811188   1.317   0.093  13.846 -0.5252 -0.1001 -0.0594
  753TMC3    O111189   1.493   4.612  13.435  0.0915 -0.5070  0.6567
  753TMC3    O211190   1.303   4.708  13.853 -0.7706  0.3543  0.3048
  754MPD2     C11191   0.377   3.545  13.297  0.5007  0.4852  0.3316
  754MPD2    C111192   0.386   3.408  13.291  0.0142 -0.1315  0.3520
  754MPD2    C211193   0.288   3.341  13.233  0.0401 -0.0660  0.0677
  754MPD2    C311194   0.169   3.399  13.198 -0.3238  0.1890 -0.3133
  754MPD2    C411195   0.154   3.533  13.207 -0.2945  0.2759  0.4044
  754MPD2    C511196   0.261   3.603  13.267 -0.1423 -0.8224 -0.3865
  754MPD2     H11197   0.299   3.234  13.220  1.0086 -0.0624  0.8713
  754MPD2    H111198   0.060   3.582  13.188 -0.3389 -0.1610 -0.5123
  754MPD2    H211199   0.463   3.606  13.322  1.4182  0.3377 -2.4324
  754MPD2    H311200   0.243   3.709  13.279  2.3423 -0.6858  2.1133
  754MPD2     N11201   0.063   3.328  13.156  0.1092  0.1276  0.2426
  754MPD2    H511202   4.718   3.381  13.127  1.1020  0.6553 -1.6167
  754MPD2    N111203   0.509   3.351  13.343  0.7099 -0.1967  0.2019
  754MPD2    H711204   0.583   3.417  13.364  0.4005  0.4974 -0.9116
  755MPD2     C11205   4.109   3.709  12.936  0.0692  0.2081 -0.5090
  755MPD2    C111206   4.070   3.583  12.890  0.3272  0.0944  0.1976
  755MPD2    C211207   4.141   3.476  12.919 -0.4947  0.3639  0.0241
  755MPD2    C311208   4.255   3.486  12.995  0.0807  0.3695  0.2378
  755MPD2    C411209   4.295   3.607  13.042  0.4754 -0.0407 -0.1160
  755MPD2    C511210   4.222   3.719  13.011 -0.0595 -0.3657  0.4446
  755MPD2     H11211   4.112   3.379  12.881 -2.2890  1.2146 -0.7806
  755MPD2    H111212   4.389   3.605  13.096  0.4253  1.2030  0.0218
  755MPD2    H211213   4.052   3.801  12.927 -0.4866 -0.0533  0.4181
  755MPD2    H311214   4.252   3.821  13.033  0.8824 -0.6698  0.6046
  755MPD2     N11215   4.339   3.378  13.020  0.0720  0.5619  0.0124
  755MPD2    H511216   4.433   3.397  13.055  0.6698 -0.4250 -1.0399
  755MPD2    N111217   3.948   3.568  12.819  0.6209 -0.4387 -0.1026
  755MPD2    H711218   3.922   3.473  12.793  2.2126 -0.9623  0.2295
  756MPD2     C11219   4.644   0.059   9.752  0.0739  0.6614  0.2257
  756MPD2    C111220   4.546   0.007   9.835 -0.1933 -0.3174 -0.8943
  756MPD2    C211221   4.416   0.010   9.792  0.2048  0.1796 -0.4678
  756MPD2    C311222   4.387   0.045   9.660 -0.0665  0.1728  0.6906
  756MPD2    C411223   4.480   0.101   9.582  0.1585 -0.5655  0.0802
  756MPD2    C511224   4.611   0.108   9.629 -0.4404 -0.3601 -0.3577
  756MPD2     H11225   4.344   4.704   9.860  2.2111  2.3384  3.0204
  756MPD2    H111226   4.468   0.134   9.480  0.3175 -0.7183  0.0128
  756MPD2    H211227   0.012   0.070   9.777  0.5039  2.9969 -2.5581
  756MPD2    H311228   4.687   0.152   9.566 -0.7205  1.1221  0.3306
  756MPD2     N11229   4.249   0.031   9.616  0.1229 -0.1986  0.1009
  756MPD2    H511230   4.184   4.734   9.685  0.5652  0.0490  0.6390
  756MPD2    N111231   4.573   4.682   9.964 -0.0915 -0.6596 -0.7128
  756MPD2    H711232   4.494   4.641  10.013  0.0355  0.5498  0.4928
  757MPD2     C11233   3.606   4.247   9.875  0.4435  0.4910 -0.5238
  757MPD2    C111234   3.740   4.231   9.846 -0.1382  0.0788 -0.5121
  757MPD2    C211235   3.809   4.335   9.787 -0.0609  0.7749  0.0608
  757MPD2    C311236   3.739   4.453   9.750 -0.3832  0.0889 -0.9789
  757MPD2    C411237   3.603   4.464   9.784 -0.6227 -0.1283 -0.3691
  757MPD2    C511238   3.536   4.363   9.843 -0.2069 -0.2476  0.0296
  757MPD2     H11239   3.913   4.327   9.760 -0.1906  0.5591 -0.3719
  757MPD2    H111240   3.548   4.556   9.770  2.8623  2.0477  0.3833
  757MPD2    H211241   3.551   4.168   9.926 -1.0423  1.1290 -1.1132
  757MPD2    H311242   3.429   4.362   9.856  0.0434 -0.8199  1.9941
  757MPD2     N11243   3.805   4.554   9.671 -0.5362 -0.1130 -0.4736
  757MPD2    H511244   3.904   4.537   9.653 -0.9115 -2.2521 -0.5009
  757MPD2    N111245   3.800   4.102   9.879 -0.4270  0.0328  0.1019
  757MPD2    H711246   3.734   4.034   9.915  0.9924 -2.6123 -2.2933
  758MPD2     C11247   4.711   3.511  15.771 -0.0802 -0.4505  0.8295
  758MPD2    C111248   0.007   3.413  15.855  0.1684  0.1232  0.6270
  758MPD2    C211249   4.651   3.373  15.957 -0.0036 -0.6064 -0.0115
  758MPD2    C311250   4.528   3.434  15.965 -0.3265  0.3188 -0.1489
  758MPD2    C411251   4.500   3.530  15.866  0.1589  0.0621  0.1977
  758MPD2    C511252   4.585   3.566  15.765 -0.8268  0.5216 -0.0721
  758MPD2     H11253   4.672   3.297  16.031 -1.6301 -1.1407 -0.1013
  758MPD2    H111254   4.404   3.580  15.871 -0.4868 -1.4059  2.4927
  758MPD2    H211255   0.042   3.538  15.692 -1.0900  0.4314  0.2600
  758MPD2    H311256   4.562   3.643  15.693 -0.1576 -0.0196 -0.8715
  758MPD2     N11257   4.443   3.417  16.076  0.4209 -0.2931 -0.8564
  758MPD2    H511258   4.370   3.487  16.081  1.4019  0.8153 -2.0175
  758MPD2    N111259   0.135   3.360  15.844  0.2276  0.2954  0.0238
  758MPD2    H711260   0.197   3.414  15.785 -0.0859  1.1610  0.4775
  759MPD2     C11261   3.591   1.962  10.602 -0.3567 -0.4381 -0.5690
  759MPD2    C111262   3.589   1.826  10.572  0.3904 -0.0768  0.0744
  759MPD2    C211263   3.624   1.782  10.451 -0.1388 -0.2529 -0.0464
  759MPD2    C311264   3.635   1.877  10.344  0.3340  1.0113 -0.2724
  759MPD2    C411265   3.628   2.008  10.371  0.3096  1.2987 -0.1410
  759MPD2    C511266   3.620   2.052  10.502  0.0825  0.2301 -0.0199
  759MPD2     H11267   3.648   1.678  10.435  1.0011  0.0084 -0.0728
  759MPD2    H111268   3.646   2.083  10.294 -1.8639 -1.1190 -3.0405
  759MPD2    H211269   3.554   1.995  10.699  0.2922  0.8184 -0.7470
  759MPD2    H311270   3.626   2.160  10.507  1.9471  0.2026 -1.6802
  759MPD2     N11271   3.654   1.827  10.210 -0.7388 -0.3424  0.1462
  759MPD2    H511272   3.650   1.727  10.193  1.2732  0.2026 -3.5672
  759MPD2    N111273   3.567   1.722  10.663 -0.1727 -0.1193 -0.7282
  759MPD2    H711274   3.551   1.633  10.618 -1.8695 -0.2328  0.1038
  760MPD2     C11275   3.476   3.414  11.376 -0.0476 -1.1109  0.7120
  760MPD2    C111276   3.601   3.441  11.426 -1.1272  0.1012  0.6660
  760MPD2    C211277   3.678   3.341  11.474  0.1855 -0.0455  0.0789
  760MPD2    C311278   3.632   3.211  11.467 -0.6423 -0.0834  0.0675
  760MPD2    C411279   3.497   3.192  11.430 -0.1113  0.5006 -0.0955
  760MPD2    C511280   3.423   3.291  11.371  0.7441  0.1988 -0.2258
  760MPD2     H11281   3.779   3.372  11.500  0.1232  2.1061 -2.2583
  760MPD2    H111282   3.460   3.090  11.434 -0.6759  0.6942 -0.2555
  760MPD2    H211283   3.406   3.490  11.344 -1.9382 -3.0984  0.1780
  760MPD2    H311284   3.324   3.269  11.332  0.2538  1.6465  0.1845
  760MPD2     N11285   3.705   3.104  11.521  0.1879 -0.0284  0.5079
  760MPD2    H511286   3.656   3.017  11.541  0.0983 -0.4664 -1.6040
  760MPD2    N111287   3.657   3.571  11.452 -0.3959 -0.1344  0.0571
  760MPD2    H711288   3.753   3.575  11.485 -0.8596  0.5054  1.3273
  761MPD2     C11289   4.588   2.483  11.688 -0.6308 -0.0812  0.4578
  761MPD2    C111290   4.545   2.494  11.558 -0.2069  0.2021 -0.0397
  761MPD2    C211291   4.590   2.600  11.486 -0.0217 -0.5048 -0.0311
  761MPD2    C311292   4.669   2.698  11.548  0.2081 -0.3681  0.2691
  761MPD2    C411293   4.703   2.686  11.682  0.1335 -0.2247 -0.1623
  761MPD2    C511294   4.656   2.581  11.752 -0.7390 -0.5935 -0.0289
  761MPD2     H11295   4.558   2.608  11.382 -1.8815 -0.8194  0.5093
  761MPD2    H111296   0.021   2.762  11.735 -2.0401  0.4993  1.0752
  761MPD2    H211297   4.555   2.407  11.758 -2.6212  0.3901  0.0352
  761MPD2    H311298   4.692   2.581  11.854 -2.2254 -0.6067  0.4956
  761MPD2     N11299   4.731   2.810  11.479 -0.0774 -0.0599  0.1275
  761MPD2    H511300   0.062   2.865  11.530 -0.1916 -1.6675  2.0011
  761MPD2    N111301   4.485   2.381  11.504 -0.2734  1.2800 -0.0480
  761MPD2    H711302   4.503   2.291  11.548 -2.7800  1.3167  1.0667
  762MPD2     C11303   0.163   2.528  11.200  0.0697 -0.0105 -0.8447
  762MPD2    C111304   0.133   2.411  11.128 -0.2708 -0.5363  0.1931
  762MPD2    C211305   0.188   2.387  11.000  0.4784  0.6980  0.5058
  762MPD2    C311306   0.286   2.471  10.954  0.9040 -0.5498  0.2328
  762MPD2    C411307   0.317   2.584  11.030 -0.0421 -0.0889  0.2402
  762MPD2    C511308   0.256   2.612  11.150 -0.5061 -0.1138 -0.5751
  762MPD2     H11309   0.168   2.295  10.945 -0.6759  1.3532 -0.1845
  762MPD2    H111310   0.394   2.647  10.986  1.2403 -1.2344  0.8604
  762MPD2    H211311   0.120   2.553  11.296 -0.2031 -0.8769 -0.7456
  762MPD2    H311312   0.288   2.690  11.218  0.8232 -0.5488 -0.6908
  762MPD2     N11313   0.343   2.451  10.828  0.3960 -0.1055  0.7606
  762MPD2    H511314   0.285   2.401  10.763  0.6937  0.3633  0.1374
  762MPD2    N111315   0.020   2.337  11.177 -0.2035  0.9399 -0.3562
  762MPD2    H711316   4.702   2.381  11.250  1.1990  2.1521 -0.0067
  763MPD2     C11317   1.586   3.187  16.362  0.0479  0.2645 -0.1244
  763MPD2    C111318   1.683   3.254  16.290 -0.4477  0.3547  0.2975
  763MPD2    C211319   1.706   3.386  16.331  0.0164 -0.4883  0.2583
  763MPD2    C311320   1.631   3.457  16.428  0.3741  0.8920 -0.2704
  763MPD2    C411321   1.549   3.378  16.499 -0.8331 -0.0181  0.2850
  763MPD2    C511322   1.524   3.246  16.468 -0.0241  0.2650  0.5019
  763MPD2     H11323   1.786   3.449  16.294 -0.3116 -0.4973 -0.4786
  763MPD2    H111324   1.491   3.418  16.582  1.1825  1.3005  1.0467
  763MPD2    H211325   1.546   3.091  16.329 -0.3951  0.7583 -1.0385
  763MPD2    H311326   1.441   3.193  16.512 -0.2701  0.6594  0.5115
  763MPD2     N11327   1.661   3.587  16.451  0.2302 -0.3273 -0.0774
  763MPD2    H511328   1.744   3.618  16.400 -0.0041 -0.3837 -0.4895
  763MPD2    N111329   1.754   3.197  16.180 -0.3791  0.0128 -0.0504
  763MPD2    H711330   1.824   3.250  16.130 -0.7656  2.3090  1.8180
  764MPD2     C11331   0.062   0.315  17.564  0.4361 -0.2466  0.1266
  764MPD2    C111332   4.729   0.241  17.474 -0.0646  0.0235  0.7317
  764MPD2    C211333   4.616   0.176  17.518 -0.0799  0.3352 -0.0359
  764MPD2    C311334   4.583   0.172  17.649 -0.3682 -0.2544 -0.0150
  764MPD2    C411335   4.659   0.242  17.741 -1.0024 -0.4337 -0.2249
  764MPD2    C511336   0.021   0.321  17.693 -0.2086 -0.0541 -0.0608
  764MPD2     H11337   4.555   0.132  17.440 -0.0769  0.8208 -0.3133
  764MPD2    H111338   4.621   0.261   0.093  0.6942 -0.0753  0.3604
  764MPD2    H211339   0.158   0.357  17.539  1.4335 -1.5773  1.6571
  764MPD2    H311340   0.080   0.374   0.020  1.2899 -0.2556 -1.0952
  764MPD2     N11341   4.461   0.103  17.688 -0.2134 -0.0940  0.2201
  764MPD2    H511342   4.395   0.074  17.616  0.2573  0.3350 -0.3907
  764MPD2    N111343   0.018   0.233  17.336 -0.2450 -0.4092 -0.6699
  764MPD2    H711344   4.688   0.182  17.281 -0.9997 -0.2740  0.1237
  765MPD2     C11345   4.512   2.733  15.388 -0.2326 -0.5649 -0.4337
  765MPD2    C111346   4.584   2.819  15.468  0.3047 -0.0631 -0.8322
  765MPD2    C211347   4.716   2.797  15.492  0.4049  0.3942  0.1393
  765MPD2    C311348   0.038   2.680  15.443 -0.3789  0.4088  0.0378
  765MPD2    C411349   4.698   2.591  15.373 -0.6341 -0.0804 -0.7005
  765MPD2    C511350   4.572   2.616  15.340 -0.1367 -0.2459 -0.3865
  765MPD2     H11351   0.030   2.870  15.553  1.2610 -0.4136  0.4009
  765MPD2    H111352   4.732   2.495  15.335 -2.0137 -0.8613  0.0307
  765MPD2    H211353   4.406   2.739  15.362 -0.7186 -0.8105  1.5079
  765MPD2    H311354   4.515   2.545  15.282 -1.2408 -0.7498  1.3087
  765MPD2     N11355   0.179   2.662  15.472  0.8302  0.2584  0.1114
  765MPD2    H511356   0.219   2.719  15.546 -0.1130  2.6818 -1.2457
  765MPD2    N111357   4.521   2.944  15.505 -0.7282 -0.2661  0.1605
  765MPD2    H711358   4.424   2.954  15.479 -0.9234 -1.8785  0.2752
  766MPD2     C11359   4.015   3.139  15.087 -0.7005 -0.3222  0.0943
  766MPD2    C111360   4.088   3.073  15.182 -0.4873  0.3307 -0.2019
  766MPD2    C211361   4.138   2.946  15.154  0.0638 -0.6354 -0.7482
  766MPD2    C311362   4.102   2.887  15.030 -0.6921 -0.1762 -0.1381
  766MPD2    C411363   4.012   2.953  14.944 -0.5613 -0.6147  0.4836
  766MPD2    C511364   3.969   3.074  14.979  0.0506 -0.2090  0.1795
  766MPD2     H11365   4.205   2.896  15.223  0.1149 -1.3882 -1.3404
  766MPD2    H111366   3.977   2.919  14.848 -2.9198 -1.1228  1.5289
  766MPD2    H211367   3.981   3.240  15.108 -1.0818 -0.5539  0.5922
  766MPD2    H311368   3.899   3.118  14.909 -0.3857  0.5321  1.0853
  766MPD2     N11369   4.164   2.774  14.982  0.2509  0.0534  0.4745
  766MPD2    H511370   4.143   2.746  14.886  1.3489 -0.5044  0.3937
  766MPD2    N111371   4.131   3.151  15.298 -0.1315 -0.2414 -0.6392
  766MPD2    H711372   4.083   3.240  15.299 -2.2316 -1.3586 -1.3972
  767MPD2     C11373   4.301   3.240  14.781  0.4240  0.1766  0.5360
  767MPD2    C111374   4.340   3.107  14.795  0.2076 -0.8620  0.1881
  767MPD2    C211375   4.324   3.019  14.691  0.0094  0.5403 -0.3238
  767MPD2    C311376   4.264   3.060  14.573  0.1922 -0.1969 -0.0060
  767MPD2    C411377   4.227   3.194  14.553 -0.0658  0.1769  0.0019
  767MPD2    C511378   4.243   3.277  14.663 -0.2173  1.0971  0.2133
  767MPD2     H11379   4.360   2.918  14.703 -0.8340  0.0963 -1.5725
  767MPD2    H111380   4.200   3.243  14.460  0.9109  0.2195 -0.2551
  767MPD2    H211381   4.309   3.318  14.855 -0.8021 -0.8676  1.7884
  767MPD2    H311382   4.208   3.379  14.651 -0.9107  0.8869  0.4176
  767MPD2     N11383   4.249   2.961  14.468  0.4822  0.3985  0.0078
  767MPD2    H511384   4.289   2.869  14.484  0.6843  0.7896  1.7371
  767MPD2    N111385   4.402   3.076  14.923 -0.2839  0.2883  0.2775
  767MPD2    H711386   4.395   3.147  14.995  1.4525 -0.3616  1.0859
  768MPD2     C11387   4.653   1.188  10.544  0.5544 -0.5742 -0.0188
  768MPD2    C111388   4.653   1.114  10.661  0.0043  0.2999  0.0877
  768MPD2    C211389   0.030   1.112  10.739  0.0605  1.1183 -0.1995
  768MPD2    C311390   0.143   1.176  10.690  0.4437  0.7192 -0.6272
  768MPD2    C411391   0.143   1.235  10.570 -0.2502 -0.4113  0.1837
  768MPD2    C511392   0.034   1.243  10.496 -0.4377 -0.3622  0.5544
  768MPD2     H11393   0.015   1.056  10.830  2.1337 -1.4927 -1.4773
  768MPD2    H111394   0.237   1.276  10.534 -0.3533 -0.6259 -0.3248
  768MPD2    H211395   4.568   1.201  10.478 -0.1264 -0.2199  0.9186
  768MPD2    H311396   0.043   1.281  10.394 -0.2451  1.0724  1.1003
  768MPD2     N11397   0.266   1.177  10.759 -0.7097  0.2967  0.1375
  768MPD2    H511398   0.349   1.224  10.725 -1.0757  0.4944 -0.4906
  768MPD2    N111399   4.538   1.041  10.717 -0.2580  0.0695  0.5991
  768MPD2    H711400   4.563   0.978  10.793  0.8435 -0.4313 -0.1781
  769MPD2     C11401   0.469   4.655  14.748 -0.0375  0.1887  0.0656
  769MPD2    C111402   0.579   4.585  14.706 -0.2674 -0.2240  0.2231
  769MPD2    C211403   0.679   4.544  14.798 -0.5651 -0.5845  0.6486
  769MPD2    C311404   0.651   4.557  14.934  0.8720  0.5918  0.6109
  769MPD2    C411405   0.545   4.635  14.973 -0.3831 -0.6038 -0.1465
  769MPD2    C511406   0.451   4.688  14.883  0.4218 -0.5419 -0.5217
  769MPD2     H11407   0.772   4.496  14.773  0.4156  1.9583 -0.6184
  769MPD2    H111408   0.525   4.655  15.077  1.3583 -1.0352  0.2794
  769MPD2    H211409   0.399   4.689  14.673  1.6056  0.6901 -1.2492
  769MPD2    H311410   0.361   4.737  14.918  1.3462  2.2905 -2.0316
  769MPD2     N11411   0.751   4.515  15.027 -0.3771 -0.4015  0.1218
  769MPD2    H511412   0.818   4.445  14.996  1.6453  0.4983  2.4571
  769MPD2    N111413   0.586   4.552  14.571 -0.3159 -0.6642 -0.9551
  769MPD2    H711414   0.512   4.556  14.502 -0.2700  0.1715 -0.9578
  770MPD2     C11415   1.114   3.715  14.521 -0.0819 -0.0902  0.3422
  770MPD2    C111416   0.986   3.688  14.555 -0.5375 -0.0819 -0.0768
  770MPD2    C211417   0.889   3.779  14.513  0.1979 -0.2586 -0.4100
  770MPD2    C311418   0.923   3.889  14.440 -0.2575  0.3287  0.5212
  770MPD2    C411419   1.058   3.916  14.426 -0.2553  0.5797  1.0099
  770MPD2    C511420   1.154   3.830  14.457 -0.5708  0.6184 -0.0322
  770MPD2     H11421   0.787   3.751  14.535  0.6869  0.7169  3.0462
  770MPD2    H111422   1.083   4.010  14.380 -3.5223  0.6071 -0.6927
  770MPD2    H211423   1.185   3.635  14.534  0.2406  0.1428  0.0037
  770MPD2    H311424   1.252   3.851  14.415  0.0332  2.2110  2.1955
  770MPD2     N11425   0.820   3.986  14.411 -0.3816 -0.2975  0.3554
  770MPD2    H511426   0.723   3.968  14.434 -0.5873 -2.6639 -2.3011
  770MPD2    N111427   0.955   3.566  14.619 -0.2274 -0.1606 -0.0364
  770MPD2    H711428   1.030   3.506  14.653  0.4143  1.0169  0.6095
  771MPD2     C11429   1.442   2.069  13.716 -0.3487 -0.8498 -0.8986
  771MPD2    C111430   1.491   2.161  13.631 -0.7773 -0.5179  0.7163
  771MPD2    C211431   1.464   2.168  13.497 -0.0055  0.9391 -0.2630
  771MPD2    C311432   1.386   2.077  13.439 -0.8918  0.4989 -0.2937
  771MPD2    C411433   1.325   1.980  13.519  0.1225  0.2957  0.5793
  771MPD2    C511434   1.349   1.982  13.658  0.0527  0.6574  0.0656
  771MPD2     H11435   1.511   2.249  13.442 -0.0930  1.2887  0.1799
  771MPD2    H111436   1.255   1.910  13.475  1.4243 -0.1982 -0.6799
  771MPD2    H211437   1.471   2.049  13.819  1.0709 -1.4391 -1.4084
  771MPD2    H311438   1.304   1.900  13.713  2.0937 -0.2419  0.4013
  771MPD2     N11439   1.382   2.085  13.295  0.8832 -0.2359 -0.1587
  771MPD2    H511440   1.445   2.150  13.249  1.7589 -0.3574  0.8626
  771MPD2    N111441   1.569   2.266  13.676  0.5994  0.4647 -0.1666
  771MPD2    H711442   1.591   2.340  13.610  0.6144 -0.3791 -1.0993
  772MPD2     C11443   1.225   2.887  13.834 -0.1776  0.2594  0.6932
  772MPD2    C111444   1.242   2.747  13.848 -0.2169  0.3278 -0.6665
  772MPD2    C211445   1.135   2.661  13.855 -0.3878 -0.0846 -0.1616
  772MPD2    C311446   1.009   2.706  13.831  0.4493  0.1280 -0.5057
  772MPD2    C411447   0.989   2.838  13.811 -0.5721 -0.1803  0.3512
  772MPD2    C511448   1.098   2.927  13.808  0.0974 -0.2330  0.9372
  772MPD2     H11449   1.146   2.554  13.872  3.8643  0.3528 -0.1710
  772MPD2    H111450   0.891   2.882  13.796 -0.8314 -0.8542  0.1035
  772MPD2    H211451   1.306   2.959  13.833  1.8294 -2.0048  0.3966
  772MPD2    H311452   1.082   3.030  13.781 -2.6836 -0.7252  0.6971
  772MPD2     N11453   0.896   2.623  13.814  0.1064  0.3469  0.4304
  772MPD2    H511454   0.817   2.679  13.785  0.6413 -1.1860 -4.0161
  772MPD2    N111455   1.367   2.681  13.859 -0.1507  0.0640  0.4519
  772MPD2    H711456   1.362   2.580  13.855  1.8017  0.0138 -0.4338
  773MPD2     C11457   0.423   4.238   0.567  0.0691  0.0120 -0.1777
  773MPD2    C111458   0.385   4.130   0.498  0.5466  0.1746 -0.2528
  773MPD2    C211459   0.448   4.010   0.514 -0.0564 -0.1470 -0.1423
  773MPD2    C311460   0.566   4.003   0.592 -0.5469 -0.2775 -0.2355
  773MPD2    C411461   0.612   4.119   0.647 -0.1391 -0.0460  0.0849
  773MPD2    C511462   0.535   4.234   0.639 -0.1190  0.2706 -0.0040
  773MPD2     H11463   0.410   3.925   0.459 -0.0820 -0.3749  0.2299
  773MPD2    H111464   0.709   4.126   0.694  0.2793 -1.3683 -0.6004
  773MPD2    H211465   0.374   4.335   0.564  0.1030 -0.0791 -3.7998
  773MPD2    H311466   0.559   4.329   0.686  1.3827  0.4566 -1.1585
  773MPD2     N11467   0.650   3.887   0.583 -0.4093 -0.3679  0.5520
  773MPD2    H511468   0.606   3.811   0.532 -0.4113 -0.4896  0.7323
  773MPD2    N111469   0.267   4.131   0.419 -0.5097  0.1383  0.2179
  773MPD2    H711470   0.226   4.043   0.391  0.0189 -0.4593  1.3417
  774MPD2     C11471   0.444   2.278  13.217  0.3341 -0.1795  0.5104
  774MPD2    C111472   0.316   2.316  13.242 -0.2416  0.0792 -0.1082
  774MPD2    C211473   0.297   2.447  13.282  0.3624  0.3265 -0.4255
  774MPD2    C311474   0.400   2.535  13.295 -0.5759  0.2104  0.3312
  774MPD2    C411475   0.526   2.490  13.261  0.5407  0.5647  0.2127
  774MPD2    C511476   0.549   2.361  13.235  0.1962 -0.2436  0.2641
  774MPD2     H11477   0.200   2.487  13.308  1.1243  1.2376  1.0011
  774MPD2    H111478   0.614   2.551  13.276 -0.4430  1.5164  2.0447
  774MPD2    H211479   0.468   2.176  13.189  1.7255  0.5008 -0.7967
  774MPD2    H311480   0.647   2.318  13.220 -0.4489 -1.3481 -0.7985
  774MPD2     N11481   0.373   2.667  13.344 -0.1638  0.2573 -0.7434
  774MPD2    H511482   0.277   2.700  13.352 -0.0405  0.3296  0.4990
  774MPD2    N111483   0.219   2.211  13.234  0.0294 -0.4509  0.1240
  774MPD2    H711484   0.249   2.123  13.193  0.1927  0.0163 -0.7728
  775MPD2     C11485   1.173   3.783  15.884  0.5127  0.1812 -0.5693
  775MPD2    C111486   1.148   3.910  15.939 -0.3020 -0.3085 -0.0072
  775MPD2    C211487   1.256   4.001  15.947  0.3059  0.5987  0.5346
  775MPD2    C311488   1.388   3.966  15.899  0.3212 -0.4334 -0.2040
  775MPD2    C411489   1.400   3.849  15.831 -0.6478 -0.0928 -0.0669
  775MPD2    C511490   1.298   3.753  15.833 -0.3777 -0.1204 -0.8506
  775MPD2     H11491   1.237   4.100  15.988  1.3960  0.9932  0.0711
  775MPD2    H111492   1.494   3.816  15.788 -1.2398 -1.4829 -0.2982
  775MPD2    H211493   1.094   3.709  15.880  2.0270 -1.5220  1.3360
  775MPD2    H311494   1.310   3.651  15.797 -1.4965 -0.9129  0.9922
  775MPD2     N11495   1.495   4.057  15.900 -0.4301  0.8245 -0.7746
  775MPD2    H511496   1.573   4.036  15.839  0.8243  1.3910  0.6287
  775MPD2    N111497   1.010   3.942  15.981  0.9251 -0.2212 -0.1069
  775MPD2    H711498   0.940   3.870  15.970  2.5007 -1.5239 -1.5153
  776MPD2     C11499   0.276   4.468  11.875  0.7044  0.4017  0.1631
  776MPD2    C111500   0.236   4.379  11.779  0.0956 -0.3751 -0.2397
  776MPD2    C211501   0.196   4.427  11.654 -0.2722 -0.1640  0.3234
  776MPD2    C311502   0.204   4.558  11.619  0.7752 -0.1074  0.3465
  776MPD2    C411503   0.257   4.645  11.712  0.5435  0.0482 -1.0414
  776MPD2    C511504   0.282   4.602  11.840  0.0945  0.2914 -0.2722
  776MPD2     H11505   0.149   4.359  11.584 -0.7231  0.4028  0.0744
  776MPD2    H111506   0.254   0.015  11.698  0.2256  0.3228  1.2363
  776MPD2    H211507   0.293   4.440  11.979 -1.7860  0.1197  0.4942
  776MPD2    H311508   0.324   4.676  11.907 -1.4070  0.6784  0.2291
  776MPD2     N11509   0.161   4.609  11.501 -0.4324 -0.4978  0.0700
  776MPD2    H511510   0.190   4.704  11.480  0.8806 -1.3033 -1.7397
  776MPD2    N111511   0.217   4.244  11.817 -0.6271  0.3677 -0.1630
  776MPD2    H711512   0.224   4.227  11.916 -0.3716  1.6096  0.0274
  777MPD2     C11513   0.218   2.322   0.779  0.0904  0.3575  0.5862
  777MPD2    C111514   0.262   2.207   0.842 -0.0756  0.6203 -0.8666
  777MPD2    C211515   0.222   2.087   0.790 -0.1570 -0.3565 -0.4534
  777MPD2    C311516   0.147   2.077   0.681 -0.4959  0.1649 -0.2128
  777MPD2    C411517   0.097   2.190   0.616  0.2353 -0.6383  0.0393
  777MPD2    C511518   0.141   2.311   0.661  0.0801 -0.4961 -0.9983
  777MPD2     H11519   0.243   1.993   0.841  1.6228  0.2325 -0.1073
  777MPD2    H111520   0.023   2.193   0.538 -0.4969 -1.2956  0.7049
  777MPD2    H211521   0.232   2.426   0.807 -3.3676  0.9301  0.1080
  777MPD2    H311522   0.108   2.402   0.612  1.3859  0.6648  0.2362
  777MPD2     N11523   0.092   1.948   0.655 -0.3473  0.0957 -0.3510
  777MPD2    H511524   0.118   1.872   0.717 -1.2114  0.6713  0.7114
  777MPD2    N111525   0.344   2.220   0.959  0.2528 -0.3925 -0.0521
  777MPD2    H711526   0.352   2.315   0.996  0.4623 -0.2523 -0.4547
  778MPD2     C11527   1.477   2.042  15.470 -1.0094 -0.1223 -0.2454
  778MPD2    C111528   1.442   1.967  15.360 -0.8871  0.2520 -0.4580
  778MPD2    C211529   1.512   1.981  15.240 -0.2489  0.4804  0.1693
  778MPD2    C311530   1.612   2.077  15.221 -0.1953  0.2534  0.0445
  778MPD2    C411531   1.644   2.151  15.335 -0.4254  1.0945 -0.3910
  778MPD2    C511532   1.576   2.133  15.451 -0.0589 -0.4181 -0.7487
  778MPD2     H11533   1.489   1.913  15.159  0.6991  0.6628 -0.2589
  778MPD2    H111534   1.717   2.232  15.340  0.6561  0.1548 -0.8469
  778MPD2    H211535   1.418   2.043  15.561 -0.5545 -2.1945  0.0511
  778MPD2    H311536   1.614   2.193  15.532 -2.7364  0.7816 -0.3602
  778MPD2     N11537   1.680   2.094  15.098  0.0683 -0.2824 -0.4994
  778MPD2    H511538   1.642   2.036  15.024 -0.9542  0.0136 -0.1998
  778MPD2    N111539   1.336   1.874  15.357  0.4013 -0.8738 -0.0094
  778MPD2    H711540   1.304   1.843  15.265  3.1935 -2.1994 -0.5226
  779MPD2     C11541   1.298   1.185  14.661 -0.0333 -0.7926 -0.3203
  779MPD2    C111542   1.315   1.115  14.548  0.5547 -0.2620  0.6722
  779MPD2    C211543   1.304   1.174  14.423 -0.3616 -0.0431  0.0145
  779MPD2    C311544   1.272   1.309  14.409  0.4087  0.1948  0.1335
  779MPD2    C411545   1.256   1.376  14.528  0.1036  0.4446 -0.3374
  779MPD2    C511546   1.271   1.322  14.649 -0.0150  0.0891  0.2753
  779MPD2     H11547   1.330   1.117  14.335  2.3698  1.5167 -0.2159
  779MPD2    H111548   1.241   1.483  14.543  0.0321  0.1571  1.6484
  779MPD2    H211549   1.294   1.157  14.765 -1.3328  1.0560  0.1269
  779MPD2    H311550   1.274   1.380  14.741  0.1150  0.0291  0.3092
  779MPD2     N11551   1.247   1.373  14.282  0.3023 -0.1142  0.0646
  779MPD2    H511552   1.286   1.330  14.199 -1.4891  2.2160 -1.9894
  779MPD2    N111553   1.329   0.969  14.544  0.0135 -0.1157 -0.0426
  779MPD2    H711554   1.325   0.924  14.454 -1.9928  2.7234 -1.3812
  780MPD2     C11555   1.275   1.031   0.569 -0.2435 -0.2384 -0.3295
  780MPD2    C111556   1.158   1.092   0.609  0.4705  0.7684 -0.1196
  780MPD2    C211557   1.062   1.106   0.513 -0.6245  0.2235  0.4505
  780MPD2    C311558   1.077   1.060   0.387  0.8030  0.5149 -0.2031
  780MPD2    C411559   1.190   0.999   0.351 -0.0516  0.0045 -0.8816
  780MPD2    C511560   1.289   0.983   0.448  0.3815  1.0021  0.5295
  780MPD2     H11561   0.965   1.148   0.536 -1.2253 -0.5899 -0.5958
  780MPD2    H111562   1.209   0.946   0.259  2.1387  0.8748 -0.9146
  780MPD2    H211563   1.351   1.012   0.643 -0.9157  0.2591  0.4897
  780MPD2    H311564   1.379   0.928   0.420 -0.0681  1.2143 -1.3560
  780MPD2     N11565   0.954   1.058   0.309 -0.0842  0.0784 -0.0029
  780MPD2    H511566   0.877   1.115   0.343  0.3849 -0.4085  1.8675
  780MPD2    N111567   1.130   1.116   0.745  0.1893 -0.1742 -0.7560
  780MPD2    H711568   1.196   1.067   0.806 -1.6246 -1.9721 -0.2116
  781MPD2     C11569   2.898   3.058  12.387  0.0650  0.2170 -0.1237
  781MPD2    C111570   2.957   2.952  12.315  0.2025  0.4968  0.5955
  781MPD2    C211571   3.044   2.982  12.221 -0.2040  0.7081 -0.9307
  781MPD2    C311572   3.072   3.113  12.186  0.8425  0.2473  0.1873
  781MPD2    C411573   3.026   3.217  12.257 -0.6096  0.6503 -0.1598
  781MPD2    C511574   2.937   3.186  12.353 -0.2646  0.1292 -0.4900
  781MPD2     H11575   3.095   2.901  12.169  0.4293 -0.2871  1.2120
  781MPD2    H111576   3.054   3.319  12.232  1.2116  0.2521  0.2732
  781MPD2    H211577   2.821   3.047  12.462 -1.1359  0.2597 -1.3590
  781MPD2    H311578   2.890   3.275  12.392  0.2641  0.3008 -0.2345
  781MPD2     N11579   3.154   3.143  12.076  0.5254  0.1363  0.4506
  781MPD2    H511580   3.163   3.243  12.061  0.4665  0.2354  1.0687
  781MPD2    N111581   2.934   2.819  12.345 -0.8014  0.0200 -0.7873
  781MPD2    H711582   2.996   2.749  12.306 -1.6383 -0.9449 -0.3741
  782MPD2     C11583   0.541   3.481  10.181 -0.4741  0.2359 -0.3707
  782MPD2    C111584   0.615   3.450  10.298 -0.3981 -0.2201  0.0051
  782MPD2    C211585   0.620   3.544  10.400 -0.0018  0.1958  0.5454
  782MPD2    C311586   0.535   3.650  10.403 -0.4168 -0.3772  0.3476
  782MPD2    C411587   0.458   3.686  10.296  0.6558  0.4694 -0.4259
  782MPD2    C511588   0.461   3.596  10.184 -0.1309 -0.8256  0.3201
  782MPD2     H11589   0.685   3.520  10.483  0.4320 -1.6802 -0.3331
  782MPD2    H111590   0.392   3.772  10.297 -0.8800 -0.6809 -2.6220
  782MPD2    H211591   0.541   3.421  10.090 -0.2091  2.7082 -2.0089
  782MPD2    H311592   0.399   3.613  10.096  0.9140  0.6295 -0.1225
  782MPD2     N11593   0.557   3.740  10.511 -0.1388  0.4523  0.0023
  782MPD2    H511594   0.610   3.701  10.588  1.5480 -1.0518 -1.9052
  782MPD2    N111595   0.691   3.334  10.315  0.4875 -0.2778 -0.3741
  782MPD2    H711596   0.744   3.319  10.400  2.1203  1.3061 -1.1019
  783MPD2     C11597   0.155   2.794  10.727 -0.3852  0.4314 -0.2115
  783MPD2    C111598   0.252   2.868  10.797  0.1594 -0.2669  0.1281
  783MPD2    C211599   0.372   2.895  10.733 -0.0255 -0.4149 -0.4085
  783MPD2    C311600   0.397   2.846  10.608 -0.6522 -0.1389 -0.5637
  783MPD2    C411601   0.295   2.779  10.541  0.4179  0.1253 -0.0092
  783MPD2    C511602   0.171   2.758  10.596  0.0913  0.0729  0.0594
  783MPD2     H11603   0.447   2.951  10.787 -0.8846  1.5505 -1.2353
  783MPD2    H111604   0.315   2.745  10.440  3.4966 -1.0816  1.0076
  783MPD2    H211605   0.063   2.779  10.783  0.8624 -1.5178  1.3182
  783MPD2    H311606   0.096   2.705  10.538 -0.3358  0.5308  0.1966
  783MPD2     N11607   0.524   2.871  10.552  0.1262 -0.3263 -0.9855
  783MPD2    H511608   0.585   2.921  10.617 -5.1025 -1.2881  4.5663
  783MPD2    N111609   0.212   2.915  10.921  0.8735  0.2173  0.9512
  783MPD2    H711610   0.121   2.880  10.949  0.4806  0.0779 -0.5104
  784MPD2     C11611   3.031   3.832   0.425 -0.4142 -0.5054  0.4542
  784MPD2    C111612   3.045   3.935   0.519 -0.0279  0.3407  1.0696
  784MPD2    C211613   2.958   4.044   0.520  0.1826 -0.1217 -0.5921
  784MPD2    C311614   2.851   4.047   0.435  0.1605 -0.0899 -0.2564
  784MPD2    C411615   2.845   3.949   0.339 -0.5721 -0.8657 -0.2724
  784MPD2    C511616   2.938   3.849   0.323  0.1982 -0.7158  0.1287
  784MPD2     H11617   2.971   4.124   0.592  0.1605  0.4871 -1.2656
  784MPD2    H111618   2.764   3.954   0.268 -1.0707 -1.6225  0.2432
  784MPD2    H211619   3.089   3.740   0.417 -1.0807 -0.6361 -2.6526
  784MPD2    H311620   2.920   3.770   0.251  1.0164  0.0368 -0.9002
  784MPD2     N11621   2.757   4.149   0.444  0.3152 -0.4095 -0.1872
  784MPD2    H511622   2.784   4.222   0.509 -1.6726 -0.0692  0.2636
  784MPD2    N111623   3.137   3.928   0.621  0.2791  0.4817 -0.5575
  784MPD2    H711624   3.139   4.014   0.676 -0.7754 -0.5670  1.1236
  785MPD2     C11625   3.819   2.773  11.301  0.2002  0.5557  0.0616
  785MPD2    C111626   3.752   2.872  11.234 -0.1258  0.2054 -0.0677
  785MPD2    C211627   3.618   2.878  11.220 -0.3487 -0.0752 -0.4585
  785MPD2    C311628   3.543   2.774  11.276  0.4720  0.1749  0.5240
  785MPD2    C411629   3.611   2.681  11.350  0.2925 -0.7817 -0.4627
  785MPD2    C511630   3.745   2.676  11.362 -0.1836 -0.0582 -0.5039
  785MPD2     H11631   3.582   2.958  11.156 -0.7429  1.2376  1.3966
  785MPD2    H111632   3.549   2.602  11.390  0.0053  0.3017  1.2208
  785MPD2    H211633   3.928   2.778  11.304  0.4298 -3.5527 -0.9764
  785MPD2    H311634   3.788   2.585  11.403 -1.8623  0.7252  3.0007
  785MPD2     N11635   3.405   2.776  11.250  0.2378 -0.0141  0.1513
  785MPD2    H511636   3.369   2.848  11.188 -0.7275  1.2148  2.1446
  785MPD2    N111637   3.813   2.986  11.181 -0.5460  0.1630  0.3010
  785MPD2    H711638   3.759   3.060  11.138  1.7165  0.6705 -1.6845
  786MPD2     C11639   1.818   0.049  14.739 -0.2508 -0.1805 -0.4707
  786MPD2    C111640   1.912   4.689  14.775  0.5560  0.4202 -0.1116
  786MPD2    C211641   1.963   4.695  14.901 -0.2951 -0.1155  0.9271
  786MPD2    C311642   1.915   0.051  14.995  0.1708 -0.5771 -0.4681
  786MPD2    C411643   1.810   0.126  14.960  0.3267 -0.1947  0.5481
  786MPD2    C511644   1.747   0.118  14.838 -0.1482 -0.7539 -0.2171
  786MPD2     H11645   2.037   4.620  14.927  0.9757  0.6218 -0.5035
  786MPD2    H111646   1.763   0.192  15.032  0.5655  1.1155 -0.5120
  786MPD2    H211647   1.765   0.047  14.645  1.2402  2.4410 -1.3696
  786MPD2    H311648   1.670   0.190  14.814 -0.0313 -0.2610  0.8871
  786MPD2     N11649   1.985   0.060  15.114  0.2028 -0.2406 -0.2171
  786MPD2    H511650   2.077   0.016  15.118 -1.1022 -3.0194 -0.9423
  786MPD2    N111651   1.959   4.593  14.676 -0.0982 -0.4796 -0.0783
  786MPD2    H711652   2.017   4.515  14.706 -1.5709 -2.2206 -1.7607
  787MPD2     C11653   2.430   4.270  14.811  0.6927 -0.3670 -0.3038
  787MPD2    C111654   2.405   4.217  14.686  0.1315 -0.1557  0.5856
  787MPD2    C211655   2.456   4.098  14.656  0.0305 -0.2391  0.0348
  787MPD2    C311656   2.535   4.023  14.738  0.1584  1.2041  0.1774
  787MPD2    C411657   2.563   4.075  14.861 -0.7153 -0.0316 -0.4403
  787MPD2    C511658   2.515   4.198  14.897  0.0219  0.1850 -0.0214
  787MPD2     H11659   2.422   4.049  14.565  1.8384  0.8502 -1.2455
  787MPD2    H111660   2.627   4.029  14.935 -1.1738 -0.2466 -0.1757
  787MPD2    H211661   2.390   4.367  14.837  0.0865 -0.8002  0.3830
  787MPD2    H311662   2.535   4.248  14.991 -0.7897  2.1320 -0.8973
  787MPD2     N11663   2.566   3.891  14.706  0.5257 -0.1608  0.6544
  787MPD2    H511664   2.549   3.847  14.617  1.7352  1.0483 -0.1628
  787MPD2    N111665   2.309   4.288  14.605  0.2609 -0.0074  0.1090
  787MPD2    H711666   2.275   4.375  14.644  2.3128  0.3677  1.0636
  788MPD2     C11667   3.822   3.889   0.798  0.7527 -0.5089 -0.2074
  788MPD2    C111668   3.731   3.800   0.750 -0.0416  0.9453 -0.2139
  788MPD2    C211669   3.649   3.847   0.645  0.1954  0.2439  0.9581
  788MPD2    C311670   3.650   3.977   0.594  0.2006  0.5152  0.2545
  788MPD2    C411671   3.742   4.057   0.647  0.4995  0.5164  0.1203
  788MPD2    C511672   3.835   4.013   0.740  0.2091  0.8559 -0.1516
  788MPD2     H11673   3.587   3.772   0.596  0.1147  1.6261 -1.0688
  788MPD2    H111674   3.754   4.148   0.588 -0.1189  0.4920 -0.0464
  788MPD2    H211675   3.890   3.865   0.879  0.3866 -0.1681  0.2061
  788MPD2    H311676   3.909   4.083   0.778  1.3983 -0.7713  0.5527
  788MPD2     N11677   3.587   4.010   0.473  0.2579  0.3601  0.0251
  788MPD2    H511678   3.609   4.102   0.436  2.6514 -1.3429 -2.7511
  788MPD2    N111679   3.717   3.667   0.793  0.0753  0.5501  0.2992
  788MPD2    H711680   3.640   3.615   0.753 -0.3171 -0.6440  2.6313
  789MPD2     C11681   4.067   2.917  16.457 -0.2487 -0.7911 -0.2072
  789MPD2    C111682   3.968   2.845  16.504 -0.1017 -0.0264 -0.3780
  789MPD2    C211683   3.855   2.900  16.567  0.1603  0.4932  0.1968
  789MPD2    C311684   3.842   3.040  16.571 -0.1232 -0.1428  0.0771
  789MPD2    C411685   3.940   3.121  16.507 -0.3357  0.1085  1.3122
  789MPD2    C511686   4.043   3.049  16.451 -0.8189 -1.2714 -0.2503
  789MPD2     H11687   3.781   2.829  16.602  0.1686  1.0311  1.2731
  789MPD2    H111688   3.929   3.229  16.508 -1.3226  0.0256 -1.1372
  789MPD2    H211689   4.146   2.878  16.394 -1.3162 -3.2653  0.0095
  789MPD2    H311690   4.095   3.109  16.376 -0.8203  0.8717  1.4518
  789MPD2     N11691   3.729   3.102  16.625 -0.2651 -0.1018 -0.3211
  789MPD2    H511692   3.715   3.199  16.597  0.6016 -0.2327 -1.1996
  789MPD2    N111693   3.981   2.704  16.488  0.3877  0.2879  0.7833
  789MPD2    H711694   3.896   2.653  16.508  0.6549 -1.2409 -1.9232
  790MPD2     C11695   0.996   4.183  13.507  0.5962 -0.2598  0.6861
  790MPD2    C111696   0.878   4.258  13.509 -0.3543  0.6059  0.2405
  790MPD2    C211697   0.807   4.274  13.392 -0.4082  0.0121 -0.0367
  790MPD2    C311698   0.842   4.217  13.268 -0.1148  0.0294  0.8922
  790MPD2    C411699   0.943   4.125  13.275  0.7281 -0.3911  0.4015
  790MPD2    C511700   1.023   4.106  13.391  0.2248  0.1065 -0.0320
  790MPD2     H11701   0.722   4.342  13.390  1.2665  2.0802 -0.4704
  790MPD2    H111702   0.966   4.068  13.185  2.3020 -0.9395  1.1557
  790MPD2    H211703   1.051   4.160  13.597 -0.6083 -0.4648  1.3647
  790MPD2    H311704   1.105   4.037  13.382  0.5769  0.3555  1.2431
  790MPD2     N11705   0.758   4.250  13.161  0.5022 -0.1642  0.5012
  790MPD2    H511706   0.669   4.287  13.194  0.6338 -0.8073  1.5783
  790MPD2    N111707   0.856   4.335  13.623 -0.4410 -0.0453 -0.0611
  790MPD2    H711708   0.913   4.318  13.705  1.3173 -0.6838 -1.4151
  791MPD2     C11709   0.031   4.312  12.728 -1.0354 -0.5348  0.7673
  791MPD2    C111710   0.102   4.207  12.777 -0.3216 -0.4897  0.4130
  791MPD2    C211711   0.039   4.085  12.786 -0.1796 -0.8777 -0.2197
  791MPD2    C311712   4.648   4.066  12.744  0.3876 -0.2767  0.3208
  791MPD2    C411713   4.576   4.172  12.695 -0.1939 -0.6125  0.6356
  791MPD2    C511714   4.645   4.290  12.677 -0.2432 -0.2891 -0.1292
  791MPD2     H11715   0.097   3.997  12.810  3.2963  0.7036 -2.9505
  791MPD2    H111716   4.474   4.158  12.659  1.0037  0.1854 -3.0680
  791MPD2    H211717   0.082   4.407  12.721 -1.3256 -0.4777 -0.4958
  791MPD2    H311718   4.591   4.372  12.632 -0.9747  0.0980  1.4690
  791MPD2     N11719   4.594   3.939  12.744  0.5809  0.1414  0.6532
  791MPD2    H511720   4.648   3.862  12.782  0.9139  1.2938  2.5236
  791MPD2    N111721   0.232   4.234  12.817  0.1661 -0.1727  0.0688
  791MPD2    H711722   0.279   4.322  12.800 -1.8307  1.0131  0.5974
  792MPD2     C11723   0.619   4.340  11.457  0.1730 -0.2068 -0.4728
  792MPD2    C111724   0.565   4.404  11.346 -0.6344  0.5464 -0.2850
  792MPD2    C211725   0.432   4.374  11.315  0.0321  0.3562  0.7164
  792MPD2    C311726   0.369   4.271  11.390 -0.1938  0.5039 -0.0795
  792MPD2    C411727   0.433   4.213  11.497  0.0218 -0.1110 -0.4593
  792MPD2    C511728   0.563   4.243  11.525 -0.0600 -0.2012 -0.5534
  792MPD2     H11729   0.385   4.420  11.229 -0.2041 -1.2552 -0.0304
  792MPD2    H111730   0.381   4.132  11.548  0.0329  0.0339 -0.2194
  792MPD2    H211731   0.724   4.365  11.467  0.5143 -1.0273 -2.0976
  792MPD2    H311732   0.617   4.193  11.605 -1.1027  1.3291  1.1001
  792MPD2     N11733   0.236   4.215  11.366  0.2978 -0.1080 -0.3166
  792MPD2    H511734   0.200   4.160  11.444  1.4933  2.0998  1.8081
  792MPD2    N111735   0.634   4.503  11.275  0.1510  0.1858  0.4713
  792MPD2    H711736   0.730   4.518  11.306  0.8575 -1.7903 -0.7454
  793MPD2     C11737   4.336   4.249  10.557  0.1580 -0.3085 -0.2310
  793MPD2    C111738   4.437   4.334  10.601  0.4047  0.3548  0.0758
  793MPD2    C211739   4.479   4.319  10.729  0.2524  0.2398 -0.1962
  793MPD2    C311740   4.428   4.228  10.820 -0.0757 -0.8643 -0.2827
  793MPD2    C411741   4.332   4.141  10.781 -0.0179  0.6112 -0.5276
  793MPD2    C511742   4.289   4.162  10.654 -0.3176 -0.1047  0.2448
  793MPD2     H11743   4.561   4.384  10.759 -0.0239  0.7917 -0.6478
  793MPD2    H111744   4.296   4.064  10.849 -0.0565  1.3416  0.2825
  793MPD2    H211745   4.301   4.242  10.455 -0.4376 -2.5151  0.1265
  793MPD2    H311746   4.217   4.092  10.614  0.3603 -0.7916  0.2354
  793MPD2     N11747   4.495   4.215  10.949  0.1259 -0.0308  0.1806
  793MPD2    H511748   4.574   4.275  10.970  0.1122 -1.2464  3.5547
  793MPD2    N111749   4.515   4.417  10.513  0.4044  0.1575 -0.1275
  793MPD2    H711750   4.592   4.462  10.561  0.1482  1.4291 -0.9142
  794MPD2     C11751   4.506   4.499  17.566 -0.5054 -0.4814  0.0034
  794MPD2    C111752   4.480   4.363  17.596  0.8895  0.2552 -0.5993
  794MPD2    C211753   4.422   4.287  17.501 -0.6850 -0.0968  0.0380
  794MPD2    C311754   4.375   4.344  17.380  0.6821  0.3374 -0.1107
  794MPD2    C411755   4.389   4.483  17.360  0.5341 -0.3904  0.0862
  794MPD2    C511756   4.462   4.560  17.454 -0.1303 -0.4853 -0.0222
  794MPD2     H11757   4.411   4.181  17.519  0.7224  0.0558  1.7482
  794MPD2    H111758   4.348   4.533  17.273  0.8052  0.9956  0.7649
  794MPD2    H211759   4.549   4.566  17.640  0.8271 -1.7955  0.4252
  794MPD2    H311760   4.486   4.663  17.431  3.7657 -0.7972  2.6627
  794MPD2     N11761   4.314   4.283  17.271  0.7564  0.0297 -0.1779
  794MPD2    H511762   4.284   4.338  17.192 -0.0503  0.3822  0.3821
  794MPD2    N111763   4.528   4.296  17.712 -0.0481  0.0356  0.4871
  794MPD2    H711764   4.512   4.196  17.716 -0.6744  0.2169  2.2289
  795MPD2     C11765   2.706   0.943  13.267 -0.6308  0.3458 -0.0210
  795MPD2    C111766   2.692   0.859  13.375 -0.0406  0.0998 -0.0823
  795MPD2    C211767   2.804   0.815  13.441  0.5039 -0.2070 -0.0073
  795MPD2    C311768   2.929   0.869  13.413  0.3899 -0.9504 -0.9741
  795MPD2    C411769   2.931   0.973  13.320 -0.6663 -0.2321  0.2314
  795MPD2    C511770   2.824   1.004  13.246 -0.2294  0.4877  0.9124
  795MPD2     H11771   2.791   0.745  13.523  2.5537 -1.3186 -0.6399
  795MPD2    H111772   3.024   1.024  13.297 -1.2556  1.2753  1.2492
  795MPD2    H211773   2.622   0.969  13.203  1.0616  0.2434 -2.2782
  795MPD2    H311774   2.850   1.077  13.170  1.0135 -1.1846 -0.2693
  795MPD2     N11775   3.043   0.811  13.476  0.2652 -0.1251  0.3900
  795MPD2    H511776   3.032   0.731  13.537 -1.5275 -1.1591 -1.3197
  795MPD2    N111777   2.572   0.815  13.430  0.8816  0.0959 -0.1710
  795MPD2    H711778   2.584   0.753  13.509  1.6540  2.3962  1.5118
  796MPD2     C11779   2.129   2.571  15.905 -0.2215  0.7719  0.7555
  796MPD2    C111780   2.115   2.634  16.026  0.8798 -0.0092  0.4938
  796MPD2    C211781   2.139   2.771  16.019 -0.1805  0.8852  0.2617
  796MPD2    C311782   2.151   2.845  15.908  0.4765 -0.2022  0.4238
  796MPD2    C411783   2.149   2.774  15.784  0.3169  0.5509 -0.1589
  796MPD2    C511784   2.152   2.637  15.790 -0.1176  1.0595  0.0195
  796MPD2     H11785   2.140   2.829  16.110 -0.7244  0.3730  0.5927
  796MPD2    H111786   2.183   2.830  15.697  0.7514  1.0015  0.3053
  796MPD2    H211787   2.131   2.463  15.891  0.5564  1.0336 -1.1792
  796MPD2    H311788   2.165   2.578  15.700 -0.5958 -0.8459  1.2009
  796MPD2     N11789   2.184   2.985  15.921  0.2435  0.0907 -0.1621
  796MPD2    H511790   2.212   3.018  16.012 -1.0546 -0.4293  0.4303
  796MPD2    N111791   2.088   2.564  16.146 -1.0441  0.6657 -0.2992
  796MPD2    H711792   2.075   2.464  16.147 -0.9834  0.6821  1.9974
  797MPD2     C11793   3.559   2.616  17.370 -0.2569 -0.7616 -0.1196
  797MPD2    C111794   3.465   2.644  17.462 -1.1267  0.2122  0.4629
  797MPD2    C211795   3.340   2.582  17.461 -0.5024  0.9828  0.1606
  797MPD2    C311796   3.309   2.500  17.355  0.3796  0.2833 -0.3765
  797MPD2    C411797   3.403   2.474  17.260  0.8328 -0.2653 -0.0642
  797MPD2    C511798   3.529   2.518  17.273 -0.5729 -0.2130 -0.4002
  797MPD2     H11799   3.279   2.604  17.547 -0.6564  1.5524 -0.0973
  797MPD2    H111800   3.394   2.389  17.192 -2.0380 -0.0110 -0.0148
  797MPD2    H211801   3.656   2.665  17.373  0.4113 -1.9875 -1.3867
  797MPD2    H311802   3.604   2.479  17.205  1.7862  2.4594  0.6237
  797MPD2     N11803   3.172   2.466  17.326 -0.0692  0.2336  0.7645
  797MPD2    H511804   3.147   2.421  17.238 -1.3690 -2.3788  2.4803
  797MPD2    N111805   3.475   2.747  17.565 -0.0141  0.5055  0.4968
  797MPD2    H711806   3.387   2.770  17.610  0.0803 -1.5485  1.7116
  798MPD2     C11807   2.754   2.927  17.540 -0.6267 -0.8580 -0.6497
  798MPD2    C111808   2.838   2.827  17.568  0.1654  0.4388 -0.3131
  798MPD2    C211809   2.961   2.844  17.632 -0.0522  0.7773 -0.4681
  798MPD2    C311810   3.010   2.975  17.643  0.1427 -0.3707  0.1546
  798MPD2    C411811   2.925   3.079  17.615 -0.5277 -0.9324 -0.3101
  798MPD2    C511812   2.799   3.054  17.566 -0.3020 -0.2933  0.2537
  798MPD2     H11813   3.036   2.769  17.656 -1.7002 -0.6556  0.1463
  798MPD2    H111814   2.950   3.184  17.623 -0.5423 -1.0336  0.9597
  798MPD2    H211815   2.655   2.909  17.500 -0.8459 -0.3794 -0.3190
  798MPD2    H311816   2.731   3.132  17.533 -0.2488 -0.6950 -0.8157
  798MPD2     N11817   3.150   2.984  17.666  0.1221  0.0937  0.1094
  798MPD2    H511818   3.213   2.905  17.670  1.6797  1.3999  1.5154
  798MPD2    N111819   2.813   2.692  17.531  0.4375  0.4987 -0.2147
  798MPD2    H711820   2.892   2.628  17.538  0.1581 -0.1082 -2.7801
  799MPD2     C11821   2.252   3.723  14.634  0.6199 -0.0952  0.5429
  799MPD2    C111822   2.213   3.604  14.578 -0.6821 -0.4834 -0.6165
  799MPD2    C211823   2.168   3.600  14.444 -0.4060 -0.2053  0.1317
  799MPD2    C311824   2.146   3.722  14.373 -0.5364 -0.1484 -0.1053
  799MPD2    C411825   2.194   3.838  14.426  0.6170  0.6983  0.1168
  799MPD2    C511826   2.243   3.833  14.555  0.1824  1.2066 -0.1240
  799MPD2     H11827   2.132   3.505  14.405 -0.2351 -0.3006  0.2037
  799MPD2    H111828   2.198   3.937  14.381  2.7075  0.8939  0.7201
  799MPD2    H211829   2.292   3.736  14.734  2.0243  0.6000 -0.1155
  799MPD2    H311830   2.273   3.926  14.601 -0.0969  1.1101  0.2539
  799MPD2     N11831   2.097   3.726  14.240  0.5400  0.2642  0.5201
  799MPD2    H511832   2.109   3.814  14.191 -0.9185  0.1956  0.0206
  799MPD2    N111833   2.213   3.481  14.657  0.2749 -0.1483  0.3590
  799MPD2    H711834   2.181   3.402  14.603 -0.6690  0.0063  0.7092
  800MPD2     C11835   2.404   0.034  14.423 -0.9968  0.0408  0.1604
  800MPD2    C111836   2.521   0.103  14.429 -0.1792 -0.0705 -0.2276
  800MPD2    C211837   2.614   0.050  14.347  0.4418 -0.4572  0.1594
  800MPD2    C311838   2.591   4.684  14.254  0.0791 -0.2052  0.0273
  800MPD2    C411839   2.466   4.616  14.252 -0.0859 -0.1489  0.6237
  800MPD2    C511840   2.374   4.664  14.342  0.7044 -0.2870 -0.0981
  800MPD2     H11841   2.710   0.100  14.344 -1.1689  2.8551  3.0808
  800MPD2    H111842   2.454   4.527  14.191  2.1177 -1.0340  1.4632
  800MPD2    H211843   2.321   0.089  14.464 -1.3426 -1.6278  1.7316
  800MPD2    H311844   2.269   4.641  14.330  0.5791 -0.2000  0.8103
  800MPD2     N11845   2.698   4.632  14.169  0.0180  0.1991  0.5857
  800MPD2    H511846   2.790   4.672  14.185 -0.5168  1.4655  0.4989
  800MPD2    N111847   2.540   0.223  14.513  0.2133  0.1036 -0.0489
  800MPD2    H711848   2.461   0.250  14.571 -1.0533 -1.1001 -1.1969
  801MPD2     C11849   2.294   0.627  15.091  0.2529  0.4375 -0.1120
  801MPD2    C111850   2.293   0.581  14.957  0.3810  0.7246  0.0686
  801MPD2    C211851   2.179   0.615  14.891 -0.0839  0.4767  0.3422
  801MPD2    C311852   2.071   0.676  14.950  0.1496 -0.1184  0.6576
  801MPD2    C411853   2.077   0.712  15.081 -0.3728  0.5255 -0.1721
  801MPD2    C511854   2.190   0.697  15.149 -0.4981  0.5343 -0.1692
  801MPD2     H11855   2.182   0.601  14.784 -3.0685  0.6010  0.2371
  801MPD2    H111856   2.000   0.772  15.128  0.1535  1.4543 -0.4968
  801MPD2    H211857   2.371   0.601  15.163  0.1587 -1.1503 -0.5963
  801MPD2    H311858   2.199   0.726  15.253 -0.9518 -2.4827  0.7148
  801MPD2     N11859   1.949   0.710  14.878 -0.1997 -0.4247 -0.6286
  801MPD2    H511860   1.876   0.761  14.926 -0.8816 -2.4521  0.4469
  801MPD2    N111861   2.401   0.531  14.881  0.5051  0.4693  0.0633
  801MPD2    H711862   2.373   0.506  14.786 -0.5460  2.5710 -0.1794
  802MPD2     C11863   1.486   1.921   0.510  0.0919 -0.3307 -0.5967
  802MPD2    C111864   1.408   1.879   0.407 -0.0551 -0.4388 -0.0444
  802MPD2    C211865   1.465   1.790   0.316 -0.4280 -0.6683  0.0474
  802MPD2    C311866   1.597   1.750   0.315 -0.1207  0.1129 -0.0880
  802MPD2    C411867   1.674   1.799   0.416 -0.0159  0.5812  0.7871
  802MPD2    C511868   1.612   1.874   0.517 -0.8572  0.1354  0.1125
  802MPD2     H11869   1.410   1.758   0.228 -3.4734 -2.6958  2.7376
  802MPD2    H111870   1.766   1.753   0.450 -0.3279 -0.1392  0.6389
  802MPD2    H211871   1.451   1.963   0.604 -3.1375 -0.7392 -1.6514
  802MPD2    H311872   1.668   1.893   0.608 -1.6971  0.1237  0.6330
  802MPD2     N11873   1.650   1.664   0.217 -0.2246  0.6034 -0.5489
  802MPD2    H511874   1.588   1.633   0.143 -0.6777 -0.6232  0.3507
  802MPD2    N111875   1.273   1.914   0.389  0.0784  0.4973 -0.0193
  802MPD2    H711876   1.221   1.859   0.322  1.4015  0.5128 -1.0574
  803MPD2     C11877   3.670   4.310  11.962 -0.1649  0.1920 -0.3372
  803MPD2    C111878   3.741   4.232  12.055 -0.5304  0.0099 -0.0489
  803MPD2    C211879   3.715   4.097  12.064 -0.2537 -0.1560 -0.0332
  803MPD2    C311880   3.618   4.035  11.993  0.4273 -0.3020 -0.3331
  803MPD2    C411881   3.563   4.111  11.886  0.7048  0.4930  0.7477
  803MPD2    C511882   3.594   4.245  11.863 -0.3164  0.3508 -0.6531
  803MPD2     H11883   3.762   4.041  12.144  0.4351  0.1853 -0.1950
  803MPD2    H111884   3.513   4.057  11.807 -0.3688  1.3123  0.8663
  803MPD2    H211885   3.692   4.414  11.938  0.2622  0.7690  2.5542
  803MPD2    H311886   3.556   4.298  11.776  0.3880  3.1795  0.7380
  803MPD2     N11887   3.576   3.897  11.997  0.2597  0.1519  0.0615
  803MPD2    H511888   3.507   3.865  11.931  0.2854  1.1294 -0.4293
  803MPD2    N111889   3.822   4.288  12.154 -0.7845 -0.0314 -0.1152
  803MPD2    H711890   3.856   4.222  12.223  0.5966  0.9933  0.1704
  804MPD2     C11891   2.492   1.133  16.717  0.4802 -0.5170  0.0495
  804MPD2    C111892   2.456   1.119  16.852  0.1436 -0.2059 -0.0343
  804MPD2    C211893   2.513   1.209  16.948  0.3605  0.1817 -0.4638
  804MPD2    C311894   2.611   1.296  16.907 -0.2318  0.0412 -0.1475
  804MPD2    C411895   2.648   1.315  16.771  0.1474  0.3354  0.4273
  804MPD2    C511896   2.582   1.233  16.683  0.0463 -0.3762  0.5006
  804MPD2     H11897   2.486   1.211  17.053 -0.3705  0.3393 -0.6560
  804MPD2    H111898   2.726   1.378  16.729  0.5690  0.5383  1.5083
  804MPD2    H211899   2.449   1.070  16.639 -0.5738  0.2055  0.0378
  804MPD2    H311900   2.600   1.255  16.579  0.8285 -0.2072  0.6686
  804MPD2     N11901   2.680   1.368  17.012  0.0936  0.4354 -0.3117
  804MPD2    H511902   2.640   1.344  17.102 -0.5920  0.6841 -0.5460
  804MPD2    N111903   2.369   1.026  16.902 -0.7203  0.1613 -0.0607
  804MPD2    H711904   2.355   1.027  17.003 -0.3802  1.6157 -0.0272
  805MPD2     C11905   2.203   4.350  15.038 -0.9099  0.5611 -0.3715
  805MPD2    C111906   2.207   4.215  15.057  0.2423 -0.4436 -0.8838
  805MPD2    C211907   2.285   4.169  15.157  0.8683 -0.4079 -0.5049
  805MPD2    C311908   2.336   4.248  15.254  0.5927  0.3142  0.9571
  805MPD2    C411909   2.323   4.385  15.231 -0.2376 -0.8575  0.2437
  805MPD2    C511910   2.258   4.438  15.124  0.0716  0.3197 -0.2274
  805MPD2     H11911   2.296   4.062  15.174  3.2444 -0.0545  0.2526
  805MPD2    H111912   2.375   4.456  15.294 -2.3316  4.0869 -3.6028
  805MPD2    H211913   2.153   4.402  14.958 -0.6632  0.8456 -0.3386
  805MPD2    H311914   2.253   4.545  15.109 -2.3739  0.0770 -1.2125
  805MPD2     N11915   2.416   4.189  15.354  0.1953  0.4087  0.3483
  805MPD2    H511916   2.416   4.088  15.354  0.0071  0.4084  1.5855
  805MPD2    N111917   2.153   4.125  14.967 -0.6388  0.1188  0.1313
  805MPD2    H711918   2.180   4.027  14.972 -0.8875 -0.0484 -1.5230
  806MPD2     C11919   2.167   3.915   0.330  0.4831 -0.1639 -0.1594
  806MPD2    C111920   2.069   4.013   0.368 -0.4709 -0.4290  0.0173
  806MPD2    C211921   2.085   4.138   0.313  0.3489  0.5858 -0.2923
  806MPD2    C311922   2.199   4.175   0.243 -0.5293 -0.3403  0.0057
  806MPD2    C411923   2.304   4.086   0.222  0.3993  0.2719 -0.1206
  806MPD2    C511924   2.280   3.956   0.260  0.0933  0.2790 -0.0708
  806MPD2     H11925   2.012   4.218   0.323  0.6273  0.9947 -1.5727
  806MPD2    H111926   2.401   4.110   0.179  1.2553 -1.4209  0.8404
  806MPD2    H211927   2.154   3.814   0.367  0.2759 -0.3142 -0.6371
  806MPD2    H311928   2.365   3.890   0.249 -1.3179 -1.3284 -1.3476
  806MPD2     N11929   2.208   4.309   0.208 -0.2637  0.0204  0.5732
  806MPD2    H511930   2.123   4.363   0.225  0.4410  1.3816 -0.2480
  806MPD2    N111931   1.963   3.971   0.453 -0.7171  0.2568  0.1108
  806MPD2    H711932   1.966   3.878   0.492  0.8428  1.9406  4.0045
  807MPD2     C11933   1.645   3.454   0.921  0.1627  0.7839 -0.5870
  807MPD2    C111934   1.763   3.508   0.956  0.7074  0.2975  0.4657
  807MPD2    C211935   1.847   3.442   1.045 -0.0242  0.4781 -0.2615
  807MPD2    C311936   1.817   3.318   1.093  0.4154 -0.3123 -0.9898
  807MPD2    C411937   1.700   3.258   1.046 -0.7643  0.1947 -0.2036
  807MPD2    C511938   1.606   3.330   0.970  0.4398  0.0472  0.5633
  807MPD2     H11939   1.928   3.500   1.087  0.2938  1.1449 -1.7758
  807MPD2    H111940   1.675   3.159   1.083  1.8182 -0.2351  0.3922
  807MPD2    H211941   1.563   3.500   0.867  0.9288  1.9356 -0.7698
  807MPD2    H311942   1.515   3.284   0.935  0.2650  1.2660 -0.5536
  807MPD2     N11943   1.906   3.258   1.181 -0.0505  0.2140  0.0892
  807MPD2    H511944   1.983   3.316   1.212  0.1802 -0.6795  1.2343
  807MPD2    N111945   1.806   3.635   0.910 -0.1795 -0.2143  0.2525
  807MPD2    H711946   1.884   3.675   0.961 -1.0788  2.0909 -0.1694
  808MPD2     C11947   3.140   0.421  10.101  0.2951  0.2791 -0.3843
  808MPD2    C111948   3.037   0.507  10.124  0.4324 -0.6255  0.4507
  808MPD2    C211949   3.051   0.643  10.091 -0.3510 -0.1839 -0.3317
  808MPD2    C311950   3.170   0.701  10.052 -0.0230 -0.0011 -0.7301
  808MPD2    C411951   3.274   0.613  10.028 -0.0718  0.0193 -0.3003
  808MPD2    C511952   3.264   0.471  10.055 -0.1045 -0.5980 -0.5612
  808MPD2     H11953   2.966   0.705  10.120  0.0123 -0.4076  1.2324
  808MPD2    H111954   3.374   0.639   9.995  0.7474 -2.6102  0.0985
  808MPD2    H211955   3.138   0.318  10.136  0.4787 -0.1270 -1.5807
  808MPD2    H311956   3.352   0.408  10.046  0.5183  0.1843 -0.0174
  808MPD2     N11957   3.194   0.841  10.036  0.0381 -0.2579 -0.1051
  808MPD2    H511958   3.292   0.860  10.018  0.2236  0.4378  1.5898
  808MPD2    N111959   2.917   0.465  10.183  0.2868  0.4509 -0.3345
  808MPD2    H711960   2.856   0.544  10.202  1.1928  0.7782  1.2405
  809MPD2     C11961   3.765   1.537   9.613 -0.0013  0.0045  0.1008
  809MPD2    C111962   3.782   1.414   9.657  0.5295 -0.3752  0.1956
  809MPD2    C211963   3.675   1.349   9.727 -0.5334 -0.5769 -0.0206
  809MPD2    C311964   3.560   1.416   9.751 -1.4429 -0.1143 -0.9432
  809MPD2    C411965   3.543   1.543   9.700  0.0629  0.6728  1.0814
  809MPD2    C511966   3.651   1.605   9.634  0.5694 -0.1283  0.4812
  809MPD2     H11967   3.683   1.248   9.765 -1.0257 -0.4836  0.3443
  809MPD2    H111968   3.450   1.599   9.704  1.7456  3.4186  1.7592
  809MPD2    H211969   3.848   1.592   9.570  2.1479 -1.1007  2.8216
  809MPD2    H311970   3.637   1.709   9.608 -0.1173  0.1007  1.7851
  809MPD2     N11971   3.460   1.363   9.836 -0.4672 -0.1795 -0.4658
  809MPD2    H511972   3.392   1.433   9.865 -0.3563  0.2077 -1.1575
  809MPD2    N111973   3.908   1.348   9.659 -1.0044  0.1168  0.2012
  809MPD2    H711974   3.905   1.253   9.694 -2.6989  0.3771  0.7856
  810MPD2     C11975   2.233   4.697  10.953 -0.5887  0.1259  0.2379
  810MPD2    C111976   2.196   4.693  10.825 -0.6170 -0.2445 -0.5824
  810MPD2    C211977   2.209   0.070  10.750  0.4122  0.6422  0.5469
  810MPD2    C311978   2.235   0.197  10.813  1.0245 -0.2082  0.0606
  810MPD2    C411979   2.278   0.200  10.940 -0.4081 -0.0384  0.2427
  810MPD2    C511980   2.283   0.077  11.008 -0.5554  1.2837 -0.3088
  810MPD2     H11981   2.170   0.080  10.649 -1.2786  0.4405  1.1786
  810MPD2    H111982   2.316   0.293  10.981 -0.0667 -0.5548  1.1010
  810MPD2    H211983   2.223   4.615  11.023  0.5644 -0.2453 -0.0241
  810MPD2    H311984   2.309   0.084  11.113  1.9944  0.3774 -0.8705
  810MPD2     N11985   2.226   0.321  10.748  0.0130  0.1866  0.6873
  810MPD2    H511986   2.243   0.407  10.799  1.2105  1.8966 -2.5993
  810MPD2    N111987   2.154   4.571  10.773  0.4697 -0.5096  0.6160
  810MPD2    H711988   2.155   4.494  10.839 -0.1207 -0.7342  0.3625
  811MPD2     C11989   1.625   4.518  10.139 -0.2073 -1.0046  0.3778
  811MPD2    C111990   1.727   4.581  10.206  0.5189 -0.6760  0.2751
  811MPD2    C211991   1.781   4.702  10.165  0.2111 -0.2789  0.5134
  811MPD2    C311992   1.734   0.028  10.056  0.3892 -0.3900 -0.7186
  811MPD2    C411993   1.631   4.710   9.987  0.1376  0.3143  0.6673
  811MPD2    C511994   1.572   4.590  10.033 -0.0465 -0.2601 -0.5484
  811MPD2     H11995   1.863   0.008  10.221  0.3695 -0.5235  0.4701
  811MPD2    H111996   1.583   0.005   9.895 -0.8039 -3.2214 -0.1168
  811MPD2    H211997   1.589   4.418  10.159 -1.4766 -0.4263  0.9664
  811MPD2    H311998   1.497   4.540   9.974  0.7914 -4.1174  1.6434
  811MPD2     N11999   1.796   0.154  10.031 -0.2895  0.5554 -0.4447
  811MPD2    H512000   1.853   0.193  10.105  0.6200 -0.9268 -0.3753
  811MPD2    N112001   1.790   4.527  10.316 -0.0427 -0.3746  0.0996
  811MPD2    H712002   1.867   4.581  10.352 -1.8081  2.3969 -0.2721
  812MPD2     C12003   0.817   4.424  11.841  0.5287  0.0705 -0.1231
  812MPD2    C112004   0.927   4.507  11.857 -0.1207  0.1280 -0.6703
  812MPD2    C212005   1.012   4.472  11.957  0.3454  0.3368  0.4370
  812MPD2    C312006   0.992   4.365  12.041 -0.3516 -0.1146 -0.0572
  812MPD2    C412007   0.886   4.287  12.014 -0.4093  0.2332 -0.2392
  812MPD2    C512008   0.792   4.319  11.923 -0.6386 -0.2917  0.2813
  812MPD2     H12009   1.098   4.532  11.984  1.2164 -0.7750  0.1092
  812MPD2    H112010   0.873   4.193  12.067  1.0763 -0.1336 -0.5376
  812MPD2    H212011   0.744   4.440  11.763 -0.4629  0.2649  0.8519
  812MPD2    H312012   0.703   4.258  11.911 -0.5648 -0.5514  1.0556
  812MPD2     N12013   1.084   4.337  12.143  0.1915  0.0379  0.2790
  812MPD2    H512014   1.162   4.401  12.140  0.6468 -0.5656 -1.0469
  812MPD2    N112015   0.939   4.618  11.773 -0.0731 -0.1713  0.1945
  812MPD2    H712016   0.862   4.633  11.709  1.6518 -2.1012 -2.3162
  813MPD2     C12017   0.722   0.968  12.814 -0.2983 -0.0168 -0.3315
  813MPD2    C112018   0.706   1.107  12.807  0.1530  0.0241 -0.4518
  813MPD2    C212019   0.610   1.168  12.884 -0.3076  0.3161 -0.3235
  813MPD2    C312020   0.546   1.100  12.983 -0.4395 -0.5779  0.2953
  813MPD2    C412021   0.556   0.958  12.981  0.2115  0.6658 -0.2917
  813MPD2    C512022   0.642   0.896  12.895 -0.3708  0.0394  0.1971
  813MPD2     H12023   0.603   1.275  12.867  1.6320  0.8246  2.0920
  813MPD2    H112024   0.492   0.899  13.046 -1.0352  0.1208 -2.0118
  813MPD2    H212025   0.793   0.906  12.760 -0.1233 -1.2312  1.3047
  813MPD2    H312026   0.636   0.788  12.891  1.7592 -0.0653  0.1133
  813MPD2     N12027   0.457   1.172  13.068  0.0515 -0.3057 -0.0910
  813MPD2    H512028   0.450   1.271  13.050  0.9757 -0.1293  0.4811
  813MPD2    N112029   0.801   1.169  12.724  0.4825  0.3488  0.3590
  813MPD2    H712030   0.881   1.114  12.693  1.0188  1.3883 -0.1199
  814MPD2     C12031   1.034   2.769  12.251  0.9404 -0.1815  0.1370
  814MPD2    C112032   0.963   2.821  12.141 -0.1192 -0.7038  0.3380
  814MPD2    C212033   0.963   2.961  12.124  0.2726 -0.2188 -0.4700
  814MPD2    C312034   1.040   3.044  12.211 -0.1939  0.4686  0.9505
  814MPD2    C412035   1.103   2.990  12.319  0.1452  0.6568 -0.6063
  814MPD2    C512036   1.102   2.853  12.334  0.0920  0.5780 -0.4719
  814MPD2     H12037   0.924   3.010  12.036  1.3102 -0.6165 -1.1579
  814MPD2    H112038   1.160   3.052  12.388  0.3544  1.3278 -1.3731
  814MPD2    H212039   1.020   2.664  12.276  0.0986 -0.0077  0.3892
  814MPD2    H312040   1.147   2.799  12.417 -1.3446 -0.1616 -0.1661
  814MPD2     N12041   1.058   3.181  12.188  0.0856  0.3286  0.3512
  814MPD2    H512042   1.115   3.231  12.256 -0.9784  0.7354  0.9523
  814MPD2    N112043   0.912   2.746  12.033 -0.6423 -0.6878  0.4406
  814MPD2    H712044   0.881   2.798  11.951 -1.2588  0.2514  1.2713
  815MPD2     C12045   1.405   1.590  11.553  0.4914  0.2196 -0.9794
  815MPD2    C112046   1.425   1.466  11.609  0.1967 -0.2973  0.5362
  815MPD2    C212047   1.330   1.423  11.690 -0.0327 -0.3025 -0.1609
  815MPD2    C312048   1.215   1.491  11.728 -0.1092  0.0418  0.8202
  815MPD2    C412049   1.201   1.619  11.670 -0.5056 -0.3685 -0.2421
  815MPD2    C512050   1.303   1.670  11.587 -0.0058  0.4702 -0.4936
  815MPD2     H12051   1.348   1.341  11.759  0.9071  1.0732  1.2429
  815MPD2    H112052   1.117   1.682  11.696 -0.9617 -0.4788 -1.4278
  815MPD2    H212053   1.482   1.623  11.485  1.5676  2.0520  1.1219
  815MPD2    H312054   1.290   1.771  11.548 -2.0789 -0.3394 -1.8776
  815MPD2     N12055   1.114   1.416  11.806 -0.1574  0.2881  0.2695
  815MPD2    H512056   1.136   1.317  11.817 -0.7008  0.2345  0.8586
  815MPD2    N112057   1.530   1.384  11.570 -0.2222  0.0907  0.1999
  815MPD2    H712058   1.591   1.423  11.499 -0.3426 -0.9676 -0.4882
  816MPD2     C12059   0.506   0.539  17.355  0.0024 -0.1442 -0.5592
  816MPD2    C112060   0.619   0.613  17.333  0.3216 -0.1116 -0.1393
  816MPD2    C212061   0.736   0.543  17.296  0.6566 -0.1711  0.3643
  816MPD2    C312062   0.731   0.408  17.264 -0.4009 -0.2380  0.2282
  816MPD2    C412063   0.616   0.336  17.288  0.0097  0.3714  0.7592
  816MPD2    C512064   0.504   0.400  17.335 -0.4359 -0.0233 -0.3438
  816MPD2     H12065   0.830   0.598  17.297  0.6517 -0.1697  0.5850
  816MPD2    H112066   0.616   0.228  17.294 -0.8405  0.3238 -0.1771
  816MPD2    H212067   0.414   0.581  17.394  0.9698  0.0134  1.5425
  816MPD2    H312068   0.422   0.346  17.382 -0.7564  1.1879  0.4916
  816MPD2     N12069   0.848   0.350  17.208  0.0865  0.4737  0.2133
  816MPD2    H512070   0.928   0.412  17.196  0.4820  0.6238  3.5166
  816MPD2    N112071   0.617   0.757  17.349  0.4575  0.3550  0.1484
  816MPD2    H712072   0.530   0.803  17.373 -0.3666 -1.6093  0.9752
  817MPD2     C12073   1.909   2.627   9.857  0.7983  0.3575  0.6126
  817MPD2    C112074   1.779   2.607   9.822 -0.2553 -0.3807 -0.0579
  817MPD2    C212075   1.703   2.714   9.776  0.3259 -0.9917  0.4301
  817MPD2    C312076   1.740   2.845   9.777 -0.2053 -0.1923  0.5229
  817MPD2    C412077   1.870   2.862   9.816 -0.1868  0.6265 -0.0732
  817MPD2    C512078   1.948   2.755   9.860  0.2275 -1.2258  0.3951
  817MPD2     H12079   1.611   2.694   9.722 -0.5030  0.8172  1.1681
  817MPD2    H112080   1.908   2.964   9.820 -1.9791  1.2512  1.1555
  817MPD2    H212081   1.976   2.544   9.875 -1.1926 -1.7733 -1.8669
  817MPD2    H312082   2.053   2.777   9.877  0.1715 -0.4707 -0.2037
  817MPD2     N12083   1.650   2.943   9.726  0.2673  0.1127  0.3835
  817MPD2    H512084   1.580   2.905   9.662  1.0759  1.6596 -1.4154
  817MPD2    N112085   1.733   2.476   9.791  0.6531 -0.4362  0.1668
  817MPD2    H712086   1.638   2.474   9.754  0.3048  3.0704  0.8391
  818MPD2     C12087   4.273   1.766   9.893 -0.7566  0.1531  0.1424
  818MPD2    C112088   4.262   1.708  10.019 -0.2679 -0.3611 -0.3629
  818MPD2    C212089   4.321   1.588  10.050 -0.6565  0.2277  0.1177
  818MPD2    C312090   4.413   1.545   9.972  0.6867  0.7148  0.4483
  818MPD2    C412091   4.433   1.603   9.847  0.0463 -0.0286 -1.2229
  818MPD2    C512092   4.357   1.709   9.810  0.8472  0.5478 -0.0023
  818MPD2     H12093   4.311   1.541  10.147  3.1093  1.4660  1.0985
  818MPD2    H112094   4.512   1.567   9.783  1.7635  0.5359  0.5621
  818MPD2    H212095   4.233   1.862   9.863  3.6401  1.8982 -0.1309
  818MPD2    H312096   4.372   1.755   9.713  2.9995  1.1649  0.6205
  818MPD2     N12097   4.506   1.441  10.009 -0.2821  0.2625 -0.2990
  818MPD2    H512098   4.581   1.430   9.942 -0.7371  0.7851 -0.8829
  818MPD2    N112099   4.184   1.773  10.116  0.9320 -0.3256  1.0329
  818MPD2    H712100   4.194   1.730  10.208  0.5737 -0.6412  0.9247
  819MPD2     C12101   2.550   3.695  15.460 -0.3937 -0.3896  0.6305
  819MPD2    C112102   2.570   3.571  15.510  0.4268 -0.5899  0.3115
  819MPD2    C212103   2.683   3.541  15.579 -0.2695 -0.3703 -0.8638
  819MPD2    C312104   2.786   3.629  15.584 -0.8012  0.2479  0.3340
  819MPD2    C412105   2.771   3.750  15.529 -0.1105  0.1419 -0.5589
  819MPD2    C512106   2.658   3.784  15.468  0.1717  0.1401 -0.0608
  819MPD2     H12107   2.694   3.449  15.634  0.1337 -0.3569 -0.9276
  819MPD2    H112108   2.853   3.820  15.523 -0.3601  0.5209  0.5712
  819MPD2    H212109   2.454   3.720  15.415 -0.8071  0.9416  2.2625
  819MPD2    H312110   2.653   3.876  15.412  2.3504 -0.4407 -1.1972
  819MPD2     N12111   2.915   3.586  15.632 -0.3496 -0.5057  0.0047
  819MPD2    H512112   2.916   3.490  15.664 -0.3247 -0.4465  0.1766
  819MPD2    N112113   2.463   3.481  15.488  0.2372  0.2205 -0.0726
  819MPD2    H712114   2.392   3.508  15.420 -1.2382 -4.7064 -0.4426
  820MPD2     C12115   1.878   3.364  14.770  0.4628 -0.2476  0.6632
  820MPD2    C112116   1.905   3.454  14.864 -0.1126  0.2284  0.3083
  820MPD2    C212117   1.948   3.420  14.999 -0.3160  0.7206 -0.0279
  820MPD2    C312118   1.967   3.284  15.024  0.2427 -0.6623  0.0882
  820MPD2    C412119   1.928   3.198  14.922 -0.1872 -0.3376  0.1980
  820MPD2    C512120   1.895   3.228  14.799 -0.5445  0.5329  0.3591
  820MPD2     H12121   1.956   3.498  15.074  1.1002 -0.5069  1.0843
  820MPD2    H112122   1.952   3.095  14.945  1.2730 -0.1188 -0.3131
  820MPD2    H212123   1.838   3.390  14.672 -0.4145 -0.9169  0.8415
  820MPD2    H312124   1.879   3.149  14.727 -0.1454  1.2049 -0.4606
  820MPD2     N12125   2.018   3.229  15.149 -0.5715 -0.1922 -0.5195
  820MPD2    H512126   2.023   3.127  15.154 -1.0398 -0.1759  0.2117
  820MPD2    N112127   1.895   3.587  14.825 -0.5197 -0.0152 -0.0870
  820MPD2    H712128   1.856   3.601  14.732 -1.4918  0.9136  0.4577
  821MPD2     C12129   3.021   4.561  13.385  0.7770 -0.0941  0.6424
  821MPD2    C112130   3.115   4.541  13.486  0.1491  0.0735 -0.2812
  821MPD2    C212131   3.252   4.524  13.463  0.4893  0.2143  0.1310
  821MPD2    C312132   3.301   4.552  13.339 -0.3531 -0.0308 -0.5389
  821MPD2    C412133   3.208   4.568  13.234 -0.4140 -0.0234  0.2603
  821MPD2    C512134   3.074   4.578  13.264 -0.5023  0.0807  0.3028
  821MPD2     H12135   3.310   4.494  13.550 -1.1239  0.9707  1.4837
  821MPD2    H112136   3.244   4.584  13.133  1.7568  0.2336  1.0743
  821MPD2    H212137   2.915   4.577  13.400  1.3728  3.3415  1.1804
  821MPD2    H312138   3.006   4.603  13.183 -0.5818 -0.1396  0.3020
  821MPD2     N12139   3.444   4.556  13.314  0.1392  0.1170  0.4427
  821MPD2    H512140   3.475   4.598  13.228 -0.6384 -0.9249 -0.3430
  821MPD2    N112141   3.072   4.527  13.624  0.3116  0.4778  0.1902
  821MPD2    H712142   3.141   4.502  13.694 -0.3627 -0.5015  0.5115
  822MPD2     C12143   3.272   0.511  15.789 -0.3113  0.4520  0.4530
  822MPD2    C112144   3.236   0.449  15.905 -1.1140  0.1249 -0.7661
  822MPD2    C212145   3.157   0.519  15.994 -1.2854  0.3600  0.7264
  822MPD2    C312146   3.120   0.650  15.978  0.2370  0.1721  0.0868
  822MPD2    C412147   3.158   0.714  15.862  0.1212  0.1883 -0.5171
  822MPD2    C512148   3.232   0.648  15.770  0.1345  0.4679  0.0525
  822MPD2     H12149   3.133   0.459  16.081 -1.9675  0.5002  0.6402
  822MPD2    H112150   3.131   0.818  15.847  1.1740  0.5552  0.1226
  822MPD2    H212151   3.335   0.465  15.714 -0.4946 -0.1188  0.6543
  822MPD2    H312152   3.252   0.700  15.677 -0.3285  0.5823  0.0190
  822MPD2     N12153   3.054   0.709  16.086  0.7759 -0.3301 -0.1387
  822MPD2    H512154   3.055   0.652  16.170 -0.7128  0.1249  0.1995
  822MPD2    N112155   3.294   0.327  15.954 -0.1596  0.2459 -0.3234
  822MPD2    H712156   3.258   0.290  16.042 -3.7880  1.4951 -1.2845
  823MPD2     C12157   2.682   0.738  16.849  0.3612  0.5863  0.4668
  823MPD2    C112158   2.748   0.674  16.748  0.1592  1.1402  0.5758
  823MPD2    C212159   2.816   0.554  16.773 -0.2407 -0.5946 -0.0867
  823MPD2    C312160   2.811   0.491  16.900  0.3619 -0.2693  0.3916
  823MPD2    C412161   2.750   0.564  16.990  0.4197 -1.2045  0.0060
  823MPD2    C512162   2.681   0.679  16.972 -1.2103 -0.2338  0.2524
  823MPD2     H12163   2.862   0.506  16.688  0.1416  2.3297 -1.5396
  823MPD2    H112164   2.739   0.520  17.088  1.1590 -0.5332  0.3923
  823MPD2    H212165   2.639   0.838  16.845 -1.6397 -0.3372 -1.0298
  823MPD2    H312166   2.644   0.745  17.051 -0.4184  0.7324 -0.1773
  823MPD2     N12167   2.867   0.366  16.934 -0.1535 -0.0400 -0.2194
  823MPD2    H512168   2.852   0.324  17.025 -2.1983  0.1141 -0.4902
  823MPD2    N112169   2.746   0.740  16.622  0.0472 -0.2163  0.7544
  823MPD2    H712170   2.705   0.833  16.612  2.1515  0.2593 -3.3712
  824MPD2     C12171   3.755   4.250  15.968  0.2076  0.3790  0.4016
  824MPD2    C112172   3.771   4.376  15.919 -0.4000  0.1939 -0.0447
  824MPD2    C212173   3.861   4.389  15.813 -0.8603  0.0517  0.4230
  824MPD2    C312174   3.914   4.280  15.751 -0.3571  0.7711  0.0669
  824MPD2    C412175   3.884   4.157  15.792  0.5008 -0.3780 -0.6657
  824MPD2    C512176   3.805   4.142  15.901  0.0024 -0.5515 -0.5518
  824MPD2     H12177   3.901   4.488  15.795 -2.8837  0.8670  0.4154
  824MPD2    H112178   3.936   4.071  15.752  2.2152 -0.2003  1.1774
  824MPD2    H212179   3.692   4.231  16.054  0.2090  0.2429  0.3727
  824MPD2    H312180   3.769   4.045  15.934  0.1483 -0.7866 -1.0732
  824MPD2     N12181   4.024   4.306  15.661  0.1001  0.3902  0.0968
  824MPD2    H512182   4.068   4.396  15.670  0.4701  0.1044  1.1938
  824MPD2    N112183   3.705   4.482  15.973  0.4095 -0.5017  0.4828
  824MPD2    H712184   3.642   4.465  16.051 -1.8879  2.4329 -0.7180
  825MPD2     C12185   4.653   0.070  15.424 -0.1068 -0.8526  0.0327
  825MPD2    C112186   4.521   0.037  15.410  0.0209 -0.2745 -0.1435
  825MPD2    C212187   4.438   0.131  15.348 -1.0073  0.1073 -0.6521
  825MPD2    C312188   4.489   0.255  15.300 -0.8888  0.0717 -0.0119
  825MPD2    C412189   4.620   0.276  15.308 -0.4164  0.1237  0.2907
  825MPD2    C512190   4.704   0.178  15.364 -0.6960 -0.2591  0.1308
  825MPD2     H12191   4.332   0.115  15.340 -1.1014  0.3761  0.0589
  825MPD2    H112192   4.666   0.368  15.274 -3.3009  1.3892 -0.2114
  825MPD2    H212193   4.720   4.734  15.466  0.5419  0.2714  0.9762
  825MPD2    H312194   0.071   0.199  15.382  0.1238 -1.5856 -3.0596
  825MPD2     N12195   4.406   0.354  15.244 -0.0282 -0.1549  0.3833
  825MPD2    H512196   4.446   0.446  15.225 -0.9171  0.0084 -0.7147
  825MPD2    N112197   4.489   4.653  15.469 -0.5996 -0.3243  0.7918
  825MPD2    H712198   4.567   4.599  15.504 -0.3926  0.0571  0.9208
  826MPD2     C12199   3.762   3.804  13.435 -0.0071  0.3823 -0.2321
  826MPD2    C112200   3.871   3.884  13.466 -0.1893 -0.8124  0.3687
  826MPD2    C212201   3.842   3.992  13.545  0.4216 -0.4576  0.3763
  826MPD2    C312202   3.707   4.025  13.588 -0.6000 -0.4458  0.2491
  826MPD2    C412203   3.603   3.946  13.546 -0.1651  0.0165  0.0450
  826MPD2    C512204   3.634   3.832  13.473 -0.1124  0.3922 -0.2433
  826MPD2     H12205   3.917   4.065  13.574 -0.3463 -0.0954  1.4687
  826MPD2    H112206   3.500   3.962  13.575 -0.7391 -2.8892 -0.3637
  826MPD2    H212207   3.778   3.708  13.387 -1.1397 -1.1508  2.4148
  826MPD2    H312208   3.550   3.771  13.442  1.0931 -0.7982 -1.1978
  826MPD2     N12209   3.670   4.130  13.671  0.5684 -0.2704 -0.2328
  826MPD2    H512210   3.570   4.136  13.682  0.3539 -0.8696 -1.8170
  826MPD2    N112211   4.001   3.837  13.426 -0.6395  0.6063 -0.1482
  826MPD2    H712212   4.011   3.765  13.356 -3.0047 -0.1773  0.3195
  827MPD2     C12213   0.522   1.286   9.828 -0.3895 -0.4592  0.2239
  827MPD2    C112214   0.509   1.148   9.835  0.0653  0.7404 -0.3911
  827MPD2    C212215   0.401   1.084   9.771  0.5683 -0.1487 -0.2637
  827MPD2    C312216   0.314   1.161   9.705 -0.3824 -0.0787  0.3566
  827MPD2    C412217   0.320   1.300   9.701  0.1181  0.0305  0.1618
  827MPD2    C512218   0.429   1.358   9.758 -0.4355  0.1334 -0.4823
  827MPD2     H12219   0.370   0.981   9.785 -3.1750  1.0661  0.2914
  827MPD2    H112220   0.250   1.371   9.657  0.2496  0.3186  0.4167
  827MPD2    H212221   0.602   1.332   9.884 -0.5257 -0.8054  0.7030
  827MPD2    H312222   0.446   1.465   9.750 -2.1729  0.5137  1.0120
  827MPD2     N12223   0.197   1.095   9.659  0.1160 -0.2705  0.5135
  827MPD2    H512224   0.186   0.994   9.662 -0.9308 -0.1844 -0.3589
  827MPD2    N112225   0.616   1.087   9.906  0.3349 -0.0304  0.8451
  827MPD2    H712226   0.678   1.151   9.954  2.4294 -1.1979 -0.2944
  828MPD2     C12227   3.620   0.028  12.608 -0.0748  0.3624  0.2860
  828MPD2    C112228   3.507   0.058  12.530  0.4239 -0.0203  0.9453
  828MPD2    C212229   3.513   0.102  12.399 -0.1646 -0.1546 -0.5417
  828MPD2    C312230   3.631   0.107  12.331 -0.4034 -0.5398 -0.2746
  828MPD2    C412231   3.746   0.069  12.395  0.0834 -0.2361  0.9410
  828MPD2    C512232   3.742   0.029  12.532  0.5365 -0.5744  0.0486
  828MPD2     H12233   3.423   0.131  12.345  0.4245 -0.9424 -1.9380
  828MPD2    H112234   3.848   0.069  12.358  0.1301 -3.6997  1.0353
  828MPD2    H212235   3.624   0.015  12.715  2.0713 -2.7993 -0.1579
  828MPD2    H312236   3.839   0.013  12.577  1.1328 -1.8020 -1.6750
  828MPD2     N12237   3.641   0.140  12.196 -0.4601  0.2916  0.7339
  828MPD2    H512238   3.727   0.115  12.150 -2.1250  0.0436 -2.2613
  828MPD2    N112239   3.376   0.057  12.588 -0.1926  0.2054  0.2877
  828MPD2    H712240   3.307   0.100  12.528  0.5319  2.9006  1.4170
  829MPD2     C12241   2.500   0.348  12.304 -0.6137  0.3060 -0.2676
  829MPD2    C112242   2.630   0.394  12.283  0.5699  0.0903  0.2458
  829MPD2    C212243   2.726   0.346  12.373 -0.3963 -0.1950  0.1773
  829MPD2    C312244   2.691   0.265  12.482  0.7893 -0.4603 -0.0311
  829MPD2    C412245   2.559   0.236  12.506 -0.2646 -0.0519 -0.0995
  829MPD2    C512246   2.469   0.269  12.412 -0.0801 -0.7910 -0.3076
  829MPD2     H12247   2.831   0.368  12.359 -0.0395 -2.1345 -0.2597
  829MPD2    H112248   2.527   0.179  12.593  2.4245 -0.0469  0.9097
  829MPD2    H212249   2.415   0.368  12.240 -1.6146  1.4601  1.4225
  829MPD2    H312250   2.366   0.239  12.429 -1.2534  2.7483 -1.0493
  829MPD2     N12251   2.782   0.204  12.575  0.1702  0.2616 -0.5272
  829MPD2    H512252   2.747   0.153  12.655  1.3485  0.3274  0.0311
  829MPD2    N112253   2.678   0.478  12.183 -0.1431  0.3886 -0.0786
  829MPD2    H712254   2.769   0.519  12.201  0.5208 -1.0830 -0.1038
  830MPD2     C12255   3.803   3.736  15.869  0.1106  0.5924  0.2399
  830MPD2    C112256   3.736   3.706  15.749  0.6835  0.5371  0.5140
  830MPD2    C212257   3.794   3.725  15.624 -0.2046  0.2153 -0.1832
  830MPD2    C312258   3.925   3.771  15.620  0.3990 -0.3224 -0.0685
  830MPD2    C412259   3.991   3.809  15.735  0.4849  0.7706 -0.8769
  830MPD2    C512260   3.929   3.784  15.857 -1.0162 -0.4194  0.8898
  830MPD2     H12261   3.739   3.709  15.532 -1.1649 -3.1314  0.9925
  830MPD2    H112262   4.087   3.858  15.727  0.6777  0.0432 -3.1970
  830MPD2    H212263   3.752   3.718  15.964 -1.5864  2.7971 -0.2257
  830MPD2    H312264   3.973   3.819  15.950  2.6979 -1.5274 -0.4483
  830MPD2     N12265   3.993   3.801  15.497  0.3696 -0.3792 -0.1946
  830MPD2    H512266   4.079   3.855  15.500 -0.4317  0.8651  0.1422
  830MPD2    N112267   3.603   3.666  15.767  0.6307  0.5416  0.3968
  830MPD2    H712268   3.561   3.660  15.859 -1.6850  1.5181 -0.6173
  831MPD2     C12269   3.323   0.754  16.386  0.5301 -0.4808  1.0115
  831MPD2    C112270   3.347   0.648  16.302 -0.2513  0.0288 -0.2844
  831MPD2    C212271   3.268   0.533  16.315  0.3920  0.5005  0.2983
  831MPD2    C312272   3.156   0.524  16.401  0.3429 -0.6456 -0.4410
  831MPD2    C412273   3.141   0.634  16.483  0.2913  0.5438  0.2502
  831MPD2    C512274   3.228   0.744  16.485  0.0514 -0.7688  0.1195
  831MPD2     H12275   3.285   0.453  16.245 -0.1897  0.7326 -0.1122
  831MPD2    H112276   3.058   0.641  16.553 -1.4756  0.1863 -1.8078
  831MPD2    H212277   3.387   0.841  16.384  1.2536 -0.9988  2.2161
  831MPD2    H312278   3.214   0.830  16.550  1.5719  1.1878 -2.1612
  831MPD2     N12279   3.060   0.418  16.396 -0.4873 -0.2587 -0.5790
  831MPD2    H512280   2.985   0.428  16.464  0.3471 -0.8418  0.4404
  831MPD2    N112281   3.450   0.655  16.203  0.1400  0.2891 -0.2858
  831MPD2    H712282   3.489   0.747  16.185 -0.5562  0.5680 -0.3942
  832MPD2     C12283   1.680   1.753  17.409 -0.1359 -0.6275 -0.2705
  832MPD2    C112284   1.653   1.870  17.338  0.5245 -0.2698 -0.5892
  832MPD2    C212285   1.535   1.888  17.263 -0.0161  0.2622  0.3639
  832MPD2    C312286   1.455   1.775  17.248  0.2724 -0.5818 -0.2103
  832MPD2    C412287   1.473   1.663  17.323 -0.0995 -0.4913 -0.1710
  832MPD2    C512288   1.584   1.653  17.405 -0.6539 -0.3554 -0.6594
  832MPD2     H12289   1.521   1.978  17.204  0.6367 -0.3678 -0.7327
  832MPD2    H112290   1.400   1.583  17.322  0.0569 -0.6578  1.5921
  832MPD2    H212291   1.766   1.739  17.473 -0.7641 -2.9385  0.0873
  832MPD2    H312292   1.606   1.563  17.461  2.3079  1.3751  0.9819
  832MPD2     N12293   1.331   1.780  17.173  0.0755 -0.0746  0.6057
  832MPD2    H512294   1.262   1.707  17.183 -1.5507  1.2454 -1.0087
  832MPD2    N112295   1.742   1.978  17.362  0.2756  0.3031 -0.4078
  832MPD2    H712296   1.812   1.954  17.432 -1.0091 -0.8249  0.5037
  833MPD2     C12297   3.895   2.565  12.549 -0.6270  0.2579  0.0906
  833MPD2    C112298   3.892   2.650  12.441  0.5128  0.1903 -0.3076
  833MPD2    C212299   4.006   2.712  12.402  0.6870 -0.1108 -0.2621
  833MPD2    C312300   4.126   2.687  12.468  0.0948 -0.4758  0.0137
  833MPD2    C412301   4.124   2.612  12.583  0.3675 -1.1684  0.1344
  833MPD2    C512302   4.010   2.556  12.625  0.0224 -0.0049  0.1383
  833MPD2     H12303   4.013   2.770  12.310 -0.1188  2.6394  1.4051
  833MPD2    H112304   4.214   2.577  12.633  0.6279 -0.7182 -0.0139
  833MPD2    H212305   3.807   2.514  12.589 -1.4926  0.3960 -1.6393
  833MPD2    H312306   4.007   2.486  12.707 -0.1880  0.7273  0.7610
  833MPD2     N12307   4.251   2.723  12.416  0.5193 -0.2013  0.3334
  833MPD2    H512308   4.331   2.677  12.457  1.5995 -0.0303 -1.5572
  833MPD2    N112309   3.766   2.678  12.379  0.1798 -0.2127 -0.2557
  833MPD2    H712310   3.684   2.631  12.415 -1.0642  0.5174 -2.1435
  834MPD2     C12311   4.111   2.171  11.790 -0.0568 -0.1146  0.9631
  834MPD2    C112312   4.137   2.269  11.704  0.9275  0.1698  0.3381
  834MPD2    C212313   4.208   2.380  11.754 -0.6639 -0.9242  0.8979
  834MPD2    C312314   4.271   2.378  11.877  0.8394  0.6966 -0.0180
  834MPD2    C412315   4.262   2.258  11.954  0.6063  0.0105 -0.1109
  834MPD2    C512316   4.173   2.161  11.915  0.9694 -1.0293  0.2191
  834MPD2     H12317   4.234   2.467  11.695  1.4024 -0.3290  2.7000
  834MPD2    H112318   4.302   2.254  12.054 -1.6186  0.0001  0.7883
  834MPD2    H212319   4.038   2.099  11.756  1.6398 -1.2404 -0.2601
  834MPD2    H312320   4.162   2.069  11.972  3.3827 -1.0505  0.6453
  834MPD2     N12321   4.331   2.496  11.923  0.5050 -0.0030 -0.0573
  834MPD2    H512322   4.329   2.581  11.868 -1.1884  0.4971  0.7894
  834MPD2    N112323   4.076   2.265  11.580  0.8903 -0.4936  0.7098
  834MPD2    H712324   4.028   2.176  11.570 -0.3789 -0.0032  2.4872
  835MPD2     C12325   3.866   1.016  10.888  0.1436  0.3557  0.4333
  835MPD2    C112326   3.829   1.022  11.022 -0.3254  1.2798  1.1506
  835MPD2    C212327   3.889   0.946  11.115 -0.1552 -0.3727 -0.0506
  835MPD2    C312328   3.989   0.861  11.076  0.0911  0.3947  0.2779
  835MPD2    C412329   4.016   0.833  10.948  1.1007  0.4477 -0.5860
  835MPD2    C512330   3.947   0.915  10.856  0.0674  0.6106 -0.8226
  835MPD2     H12331   3.862   0.966  11.218  1.7140 -1.1156  0.6034
  835MPD2    H112332   4.087   0.755  10.920  2.3962  1.3001  0.3360
  835MPD2    H212333   3.830   1.079  10.808  0.5978  1.8709  1.4209
  835MPD2    H312334   3.963   0.906  10.749 -0.5061 -0.1231 -0.8466
  835MPD2     N12335   4.061   0.787  11.176  0.4141  0.0563 -0.7142
  835MPD2    H512336   4.116   0.710  11.139  1.6586  0.8445 -0.5007
  835MPD2    N112337   3.725   1.103  11.073 -0.8350 -0.7221  0.4665
  835MPD2    H712338   3.694   1.087  11.168 -3.5574 -1.8097 -0.5873
  836MPD2     C12339   3.648   0.630  11.722 -0.4480  0.0696 -0.0557
  836MPD2    C112340   3.772   0.605  11.784 -0.2718 -0.1923  0.2128
  836MPD2    C212341   3.777   0.579  11.923 -0.1870 -0.6013 -0.1031
  836MPD2    C312342   3.653   0.557  11.992 -0.3110 -0.8216  0.4962
  836MPD2    C412343   3.536   0.598  11.930 -0.0059 -0.9503  0.4837
  836MPD2    C512344   3.535   0.621  11.791  0.4834  0.2374  0.4561
  836MPD2     H12345   3.874   0.566  11.970  0.6198 -0.5136 -1.7623
  836MPD2    H112346   3.444   0.580  11.984 -2.1401 -0.1001 -2.8659
  836MPD2    H212347   3.639   0.664  11.619  0.1333 -0.7536 -0.3848
  836MPD2    H312348   3.441   0.639  11.740  0.8224 -0.7434 -0.5058
  836MPD2     N12349   3.632   0.511  12.128 -0.5058  0.0112  0.2751
  836MPD2    H512350   3.537   0.520  12.162 -0.3752  0.8243  0.4178
  836MPD2    N112351   3.884   0.632  11.709  0.1684  0.7726 -0.1095
  836MPD2    H712352   3.861   0.663  11.615  1.7198 -1.7091 -1.2936
  837MPD2     C12353   2.380   0.556  10.239 -0.2413 -0.1205  0.5153
  837MPD2    C112354   2.346   0.604  10.112  0.2051  0.0351  0.8356
  837MPD2    C212355   2.390   0.732  10.076  0.1530 -0.1303  0.9730
  837MPD2    C312356   2.437   0.818  10.170 -0.0673  0.1977 -0.1999
  837MPD2    C412357   2.449   0.773  10.294  0.9794 -0.2173  1.0879
  837MPD2    C512358   2.435   0.643  10.333  0.7156  0.1619  0.0618
  837MPD2     H12359   2.367   0.778   9.980 -1.0361 -0.9305  0.8678
  837MPD2    H112360   2.499   0.832  10.369  0.5621  1.3490  0.1421
  837MPD2    H212361   2.362   0.452  10.265 -0.1454 -0.1946  0.2867
  837MPD2    H312362   2.456   0.615  10.435  1.0170  0.1411 -0.0082
  837MPD2     N12363   2.451   0.949  10.126  0.5241 -0.2555 -0.4281
  837MPD2    H512364   2.408   0.979  10.039 -1.8226 -1.9243  0.1361
  837MPD2    N112365   2.268   0.540  10.014 -0.2180  0.2350 -0.0210
  837MPD2    H712366   2.264   0.571   9.918 -0.8332  1.0504  0.2735
  838MPD2     C12367   0.190   3.398  11.921 -0.3161  0.7539 -0.0049
  838MPD2    C112368   0.308   3.396  12.000  0.1149  0.0892  0.0359
  838MPD2    C212369   0.291   3.331  12.117 -0.3081 -0.2455 -0.0226
  838MPD2    C312370   0.172   3.273  12.160 -0.3115  0.7447 -0.5869
  838MPD2    C412371   0.049   3.285  12.095 -0.8843 -0.3303 -0.2471
  838MPD2    C512372   0.069   3.349  11.974  0.8069  0.5924  0.1543
  838MPD2     H12373   0.383   3.308  12.170 -0.5703 -1.9389 -0.2773
  838MPD2    H112374   4.687   3.245  12.112 -0.9790  0.5844  1.3657
  838MPD2    H212375   0.184   3.440  11.822 -0.0262 -0.3576 -0.4921
  838MPD2    H312376   4.723   3.367  11.906  1.0022  0.9378  0.0040
  838MPD2     N12377   0.177   3.196  12.280 -0.5188  0.5887  0.1033
  838MPD2    H512378   0.247   3.226  12.347 -1.5137  1.0566  0.9255
  838MPD2    N112379   0.437   3.431  11.953 -0.3686  0.0245  0.1131
  838MPD2    H712380   0.522   3.413  12.007 -0.7404  1.2299  1.1136
  839MPD2     C12381   0.530   2.739  11.935  0.2557  0.6538 -1.1081
  839MPD2    C112382   0.520   2.794  11.808  0.1436 -0.2715 -0.5640
  839MPD2    C212383   0.593   2.904  11.770 -0.5703 -1.0859  0.3711
  839MPD2    C312384   0.653   2.990  11.865  0.3420 -0.1759  0.5637
  839MPD2    C412385   0.653   2.941  11.998  0.2199 -0.3164 -0.0795
  839MPD2    C512386   0.610   2.811  12.025 -0.0515 -0.0202  0.0911
  839MPD2     H12387   0.590   2.942  11.668  0.2669 -2.2041 -0.0736
  839MPD2    H112388   0.700   2.989  12.082 -2.3747 -0.6235  1.5512
  839MPD2    H212389   0.493   2.643  11.968  1.1660  0.2837 -1.1619
  839MPD2    H312390   0.623   2.768  12.124  1.9437  1.1957  0.3597
  839MPD2     N12391   0.697   3.121  11.825  0.0939 -0.3305  0.3181
  839MPD2    H512392   0.739   3.177  11.899 -2.4381  1.4460  0.3956
  839MPD2    N112393   0.461   2.725  11.699  0.7512  0.1667 -0.7623
  839MPD2    H712394   0.470   2.761  11.604 -1.9729  0.1928 -0.9984
  840MPD2     C12395   1.166   1.303   9.815 -0.0097 -0.0871 -0.4779
  840MPD2    C112396   1.170   1.231   9.933 -0.1000  0.4700  0.1492
  840MPD2    C212397   1.246   1.285  10.039 -0.3699  0.0717 -0.3184
  840MPD2    C312398   1.300   1.413  10.025  0.3551  1.1000  0.7623
  840MPD2    C412399   1.303   1.478   9.898 -0.0299  0.4235 -0.3012
  840MPD2    C512400   1.235   1.415   9.795 -0.4657 -0.4305  0.1801
  840MPD2     H12401   1.242   1.241  10.138  0.3601  0.2534 -0.2065
  840MPD2    H112402   1.349   1.575   9.881 -1.3653  1.3733  1.4938
  840MPD2    H212403   1.111   1.262   9.731  3.0458 -1.1996 -1.9275
  840MPD2    H312404   1.225   1.464   9.699 -0.4396  1.6385  1.2201
  840MPD2     N12405   1.352   1.488  10.137  0.2996  0.2303  0.0576
  840MPD2    H512406   1.389   1.580  10.117 -1.0751  0.9976  1.0630
  840MPD2    N112407   1.099   1.106   9.936  0.2285  0.6876 -0.2937
  840MPD2    H712408   1.045   1.080   9.854  0.2816 -0.1450 -0.0688
  841MPD2     C12409   4.529   0.918  14.466  0.5706  0.1187 -0.5037
  841MPD2    C112410   4.595   0.800  14.496 -0.3676  0.0163 -0.3367
  841MPD2    C212411   4.720   0.798  14.566  0.2014  0.2530 -0.6023
  841MPD2    C312412   0.039   0.917  14.605  0.5239  0.1122  0.2540
  841MPD2    C412413   4.706   1.034  14.586 -0.5736  0.5444  0.1706
  841MPD2    C512414   4.585   1.035  14.518 -0.6369 -0.2736 -0.2535
  841MPD2     H12415   0.029   0.707  14.603  0.3021  0.6826  0.3339
  841MPD2    H112416   0.000   1.129  14.628  2.7217  0.0330 -1.1327
  841MPD2    H212417   4.431   0.932  14.423  0.5173  2.2957  0.3447
  841MPD2    H312418   4.535   1.130  14.506 -2.4182 -1.0906  0.8086
  841MPD2     N12419   0.157   0.911  14.687  0.3632  0.5319  0.3119
  841MPD2    H512420   0.172   0.825  14.738 -1.6881  2.3863  4.0186
  841MPD2    N112421   4.550   0.671  14.457  0.3793  0.1607 -0.5629
  841MPD2    H712422   4.617   0.597  14.472  0.3997  0.4078  0.5561
  842MPD2     C12423   0.843   2.183  16.996  0.1755 -0.1018 -0.5274
  842MPD2    C112424   0.734   2.114  16.952 -0.6222  0.1932  0.9098
  842MPD2    C212425   0.673   2.021  17.038  0.5117 -0.2125  0.0652
  842MPD2    C312426   0.711   2.011  17.169  0.4600 -0.5109  0.4056
  842MPD2    C412427   0.810   2.101  17.214  0.6292 -0.0596  0.5085
  842MPD2    C512428   0.882   2.174  17.124 -0.2526 -0.3473  0.4570
  842MPD2     H12429   0.587   1.964  17.008  1.1783 -0.2252 -1.8560
  842MPD2    H112430   0.853   2.113  17.313  1.6942  0.3246  0.0050
  842MPD2    H212431   0.907   2.243  16.932  2.0076 -1.1695  0.3111
  842MPD2    H312432   0.971   2.219  17.167  0.1823 -1.5510  0.8251
  842MPD2     N12433   0.645   1.942  17.266  0.4814 -0.3564 -0.2025
  842MPD2    H512434   0.667   1.967  17.362 -0.3037 -0.8513  0.1041
  842MPD2    N112435   0.694   2.141  16.815  0.5690  0.6127 -0.4386
  842MPD2    H712436   0.748   2.206  16.757 -0.6565  0.9979 -1.1516
  843MPD2     C12437   2.567   2.406   0.037  0.3026 -0.4055 -1.1131
  843MPD2    C112438   2.703   2.426   0.056 -0.1150 -0.7548 -0.8176
  843MPD2    C212439   2.750   2.558   0.092  0.3054 -0.2622  0.0196
  843MPD2    C312440   2.664   2.658   0.117 -0.2674  0.2070 -0.0725
  843MPD2    C412441   2.526   2.638   0.102  0.1652 -0.6421  0.4781
  843MPD2    C512442   2.484   2.511   0.059  0.6784  0.1757 -0.0982
  843MPD2     H12443   2.853   2.584   0.113 -0.1508  1.5059  0.1127
  843MPD2    H112444   2.460   2.719   0.131  1.3315  0.3415  0.3875
  843MPD2    H212445   2.528   2.307   0.012  2.1296 -2.6286  4.7957
  843MPD2    H312446   2.378   2.492   0.072  0.6420  1.4592  1.5133
  843MPD2     N12447   2.725   2.784   0.133 -0.1121 -0.0815  0.4202
  843MPD2    H512448   2.826   2.785   0.125 -0.3056 -1.1240 -2.0425
  843MPD2    N112449   2.798   2.321   0.029 -0.4546 -0.4351 -0.1287
  843MPD2    H712450   2.753   2.235  17.747 -1.5844  0.1841 -0.2105
  844MPD2     C12451   1.188   1.238  16.884 -0.7367 -0.6490  0.4857
  844MPD2    C112452   1.239   1.294  16.766  0.2943  0.2587  0.1762
  844MPD2    C212453   1.312   1.412  16.773 -0.1106 -0.3538 -0.3858
  844MPD2    C312454   1.346   1.463  16.897  0.3604  0.5333 -0.0635
  844MPD2    C412455   1.292   1.402  17.010  0.2669  0.2447 -0.4604
  844MPD2    C512456   1.218   1.289  17.004 -0.0917 -0.4050  0.1118
  844MPD2     H12457   1.348   1.457  16.682  0.7694 -0.4550 -0.0910
  844MPD2    H112458   1.311   1.447  17.107  0.9687  2.3545 -1.5661
  844MPD2    H212459   1.124   1.151  16.882  0.5097 -1.5214 -0.9682
  844MPD2    H312460   1.176   1.233  17.087 -2.7859 -0.9150 -1.5947
  844MPD2     N12461   1.429   1.574  16.909 -1.0388  0.2114 -0.0782
  844MPD2    H512462   1.477   1.583  16.998  0.5591 -0.3614 -0.8763
  844MPD2    N112463   1.220   1.242  16.637  0.1523  0.2620  0.0787
  844MPD2    H712464   1.243   1.302  16.558 -0.3056  1.9390  1.2206
  845MPD2     C12465   1.580   2.616  16.910 -0.5640 -0.4544  0.6519
  845MPD2    C112466   1.628   2.552  17.018 -0.0725 -0.0860 -0.8138
  845MPD2    C212467   1.621   2.415  17.028 -0.0008  0.6322 -0.2507
  845MPD2    C312468   1.567   2.337  16.923 -0.5510 -0.4256 -0.2319
  845MPD2    C412469   1.505   2.402  16.824  0.1821 -0.2887 -0.7365
  845MPD2    C512470   1.506   2.541  16.823 -0.2888  0.5137 -0.3658
  845MPD2     H12471   1.656   2.366  17.117  0.8437 -0.0870 -0.9772
  845MPD2    H112472   1.453   2.354  16.741  0.6081  0.9176 -1.6984
  845MPD2    H212473   1.591   2.723  16.894 -1.3145 -0.3694  0.6887
  845MPD2    H312474   1.459   2.584  16.735 -0.8007  0.7161  0.0054
  845MPD2     N12475   1.590   2.200  16.921  0.3148  0.2442 -0.8823
  845MPD2    H512476   1.632   2.152  17.000  0.5003  1.4805 -0.2260
  845MPD2    N112477   1.698   2.634  17.099 -0.2974  0.0472  0.4187
  845MPD2    H712478   1.703   2.731  17.069  3.7030 -0.9166 -2.0153
  846MPD2     C12479   3.556   2.746  13.896 -0.7585 -0.1647 -0.0734
  846MPD2    C112480   3.442   2.683  13.852 -0.4408 -0.3764 -0.1037
  846MPD2    C212481   3.335   2.666  13.934  0.5436 -0.2038 -0.0169
  846MPD2    C312482   3.341   2.720  14.061  0.4479  0.0718 -0.3167
  846MPD2    C412483   3.454   2.786  14.105 -0.5704 -0.9119 -0.9163
  846MPD2    C512484   3.564   2.795  14.017 -0.1429 -1.0459  0.1007
  846MPD2     H12485   3.244   2.619  13.898  1.3418 -1.5624 -0.2564
  846MPD2    H112486   3.476   2.819  14.206  0.0473 -1.2977 -0.9268
  846MPD2    H212487   3.637   2.767  13.828 -1.3440 -0.8460 -0.9966
  846MPD2    H312488   3.661   2.831  14.049  0.1630 -0.5755 -1.3253
  846MPD2     N12489   3.231   2.693  14.145  0.2411  0.1094  0.0184
  846MPD2    H512490   3.154   2.647  14.098  0.9486 -2.6767  1.6066
  846MPD2    N112491   3.446   2.634  13.717  0.1299 -0.1979  0.5589
  846MPD2    H712492   3.539   2.644  13.677  0.7407 -1.0539  1.7885
  847MPD2     C12493   3.871   3.514  14.218  0.6878  0.1225  0.3110
  847MPD2    C112494   3.799   3.624  14.193  0.0529  0.8708  0.7622
  847MPD2    C212495   3.839   3.757  14.231  0.0164 -0.6775  0.0344
  847MPD2    C312496   3.965   3.764  14.299 -0.0023  0.5536 -0.6278
  847MPD2    C412497   4.041   3.650  14.323  0.5192  0.0096  0.6821
  847MPD2    C512498   3.997   3.531  14.275 -1.0373  0.2268  0.3207
  847MPD2     H12499   3.770   3.838  14.209  1.1454  0.4725  0.7356
  847MPD2    H112500   4.139   3.666  14.366  0.5514 -0.1714  0.6764
  847MPD2    H212501   3.838   3.413  14.196  0.4639  0.4521 -0.8698
  847MPD2    H312502   4.054   3.441  14.297 -0.8844  0.5307  1.1704
  847MPD2     N12503   4.015   3.889  14.356 -0.3466 -0.4876  0.8682
  847MPD2    H512504   4.092   3.893  14.422  0.0029  1.7966  0.3341
  847MPD2    N112505   3.672   3.617  14.130  0.3748 -0.2900 -0.0746
  847MPD2    H712506   3.625   3.705  14.116  1.6687 -0.0696 -2.9681
  848MPD2     C12507   1.079   2.065  16.406 -0.4337  0.2205  0.2705
  848MPD2    C112508   1.130   2.127  16.524 -0.4076 -0.8553  0.1755
  848MPD2    C212509   1.222   2.231  16.507  0.1979 -0.2498  0.4431
  848MPD2    C312510   1.254   2.271  16.379  0.0629 -0.0811 -0.1314
  848MPD2    C412511   1.222   2.203  16.264  0.1324 -0.4200 -0.0407
  848MPD2    C512512   1.133   2.103  16.283  0.5235 -0.1357 -0.1837
  848MPD2     H12513   1.268   2.266  16.599 -0.3039  1.6970 -0.0663
  848MPD2    H112514   1.261   2.232  16.167  1.4514  1.1350  0.9626
  848MPD2    H212515   1.013   1.980  16.414 -0.2863  0.0329 -0.4790
  848MPD2    H312516   1.089   2.050  16.199 -0.0032 -2.7198  1.7285
  848MPD2     N12517   1.331   2.388  16.361  0.2167 -0.4327  0.1203
  848MPD2    H512518   1.388   2.394  16.277 -1.7197 -0.4321 -1.1917
  848MPD2    N112519   1.106   2.081  16.659 -1.0980  0.5939  0.2492
  848MPD2    H712520   1.170   2.122  16.726  0.5549  0.7072 -1.4276
  849MPD2     C12521   0.148   1.537  13.935  0.3781  0.4573 -0.0463
  849MPD2    C112522   0.286   1.575  13.929  0.0684  0.3951  0.6073
  849MPD2    C212523   0.357   1.588  14.041  0.3888  0.1499 -0.8333
  849MPD2    C312524   0.305   1.568  14.168  0.0044 -0.1429 -0.4318
  849MPD2    C412525   0.180   1.522  14.173 -0.0536 -0.4118 -0.2215
  849MPD2    C512526   0.098   1.508  14.059 -0.0479 -0.2867  0.2717
  849MPD2     H12527   0.461   1.618  14.033  1.2403 -2.4944  0.1824
  849MPD2    H112528   0.126   1.509  14.266 -0.0138 -1.2384 -0.3089
  849MPD2    H212529   0.092   1.525  13.843  2.2260  0.4643 -1.1815
  849MPD2    H312530   4.735   1.468  14.065 -0.3583  0.2395 -1.5341
  849MPD2     N12531   0.384   1.584  14.279  0.4578 -0.0057 -0.9422
  849MPD2    H512532   0.364   1.539  14.368  2.7149  2.2359  0.7230
  849MPD2    N112533   0.368   1.590  13.819 -0.4216  0.1281 -0.6271
  849MPD2    H712534   0.468   1.595  13.838 -0.4102  2.8668 -1.3972
  850MPD2     C12535   3.185   4.541  14.481 -0.3857 -0.3624 -0.1851
  850MPD2    C112536   3.158   4.570  14.614 -0.0541  0.2637  0.4298
  850MPD2    C212537   3.247   4.664  14.671 -0.2130 -0.6731  0.3153
  850MPD2    C312538   3.361   4.714  14.602  0.3034 -0.3892  0.0841
  850MPD2    C412539   3.379   4.684  14.475 -0.1745 -0.0968 -0.8569
  850MPD2    C512540   3.297   4.592  14.417 -0.0103 -0.1519  0.2814
  850MPD2     H12541   3.220   4.689  14.773 -0.5060 -0.1474  0.1086
  850MPD2    H112542   3.468   4.713  14.422  0.7188 -1.8497 -0.3188
  850MPD2    H212543   3.114   4.481  14.425 -2.5235  2.4286 -0.4642
  850MPD2    H312544   3.321   4.563  14.316  0.2108  0.0503  0.2760
  850MPD2     N12545   3.469   0.048  14.667  0.3136  0.9516  0.5858
  850MPD2    H512546   3.542   0.076  14.602 -0.0809 -0.7963 -0.6125
  850MPD2    N112547   3.046   4.503  14.663 -0.6102 -0.7159 -0.3155
  850MPD2    H712548   2.999   4.448  14.591 -0.9889 -2.9416  1.6380
  851MPD2     C12549   3.661   4.589  15.212 -0.2269 -0.0972 -0.4210
  851MPD2    C112550   3.594   4.486  15.152 -0.5845 -0.1304 -0.2923
  851MPD2    C212551   3.653   4.361  15.143 -0.8856  0.3271 -0.0059
  851MPD2    C312552   3.788   4.343  15.167  0.3326 -0.0889  0.1134
  851MPD2    C412553   3.858   4.445  15.229  0.0828  0.1388  0.0870
  851MPD2    C512554   3.794   4.568  15.242 -0.6848 -0.3150 -0.4340
  851MPD2     H12555   3.599   4.279  15.096 -0.2751  0.9642 -1.8178
  851MPD2    H112556   3.963   4.438  15.252  0.3742  3.3198 -0.2546
  851MPD2    H212557   3.634   4.693  15.226 -1.1818 -0.3733 -0.2159
  851MPD2    H312558   3.854   4.655  15.265 -0.5988 -0.3273 -0.6093
  851MPD2     N12559   3.832   4.213  15.156  0.1321 -0.0748  0.1748
  851MPD2    H512560   3.782   4.141  15.104  1.2556 -1.5535  1.1559
  851MPD2    N112561   3.457   4.506  15.113 -0.2657 -0.5145  0.4752
  851MPD2    H712562   3.425   4.599  15.141  2.7732  1.3086 -2.0452
  852MPD2     C12563   3.243   2.345  10.643 -0.0225  0.1195  0.0127
  852MPD2    C112564   3.263   2.483  10.640 -1.0914 -0.0807 -0.8782
  852MPD2    C212565   3.311   2.539  10.525  0.5399  0.7209 -0.9212
  852MPD2    C312566   3.353   2.463  10.422  0.1861 -0.0888 -0.3088
  852MPD2    C412567   3.344   2.327  10.421 -0.5638 -0.7703  0.0802
  852MPD2    C512568   3.289   2.270  10.532  0.3185  0.0410 -0.1419
  852MPD2     H12569   3.352   2.640  10.527 -0.3282  1.0338  1.5721
  852MPD2    H112570   3.381   2.269  10.338 -0.4344 -1.3612  0.5521
  852MPD2    H212571   3.193   2.296  10.725  1.0935 -1.6514 -0.3616
  852MPD2    H312572   3.268   2.164  10.542  0.5545  0.0614  0.5858
  852MPD2     N12573   3.427   2.535  10.331 -0.0104  0.5997  0.3137
  852MPD2    H512574   3.423   2.636  10.345 -1.9411  0.4121  1.1519
  852MPD2    N112575   3.224   2.573  10.743  0.1688  0.1529  0.3869
  852MPD2    H712576   3.214   2.671  10.717  0.3387 -0.2600 -1.2174
  853MPD2     C12577   0.990   1.725  12.371  0.5157 -0.6011 -0.3924
  853MPD2    C112578   0.899   1.833  12.360  0.8210  0.1379 -0.5664
  853MPD2    C212579   0.854   1.861  12.234  0.2828 -0.1822 -0.0296
  853MPD2    C312580   0.904   1.800  12.125 -0.3917 -0.0557 -0.0564
  853MPD2    C412581   0.991   1.694  12.134  0.2088  0.3422  0.1039
  853MPD2    C512582   1.032   1.655  12.263  0.0721  0.5163  0.5616
  853MPD2     H12583   0.779   1.939  12.229  1.8824  1.4152  0.7379
  853MPD2    H112584   1.030   1.643  12.046  0.4185  0.9698 -0.1699
  853MPD2    H212585   1.022   1.683  12.466 -2.4537  1.7514  1.6259
  853MPD2    H312586   1.115   1.585  12.269  1.0942  1.6432 -0.1583
  853MPD2     N12587   0.862   1.837  11.991 -0.1680 -0.0659  0.0739
  853MPD2    H512588   0.910   1.790  11.915 -1.0589 -3.2377  1.4681
  853MPD2    N112589   0.866   1.905  12.480 -0.4365  0.3737 -0.1080
  853MPD2    H712590   0.885   1.852  12.565 -1.2997 -0.0664 -0.1913
  854MPD2     C12591   1.687   2.307  13.125  0.3207  0.3284  0.2641
  854MPD2    C112592   1.678   2.221  13.021 -0.8157  1.0374  0.0640
  854MPD2    C212593   1.672   2.086  13.036  0.5744  0.2078 -0.6237
  854MPD2    C312594   1.684   2.035  13.160 -0.2833  0.2321 -0.5935
  854MPD2    C412595   1.703   2.122  13.269  0.1965 -1.0276 -0.7184
  854MPD2    C512596   1.697   2.255  13.246 -0.2192  0.6524 -0.2166
  854MPD2     H12597   1.661   2.032  12.943  1.0573  0.2614 -0.7139
  854MPD2    H112598   1.695   2.081  13.369  3.3592  0.1090 -0.0165
  854MPD2    H212599   1.684   2.415  13.126  0.1969  0.3161  1.4384
  854MPD2    H312600   1.712   2.310  13.339  1.7458 -0.9265  0.4001
  854MPD2     N12601   1.667   1.898  13.183 -0.2879 -0.2835 -0.2886
  854MPD2    H512602   1.692   1.879  13.279 -0.3355  0.8621 -0.0476
  854MPD2    N112603   1.677   2.290  12.901 -0.2515 -0.2218  0.1174
  854MPD2    H712604   1.678   2.391  12.905 -2.4687 -0.1750 -0.0724
  855MPD2     C12605   1.332   1.382  13.835  0.6814 -0.6710 -0.2413
  855MPD2    C112606   1.447   1.329  13.799  0.0269  0.1350  0.4795
  855MPD2    C212607   1.526   1.383  13.703 -0.7269 -0.2271 -0.3135
  855MPD2    C312608   1.487   1.485  13.621 -0.2913  0.0144  0.1924
  855MPD2    C412609   1.368   1.536  13.652 -0.5900 -0.2328 -0.3093
  855MPD2    C512610   1.295   1.492  13.762 -0.2136  0.0117 -0.8560
  855MPD2     H12611   1.618   1.329  13.684 -0.4826 -0.9052  2.8081
  855MPD2    H112612   1.337   1.626  13.599 -0.8140 -0.0435  0.1381
  855MPD2    H212613   1.268   1.346  13.915 -2.2771  2.9265 -0.9891
  855MPD2    H312614   1.205   1.552  13.769  0.6421  1.0933  1.0512
  855MPD2     N12615   1.562   1.536  13.513  0.1847  0.7134 -0.5526
  855MPD2    H512616   1.506   1.599  13.457 -1.4788  2.3163  2.8688
  855MPD2    N112617   1.494   1.214  13.863  0.3023  0.1768 -0.0756
  855MPD2    H712618   1.577   1.171  13.822  0.2818 -1.1363  1.2606
  856MPD2     C12619   4.272   2.529  13.510 -0.3857  0.6994  0.5084
  856MPD2    C112620   4.339   2.655  13.526 -0.3630  0.0757  0.5109
  856MPD2    C212621   4.294   2.767  13.451  0.2071 -0.4250 -0.1935
  856MPD2    C312622   4.184   2.765  13.371  0.2279  0.5451 -0.2322
  856MPD2    C412623   4.129   2.637  13.358  0.3193 -0.4328  0.3698
  856MPD2    C512624   4.168   2.525  13.417  0.1226 -0.2408  0.6886
  856MPD2     H12625   4.356   2.855  13.466  0.5653 -0.6884 -0.1205
  856MPD2    H112626   4.030   2.642  13.313  0.7971  0.1501 -0.6063
  856MPD2    H212627   4.295   2.434  13.558 -0.8823 -0.5105 -1.6439
  856MPD2    H312628   4.103   2.438  13.406 -2.7333  2.0488 -0.6564
  856MPD2     N12629   4.139   2.868  13.285 -0.2127 -0.5251  0.1508
  856MPD2    H512630   4.045   2.851  13.249 -0.2754  0.7731 -0.3083
  856MPD2    N112631   4.430   2.684  13.631 -0.4921  0.3896 -0.0807
  856MPD2    H712632   4.488   2.767  13.629 -0.0416  0.0341 -1.5047
  857MPD2     C12633   1.053   0.495  12.730  0.4787 -0.2082  0.4021
  857MPD2    C112634   1.184   0.462  12.758  0.1113 -0.4357 -0.5457
  857MPD2    C212635   1.263   0.561  12.804  0.1788 -0.1120  0.5441
  857MPD2    C312636   1.220   0.685  12.846  0.4630  0.3487 -0.0751
  857MPD2    C412637   1.088   0.716  12.820  0.0451 -0.4724  0.2900
  857MPD2    C512638   1.007   0.623  12.758  0.8600  0.0798  0.7176
  857MPD2     H12639   1.367   0.535  12.819  0.2053 -2.0475 -3.0936
  857MPD2    H112640   1.042   0.811  12.843 -2.4680 -1.6824  0.3438
  857MPD2    H212641   0.987   0.423  12.683  0.4221 -0.3958  0.7673
  857MPD2    H312642   0.910   0.660  12.725  0.0924 -2.4526  0.0913
  857MPD2     N12643   1.326   0.767  12.896 -0.2905  0.7620 -0.0295
  857MPD2    H512644   1.418   0.725  12.903 -0.3455  0.8674  1.3596
  857MPD2    N112645   1.241   0.341  12.716  0.0458 -0.0203  0.2077
  857MPD2    H712646   1.173   0.289  12.663 -1.0126  1.2164  0.3467
  858MPD2     C12647   1.565   3.990  17.113 -0.1468  0.1920 -0.3457
  858MPD2    C112648   1.684   4.002  17.058  0.6066 -0.0413 -1.4088
  858MPD2    C212649   1.769   4.102  17.096 -0.0429  0.2032 -0.0230
  858MPD2    C312650   1.726   4.212  17.166  0.1706 -0.6745  0.1756
  858MPD2    C412651   1.601   4.196  17.225  0.8737 -0.0652 -0.2814
  858MPD2    C512652   1.523   4.085  17.201 -0.1144 -0.3180  0.2219
  858MPD2     H12653   1.862   4.114  17.042 -0.4101 -0.1263 -0.7341
  858MPD2    H112654   1.563   4.259  17.304 -0.4265 -1.5453  0.2827
  858MPD2    H212655   1.509   3.897  17.110 -1.6800  1.1345 -0.7300
  858MPD2    H312656   1.439   4.066  17.267  1.6360  0.9763  2.8137
  858MPD2     N12657   1.807   4.318  17.203  0.1084 -0.0428 -0.2834
  858MPD2    H512658   1.766   4.401  17.244 -0.9366  0.1520 -1.6963
  858MPD2    N112659   1.726   3.907  16.962  0.5882  0.0900  0.0425
  858MPD2    H712660   1.662   3.832  16.938  0.7882 -0.4991  1.3473
  859MPD2     C12661   0.578   0.922  15.375  0.2738 -0.1633 -0.9584
  859MPD2    C112662   0.448   0.975  15.366  0.4058  0.2694 -0.2709
  859MPD2    C212663   0.355   0.919  15.455 -0.7009  0.3573  0.3983
  859MPD2    C312664   0.398   0.836  15.553  0.0609  0.2579 -0.2580
  859MPD2    C412665   0.531   0.801  15.570  0.2743 -0.3437 -0.0441
  859MPD2    C512666   0.621   0.837  15.469 -0.4480 -0.4679 -0.0372
  859MPD2     H12667   0.253   0.954  15.444 -0.5349 -0.3789 -3.3459
  859MPD2    H112668   0.564   0.738  15.652  1.0552 -0.5789 -0.5370
  859MPD2    H212669   0.649   0.963  15.305 -0.4077  0.2017 -1.4372
  859MPD2    H312670   0.725   0.806  15.468 -0.3457 -0.1172 -0.3897
  859MPD2     N12671   0.312   0.789  15.659 -0.9076  0.8396 -0.9463
  859MPD2    H512672   0.356   0.724  15.723 -1.2217 -0.4791 -2.0787
  859MPD2    N112673   0.421   1.068  15.262  0.0915  0.0779 -0.3142
  859MPD2    H712674   0.500   1.082  15.200  0.7808 -0.2119  0.5019
  860MPD2     C12675   2.908   1.235  11.913 -0.3476 -0.6462  0.5999
  860MPD2    C112676   2.943   1.316  12.021 -0.1026  0.1812  0.4409
  860MPD2    C212677   2.844   1.387  12.090 -0.2488  0.2136  0.4334
  860MPD2    C312678   2.715   1.389  12.045  0.4210 -0.2830 -0.3814
  860MPD2    C412679   2.686   1.315  11.927 -0.1454  0.3101 -0.0704
  860MPD2    C512680   2.784   1.239  11.869 -0.2453  0.7348 -0.7828
  860MPD2     H12681   2.867   1.449  12.176  0.4127 -0.0242  0.4287
  860MPD2    H112682   2.587   1.314  11.882 -0.1484  0.5159 -0.0656
  860MPD2    H212683   2.989   1.173  11.876  0.3208  0.7923 -0.3184
  860MPD2    H312684   2.767   1.180  11.779 -2.0124  2.2272 -1.4428
  860MPD2     N12685   2.619   1.456  12.124 -0.4138  0.5074 -0.1420
  860MPD2    H512686   2.637   1.502  12.213 -1.6473  1.3974 -0.3458
  860MPD2    N112687   3.073   1.339  12.076 -1.1026  0.0238  0.1117
  860MPD2    H712688   3.081   1.411  12.147  2.4857 -0.8562  0.5806
  861MPD2     C12689   1.866   0.056  10.837 -0.3650 -0.5108 -0.2174
  861MPD2    C112690   1.755   0.095  10.914  0.7436  0.1955 -0.9080
  861MPD2    C212691   1.657   0.169  10.847  0.0682 -0.0461 -0.4853
  861MPD2    C312692   1.677   0.213  10.708  0.1838  0.7561  0.4354
  861MPD2    C412693   1.793   0.182  10.647 -0.1163  0.4735 -0.2326
  861MPD2    C512694   1.882   0.098  10.703  0.5237  0.0497  0.5118
  861MPD2     H12695   1.575   0.199  10.911  1.5331  1.1604  0.7974
  861MPD2    H112696   1.810   0.219  10.547  1.4548  0.6857  0.1242
  861MPD2    H212697   1.947   0.001  10.883 -0.6607  0.7693  1.8282
  861MPD2    H312698   1.963   0.062  10.642  0.6792 -1.6440  1.7122
  861MPD2     N12699   1.586   0.304  10.636  0.3269 -0.0225 -0.4483
  861MPD2    H512700   1.594   0.312  10.535  4.0173  0.1651 -0.1435
  861MPD2    N112701   1.747   0.069  11.050 -0.2358 -0.4610 -0.0875
  861MPD2    H712702   1.659   0.101  11.091 -0.1000  1.0822 -1.0029
  862MPD2     C12703   1.063   0.447  10.206 -0.1009 -1.0476 -0.2567
  862MPD2    C112704   1.152   0.412  10.304  0.3199 -0.3294 -0.2989
  862MPD2    C212705   1.113   0.306  10.390  0.7139  0.0437 -0.1030
  862MPD2    C312706   1.004   0.232  10.376  0.0278  0.2865 -0.5717
  862MPD2    C412707   0.922   0.268  10.275 -0.0386 -0.0072 -0.0260
  862MPD2    C512708   0.950   0.364  10.189 -0.0858  0.0336 -0.2045
  862MPD2     H12709   1.180   0.269  10.466 -0.8233 -0.1657  1.1480
  862MPD2    H112710   0.831   0.214  10.251 -0.3804  0.8097 -0.5751
  862MPD2    H212711   1.098   0.525  10.139 -1.6930  1.4228  1.8069
  862MPD2    H312712   0.872   0.383  10.116 -0.5375 -0.0905  0.2522
  862MPD2     N12713   0.966   0.130  10.474 -0.7660 -0.3337  0.4121
  862MPD2    H512714   0.889   0.068  10.453 -0.0052 -1.1654  0.1165
  862MPD2    N112715   1.283   0.459  10.332 -0.5342 -0.3132  0.2149
  862MPD2    H712716   1.336   0.412  10.405  3.0980 -0.5701 -2.6031
  863MPD2     C12717   4.428   3.164  16.963 -0.4745  0.4438 -0.3874
  863MPD2    C112718   4.491   3.135  16.844 -0.2477 -0.2904  0.9973
  863MPD2    C212719   4.598   3.050  16.847 -0.0188 -0.6634 -0.5739
  863MPD2    C312720   4.649   3.004  16.968 -0.4122 -0.1306  0.7609
  863MPD2    C412721   4.584   3.038  17.082 -0.1681 -1.1113 -1.0255
  863MPD2    C512722   4.468   3.116  17.084 -0.0771 -0.0558  0.2166
  863MPD2     H12723   4.640   3.007  16.756  0.5207 -0.0756 -0.6108
  863MPD2    H112724   4.620   3.001  17.178 -1.0075  0.7408 -0.0040
  863MPD2    H212725   4.353   3.241  16.970 -0.8576  0.0159  0.2345
  863MPD2    H312726   4.422   3.135  17.181 -2.1668  1.4057 -1.0545
  863MPD2     N12727   0.037   2.938  16.983 -0.1153  0.2053  0.0495
  863MPD2    H512728   0.054   2.913  17.080  0.0735 -1.9002 -0.5213
  863MPD2    N112729   4.433   3.200  16.731  0.1158  0.1333  0.7088
  863MPD2    H712730   4.348   3.255  16.734  0.2908  0.3169  2.3498
  864MPD2     C12731   0.266   4.565  17.277 -0.1894  0.1247 -0.9313
  864MPD2    C112732   0.292   4.496  17.160  0.7795 -0.3989 -0.2019
  864MPD2    C212733   0.411   4.528  17.084 -0.4802 -1.0704 -0.3307
  864MPD2    C312734   0.498   4.630  17.131 -0.0275 -0.4752 -0.0687
  864MPD2    C412735   0.451   4.702  17.235  0.1177  0.2587 -0.2071
  864MPD2    C512736   0.337   4.679  17.299  0.0648 -0.0366 -0.1950
  864MPD2     H12737   0.440   4.476  16.994  1.4151  0.6273 -0.7124
  864MPD2    H112738   0.495   0.058  17.268 -2.5593  1.8501 -1.1708
  864MPD2    H212739   0.187   4.539  17.347 -0.0186 -0.8654 -1.1193
  864MPD2    H312740   0.301   0.010  17.376 -0.8241 -1.2367  0.4604
  864MPD2     N12741   0.619   4.660  17.069 -0.0990  0.4593 -0.2375
  864MPD2    H512742   0.677   4.735  17.104  0.8847  0.5181 -1.9934
  864MPD2    N112743   0.208   4.390  17.121 -0.4129 -0.0433 -0.0894
  864MPD2    H712744   0.119   4.391  17.170 -1.3555  2.7889 -1.8217
  865MPD2     C12745   0.855   4.683  16.119  0.6308  0.0051  0.7489
  865MPD2    C112746   0.808   4.573  16.185  0.1878 -0.0286 -0.5958
  865MPD2    C212747   0.801   4.569  16.319  0.3963  0.2500  0.3296
  865MPD2    C312748   0.857   4.670  16.391  0.2431  0.9116  0.7105
  865MPD2    C412749   0.912   0.043  16.332 -0.4445 -0.2462 -0.1301
  865MPD2    C512750   0.900   0.049  16.192 -0.4408  0.0353 -0.0817
  865MPD2     H12751   0.749   4.487  16.366 -2.2559  2.2651  0.9117
  865MPD2    H112752   0.963   0.122  16.385  0.2567 -2.0714  1.8814
  865MPD2    H212753   0.823   4.697  16.016 -0.6359  4.3217  1.7108
  865MPD2    H312754   0.928   0.139  16.137  2.3315 -0.3661  0.6544
  865MPD2     N12755   0.873   4.654  16.531  0.8322 -0.7676  0.1722
  865MPD2    H512756   0.858   4.560  16.564 -0.0718 -1.3645 -1.9086
  865MPD2    N112757   0.750   4.467  16.109  0.0839 -0.8059  0.6218
  865MPD2    H712758   0.751   4.484  16.009  1.5807 -2.1411  0.4098
  866MPD2     C12759   2.409   0.562  11.372 -0.0475 -0.2442 -0.4060
  866MPD2    C112760   2.405   0.609  11.248 -0.3632 -0.1652 -0.3892
  866MPD2    C212761   2.302   0.565  11.171  0.3148 -0.0749 -1.1052
  866MPD2    C312762   2.200   0.477  11.210 -1.2050 -0.4415 -0.7539
  866MPD2    C412763   2.204   0.427  11.336 -0.1717 -0.2728 -0.4780
  866MPD2    C512764   2.308   0.483  11.416  0.0568  0.4990 -0.5432
  866MPD2     H12765   2.298   0.606  11.070  3.2189 -1.0123 -1.6000
  866MPD2    H112766   2.129   0.364  11.381  2.0136 -2.1330  0.5510
  866MPD2    H212767   2.497   0.574  11.435  1.7057  0.0326 -2.9061
  866MPD2    H312768   2.315   0.454  11.520  1.1542 -1.2076 -1.1088
  866MPD2     N12769   2.102   0.427  11.126  0.3667  0.7788 -0.1754
  866MPD2    H512770   2.032   0.364  11.165 -1.2327  4.7896  3.5115
  866MPD2    N112771   2.522   0.680  11.205  0.4393  0.0595  0.0312
  866MPD2    H712772   2.571   0.738  11.272  1.5926 -1.5184  0.5580
  867MPD2     C12773   4.683   4.326  16.600 -0.1595 -0.3582 -0.3606
  867MPD2    C112774   4.638   4.344  16.731 -0.1031 -0.3440 -0.1413
  867MPD2    C212775   4.695   4.443  16.809 -0.1369  0.0595  0.5014
  867MPD2    C312776   0.055   4.532  16.755  0.0637 -0.8653  0.5255
  867MPD2    C412777   0.091   4.513  16.622 -0.7850 -0.1575  0.4427
  867MPD2    C512778   0.037   4.411  16.549 -0.3671  0.9098 -0.2775
  867MPD2     H12779   4.671   4.445  16.915  2.0988 -0.5769  1.0268
  867MPD2    H112780   0.166   4.577  16.576 -1.3556  0.7425  0.7850
  867MPD2    H212781   4.637   4.251  16.536 -2.1830  0.3882  0.1985
  867MPD2    H312782   0.078   4.393  16.450 -0.1548  2.7244 -0.5184
  867MPD2     N12783   0.110   4.637  16.829  0.6553  0.0549 -0.2506
  867MPD2    H512784   0.190   4.683  16.788  1.7394 -0.1873  1.5783
  867MPD2    N112785   4.545   4.246  16.774 -0.3407 -0.2343  0.3854
  867MPD2    H712786   4.508   4.189  16.699 -0.4514  0.4061 -0.0492
  868MPD2     C12787   1.226   3.780  12.985  0.4558  0.1769  0.0009
  868MPD2    C112788   1.259   3.679  13.077  0.1300 -0.0832  0.5473
  868MPD2    C212789   1.170   3.653  13.174 -0.6207  0.1423 -0.2425
  868MPD2    C312790   1.055   3.720  13.191 -0.4456 -0.1573  0.0188
  868MPD2    C412791   1.031   3.829  13.108 -0.2789  0.1631  0.3726
  868MPD2    C512792   1.116   3.847  13.001 -0.4228 -0.4568 -0.2711
  868MPD2     H12793   1.189   3.582  13.254 -0.8267 -0.1997 -0.4926
  868MPD2    H112794   0.940   3.885  13.121  0.1330  0.9015  0.1061
  868MPD2    H212795   1.288   3.821  12.905  0.2814  1.7503  0.6614
  868MPD2    H312796   1.100   3.917  12.920  1.6550 -1.3283 -1.4207
  868MPD2     N12797   0.972   3.690  13.302  0.3422  0.3379 -1.1408
  868MPD2    H512798   0.997   3.610  13.359  0.1138  0.3150 -1.0715
  868MPD2    N112799   1.379   3.604  13.054  0.1595 -0.6711  0.2126
  868MPD2    H712800   1.435   3.626  12.972  0.5158 -0.3093  0.5534
  869MPD2     C12801   2.645   1.019   0.251  0.9138 -0.8732  0.4323
  869MPD2    C112802   2.534   1.072   0.313  1.1236 -0.1531 -0.3153
  869MPD2    C212803   2.556   1.151   0.415 -0.0018 -0.2934 -0.2773
  869MPD2    C312804   2.684   1.203   0.438  0.7887  0.7049  0.7214
  869MPD2    C412805   2.794   1.152   0.381  0.3685  0.1692  0.2389
  869MPD2    C512806   2.775   1.050   0.291  1.0598  0.1003  0.3835
  869MPD2     H12807   2.472   1.210   0.451  2.1918  2.4355  0.3946
  869MPD2    H112808   2.897   1.179   0.399  1.1277 -2.7323  0.1281
  869MPD2    H212809   2.634   0.945   0.172 -3.1579 -0.5225  0.6440
  869MPD2    H312810   2.859   1.016   0.232  1.3534 -0.9723  1.4225
  869MPD2     N12811   2.709   1.316   0.519 -0.0233  0.2388 -0.1115
  869MPD2    H512812   2.795   1.360   0.489  1.3234 -1.9675  0.5055
  869MPD2    N112813   2.404   1.045   0.256 -0.0629  0.1270 -0.2999
  869MPD2    H712814   2.404   0.981   0.177  0.4288  1.4740 -1.3839
  870MPD2     C12815   2.875   0.653   1.089 -0.7231  0.1965  0.2554
  870MPD2    C112816   2.769   0.584   1.037  0.5198  0.8409 -0.1093
  870MPD2    C212817   2.646   0.644   1.009 -0.6287 -0.9213 -0.0276
  870MPD2    C312818   2.629   0.772   1.057 -0.5833  0.0967 -0.2326
  870MPD2    C412819   2.733   0.839   1.118 -0.6007 -0.8751 -0.1983
  870MPD2    C512820   2.851   0.782   1.123  0.1224  0.5708 -0.9604
  870MPD2     H12821   2.559   0.586   0.980 -1.1115  0.3800 -1.1734
  870MPD2    H112822   2.730   0.943   1.149 -0.7735 -1.1859  0.8269
  870MPD2    H212823   2.974   0.610   1.091 -1.7640 -2.2064 -0.0007
  870MPD2    H312824   2.937   0.846   1.135 -1.0484  1.9865 -0.0777
  870MPD2     N12825   2.495   0.818   1.062 -0.2100 -0.4560 -0.7031
  870MPD2    H512826   2.431   0.744   1.037 -1.4696 -0.2849  2.0853
  870MPD2    N112827   2.794   0.447   1.003 -0.3847 -0.4707 -0.3776
  870MPD2    H712828   2.863   0.399   1.060 -0.6022  0.5081  0.7066
  871MPD2     C12829   3.126   4.633  16.392 -0.3865 -0.3173 -0.4181
  871MPD2    C112830   3.095   4.562  16.507  0.0113 -0.1485  0.1476
  871MPD2    C212831   3.067   4.426  16.497  0.1341  0.4415  0.2288
  871MPD2    C312832   3.097   4.367  16.378  0.1804 -0.9840  0.5813
  871MPD2    C412833   3.121   4.437  16.261 -0.0843 -0.3916 -0.5399
  871MPD2    C512834   3.132   4.572  16.273  0.0629  0.4654 -0.8386
  871MPD2     H12835   3.051   4.366  16.585  1.5967 -1.6374 -0.9195
  871MPD2    H112836   3.146   4.388  16.168  1.9514  0.9857 -0.7166
  871MPD2    H212837   3.137   0.003  16.384  1.4600 -0.6007 -1.6823
  871MPD2    H312838   3.162   4.623  16.182  1.0830  0.6689 -0.3774
  871MPD2     N12839   3.075   4.231  16.379 -0.4109 -0.0790 -0.0211
  871MPD2    H512840   3.066   4.196  16.474 -0.9871 -0.5225 -0.2398
  871MPD2    N112841   3.099   4.630  16.627 -0.1014 -0.1828 -0.0299
  871MPD2    H712842   3.135   4.725  16.628  1.0415 -0.6100 -0.2841
  872MPD2     C12843   4.149   1.962  13.410 -0.0511 -0.0307  0.0999
  872MPD2    C112844   4.227   2.056  13.471 -0.2604 -0.0980 -0.0369
  872MPD2    C212845   4.165   2.157  13.546  0.7084 -0.6474  0.2961
  872MPD2    C312846   4.028   2.153  13.561 -0.1872 -0.1704 -0.0639
  872MPD2    C412847   3.956   2.068  13.485  0.6924  0.1589 -0.0095
  872MPD2    C512848   4.013   1.972  13.412 -0.0482 -0.0043 -0.2299
  872MPD2     H12849   4.231   2.228  13.595 -0.5646  0.1745  0.8185
  872MPD2    H112850   3.848   2.069  13.487  0.7261  2.4943  0.3041
  872MPD2    H212851   4.188   1.874  13.359  0.4885  1.0480 -1.3328
  872MPD2    H312852   3.953   1.897  13.361  0.5387 -2.3031  2.4394
  872MPD2     N12853   3.949   2.242  13.634 -0.2875 -0.1201 -0.0232
  872MPD2    H512854   3.854   2.209  13.644 -0.8134  1.4106  0.0639
  872MPD2    N112855   4.373   2.049  13.471 -0.5380  0.0593 -0.6989
  872MPD2    H712856   4.417   2.132  13.509  1.5384 -1.2966 -0.1696
  873MPD2     C12857   1.120   1.838   0.742 -0.2724  0.0671 -0.7688
  873MPD2    C112858   0.991   1.872   0.767  0.1622  0.0065 -0.3439
  873MPD2    C212859   0.892   1.775   0.761 -0.3447 -0.1401  0.3538
  873MPD2    C312860   0.931   1.639   0.749 -0.4750  0.9000 -0.3588
  873MPD2    C412861   1.058   1.604   0.720  0.6447  0.0694  0.0923
  873MPD2    C512862   1.153   1.705   0.716 -0.1927 -1.1377 -0.5308
  873MPD2     H12863   0.789   1.808   0.753 -0.6091 -1.1780 -0.4297
  873MPD2    H112864   1.093   1.502   0.711 -2.6275 -1.0371 -0.2856
  873MPD2    H212865   1.196   1.914   0.749  0.5170 -0.8369  0.5092
  873MPD2    H312866   1.254   1.673   0.695  0.4643  1.0078 -0.5807
  873MPD2     N12867   0.841   1.525   0.753 -0.1938 -0.1823  0.0414
  873MPD2    H512868   0.871   1.429   0.738  1.2397  0.4090 -0.8800
  873MPD2    N112869   0.967   2.003   0.809  1.0134 -0.1225  0.2046
  873MPD2    H712870   1.040   2.071   0.829  3.3373 -2.3171 -0.9403
  874MPD2     C12871   0.775   2.497  16.057  0.4796 -0.1923 -0.4029
  874MPD2    C112872   0.816   2.478  16.191  0.0535  0.1935  0.1256
  874MPD2    C212873   0.925   2.537  16.235 -0.1761 -0.0048 -0.2106
  874MPD2    C312874   0.998   2.625  16.152 -0.0031 -0.0574  0.4038
  874MPD2    C412875   0.956   2.645  16.024  1.1174  0.1760 -0.3139
  874MPD2    C512876   0.858   2.570  15.972 -0.5100 -0.1712  0.5006
  874MPD2     H12877   0.956   2.519  16.337  1.7982  0.2718 -0.7577
  874MPD2    H112878   1.014   2.706  15.955  2.4202 -0.4980  0.1755
  874MPD2    H212879   0.690   2.450  16.009  0.2508  0.3486 -0.5352
  874MPD2    H312880   0.834   2.581  15.867 -1.4399 -2.1116  0.5119
  874MPD2     N12881   1.114   2.672  16.201 -1.0913 -0.0432  0.0878
  874MPD2    H512882   1.143   2.640  16.293 -2.4986 -1.3190  0.0794
  874MPD2    N112883   0.739   2.385  16.262 -0.4567 -0.1544  0.4276
  874MPD2    H712884   0.655   2.350  16.217 -0.0519  1.9002 -1.9164
  875MPD2     C12885   1.753   0.461  14.995  0.7196 -0.0394  0.0383
  875MPD2    C112886   1.624   0.511  15.016 -0.1210 -0.2102 -0.7988
  875MPD2    C212887   1.580   0.561  15.135 -0.6844 -1.5909  0.5423
  875MPD2    C312888   1.670   0.567  15.234  0.3328  0.0610 -0.3038
  875MPD2    C412889   1.798   0.512  15.227  0.8964 -0.4378  0.4304
  875MPD2    C512890   1.837   0.456  15.106 -0.1355  0.9233 -0.4494
  875MPD2     H12891   1.479   0.599  15.147  0.2725  0.4424  2.2312
  875MPD2    H112892   1.879   0.530  15.297 -0.4113 -0.9034  2.0547
  875MPD2    H212893   1.793   0.436  14.897 -1.3042 -1.4402 -0.4313
  875MPD2    H312894   1.940   0.424  15.097 -0.5315 -0.2667 -0.6652
  875MPD2     N12895   1.638   0.620  15.365 -0.3807  0.6078 -1.1753
  875MPD2    H512896   1.717   0.606  15.427  1.1766 -0.3978 -3.3906
  875MPD2    N112897   1.529   0.529  14.909 -0.0316 -0.3267 -0.1564
  875MPD2    H712898   1.441   0.576  14.927  1.3323  2.1174  0.1190
  876MPD2     C12899   0.841   1.901  16.064 -0.3692 -0.1470  0.0560
  876MPD2    C112900   0.828   1.832  15.950 -0.6754 -0.1494  1.1511
  876MPD2    C212901   0.776   1.699  15.957 -1.2059 -0.5412 -0.5298
  876MPD2    C312902   0.754   1.635  16.078 -0.5971 -0.3797 -0.3772
  876MPD2    C412903   0.783   1.707  16.194  0.2123 -0.2012  0.0781
  876MPD2    C512904   0.820   1.841  16.182 -0.0757 -0.5570  0.4862
  876MPD2     H12905   0.751   1.649  15.864  0.0175  0.1911 -1.2578
  876MPD2    H112906   0.774   1.657  16.290 -4.0713  0.9500  0.2637
  876MPD2    H212907   0.874   2.004  16.072  3.8525 -1.3389 -1.6666
  876MPD2    H312908   0.831   1.899  16.273  0.9798 -0.2361  0.1549
  876MPD2     N12909   0.712   1.503  16.073  0.0780 -0.3036 -0.2682
  876MPD2    H512910   0.704   1.459  15.982 -2.1532 -2.2301  0.8512
  876MPD2    N112911   0.832   1.885  15.821  0.3433 -0.6229 -0.2688
  876MPD2    H712912   0.789   1.832  15.746 -0.0621 -1.1340  0.3273
  877MPD2     C12913   1.328   2.359  15.261 -0.9477 -0.8538  0.2523
  877MPD2    C112914   1.198   2.346  15.224  0.4408 -0.0577 -0.8762
  877MPD2    C212915   1.151   2.415  15.111 -0.3791  0.2994 -0.1077
  877MPD2    C312916   1.233   2.481  15.022 -0.2416  0.5114 -0.0004
  877MPD2    C412917   1.367   2.492  15.061  0.0092  0.0611  0.3578
  877MPD2    C512918   1.408   2.439  15.181 -0.5595  0.3350  1.1087
  877MPD2     H12919   1.046   2.400  15.087 -0.6422  1.1497  0.4793
  877MPD2    H112920   1.438   2.547  15.000 -0.7324 -3.0041 -3.2394
  877MPD2    H212921   1.369   2.304  15.345  1.2045 -0.1527 -0.3238
  877MPD2    H312922   1.511   2.445  15.215 -0.8030  1.4906  1.6342
  877MPD2     N12923   1.185   2.526  14.901  0.9092  0.0495  0.0893
  877MPD2    H512924   1.252   2.566  14.835 -0.4292  1.2431 -0.5691
  877MPD2    N112925   1.101   2.279  15.297  0.1125 -0.1465 -0.2980
  877MPD2    H712926   1.003   2.277  15.274  0.5014 -1.8159 -1.7531
  878MPD2     C12927   0.948   1.043  13.131 -0.1680  0.7690 -0.1988
  878MPD2    C112928   0.973   1.179  13.120 -0.4792  1.0001  0.1638
  878MPD2    C212929   0.898   1.267  13.186  0.6249 -0.8308 -0.2363
  878MPD2    C312930   0.786   1.235  13.264  0.1816 -0.5044  0.2928
  878MPD2    C412931   0.749   1.097  13.269 -1.0327  0.0825  0.4983
  878MPD2    C512932   0.839   1.004  13.208 -0.1543  0.3285 -0.3362
  878MPD2     H12933   0.930   1.370  13.195  2.3286 -1.3574 -0.2161
  878MPD2    H112934   0.672   1.054  13.332 -5.3846  3.2877 -2.6121
  878MPD2    H212935   1.013   0.969  13.086 -0.4721  0.0706  0.4855
  878MPD2    H312936   0.811   0.900  13.220  2.8337 -0.6492 -1.8614
  878MPD2     N12937   0.718   1.334  13.329  0.1117  0.0140 -0.2722
  878MPD2    H512938   0.751   1.430  13.317 -1.2596  0.0452 -3.7020
  878MPD2    N112939   1.064   1.217  13.023 -1.2332 -0.0620 -0.6598
  878MPD2    H712940   1.112   1.140  12.977 -1.9084 -1.0306  0.2284
  879MPD2     C12941   1.240   2.724  17.144  0.3152 -0.4284 -0.5533
  879MPD2    C112942   1.126   2.803  17.147 -0.0125  0.4746 -0.0319
  879MPD2    C212943   1.020   2.771  17.075  0.2483 -0.4416  0.3728
  879MPD2    C312944   1.028   2.656  16.994  0.0533  0.1298 -0.5627
  879MPD2    C412945   1.144   2.578  16.989 -0.3660 -0.3392  0.0734
  879MPD2    C512946   1.252   2.622  17.060 -0.2559 -0.2333 -0.2608
  879MPD2     H12947   0.929   2.829  17.084 -0.0581 -0.8725  0.0207
  879MPD2    H112948   1.145   2.486  16.932 -1.8049  0.2173 -0.8481
  879MPD2    H212949   1.323   2.747  17.211 -0.0389 -1.2026  0.1518
  879MPD2    H312950   1.347   2.569  17.062  0.6049  1.2745 -1.1817
  879MPD2     N12951   0.914   2.620  16.915 -0.0531 -0.1489  0.3556
  879MPD2    H512952   0.926   2.542  16.851  0.0118 -0.4458  0.7258
  879MPD2    N112953   1.127   2.910  17.234 -0.0091 -0.1992 -0.9448
  879MPD2    H712954   1.205   2.913  17.298 -1.6225 -0.6815  1.0474
  880MPD2     C12955   1.836   4.631   0.506 -0.2159 -0.0223  0.2730
  880MPD2    C112956   1.938   4.710   0.475 -0.4463 -0.1218 -0.2861
  880MPD2    C212957   2.063   4.646   0.484 -0.2016  0.3492  0.4933
  880MPD2    C312958   2.075   4.516   0.525  0.3449  0.1483  0.2083
  880MPD2    C412959   1.967   4.442   0.564 -0.0190  0.0802 -0.1869
  880MPD2    C512960   1.850   4.511   0.560  0.3142  0.5749  0.7750
  880MPD2     H12961   2.161   4.689   0.467  0.1497 -1.8563 -3.1054
  880MPD2    H112962   1.983   4.343   0.605 -0.0247 -0.0230 -0.4370
  880MPD2    H212963   1.736   4.670   0.492  0.7340  2.7057  1.1921
  880MPD2    H312964   1.765   4.459   0.601  0.0946  0.0140 -0.3819
  880MPD2     N12965   2.210   4.464   0.534  0.0943  0.2854  0.3792
  880MPD2    H512966   2.285   4.524   0.501  0.0040 -0.7064 -1.6147
  880MPD2    N112967   1.909   0.105   0.441 -0.2366 -0.1078 -1.0970
  880MPD2    H712968   1.819   0.148   0.458 -0.5134 -1.1418  0.0924
  881MPD2     C12969   1.823   0.810  17.392  0.5750 -0.3975 -0.1942
  881MPD2    C112970   1.947   0.763  17.437  0.1924 -0.2757 -0.2397
  881MPD2    C212971   1.959   0.704  17.565 -0.6239  0.4912  0.5711
  881MPD2    C312972   1.853   0.704  17.652  0.3000  0.3316 -0.1251
  881MPD2    C412973   1.734   0.762  17.610  0.7781  0.2400 -0.0819
  881MPD2    C512974   1.716   0.810  17.486 -0.0548 -0.0449 -0.0057
  881MPD2     H12975   2.056   0.664  17.592  0.8100  1.4815 -3.0962
  881MPD2    H112976   1.642   0.755  17.668  0.8404  1.6904  0.1777
  881MPD2    H212977   1.800   0.852  17.295 -0.0428 -2.1113 -0.7795
  881MPD2    H312978   1.626   0.856  17.446 -0.1152 -1.0788 -1.0677
  881MPD2     N12979   1.849   0.630   0.024  0.1308 -0.0146 -0.1840
  881MPD2    H512980   1.754   0.610   0.052  0.5086 -0.2482  0.9439
  881MPD2    N112981   2.053   0.752  17.344 -0.1360 -0.0200  0.6933
  881MPD2    H712982   2.132   0.692  17.368 -0.9509 -0.6441  1.8372
  882MPD2     C12983   0.470   2.556  14.428 -0.1900  0.3628  0.5002
  882MPD2    C112984   0.552   2.450  14.462 -0.5631 -0.0348  0.1033
  882MPD2    C212985   0.520   2.315  14.440 -0.2029  0.5125  0.0214
  882MPD2    C312986   0.406   2.287  14.362 -0.0080 -0.6413  0.3184
  882MPD2    C412987   0.326   2.391  14.321 -0.2633  0.2226 -0.6269
  882MPD2    C512988   0.354   2.522  14.359  0.2391  0.1716  0.0054
  882MPD2     H12989   0.589   2.234  14.460  0.4391  0.2329 -3.3937
  882MPD2    H112990   0.243   2.380  14.252 -1.0156 -0.9413  0.4567
  882MPD2    H212991   0.489   2.662  14.441  0.7929 -0.0180  2.2272
  882MPD2    H312992   0.299   2.609  14.327  0.4005  0.7127  1.1834
  882MPD2     N12993   0.375   2.161  14.305  0.2202 -0.4986  0.1381
  882MPD2    H512994   0.302   2.157  14.234  0.2096  0.7458  0.0616
  882MPD2    N112995   0.684   2.481  14.515 -0.2976  0.0009 -0.4182
  882MPD2    H712996   0.759   2.415  14.502 -0.2253  0.1507 -0.7521
  883MPD2     C12997   2.357   2.250  15.678  0.1747 -0.3624 -0.0539
  883MPD2    C112998   2.481   2.258  15.616  0.2642  0.5120 -0.2893
  883MPD2    C212999   2.576   2.333  15.678  0.4226  0.3200  0.4947
  883MPD2    C313000   2.560   2.397  15.799  0.4586  0.4645 -0.0585
  883MPD2    C413001   2.435   2.381  15.862  1.1651 -0.5984 -0.7887
  883MPD2    C513002   2.334   2.311  15.803 -0.4136  0.1349 -0.6021
  883MPD2     H13003   2.676   2.334  15.635  0.3536 -0.3844  0.3118
  883MPD2    H113004   2.418   2.419  15.962  3.2905 -2.3785  0.2469
  883MPD2    H213005   2.278   2.192  15.633  0.3867 -0.3548 -0.4360
  883MPD2    H313006   2.236   2.312  15.850 -0.3077 -1.5673 -0.3704
  883MPD2     N13007   2.674   2.460  15.853  0.3181 -0.1708  0.6278
  883MPD2    H513008   2.755   2.459  15.792 -0.6487  0.4728 -0.6583
  883MPD2    N113009   2.509   2.191  15.495 -0.0466 -0.1530 -0.4855
  883MPD2    H713010   2.606   2.194  15.466  0.1117 -2.2785 -0.1180
  884MPD2     C13011   0.413   2.873  14.680 -0.4398  0.3748 -0.1823
  884MPD2    C113012   0.436   2.938  14.800 -0.2385 -0.6422  0.8343
  884MPD2    C213013   0.347   2.911  14.906  0.4648  0.9097 -0.0142
  884MPD2    C313014   0.233   2.833  14.892  0.2427  0.1231  0.0346
  884MPD2    C413015   0.219   2.764  14.777  0.0801  0.0690 -0.1913
  884MPD2    C513016   0.313   2.781  14.676 -0.0778 -0.0580  0.0562
  884MPD2     H13017   0.352   2.967  14.999 -0.2019  2.7864 -1.1198
  884MPD2    H113018   0.132   2.701  14.767 -0.0112 -0.1640  2.0064
  884MPD2    H213019   0.474   2.891  14.593 -1.7736 -2.0178 -1.6260
  884MPD2    H313020   0.300   2.741  14.577  0.0596 -3.5277  1.4486
  884MPD2     N13021   0.127   2.823  14.982 -0.0859 -0.0301 -0.0044
  884MPD2    H513022   0.041   2.792  14.938  0.2330 -0.7940 -0.1048
  884MPD2    N113023   0.548   3.029  14.825  0.0503 -0.2208  0.0553
  884MPD2    H713024   0.564   3.066  14.917  2.9171 -0.8844 -0.1812
  885MPD2     C13025   2.564   3.962   0.042 -0.3969 -0.9517 -1.0912
  885MPD2    C113026   2.561   3.825   0.070 -0.7846 -0.1533 -0.3554
  885MPD2    C213027   2.525   3.739  17.708 -0.5745  0.4194  0.6541
  885MPD2    C313028   2.503   3.793  17.578 -0.1475  0.4367 -0.4027
  885MPD2    C413029   2.522   3.926  17.564  0.2655 -0.6770 -0.4084
  885MPD2    C513030   2.550   4.012  17.663  0.2514 -0.0694  0.0576
  885MPD2     H13031   2.518   3.631  17.711  0.9655  0.2669 -1.2742
  885MPD2    H113032   2.511   3.975  17.468 -0.2250 -0.9213 -0.4754
  885MPD2    H213033   2.586   4.038   0.117  0.5311 -1.5465 -0.7555
  885MPD2    H313034   2.554   4.120  17.647 -0.5255 -0.0421  0.0197
  885MPD2     N13035   2.483   3.702  17.471 -0.9194  0.1070  0.0107
  885MPD2    H513036   2.452   3.608  17.493  2.0723 -0.9252 -0.2320
  885MPD2    N113037   2.598   3.781   0.199 -0.1262 -0.1916 -0.5312
  885MPD2    H713038   2.613   3.856   0.265 -0.7293 -1.5050  1.0874
  886MPD2     C13039   4.390   1.982  15.360 -0.0455 -0.2341  0.3153
  886MPD2    C113040   4.404   1.849  15.330 -0.1615  0.1152  0.5133
  886MPD2    C213041   4.347   1.803  15.214 -0.0391  0.0200 -0.0522
  886MPD2    C313042   4.288   1.892  15.117 -0.3606 -0.6466  0.4170
  886MPD2    C413043   4.270   2.024  15.157 -0.1846  0.8309  0.0662
  886MPD2    C513044   4.314   2.069  15.282  0.1345 -0.5680 -0.6559
  886MPD2     H13045   4.350   1.696  15.197  0.8788  0.2475 -1.2515
  886MPD2    H113046   4.215   2.091  15.092  1.4427  0.1666 -1.9961
  886MPD2    H213047   4.448   2.019  15.443  0.5544 -0.3239 -0.0655
  886MPD2    H313048   4.306   2.174  15.307  0.1893 -0.4093 -1.2962
  886MPD2     N13049   4.275   1.848  14.983  1.0209  0.4652  0.2161
  886MPD2    H513050   4.325   1.764  14.954  3.1611  1.9952 -0.5437
  886MPD2    N113051   4.477   1.762  15.413 -0.0298  0.2362 -0.4096
  886MPD2    H713052   4.523   1.805  15.493  0.6460  0.4139 -0.8962
  887MPD2     C13053   0.360   1.773  15.810 -0.1062 -0.0518  0.0545
  887MPD2    C113054   0.264   1.836  15.733 -0.9584  0.4295 -0.2108
  887MPD2    C213055   0.276   1.971  15.714 -0.0977  0.0644 -0.4977
  887MPD2    C313056   0.386   2.041  15.756 -0.4430  0.2244 -0.1905
  887MPD2    C413057   0.479   1.981  15.841 -0.2665  0.6329  0.4194
  887MPD2    C513058   0.463   1.849  15.867 -0.3205 -0.0213 -0.8257
  887MPD2     H13059   0.202   2.021  15.652 -0.9870 -0.4776  0.1212
  887MPD2    H113060   0.569   2.032  15.875  0.5623 -0.8811  0.5146
  887MPD2    H213061   0.360   1.666  15.823 -1.5024 -0.0363  0.1689
  887MPD2    H313062   0.543   1.797  15.918 -0.9190  0.9173  1.1021
  887MPD2     N13063   0.390   2.175  15.713  0.8017 -0.0838 -0.4649
  887MPD2    H513064   0.309   2.208  15.663  1.0655  1.2087 -0.0410
  887MPD2    N113065   0.144   1.773  15.697  0.4685 -0.0106 -0.1425
  887MPD2    H713066   0.069   1.817  15.644 -0.3832 -2.1264 -0.7165
  888MPD2     C13067   1.797   1.685  15.001  0.5884 -0.3500 -0.5035
  888MPD2    C113068   1.796   1.723  15.137 -0.0572  0.3374  0.5470
  888MPD2    C213069   1.889   1.811  15.182  0.1052 -0.1721  0.4479
  888MPD2    C313070   1.984   1.867  15.095  0.5569  0.0113  0.7995
  888MPD2    C413071   1.987   1.823  14.961  0.1807 -0.1945 -0.3247
  888MPD2    C513072   1.898   1.723  14.916  0.0127  0.8966  0.4442
  888MPD2     H13073   1.875   1.841  15.286  0.3035  1.1546  0.0855
  888MPD2    H113074   2.063   1.857  14.891 -1.9471  0.4214 -2.3345
  888MPD2    H213075   1.750   1.596  14.962 -1.0700  0.0319  0.6404
  888MPD2    H313076   1.892   1.684  14.815 -0.9901 -0.6186  1.0928
  888MPD2     N13077   2.060   1.967  15.141 -0.2564  0.4450 -0.5426
  888MPD2    H513078   2.037   2.002  15.234 -0.2169 -1.2372  0.0971
  888MPD2    N113079   1.701   1.666  15.225 -0.5876  0.1214 -0.2759
  888MPD2    H713080   1.719   1.687  15.322  0.7087  1.3704 -0.7799
  889MPD2     C13081   1.403   1.412  12.541 -0.7556  0.4747 -0.2035
  889MPD2    C113082   1.468   1.425  12.665 -0.1289  0.4006 -0.1297
  889MPD2    C213083   1.460   1.547  12.726 -0.2535 -0.6236  0.3702
  889MPD2    C313084   1.416   1.658  12.662  0.0849  0.3402  0.9808
  889MPD2    C413085   1.356   1.643  12.537  0.0834 -0.4631 -0.3772
  889MPD2    C513086   1.351   1.517  12.477 -0.3292 -0.2173 -0.6334
  889MPD2     H13087   1.497   1.568  12.826  1.4173  0.2677 -0.4323
  889MPD2    H113088   1.301   1.723  12.489 -0.0590 -1.2587 -1.5394
  889MPD2    H213089   1.383   1.315  12.497  0.4883  0.7208 -1.3209
  889MPD2    H313090   1.289   1.505  12.389 -1.0580 -1.2979  0.0220
  889MPD2     N13091   1.396   1.776  12.741 -0.6955  0.0893  0.2570
  889MPD2    H513092   1.439   1.780  12.833 -0.2988 -2.0596  0.1654
  889MPD2    N113093   1.496   1.312  12.741  0.0937 -0.3255  0.4522
  889MPD2    H713094   1.486   1.321  12.841 -0.6105 -0.3925  0.3932
  890MPD2     C13095   0.884   3.049  14.408 -0.3117 -0.0423  0.0739
  890MPD2    C113096   0.990   3.131  14.448 -0.2525 -0.2247  0.0041
  890MPD2    C213097   1.058   3.104  14.560 -0.3437  0.0204 -0.0419
  890MPD2    C313098   0.998   3.014  14.650  1.6153 -0.6206 -0.4956
  890MPD2    C413099   0.883   2.948  14.623 -0.1115 -0.0576 -0.1274
  890MPD2    C513100   0.835   2.964  14.496 -0.1236 -0.4796 -0.0974
  890MPD2     H13101   1.142   3.161  14.598 -1.3201  0.2042  1.8174
  890MPD2    H113102   0.835   2.889  14.700  0.0060  0.7110  0.5376
  890MPD2    H213103   0.837   3.067  14.312 -1.2395  2.4834  1.0180
  890MPD2    H313104   0.753   2.897  14.476 -0.2574 -0.7702  1.4393
  890MPD2     N13105   1.071   3.002  14.769 -0.0454 -0.2666 -0.1207
  890MPD2    H513106   1.162   3.047  14.771 -0.4925  0.3667  3.9742
  890MPD2    N113107   1.014   3.239  14.360 -0.4411  0.1789 -0.1353
  890MPD2    H713108   0.945   3.259  14.288 -4.0156 -1.1195  2.9493
  891MPD2     C13109   3.421   1.812  16.488  0.4043 -0.5833  0.3187
  891MPD2    C113110   3.388   1.909  16.577 -0.2027 -0.0878 -0.0279
  891MPD2    C213111   3.477   1.927  16.685 -0.1252  0.5811  0.6460
  891MPD2    C313112   3.590   1.857  16.703  0.2633  0.7782 -0.2192
  891MPD2    C413113   3.618   1.765  16.610 -0.3503 -0.0854 -0.2131
  891MPD2    C513114   3.539   1.741  16.502  0.1343 -0.5653 -0.5579
  891MPD2     H13115   3.461   2.009  16.753 -1.5322  0.4158  0.5026
  891MPD2    H113116   3.710   1.707  16.607 -0.5075 -0.2600 -1.4840
  891MPD2    H213117   3.375   1.787  16.393 -0.7636  1.4091  0.3794
  891MPD2    H313118   3.551   1.662  16.429 -0.2438 -1.4889  0.3723
  891MPD2     N13119   3.668   1.885  16.814  0.2660  0.1783  0.5496
  891MPD2    H513120   3.641   1.972  16.859 -0.5212  1.0606 -1.6333
  891MPD2    N113121   3.265   1.980  16.559 -0.4052 -0.3728  0.2013
  891MPD2    H713122   3.219   1.948  16.475  0.8812  0.9633 -1.0287
  892MPD2     C13123   4.663   2.010  15.035  0.2946 -0.7986  0.3904
  892MPD2    C113124   4.618   2.067  14.916 -0.0551  0.3240 -0.0672
  892MPD2    C213125   4.656   2.002  14.800 -0.1375  0.4112 -0.9856
  892MPD2    C313126   0.013   1.904  14.800  0.0520  1.0170 -0.7052
  892MPD2    C413127   0.066   1.859  14.920 -0.4516 -0.6092  0.0034
  892MPD2    C513128   0.014   1.905  15.039 -0.5893 -0.7340  0.5165
  892MPD2     H13129   4.622   2.037  14.704  0.7959  1.5482 -0.9016
  892MPD2    H113130   0.138   1.778  14.922  1.4951  1.1497  0.9531
  892MPD2    H213131   4.622   2.042  15.130  0.2715 -2.8079  1.0740
  892MPD2    H313132   0.034   1.864  15.137  2.1981  4.6449  2.1952
  892MPD2     N13133   0.064   1.850  14.679 -0.8544 -0.8147 -1.0210
  892MPD2    H513134   0.151   1.797  14.690  0.0454  1.0454  0.8095
  892MPD2    N113135   4.555   2.192  14.898  0.2960 -0.7134 -0.0290
  892MPD2    H713136   4.532   2.217  14.803 -0.7264 -1.5275  0.0024
  893MPD2     C13137   1.603   1.720   1.550  0.2869 -0.3390  0.6319
  893MPD2    C113138   1.567   1.680   1.423  0.3089 -0.0210 -0.0604
  893MPD2    C213139   1.435   1.650   1.404  0.3756 -0.3053  0.4899
  893MPD2    C313140   1.332   1.654   1.501 -0.0069  0.7245  0.8317
  893MPD2    C413141   1.366   1.705   1.620 -0.5855  0.3090 -0.0787
  893MPD2    C513142   1.503   1.726   1.647 -0.7797  1.1563 -0.7235
  893MPD2     H13143   1.405   1.617   1.305  0.9349 -0.4157  0.3555
  893MPD2    H113144   1.294   1.738   1.693  0.1618 -1.5736  1.5182
  893MPD2    H213145   1.699   1.755   1.585  1.2673 -0.3192 -2.0964
  893MPD2    H313146   1.539   1.757   1.744  0.2652 -2.0581 -0.0958
  893MPD2     N13147   1.197   1.622   1.470 -0.7441 -0.1864 -0.1659
  893MPD2    H513148   1.126   1.663   1.529 -1.5452 -0.1303 -1.1805
  893MPD2    N113149   1.669   1.685   1.330  0.1097  0.3282  0.1053
  893MPD2    H713150   1.762   1.710   1.363  0.8177 -1.3447 -0.6166
  894MPD2     C13151   4.477   3.230   1.138  0.2389 -0.2408 -0.0283
  894MPD2    C113152   4.379   3.325   1.121  0.0601 -0.1629  0.0509
  894MPD2    C213153   4.366   3.386   0.997 -0.4153 -0.6697 -0.8629
  894MPD2    C313154   4.466   3.375   0.901 -0.2542 -0.2032  0.2673
  894MPD2    C413155   4.576   3.295   0.928  0.1380 -0.8812  0.3174
  894MPD2    C513156   4.573   3.213   1.036  0.3869  0.5384  0.2236
  894MPD2     H13157   4.281   3.452   0.987  1.0794  1.1012 -1.6567
  894MPD2    H113158   4.667   3.289   0.868  0.4838 -1.2099  0.8781
  894MPD2    H213159   4.482   3.172   1.229 -0.6439  2.1667  1.5566
  894MPD2    H313160   4.651   3.138   1.040 -1.1091 -1.1178 -1.1699
  894MPD2     N13161   4.460   3.467   0.795  0.1708 -0.1055 -0.0757
  894MPD2    H513162   4.373   3.512   0.772 -0.0402  0.5633  2.0249
  894MPD2    N113163   4.282   3.352   1.220 -0.8027 -0.8347  0.2535
  894MPD2    H713164   4.210   3.422   1.200  0.2011 -0.0562 -0.5958
  895MPD2     C13165   4.148   1.714  13.689  1.2571  0.3894 -0.0031
  895MPD2    C113166   4.053   1.624  13.639  0.0177 -0.1628  0.2497
  895MPD2    C213167   4.097   1.504  13.593  0.6968 -0.0297 -0.8111
  895MPD2    C313168   4.231   1.479  13.567  0.2873 -0.4559 -0.8016
  895MPD2    C413169   4.323   1.580  13.592  0.8486  0.7720 -0.2804
  895MPD2    C513170   4.283   1.689  13.661 -1.0337 -0.0970  0.6610
  895MPD2     H13171   4.028   1.435  13.546 -1.0321  1.7297 -0.8604
  895MPD2    H113172   4.429   1.572  13.572  0.4804 -0.4585 -1.7542
  895MPD2    H213173   4.130   1.814  13.727 -3.0579 -1.2124  2.1265
  895MPD2    H313174   4.352   1.762  13.702  0.3713  2.0034 -5.3194
  895MPD2     N13175   4.258   1.366  13.486 -0.0239 -0.1607  0.9770
  895MPD2    H513176   4.180   1.304  13.462  1.1395 -0.7868 -1.1349
  895MPD2    N113177   3.916   1.651  13.634  0.6618 -1.0558  0.2340
  895MPD2    H713178   3.852   1.584  13.591  0.3480 -0.4123 -0.2921
  896MPD2     C13179   1.626   4.666   1.444  0.3038  1.0890  0.0358
  896MPD2    C113180   1.570   4.683   1.323  0.2264  0.8239  0.2045
  896MPD2    C213181   1.463   4.605   1.277  0.1819 -0.0967 -0.4641
  896MPD2    C313182   1.435   4.495   1.359  0.6345 -0.0124 -1.0542
  896MPD2    C413183   1.496   4.469   1.484  0.5707 -0.0435  0.2382
  896MPD2    C513184   1.589   4.562   1.530 -0.8007  0.3978 -0.1177
  896MPD2     H13185   1.420   4.608   1.177 -2.7390  0.2578  0.8205
  896MPD2    H113186   1.463   4.395   1.556  2.5162 -0.4015  0.7624
  896MPD2    H213187   1.698   4.737   1.483  1.6247 -0.0821 -0.2795
  896MPD2    H313188   1.636   4.543   1.625 -0.7738 -0.6636 -0.3380
  896MPD2     N13189   1.346   4.400   1.309  0.0112 -0.0151 -0.3295
  896MPD2    H513190   1.285   4.421   1.230 -1.0621 -0.0831  0.4794
  896MPD2    N113191   1.625   0.039   1.234  0.7892  0.0688  0.2680
  896MPD2    H713192   1.718   0.077   1.252  1.1273 -0.1612 -0.9708
  897MPD2     C13193   2.850   1.136  10.492  0.7613  0.5531 -0.0367
  897MPD2    C113194   2.809   1.260  10.541  0.2044 -0.5944 -0.7044
  897MPD2    C213195   2.719   1.262  10.645  0.1837  0.6967 -0.3812
  897MPD2    C313196   2.670   1.150  10.708  0.3157 -0.3713  0.1755
  897MPD2    C413197   2.729   1.030  10.669 -0.5230  0.6780  0.3782
  897MPD2    C513198   2.812   1.020  10.559 -0.0373  0.5492  0.5442
  897MPD2     H13199   2.663   1.351  10.673 -0.2259  0.4045 -0.2706
  897MPD2    H113200   2.693   0.936  10.708  0.6135  0.2721  0.4482
  897MPD2    H213201   2.910   1.130  10.401 -0.3130 -0.7469 -0.6580
  897MPD2    H313202   2.842   0.922  10.524 -0.1568  0.5486  0.4424
  897MPD2     N13203   2.577   1.158  10.813 -0.2589  0.1923 -0.2107
  897MPD2    H513204   2.536   1.250  10.824 -0.5803  0.0401 -0.1250
  897MPD2    N113205   2.838   1.367  10.460 -0.1470  0.5158 -0.4752
  897MPD2    H713206   2.905   1.356  10.385 -0.4601  0.0213 -0.6871
  898MPD2     C13207   4.596   2.150  17.426  0.3709 -0.7339  0.0540
  898MPD2    C113208   4.577   2.165  17.566  0.3557  0.5299  0.4178
  898MPD2    C213209   4.561   2.287  17.623 -0.1979  0.3726 -0.2282
  898MPD2    C313210   4.561   2.401  17.539 -0.2104  0.2994 -0.5195
  898MPD2    C413211   4.568   2.382  17.402 -0.6857 -0.2599 -1.0957
  898MPD2    C513212   4.594   2.260  17.342 -0.4114  0.0950  0.4479
  898MPD2     H13213   4.549   2.294  17.731 -2.3486  1.3629 -0.5415
  898MPD2    H113214   4.564   2.463  17.331  0.8147  0.8678  0.1043
  898MPD2    H213215   4.616   2.050  17.390  1.0224 -0.6834  0.2799
  898MPD2    H313216   4.611   2.247  17.236 -0.5707 -1.0066  0.5563
  898MPD2     N13217   4.547   2.522  17.606  0.2610  0.9152 -0.3380
  898MPD2    H513218   4.551   2.526  17.707 -1.2519  1.2020 -0.2896
  898MPD2    N113219   4.573   2.052  17.645  0.2582  0.0068 -0.0414
  898MPD2    H713220   4.567   2.060  17.746 -1.8315 -0.6556 -0.1113
  899MPD2     C13221   0.764   2.836  17.417 -0.0931  0.4439 -0.3029
  899MPD2    C113222   0.634   2.876  17.409 -0.2939 -1.0659  0.4015
  899MPD2    C213223   0.563   2.928  17.518 -0.0461 -0.6900  0.8384
  899MPD2    C313224   0.625   2.934  17.644  0.5351 -0.1765 -0.6395
  899MPD2    C413225   0.756   2.897  17.648 -0.6946  0.1786 -0.1142
  899MPD2    C513226   0.822   2.850  17.540  0.6940 -0.0733 -0.0266
  899MPD2     H13227   0.459   2.961  17.521 -0.0186 -0.6216  1.0485
  899MPD2    H113228   0.807   2.890  17.743  2.2382  1.6704 -1.5865
  899MPD2    H213229   0.822   2.805  17.331  2.3634 -0.2493  1.5748
  899MPD2    H313230   0.925   2.821  17.556  0.1180 -2.3927 -0.5014
  899MPD2     N13231   0.568   2.992   0.005 -0.5657  0.0705  0.2078
  899MPD2    H513232   0.633   3.031   0.072 -0.2467 -2.0117  1.0911
  899MPD2    N113233   0.564   2.845  17.289 -0.2253 -0.1776 -0.3518
  899MPD2    H713234   0.624   2.813  17.214 -0.4213  0.6731 -0.8680
  900MPD2     C13235   0.433   3.921  12.540 -0.1173 -0.3576 -0.2728
  900MPD2    C113236   0.331   3.851  12.604  0.4604  0.0902  0.4089
  900MPD2    C213237   0.201   3.860  12.558 -0.2792 -0.9081  0.5383
  900MPD2    C313238   0.173   3.955  12.464  0.4935 -0.1142  0.0222
  900MPD2    C413239   0.274   4.030  12.397 -0.4134  1.2967  0.4715
  900MPD2    C513240   0.401   4.017  12.446  0.0551 -0.5011 -0.7544
  900MPD2     H13241   0.115   3.815  12.606 -0.3713 -0.0509  1.1649
  900MPD2    H113242   0.260   4.097  12.313 -2.4032  0.9642  0.5324
  900MPD2    H213243   0.535   3.916  12.576  0.7269 -1.4413 -2.8541
  900MPD2    H313244   0.480   4.074  12.398 -1.2994  0.6136 -1.6506
  900MPD2     N13245   0.041   3.973  12.426 -0.5999  0.0331 -0.2897
  900MPD2    H513246   4.710   3.909  12.465 -1.2872  0.7753 -0.2816
  900MPD2    N113247   0.365   3.762  12.711 -0.6343  0.0934 -0.5543
  900MPD2    H713248   0.460   3.774  12.745 -0.6575 -1.6353  0.0850
  901MPD2     C13249   0.426   2.734  13.015 -0.5694 -0.5570 -0.0029
  901MPD2    C113250   0.549   2.787  13.002 -0.4933 -0.0421  0.2463
  901MPD2    C213251   0.555   2.928  13.000 -0.1825  0.6750  0.2052
  901MPD2    C313252   0.439   3.005  12.981 -0.1965 -0.1788  0.7946
  901MPD2    C413253   0.316   2.949  12.993  0.2095 -0.9647  1.3526
  901MPD2    C513254   0.318   2.814  13.022  0.2022 -0.4063 -0.1367
  901MPD2     H13255   0.647   2.984  13.001  0.3455 -0.1834  0.2235
  901MPD2    H113256   0.221   3.001  12.995  0.0962 -1.0167 -2.1221
  901MPD2    H213257   0.409   2.626  13.017 -0.6958 -0.5174  1.5232
  901MPD2    H313258   0.222   2.764  13.031  0.7255 -1.4131 -0.1394
  901MPD2     N13259   0.460   3.140  12.962 -0.0227 -0.4353 -0.4566
  901MPD2    H513260   0.557   3.172  12.956 -0.0197 -0.0342  1.8882
  901MPD2    N113261   0.663   2.702  12.981  0.4040  0.3995 -0.5757
  901MPD2    H713262   0.649   2.603  12.996  3.1996 -0.2519 -2.1577
  902MPD2     C13263   0.052   1.834  12.401 -0.2747 -0.0981 -0.3927
  902MPD2    C113264   4.646   1.812  12.416 -0.2924  0.1092 -0.5015
  902MPD2    C213265   4.589   1.686  12.428  0.2307  0.2790 -0.3034
  902MPD2    C313266   4.670   1.577  12.409  0.8705  0.0068  0.2994
  902MPD2    C413267   0.068   1.598  12.383  0.4372  0.3862 -0.7144
  902MPD2    C513268   0.129   1.721  12.377  0.3735  0.3150  0.0311
  902MPD2     H13269   4.483   1.678  12.451  0.0934 -0.9051 -1.3438
  902MPD2    H113270   0.134   1.512  12.384  0.6394  0.5550  0.4670
  902MPD2    H213271   0.089   1.936  12.389 -2.1450  0.6868  0.4824
  902MPD2    H313272   0.236   1.734  12.362  0.3988 -0.2496 -0.2511
  902MPD2     N13273   4.619   1.447  12.412 -0.6659  0.2918  0.6836
  902MPD2    H513274   4.677   1.369  12.383 -0.7811  0.5637 -0.3040
  902MPD2    N113275   4.570   1.926  12.437  0.1306  0.3172 -0.0763
  902MPD2    H713276   4.621   2.013  12.426  2.6692 -0.9405  1.6831
  903MPD2     C13277   3.926   0.846  12.477  0.1331  0.6393 -0.2163
  903MPD2    C113278   3.967   0.973  12.464  0.2705 -0.1876 -0.6764
  903MPD2    C213279   3.866   1.066  12.462  0.3736 -0.1235 -0.0695
  903MPD2    C313280   3.737   1.031  12.438 -0.0107  0.3220  0.3345
  903MPD2    C413281   3.697   0.898  12.450 -0.4461  0.7534  0.2703
  903MPD2    C513282   3.793   0.809  12.477 -0.2689  0.4334  0.8884
  903MPD2     H13283   3.888   1.172  12.466 -0.4900  0.1149 -1.7643
  903MPD2    H113284   3.594   0.865  12.461  0.5660 -1.9494  1.4666
  903MPD2    H213285   3.996   0.764  12.487  0.8080  1.4259  1.5634
  903MPD2    H313286   3.761   0.706  12.487 -0.7432  0.5484  0.5110
  903MPD2     N13287   3.639   1.126  12.400 -0.1094  0.4537  0.0552
  903MPD2    H513288   3.668   1.223  12.407 -0.8826  0.8251 -1.7652
  903MPD2    N113289   4.104   1.000  12.469 -0.1228  0.2159  1.4853
  903MPD2    H713290   4.149   0.910  12.457  0.9070  0.7936  1.0669
  904MPD2     C13291   3.366   0.954  13.804  0.5041  0.0030 -0.0931
  904MPD2    C113292   3.449   1.021  13.721  0.6357  0.1403 -0.1497
  904MPD2    C213293   3.586   1.001  13.743 -0.5602 -0.8026  0.1758
  904MPD2    C313294   3.634   0.902  13.828  0.6009 -0.5713  0.0425
  904MPD2    C413295   3.543   0.817  13.892  0.4522  0.2585  0.3174
  904MPD2    C513296   3.413   0.851  13.883  0.2533 -0.1750 -0.4130
  904MPD2     H13297   3.658   1.047  13.677  0.5006 -1.2285  1.0481
  904MPD2    H113298   3.573   0.742  13.964 -0.5592 -0.0883  0.3760
  904MPD2    H213299   3.262   0.979  13.793  0.3284 -0.4512  0.5134
  904MPD2    H313300   3.329   0.803  13.932  0.2749  1.0084  0.7795
  904MPD2     N13301   3.776   0.898  13.843  0.0733 -0.0167 -0.7877
  904MPD2    H513302   3.837   0.960  13.790  0.6000  0.4711  0.4001
  904MPD2    N113303   3.412   1.115  13.626  0.4279 -0.0806 -0.4669
  904MPD2    H713304   3.492   1.143  13.570  1.5699 -0.6042  0.8773
  905MPD2     C13305   3.575   1.073  13.030  0.1367 -0.1333  0.7448
  905MPD2    C113306   3.616   1.183  13.106  0.0365 -1.2875 -0.2730
  905MPD2    C213307   3.750   1.217  13.112 -0.1764 -0.0583 -0.1502
  905MPD2    C313308   3.844   1.142  13.051 -0.7554 -0.2784  0.8329
  905MPD2    C413309   3.806   1.035  12.975  1.0809 -0.6165 -0.0115
  905MPD2    C513310   3.671   1.001  12.960 -0.1981 -0.2240 -0.0897
  905MPD2     H13311   3.776   1.301  13.175  0.7184 -0.9335  0.6510
  905MPD2    H113312   3.874   0.972  12.919 -1.2864 -0.7834 -2.7096
  905MPD2    H213313   3.474   1.035  13.024  0.3250 -0.7615  1.5805
  905MPD2    H313314   3.646   0.915  12.900 -2.7246  1.4512 -1.4296
  905MPD2     N13315   3.979   1.144  13.088 -0.8624  0.0551 -0.5026
  905MPD2    H513316   4.041   1.072  13.052 -1.8722 -2.1132  2.1459
  905MPD2    N113317   3.513   1.257  13.177  0.1169  0.5394 -0.4253
  905MPD2    H713318   3.418   1.225  13.162  0.9125 -1.3894 -1.2354
  906MPD2     C13319   1.152   1.795  10.713 -0.2634  0.8709  0.8484
  906MPD2    C113320   1.270   1.731  10.724 -0.6349  0.0876 -0.0798
  906MPD2    C213321   1.273   1.616  10.799 -0.3130 -0.3910  0.6459
  906MPD2    C313322   1.162   1.549  10.849 -0.9150  0.7065  0.1689
  906MPD2    C413323   1.040   1.610  10.819  0.4403  0.0639  1.1465
  906MPD2    C513324   1.038   1.725  10.746 -0.4465 -0.0644 -0.1451
  906MPD2     H13325   1.376   1.582  10.812  0.0646  1.1290  1.6014
  906MPD2    H113326   0.946   1.561  10.844 -0.3661  0.8418 -0.3334
  906MPD2    H213327   1.148   1.896  10.674 -0.0035  1.1937  1.6482
  906MPD2    H313328   0.939   1.768  10.738 -0.0991  1.3266  2.8811
  906MPD2     N13329   1.167   1.422  10.902  0.3426  0.4709  0.1261
  906MPD2    H513330   1.078   1.378  10.923  1.4231 -1.2042  1.2709
  906MPD2    N113331   1.380   1.768  10.641 -0.1872  0.4445 -0.2331
  906MPD2    H713332   1.470   1.731  10.670 -0.3744  0.0572 -0.1302
  907MPD2     C13333   4.469   1.048  15.221 -0.8397 -0.9020  0.3114
  907MPD2    C113334   4.415   0.953  15.310 -0.2882 -0.7284 -0.3974
  907MPD2    C213335   4.449   0.964  15.450 -0.6644  0.5864  0.3277
  907MPD2    C313336   4.539   1.069  15.499 -1.0494 -0.1952 -0.2650
  907MPD2    C413337   4.584   1.155  15.405  0.8107  0.1540  0.1412
  907MPD2    C513338   4.546   1.149  15.276  0.1065  0.0208  0.2885
  907MPD2     H13339   4.416   0.894  15.527 -1.7280  0.3036 -0.3847
  907MPD2    H113340   4.653   1.234  15.432 -1.3170  2.0198  0.1191
  907MPD2    H213341   4.439   1.056  15.117  0.1735  0.1101  0.0976
  907MPD2    H313342   4.587   1.223  15.208 -1.4159  1.0076  0.4506
  907MPD2     N13343   4.581   1.074  15.636 -0.4340 -0.1123  0.0782
  907MPD2    H513344   4.534   1.013  15.703 -3.0624  0.1757 -1.4962
  907MPD2    N113345   4.331   0.848  15.266 -0.1055  0.3503  0.0567
  907MPD2    H713346   4.295   0.785  15.338  0.2515  1.0472  0.8422
  908MPD2     C13347   3.045   1.178   9.680 -0.4661  0.3374  0.1566
  908MPD2    C113348   2.960   1.130   9.775  0.0952  0.0812 -0.4247
  908MPD2    C213349   2.921   1.205   9.880 -0.0647  0.4914  0.4762
  908MPD2    C313350   2.954   1.340   9.891 -0.6934  1.2118  0.1321
  908MPD2    C413351   3.045   1.391   9.794 -0.0639 -0.2730 -0.3171
  908MPD2    C513352   3.090   1.311   9.685  0.5717  1.0825  0.5299
  908MPD2     H13353   2.847   1.160   9.945 -0.3496 -0.4872 -0.5188
  908MPD2    H113354   3.079   1.493   9.799  0.6189 -0.5113 -0.0634
  908MPD2    H213355   3.083   1.125   9.593  0.2765 -0.4334  0.9538
  908MPD2    H313356   3.163   1.347   9.614  1.1849  0.9364  1.0883
  908MPD2     N13357   2.896   1.423   9.992 -0.7568 -0.2097  0.3386
  908MPD2    H513358   2.842   1.373  10.062 -0.5866 -1.4876 -0.4344
  908MPD2    N113359   2.921   0.992   9.768  0.1958  0.2001  0.2685
  908MPD2    H713360   2.951   0.934   9.691  1.0686 -0.6905  1.2777
  909MPD2     C13361   2.639   3.707  11.511  0.0632  0.2640 -0.0451
  909MPD2    C113362   2.694   3.830  11.553 -0.4657  0.5212  0.9830
  909MPD2    C213363   2.633   3.907  11.651  1.0194 -0.0229  0.2882
  909MPD2    C313364   2.535   3.845  11.730 -0.5563 -0.7431 -0.3186
  909MPD2    C413365   2.494   3.715  11.705  0.1791 -0.2629 -0.6495
  909MPD2    C513366   2.546   3.647  11.593  0.5825 -0.3043  0.1092
  909MPD2     H13367   2.681   4.001  11.675 -1.8589  1.2990  0.8277
  909MPD2    H113368   2.411   3.664  11.752  0.9360 -0.7975  0.0941
  909MPD2    H213369   2.680   3.640  11.435 -0.5019 -2.6801  2.2330
  909MPD2    H313370   2.515   3.545  11.577 -0.0927 -0.2443  1.0064
  909MPD2     N13371   2.475   3.919  11.833 -0.7274  0.3137 -0.3290
  909MPD2    H513372   2.491   4.019  11.839  0.0580  0.1453  0.3688
  909MPD2    N113373   2.803   3.891  11.489 -0.8734  0.8471 -0.3165
  909MPD2    H713374   2.823   3.987  11.515 -1.4425  0.8751  0.0262
  910MPD2     C13375   3.651   1.233  15.712  0.6002  0.3634  0.3466
  910MPD2    C113376   3.760   1.153  15.671 -0.5283  0.2463 -0.6192
  910MPD2    C213377   3.816   1.166  15.542  0.7631  0.2637  0.0828
  910MPD2    C313378   3.768   1.268  15.457 -0.3096 -0.1093  0.8273
  910MPD2    C413379   3.660   1.348  15.504  0.2396 -0.1115  0.1778
  910MPD2    C513380   3.602   1.324  15.621 -0.2544 -0.1599  0.2399
  910MPD2     H13381   3.899   1.101  15.515 -0.0416 -0.4361 -0.7042
  910MPD2    H113382   3.611   1.422  15.441  0.9950 -1.0725 -1.5339
  910MPD2    H213383   3.603   1.206  15.805  0.4546  4.5037  1.4900
  910MPD2    H313384   3.520   1.388  15.655 -0.5539  0.2255 -1.2280
  910MPD2     N13385   3.818   1.297  15.325 -0.1397  0.2707 -0.6073
  910MPD2    H513386   3.760   1.359  15.270 -1.6592  0.1875  0.9202
  910MPD2    N113387   3.822   1.044  15.740 -0.3863  0.1646  0.0895
  910MPD2    H713388   3.899   0.997  15.694  0.4176  1.2990  0.2542
  911MPD2     C13389   1.758   1.461  16.691  0.6013  0.5557  0.2017
  911MPD2    C113390   1.842   1.568  16.697 -0.7039 -0.0340 -0.2626
  911MPD2    C213391   1.819   1.681  16.625 -0.1196  0.4151 -0.1764
  911MPD2    C313392   1.702   1.686  16.556  0.7101 -0.3681 -0.0686
  911MPD2    C413393   1.626   1.571  16.541 -0.1900 -0.4211  0.3970
  911MPD2    C513394   1.647   1.458  16.613  0.1914 -0.4704  0.2762
  911MPD2     H13395   1.872   1.775  16.629  1.1815 -0.3841  1.0838
  911MPD2    H113396   1.537   1.579  16.479  1.2654 -1.0783 -1.7557
  911MPD2    H213397   1.775   1.370  16.748 -1.1687  1.2096  1.7665
  911MPD2    H313398   1.582   1.371  16.607  1.1137 -1.1598  0.3842
  911MPD2     N13399   1.654   1.800  16.492 -0.1129  0.2581  0.2199
  911MPD2    H513400   1.570   1.779  16.439  0.5688 -1.3732 -0.2333
  911MPD2    N113401   1.956   1.552  16.783 -0.2674  0.1529 -0.0405
  911MPD2    H713402   1.975   1.460  16.820 -1.5723 -0.5573 -1.1419
  912MPD2     C13403   1.174   1.714  15.968 -0.4608  0.5312  1.6692
  912MPD2    C113404   1.242   1.710  16.088 -0.0462  0.3693 -0.0778
  912MPD2    C213405   1.250   1.589  16.152 -0.0876 -0.2589  0.4133
  912MPD2    C313406   1.186   1.478  16.102 -0.0245  0.0050  0.4657
  912MPD2    C413407   1.102   1.488  15.990 -0.1063  0.4326  0.3914
  912MPD2    C513408   1.108   1.603  15.915  0.0479  0.2373  0.0163
  912MPD2     H13409   1.316   1.564  16.234  2.3668  1.3095 -1.0774
  912MPD2    H113410   1.032   1.409  15.963 -0.5951  0.7495  0.7297
  912MPD2    H213411   1.176   1.803  15.906  0.8388  0.0620  1.0413
  912MPD2    H313412   1.042   1.619  15.831 -4.4356 -1.5995  3.1949
  912MPD2     N13413   1.190   1.360  16.178  0.2452  0.7833 -0.1049
  912MPD2    H513414   1.252   1.363  16.258 -0.6184  2.7912  0.4874
  912MPD2    N113415   1.310   1.828  16.132 -0.3737  0.0561 -0.6952
  912MPD2    H713416   1.310   1.908  16.070 -0.2208 -0.0987 -0.8953
  913MPD2     C13417   2.491   2.681  11.035 -0.0643  0.2065 -0.5965
  913MPD2    C113418   2.492   2.801  11.105  0.3817  0.2616 -0.3841
  913MPD2    C213419   2.491   2.922  11.038  0.0006  0.0707 -0.2817
  913MPD2    C313420   2.474   2.918  10.894 -0.0779  0.2325 -0.4460
  913MPD2    C413421   2.474   2.796  10.828  0.4670 -0.6996 -0.0898
  913MPD2    C513422   2.473   2.685  10.905  0.6926 -0.1261 -0.1561
  913MPD2     H13423   2.493   3.013  11.096 -0.8729 -1.4250  2.0725
  913MPD2    H113424   2.474   2.785  10.720 -3.3065  0.8549 -0.2517
  913MPD2    H213425   2.488   2.588  11.091  1.5458  0.4543 -0.1165
  913MPD2    H313426   2.463   2.591  10.853  0.7588  0.3408 -1.0034
  913MPD2     N13427   2.462   3.030  10.811 -0.7339  0.2601  0.7220
  913MPD2    H513428   2.455   3.025  10.709  0.4929  2.5975  0.5029
  913MPD2    N113429   2.497   2.797  11.251 -0.1474  0.3700  0.2077
  913MPD2    H713430   2.496   2.702  11.289  1.6872  0.1132 -0.3767
  914MPD2     C13431   0.522   2.652  12.335 -0.1150 -0.0708  0.0577
  914MPD2    C113432   0.540   2.743  12.436  0.0467  0.1273 -0.2592
  914MPD2    C213433   0.653   2.736  12.509 -0.1721  0.9650 -0.1387
  914MPD2    C313434   0.745   2.633  12.496  0.1560 -0.1129  0.6301
  914MPD2    C413435   0.721   2.538  12.391  0.4952 -0.7859 -0.2506
  914MPD2    C513436   0.615   2.556  12.307  0.6553 -0.8243  0.4087
  914MPD2     H13437   0.670   2.813  12.584  0.5836  1.7366 -1.0982
  914MPD2    H113438   0.787   2.454  12.371  0.3353 -0.9767  0.0175
  914MPD2    H213439   0.433   2.656  12.273 -1.8935 -1.6901  2.5307
  914MPD2    H313440   0.609   2.500  12.215 -1.0524  0.6700 -0.3976
  914MPD2     N13441   0.841   2.630  12.601  0.2714  0.4051  0.4478
  914MPD2    H513442   0.839   2.710  12.663 -0.1570  0.0689  0.8670
  914MPD2    N113443   0.439   2.841  12.461 -0.4918  0.0804  0.5588
  914MPD2    H713444   0.354   2.832  12.405  0.5500 -0.1044 -0.9829
  915MPD2     C13445   3.400   2.781  15.827 -0.3843  0.4520 -0.9320
  915MPD2    C113446   3.286   2.833  15.762 -0.0009  0.1236 -0.3174
  915MPD2    C213447   3.205   2.907  15.840  0.0796 -0.7175 -0.6402
  915MPD2    C313448   3.232   2.942  15.974 -0.1619 -0.4766  0.1833
  915MPD2    C413449   3.347   2.892  16.031 -0.1683  0.2043 -0.5013
  915MPD2    C513450   3.429   2.815  15.956  0.4881 -0.0270 -0.0356
  915MPD2     H13451   3.121   2.947  15.785  0.9056  1.8778 -0.0566
  915MPD2    H113452   3.378   2.917  16.132  1.8414  0.4397 -1.1756
  915MPD2    H213453   3.465   2.717  15.768  2.0014  2.3044 -0.2790
  915MPD2    H313454   3.517   2.776  16.006  0.4004  0.3366  0.4008
  915MPD2     N13455   3.144   3.034  16.039 -1.0032 -0.1256 -0.4170
  915MPD2    H513456   3.053   3.042  15.994 -0.9282 -0.6364 -0.6537
  915MPD2    N113457   3.269   2.803  15.624 -0.7903 -0.4388 -0.2439
  915MPD2    H713458   3.326   2.735  15.575  1.6712  1.3568  0.1438
  916MPD2     C13459   0.932   0.944  15.697  0.2012  0.0333  0.4923
  916MPD2    C113460   0.917   0.933  15.831 -0.0187 -0.2344  0.4922
  916MPD2    C213461   1.007   0.850  15.901  0.1619 -0.1461  0.0566
  916MPD2    C313462   1.093   0.770  15.827  0.8397 -0.0982  0.0958
  916MPD2    C413463   1.102   0.772  15.686 -0.2764 -0.1419 -0.9808
  916MPD2    C513464   1.019   0.867  15.627 -0.1141 -0.0780 -0.5643
  916MPD2     H13465   1.001   0.849  16.009  1.8874 -0.5022  0.1559
  916MPD2    H113466   1.184   0.724  15.633  0.2665 -0.2941  0.0001
  916MPD2    H213467   0.876   1.011  15.633  2.5809 -1.4937 -3.2278
  916MPD2    H313468   1.021   0.886  15.520  3.2926 -0.4498 -0.5672
  916MPD2     N13469   1.175   0.691  15.914 -0.2866  0.1955 -0.2481
  916MPD2    H513470   1.171   0.702  16.014 -2.6588 -0.4863 -0.2574
  916MPD2    N113471   0.814   1.007  15.891  0.1150  0.1370 -0.0912
  916MPD2    H713472   0.764   1.071  15.830  1.9613 -0.3882 -2.1789
  917MPD2     C13473   1.740   3.553  11.360 -1.0901 -0.3183  0.4783
  917MPD2    C113474   1.644   3.626  11.432  0.1695  0.5455  0.3581
  917MPD2    C213475   1.681   3.751  11.472  0.3527  0.0082 -0.1101
  917MPD2    C313476   1.806   3.805  11.454 -0.3134 -0.4934 -0.3434
  917MPD2    C413477   1.893   3.738  11.368 -0.2149  0.3788 -0.3924
  917MPD2    C513478   1.863   3.617  11.330 -0.4069 -0.3296  0.3142
  917MPD2     H13479   1.615   3.803  11.541 -0.0577  0.6053 -0.9590
  917MPD2    H113480   1.990   3.781  11.347  0.9069 -1.1236  1.7740
  917MPD2    H213481   1.719   3.456  11.317 -1.6640  0.4618 -1.0120
  917MPD2    H313482   1.937   3.559  11.276 -1.3186 -0.0736 -1.2167
  917MPD2     N13483   1.841   3.934  11.498  0.2135 -0.1870  0.2276
  917MPD2    H513484   1.936   3.963  11.474 -0.0563  2.5328  2.5053
  917MPD2    N113485   1.512   3.579  11.431 -0.5057  0.0618  1.0373
  917MPD2    H713486   1.494   3.499  11.371 -1.2555  1.1860 -0.2366
  918MPD2     C13487   1.219   3.976  12.085 -0.1073 -0.0557 -0.0206
  918MPD2    C113488   1.327   3.933  12.013  0.1713  0.6980 -0.4047
  918MPD2    C213489   1.297   3.856  11.897 -0.0842  0.0005 -0.5197
  918MPD2    C313490   1.169   3.827  11.864 -0.0875  0.6433 -0.1907
  918MPD2    C413491   1.062   3.874  11.937 -0.2341 -0.7584 -0.1656
  918MPD2    C513492   1.084   3.946  12.048 -0.0317  0.5401  0.8006
  918MPD2     H13493   1.374   3.814  11.833  0.2761 -1.9317  1.2018
  918MPD2    H113494   0.960   3.854  11.907 -0.3397  2.0173 -1.6435
  918MPD2    H213495   1.231   4.035  12.175  0.2313  0.4618 -0.4066
  918MPD2    H313496   1.002   3.994  12.099 -2.0701 -1.6446 -0.4782
  918MPD2     N13497   1.150   3.748  11.752  0.3840 -0.0919  0.1851
  918MPD2    H513498   1.233   3.726  11.699  0.4523  0.6151  0.0054
  918MPD2    N113499   1.470   3.954  12.046  0.1139  0.4814 -0.4243
  918MPD2    H713500   1.528   3.903  11.980  1.0047  1.5754 -0.4910
  919MPD2     C13501   2.058   2.736  11.795 -0.0940 -0.2567 -0.3584
  919MPD2    C113502   2.099   2.630  11.722  0.2850 -0.6092 -1.0696
  919MPD2    C213503   2.133   2.653  11.586  0.3762 -0.4178 -0.1920
  919MPD2    C313504   2.110   2.776  11.522  0.4086  0.0576  0.5125
  919MPD2    C413505   2.062   2.877  11.599  0.5717 -1.0794 -0.3552
  919MPD2    C513506   2.052   2.856  11.732 -0.3877 -0.1189 -0.3542
  919MPD2     H13507   2.183   2.576  11.528  2.8043  1.8888 -1.1147
  919MPD2    H113508   2.044   2.977  11.560 -2.6244 -2.3805 -2.1950
  919MPD2    H213509   2.039   2.730  11.901  0.6855  1.1141 -0.1384
  919MPD2    H313510   2.022   2.938  11.797 -2.0047 -1.0886  0.1161
  919MPD2     N13511   2.119   2.799  11.379 -0.2381 -0.5113 -0.7014
  919MPD2    H513512   2.076   2.883  11.341 -1.2658 -0.5966  0.2804
  919MPD2    N113513   2.123   2.493  11.767 -0.1790  0.3562  0.3693
  919MPD2    H713514   2.162   2.425  11.703 -2.0460 -0.8289  0.4932
  920MPD2     C13515   1.807   3.310  10.592  0.7716  0.2492 -0.1839
  920MPD2    C113516   1.746   3.185  10.593 -0.6850  0.9973  0.5797
  920MPD2    C213517   1.789   3.088  10.676  0.1954 -0.2330  0.2420
  920MPD2    C313518   1.899   3.115  10.764 -0.4045  0.4949  0.0983
  920MPD2    C413519   1.958   3.238  10.770 -0.2252  0.8736 -0.1319
  920MPD2    C513520   1.904   3.340  10.691  0.4264  0.5700 -0.0791
  920MPD2     H13521   1.746   2.989  10.669  0.8808 -0.4512 -0.8437
  920MPD2    H113522   2.040   3.267  10.835  0.2217 -1.3718  0.3007
  920MPD2    H213523   1.793   3.395  10.526 -2.5081 -0.1180  0.0079
  920MPD2    H313524   1.947   3.440  10.693 -0.0304  0.7234  2.0230
  920MPD2     N13525   1.960   3.007  10.832  0.1015  0.2155 -0.0800
  920MPD2    H513526   1.924   2.914  10.819  1.7196 -0.4274  0.0134
  920MPD2    N113527   1.641   3.152  10.506  0.2786 -0.0678  0.2644
  920MPD2    H713528   1.611   3.056  10.502 -0.8949  0.2007  3.1320
  921MPD2     C13529   2.729   2.184  17.075  0.8011 -0.2507 -0.8685
  921MPD2    C113530   2.704   2.138  16.944 -0.7630  0.3144  0.1143
  921MPD2    C213531   2.599   2.046  16.933  0.1172 -0.6441  0.5522
  921MPD2    C313532   2.528   1.982  17.030  0.3323  0.5310 -0.5879
  921MPD2    C413533   2.542   2.035  17.156 -0.3931  0.3042  0.2219
  921MPD2    C513534   2.643   2.138  17.177  0.2996  0.2973 -0.2565
  921MPD2     H13535   2.571   2.019  16.831  2.6638  1.2483 -0.6386
  921MPD2    H113536   2.494   1.999  17.246  0.0032 -0.9055 -0.0465
  921MPD2    H213537   2.818   2.242  17.096  0.2384  0.4152 -0.3295
  921MPD2    H313538   2.663   2.160  17.281  0.1567  0.5619 -0.2848
  921MPD2     N13539   2.448   1.859  17.017  0.0346  0.0691 -0.0657
  921MPD2    H513540   2.400   1.820  17.097  1.5578  1.6600  1.6156
  921MPD2    N113541   2.779   2.192  16.835 -0.3031  0.1394  0.0562
  921MPD2    H713542   2.854   2.257  16.854 -0.4399 -0.5756  3.0329
  922MPD2     C13543   3.604   3.934  16.942 -0.5634 -0.3627  0.2021
  922MPD2    C113544   3.530   4.041  16.987  0.5721 -0.1348  0.1716
  922MPD2    C213545   3.434   4.022  17.079  0.4911  0.2779 -0.1447
  922MPD2    C313546   3.402   3.896  17.128  0.1110  0.3023 -0.7886
  922MPD2    C413547   3.487   3.792  17.090  0.5189  0.0487 -0.6020
  922MPD2    C513548   3.583   3.811  17.000 -1.0865  0.0205 -0.3141
  922MPD2     H13549   3.378   4.106  17.120 -2.1289 -0.8496 -1.3793
  922MPD2    H113550   3.465   3.692  17.125 -1.3635  0.2431 -1.2660
  922MPD2    H213551   3.679   3.944  16.865 -1.9832  1.6425 -0.8987
  922MPD2    H313552   3.654   3.732  16.979  0.7352  1.1259  1.7605
  922MPD2     N13553   3.289   3.873  17.208  0.4038  0.0611 -0.4176
  922MPD2    H513554   3.231   3.954  17.225  0.0053 -0.2565 -0.2468
  922MPD2    N113555   3.570   4.173  16.956  0.0134 -0.2026  0.0319
  922MPD2    H713556   3.530   4.250  17.009  0.6907 -0.3599  0.7828
  923MPD2     C13557   0.100   1.849   9.865 -0.0212  0.3162 -0.9008
  923MPD2    C113558   0.184   1.769   9.792  0.3539  0.6534  0.0531
  923MPD2    C213559   0.317   1.755   9.816  0.4780  0.0423  0.3406
  923MPD2    C313560   0.371   1.840   9.916  0.5997  0.0737  0.0231
  923MPD2    C413561   0.290   1.928   9.984  0.3906  0.4755  0.6074
  923MPD2    C513562   0.153   1.933   9.958  0.6071  0.0171 -0.0812
  923MPD2     H13563   0.376   1.688   9.755 -1.5165  0.1252 -1.6704
  923MPD2    H113564   0.336   1.988  10.062  0.4157  0.8250  0.3234
  923MPD2    H213565   4.732   1.864   9.843 -0.6658 -1.1817  1.2171
  923MPD2    H313566   0.092   2.002  10.016  0.7292  0.0288  0.0355
  923MPD2     N13567   0.508   1.849   9.946  0.7828 -0.1651 -0.1456
  923MPD2    H513568   0.542   1.932   9.994 -1.3015  0.6807 -0.0785
  923MPD2    N113569   0.121   1.699   9.683  0.2068 -0.6174 -0.1487
  923MPD2    H713570   0.020   1.709   9.676  0.1227 -1.3693 -0.0010
  924MPD2     C13571   0.485   0.532  15.964 -0.0032 -0.5027  0.4243
  924MPD2    C113572   0.362   0.531  16.019 -0.3342 -0.2647  0.0322
  924MPD2    C213573   0.302   0.648  16.044  0.1589  0.4389 -0.0369
  924MPD2    C313574   0.356   0.768  16.001  0.0682 -0.0855  0.4744
  924MPD2    C413575   0.483   0.772  15.944 -0.1787 -0.2645 -0.2743
  924MPD2    C513576   0.545   0.646  15.930 -0.0910  1.2177  0.0654
  924MPD2     H13577   0.203   0.647  16.087  0.5852 -0.3889  0.9302
  924MPD2    H113578   0.523   0.864  15.903 -0.1409  0.1794  0.7552
  924MPD2    H213579   0.542   0.442  15.946  0.9338  0.4119 -1.2109
  924MPD2    H313580   0.643   0.648  15.884  0.5910 -1.2448  1.4209
  924MPD2     N13581   0.264   0.872  16.007  0.1900  0.0730 -0.4914
  924MPD2    H513582   0.174   0.854  16.048 -0.4110 -1.0127 -2.2928
  924MPD2    N113583   0.301   0.406  16.054  0.7915 -0.3918  0.0848
  924MPD2    H713584   0.352   0.320  16.035  1.0768 -0.3265  0.5589
  925MPD2     C13585   4.067   2.432  14.471 -0.3418  0.1030 -0.0982
  925MPD2    C113586   3.950   2.381  14.410  0.4105 -0.1604 -0.0481
  925MPD2    C213587   3.881   2.286  14.480  0.1255  0.1175 -0.5362
  925MPD2    C313588   3.902   2.252  14.613  0.1002  0.3319  0.0625
  925MPD2    C413589   4.017   2.303  14.670 -0.5524 -0.7016  0.1004
  925MPD2    C513590   4.099   2.390  14.604  0.0971  0.2259 -0.3245
  925MPD2     H13591   3.791   2.249  14.432  0.3892  2.2487 -2.7059
  925MPD2    H113592   4.039   2.276  14.773 -0.1747 -0.7528  0.0049
  925MPD2    H213593   4.127   2.503  14.416 -0.1771  0.4394  0.5170
  925MPD2    H313594   4.189   2.426  14.652  0.0746  1.8156 -1.4943
  925MPD2     N13595   3.816   2.173  14.694 -0.1780  0.2002 -0.0289
  925MPD2    H513596   3.853   2.140  14.783  1.1014 -0.8657 -0.9549
  925MPD2    N113597   3.908   2.410  14.281 -0.0652  0.6010  0.2697
  925MPD2    H713598   3.820   2.370  14.252  1.0394 -1.2109 -0.5495
  926MPD2     C13599   2.451   0.413  13.849 -0.3696  0.0854  0.6161
  926MPD2    C113600   2.394   0.373  13.731  0.7285 -0.2146 -0.9316
  926MPD2    C213601   2.461   0.398  13.612 -0.5425 -0.0814  0.3133
  926MPD2    C313602   2.588   0.450  13.601  0.0973  0.4388  0.3152
  926MPD2    C413603   2.642   0.497  13.720 -0.2047  0.0924 -0.1363
  926MPD2    C513604   2.573   0.473  13.836 -0.2129 -0.0515  0.1675
  926MPD2     H13605   2.415   0.377  13.517  2.1581  1.1046 -1.2678
  926MPD2    H113606   2.733   0.556  13.729 -0.0567  0.1584 -2.0415
  926MPD2    H213607   2.404   0.394  13.945 -3.1109 -2.5401 -1.2352
  926MPD2    H313608   2.620   0.495  13.931  0.2062  1.3410 -0.3510
  926MPD2     N13609   2.652   0.478  13.479  0.4400  0.0802  0.3538
  926MPD2    H513610   2.746   0.516  13.483  1.3628 -1.7864 -3.4039
  926MPD2    N113611   2.266   0.316  13.722  0.0837  0.4347  0.5177
  926MPD2    H713612   2.232   0.293  13.629  1.6815  1.7535 -0.3987
  927MPD2     C13613   1.597   3.201   0.022 -0.7271  0.1304  0.2580
  927MPD2    C113614   1.712   3.246   0.085 -0.2005  0.0976 -0.3186
  927MPD2    C213615   1.837   3.227   0.031  0.4804  0.5631  0.6025
  927MPD2    C313616   1.843   3.169  17.654 -0.2336  0.5134  0.4431
  927MPD2    C413617   1.729   3.116  17.597 -0.7096 -0.5647 -0.2568
  927MPD2    C513618   1.612   3.119  17.664  0.3208 -0.4788  0.2468
  927MPD2     H13619   1.916   3.286   0.076 -0.2116  0.9993  1.2467
  927MPD2    H113620   1.730   3.075  17.497  0.7272 -1.7996  0.2584
  927MPD2    H213621   1.503   3.216   0.075 -0.2330  0.6088  0.9977
  927MPD2    H313622   1.527   3.064  17.624 -0.2150  2.0824 -2.1434
  927MPD2     N13623   1.967   3.183  17.583 -0.7146  0.2500  0.6205
  927MPD2    H513624   2.034   3.233  17.640  2.1453 -1.5867 -1.1098
  927MPD2    N113625   1.699   3.308   0.211 -0.0761 -0.1021  0.0634
  927MPD2    H713626   1.610   3.337   0.250 -0.1769  1.0819 -1.0350
  928MPD2     C13627   4.477   1.251   1.229  0.2459 -0.0723 -0.1203
  928MPD2    C113628   4.489   1.386   1.224  0.2314 -0.4909 -0.2417
  928MPD2    C213629   4.515   1.453   1.109  0.2439  0.1974  0.4849
  928MPD2    C313630   4.524   1.378   0.997  0.1205  0.5104  0.1048
  928MPD2    C413631   4.504   1.242   0.998  0.3796 -0.0497 -0.2503
  928MPD2    C513632   4.491   1.176   1.119 -0.4576  0.1083 -0.4815
  928MPD2     H13633   4.512   1.561   1.107  0.3673  0.1479 -2.2188
  928MPD2    H113634   4.501   1.180   0.909  0.0117  1.0802 -1.0215
  928MPD2    H213635   4.459   1.202   1.324 -0.4627  2.3360  0.9765
  928MPD2    H313636   4.490   1.068   1.125 -2.4826  0.1539 -0.1606
  928MPD2     N13637   4.550   1.437   0.871  0.0537  0.1237  0.5209
  928MPD2    H513638   4.556   1.383   0.785  1.2991 -0.1849  0.8116
  928MPD2    N113639   4.490   1.446   1.351 -0.7453  0.3143 -0.1536
  928MPD2    H713640   4.472   1.382   1.427  1.0776  0.5301  0.4632
  929MPD2     C13641   0.679   1.277  10.342 -0.4425 -0.1304  0.0199
  929MPD2    C113642   0.599   1.180  10.401 -0.7183 -0.1668  0.5373
  929MPD2    C213643   0.476   1.138  10.342  0.5842 -0.4354 -0.8225
  929MPD2    C313644   0.422   1.210  10.238  0.2611  0.2956 -0.1166
  929MPD2    C413645   0.500   1.304  10.173  0.4508  0.4426 -0.1914
  929MPD2    C513646   0.625   1.340  10.228  0.1360 -0.4124 -0.5466
  929MPD2     H13647   0.411   1.070  10.395  1.7986 -1.2163 -0.3138
  929MPD2    H113648   0.465   1.359  10.087 -1.6144 -2.1769 -1.0147
  929MPD2    H213649   0.776   1.306  10.382  0.3405 -0.3063 -1.7700
  929MPD2    H313650   0.685   1.421  10.186  1.4475 -0.6632  0.8355
  929MPD2     N13651   0.291   1.177  10.189 -0.1047 -0.1369 -0.2443
  929MPD2    H513652   0.244   1.102  10.239  0.8737 -0.2425  0.5202
  929MPD2    N113653   0.654   1.119  10.518 -1.1508 -0.2071  0.6438
  929MPD2    H713654   0.747   1.154  10.539 -0.5293 -1.7580  0.4728
  930MPD2     C13655   2.172   2.503  13.953  0.2944  0.6335  0.2520
  930MPD2    C113656   2.183   2.637  13.965 -0.1098 -0.0255  1.0688
  930MPD2    C213657   2.171   2.716  13.852  0.5973  0.3204  0.3868
  930MPD2    C313658   2.154   2.660  13.726 -0.1453 -0.8302 -0.2250
  930MPD2    C413659   2.123   2.526  13.724  0.3392  0.0045 -0.3926
  930MPD2    C513660   2.125   2.449  13.839  0.6273 -0.1574 -0.6570
  930MPD2     H13661   2.182   2.823  13.864 -0.2776  0.2533  1.8418
  930MPD2    H113662   2.102   2.468  13.634 -1.4950 -1.1846  0.8078
  930MPD2    H213663   2.170   2.438  14.039  3.0193 -1.4932 -1.3261
  930MPD2    H313664   2.094   2.345  13.836  1.2518 -0.3656  0.0053
  930MPD2     N13665   2.176   2.732  13.608 -0.3213  0.4557 -0.1795
  930MPD2    H513666   2.170   2.684  13.519 -2.8955 -2.4921  1.5615
  930MPD2    N113667   2.233   2.697  14.084 -0.0671  0.2962  0.4243
  930MPD2    H713668   2.298   2.644  14.142 -2.7214  0.7760  3.8393
  931MPD2     C13669   2.102   3.146   0.928 -0.5462 -0.1700  0.1838
  931MPD2    C113670   1.993   3.099   0.858  0.0478 -0.3338 -0.4467
  931MPD2    C213671   1.969   2.959   0.862  0.1858  0.0970 -0.4693
  931MPD2    C313672   2.043   2.873   0.938 -0.7241  0.2840  0.0070
  931MPD2    C413673   2.142   2.922   1.021  0.1684  0.3415 -0.8092
  931MPD2    C513674   2.178   3.057   1.003 -0.1325 -0.6728 -0.5103
  931MPD2     H13675   1.882   2.919   0.813  0.5499  1.7806 -2.5212
  931MPD2    H113676   2.209   2.870   1.088  0.1728  1.0956 -0.2274
  931MPD2    H213677   2.126   3.250   0.911  0.6060 -0.3824  0.5059
  931MPD2    H313678   2.259   3.102   1.059 -0.0102 -2.0585  0.4090
  931MPD2     N13679   2.015   2.732   0.922 -0.1639 -0.4740 -0.9041
  931MPD2    H513680   1.948   2.712   0.848 -1.0885  2.6228 -0.9014
  931MPD2    N113681   1.921   3.189   0.772 -0.2008  0.2399 -0.5231
  931MPD2    H713682   1.962   3.281   0.760  0.1563  0.1007 -0.4020
  932MPD2     C13683   3.478   1.938  11.452 -0.0104 -1.2078  0.1094
  932MPD2    C113684   3.614   1.928  11.442  0.2430  0.4949  0.2359
  932MPD2    C213685   3.674   1.812  11.466  0.5143 -0.2928 -0.0770
  932MPD2    C313686   3.602   1.708  11.517 -0.1242  0.2554 -0.5004
  932MPD2    C413687   3.463   1.713  11.525 -0.3924  0.0151  0.4969
  932MPD2    C513688   3.403   1.827  11.490 -0.7506 -0.5808 -0.2144
  932MPD2     H13689   3.781   1.814  11.448  0.4105 -0.9755 -0.7686
  932MPD2    H113690   3.398   1.637  11.566 -0.1812 -0.5592 -0.2313
  932MPD2    H213691   3.432   2.035  11.436 -1.2197 -1.6969  0.6148
  932MPD2    H313692   3.297   1.837  11.507 -0.7040 -0.8516  0.2385
  932MPD2     N13693   3.670   1.586  11.542 -0.4908 -0.2798 -0.3134
  932MPD2    H513694   3.771   1.585  11.533 -0.3952 -0.3942  0.7253
  932MPD2    N113695   3.696   2.037  11.424 -0.1219 -0.0141  0.0239
  932MPD2    H713696   3.797   2.036  11.437  0.2812  1.9299 -2.8186
  933MPD2     C13697   4.480   2.127   2.019  0.1541 -0.8877 -0.3623
  933MPD2    C113698   4.436   2.098   1.889  0.5498  0.2439 -0.4152
  933MPD2    C213699   4.363   2.197   1.824 -0.0348 -0.1796  0.2229
  933MPD2    C313700   4.346   2.324   1.878  0.3214 -0.4724 -0.0544
  933MPD2    C413701   4.402   2.348   2.002  0.4205  0.0322  0.1893
  933MPD2    C513702   4.468   2.250   2.073 -0.0163  0.0485 -0.0782
  933MPD2     H13703   4.313   2.167   1.733 -0.0696 -1.2324  0.5830
  933MPD2    H113704   4.398   2.446   2.046  0.1870  0.4409 -0.7459
  933MPD2    H213705   4.536   2.053   2.074  0.4165  0.1013  0.7096
  933MPD2    H313706   4.520   2.275   2.165 -0.5429  0.9900 -0.0322
  933MPD2     N13707   4.276   2.424   1.794  0.6840 -0.3128  0.3501
  933MPD2    H513708   4.242   2.386   1.706  1.3552  0.9786 -0.4655
  933MPD2    N113709   4.468   1.968   1.839 -0.5536 -0.7961  0.3064
  933MPD2    H713710   4.516   1.908   1.905 -0.6428  0.7795  1.8093
  934MPD2     C13711   1.011   4.219   1.632 -0.0057  0.1990  0.1253
  934MPD2    C113712   1.060   4.087   1.620 -0.3058 -0.1601  0.9048
  934MPD2    C213713   0.975   3.989   1.577  0.0377  0.1938  0.5468
  934MPD2    C313714   0.845   4.023   1.537 -0.1922  0.1998  0.1904
  934MPD2    C413715   0.802   4.152   1.534  0.2203 -0.0564  0.4630
  934MPD2    C513716   0.885   4.250   1.586  1.1920  0.2127 -0.4011
  934MPD2     H13717   1.021   3.890   1.573 -0.5036  0.0085 -0.8965
  934MPD2    H113718   0.705   4.177   1.493  0.6130 -2.9458 -2.2290
  934MPD2    H213719   1.066   4.304   1.671 -0.1003  0.3356 -0.0366
  934MPD2    H313720   0.860   4.355   1.575 -0.7734 -0.1670  0.3742
  934MPD2     N13721   0.747   3.929   1.497 -0.3030  0.0115 -0.1295
  934MPD2    H513722   0.657   3.965   1.466 -1.1863 -2.9456 -1.1215
  934MPD2    N113723   1.199   4.046   1.652 -0.0438 -0.3363  0.4298
  934MPD2    H713724   1.236   3.956   1.626 -2.0503 -0.5620 -1.6655
  935MPD2     C13725   0.802   2.946   1.605 -0.1032  0.3275  0.0274
  935MPD2    C113726   0.784   2.992   1.474 -0.0307 -0.2686  0.6584
  935MPD2    C213727   0.710   3.106   1.458 -0.5233  0.1862 -0.4008
  935MPD2    C313728   0.676   3.189   1.563  0.0668  0.4551  0.6962
  935MPD2    C413729   0.706   3.145   1.693 -0.4174 -0.5385  0.9884
  935MPD2    C513730   0.774   3.029   1.707  0.6705 -0.2625  0.5684
  935MPD2     H13731   0.695   3.136   1.355  0.1740 -0.2199 -0.6211
  935MPD2    H113732   0.679   3.207   1.778  0.0147  2.7815 -1.2574
  935MPD2    H213733   0.849   2.852   1.634  1.4657  0.8050 -0.9858
  935MPD2    H313734   0.796   2.986   1.804 -1.4216 -0.6046  0.8972
  935MPD2     N13735   0.613   3.315   1.541 -0.0861  0.2470 -0.4534
  935MPD2    H513736   0.601   3.379   1.619  2.7418  0.5795 -0.2918
  935MPD2    N113737   0.825   2.915   1.365  0.7074  0.0887  0.6132
  935MPD2    H713738   0.797   2.942   1.271 -0.0229  1.5230  1.2394
  936MPD2     C13739   4.673   0.047  12.939 -0.1324 -0.0228  0.0874
  936MPD2    C113740   0.069   0.076  12.979 -0.1496  0.9833  1.0203
  936MPD2    C213741   0.149   0.134  12.876 -0.4699 -0.6397  0.4254
  936MPD2    C313742   0.095   0.185  12.761 -0.5897  0.6116  0.0207
  936MPD2    C413743   4.702   0.166  12.739 -0.4264  0.0591  0.3007
  936MPD2    C513744   4.626   0.094  12.821 -0.3881  1.2817  0.3990
  936MPD2     H13745   0.256   0.148  12.890 -0.9291 -0.1424  3.5567
  936MPD2    H113746   4.663   0.201  12.644  2.6811 -1.7729 -1.6724
  936MPD2    H213747   4.601   4.724  12.993 -2.0500  0.3683 -2.0358
  936MPD2    H313748   4.529   0.058  12.788 -0.2710  2.0425 -0.7817
  936MPD2     N13749   0.167   0.250  12.659  0.0988 -0.7810 -0.4115
  936MPD2    H513750   0.114   0.300  12.588  1.4914  0.2200 -0.7422
  936MPD2    N113751   0.120   0.047  13.102  0.3728 -0.2275 -0.6895
  936MPD2    H713752   0.218   0.020  13.107  0.6342  0.9265  0.3545
  937MPD2     C13753   2.470   1.915  11.605  0.1539  0.4409  0.1112
  937MPD2    C113754   2.400   2.033  11.579  0.2484  0.4356  0.0920
  937MPD2    C213755   2.464   2.127  11.503  0.6493  0.1298  0.0439
  937MPD2    C313756   2.582   2.106  11.432  0.2397  0.0772 -0.2070
  937MPD2    C413757   2.642   1.979  11.451  0.7442  0.4239  0.0407
  937MPD2    C513758   2.586   1.889  11.533 -1.1397  0.2673 -0.5078
  937MPD2     H13759   2.418   2.224  11.486 -0.6679 -0.7355 -1.3447
  937MPD2    H113760   2.734   1.947  11.404  1.0542 -0.7542  1.4369
  937MPD2    H213761   2.445   1.849  11.688  0.1421  0.0920 -0.1713
  937MPD2    H313762   2.632   1.793  11.552 -4.7868 -0.7432  3.2483
  937MPD2     N13763   2.637   2.213  11.351 -0.3589  0.4342  0.2079
  937MPD2    H513764   2.582   2.297  11.341 -1.1797  0.1146  2.0976
  937MPD2    N113765   2.306   2.079  11.672  0.2058  0.0244 -0.1185
  937MPD2    H713766   2.277   2.176  11.659  0.2765  0.3438  2.1461
  938MPD2     C13767   0.217   2.957   0.932  0.4394  0.2424 -0.0013
  938MPD2    C113768   0.197   3.073   1.005 -0.3394  0.2146 -0.6170
  938MPD2    C213769   0.140   3.064   1.133  0.6942 -0.1460  0.1156
  938MPD2    C313770   0.097   2.948   1.181  0.2452  0.4141  0.6841
  938MPD2    C413771   0.112   2.833   1.109  0.0901 -0.2779  0.4381
  938MPD2    C513772   0.170   2.838   0.982 -0.5457  0.0860  0.1310
  938MPD2     H13773   0.130   3.156   1.190 -2.2073 -0.8340  0.7244
  938MPD2    H113774   0.059   2.743   1.139 -0.1712  0.5680  2.4817
  938MPD2    H213775   0.266   2.964   0.836  0.4913  0.3607  0.0332
  938MPD2    H313776   0.186   2.742   0.935  1.6867  1.3979 -1.8053
  938MPD2     N13777   0.041   2.931   1.306  0.3170 -0.4136 -0.1167
  938MPD2    H513778   0.033   2.837   1.343  1.5592 -0.4546  0.0447
  938MPD2    N113779   0.232   3.200   0.960 -0.0430  0.0145  0.2204
  938MPD2    H713780   0.216   3.276   1.025  0.6927  2.1550 -2.0999
  939MPD2     C13781   0.782   0.121   0.343 -0.3706 -0.4665  0.2177
  939MPD2    C113782   0.878   0.025   0.352  0.0555 -0.2196 -0.5481
  939MPD2    C213783   0.896   4.667   0.252  0.1613  0.0752  0.7345
  939MPD2    C313784   0.814   4.654   0.144  0.3857  0.0674 -0.2205
  939MPD2    C413785   0.709   0.004   0.142  0.2560  0.1811 -0.0137
  939MPD2    C513786   0.693   0.104   0.238  0.7207 -0.2691  0.0996
  939MPD2     H13787   0.976   4.594   0.254  0.0369 -0.0871 -0.0232
  939MPD2    H113788   0.636   0.003   0.062  0.7580 -0.5209 -0.4648
  939MPD2    H213789   0.762   0.201   0.413  0.4433  0.0033 -0.0923
  939MPD2    H313790   0.613   0.177   0.229  1.4798  0.6061  0.4964
  939MPD2     N13791   0.835   4.561   0.041  0.1433  0.6083  0.1604
  939MPD2    H513792   0.756   4.523  17.737 -0.4496  1.4283  0.4733
  939MPD2    N113793   0.954   0.018   0.472 -0.2590 -0.3442 -0.0544
  939MPD2    H713794   0.943   0.101   0.530  1.9111 -1.4880  2.0121
  940MPD2     C13795   0.938   4.614  13.307  0.0673 -0.3879  0.7201
  940MPD2    C113796   0.807   4.626  13.268  0.2554  0.8356  0.3618
  940MPD2    C213797   0.779   4.635  13.132  0.5761  0.1544  0.1313
  940MPD2    C313798   0.872   4.644  13.026 -0.7460 -0.1372 -0.2352
  940MPD2    C413799   0.998   4.656  13.072 -0.5916  0.4444  0.0843
  940MPD2    C513800   1.025   4.634  13.205  0.1730  0.7106  0.3705
  940MPD2     H13801   0.672   4.621  13.117  0.6454 -0.2885  0.0451
  940MPD2    H113802   1.086   4.664  13.010 -0.4919  0.3652  0.2164
  940MPD2    H213803   0.972   4.585  13.406  2.6412 -0.5066 -0.2072
  940MPD2    H313804   1.128   4.642  13.237  0.5769 -2.2208 -0.1794
  940MPD2     N13805   0.849   4.666  12.889 -0.3146 -0.3587 -0.3406
  940MPD2    H513806   0.936   4.684  12.841 -0.7283 -3.3407 -2.2606
  940MPD2    N113807   0.696   4.633  13.363 -0.6293 -0.8269 -0.1655
  940MPD2    H713808   0.602   4.615  13.330 -0.7245 -1.5584  0.4961
  941MPD2     C13809   4.036   0.335   9.826 -0.3880  0.4900  0.2301
  941MPD2    C113810   4.119   0.251   9.894  0.2180 -0.2460 -0.4343
  941MPD2    C213811   4.069   0.133   9.955  0.2540 -0.3898  0.2298
  941MPD2    C313812   3.934   0.113   9.960 -0.0764  0.0390  0.7730
  941MPD2    C413813   3.849   0.201   9.896  0.6701 -0.1142  0.0539
  941MPD2    C513814   3.898   0.313   9.829 -0.2010  0.1310  0.5355
  941MPD2     H13815   4.135   0.070  10.014  0.1816  0.0918  0.8272
  941MPD2    H113816   3.741   0.190   9.896  0.5307  1.2154  0.9416
  941MPD2    H213817   4.074   0.415   9.764  1.1417 -0.5989 -0.2423
  941MPD2    H313818   3.834   0.382   9.777 -2.2674 -2.0188  0.2125
  941MPD2     N13819   3.869   0.012  10.032  0.1663  0.2338 -0.3581
  941MPD2    H513820   3.767   0.010  10.028  0.2035 -0.0734 -1.2103
  941MPD2    N113821   4.258   0.280   9.897  0.1472  0.1829 -0.8658
  941MPD2    H713822   4.312   0.226   9.965  0.2555 -0.5297 -1.5215
  942MPD2     C13823   0.255   2.575  10.139 -0.2937  0.4953  0.1042
  942MPD2    C113824   0.139   2.503  10.100 -0.2329 -0.6732 -0.7682
  942MPD2    C213825   0.150   2.394  10.015 -0.3564 -0.4923 -0.8802
  942MPD2    C313826   0.275   2.376   9.955 -0.1473 -0.5728 -0.3854
  942MPD2    C413827   0.386   2.455   9.981  0.3703 -0.0627  0.2513
  942MPD2    C513828   0.378   2.550  10.074  0.4793 -0.4506  0.4697
  942MPD2     H13829   0.070   2.322  10.008 -2.5931  1.8458  0.5050
  942MPD2    H113830   0.479   2.430   9.932  0.5151  2.0765 -0.5910
  942MPD2    H213831   0.266   2.644  10.221 -4.7248  1.3631 -0.0246
  942MPD2    H313832   0.469   2.596  10.112  0.8663  1.1410 -2.3553
  942MPD2     N13833   0.290   2.285   9.853 -0.0790  0.5415  0.4023
  942MPD2    H513834   0.380   2.293   9.807 -0.3731 -0.1702 -0.3058
  942MPD2    N113835   0.011   2.524  10.157 -0.0925  0.2624 -0.1676
  942MPD2    H713836   4.669   2.468  10.127  0.0612 -0.1070  0.1213
  943MPD2     C13837   3.007   0.132  10.499  0.2771 -0.3311 -0.0756
  943MPD2    C113838   2.926   0.059  10.584 -0.4198  0.0599  0.2156
  943MPD2    C213839   2.888   0.119  10.704  0.1218 -0.3691  0.3137
  943MPD2    C313840   2.925   0.248  10.727 -0.4622 -0.0197  0.1810
  943MPD2    C413841   3.024   0.309  10.647 -0.3337 -0.0509 -0.0232
  943MPD2    C513842   3.064   0.252  10.528  0.5675  0.3243  0.4650
  943MPD2     H13843   2.823   0.064  10.771 -1.0734  2.3180  1.3716
  943MPD2    H113844   3.061   0.409  10.664 -2.5470  0.7204  0.3396
  943MPD2    H213845   3.028   0.090  10.401 -0.9893  1.8273 -1.2525
  943MPD2    H313846   3.125   0.306  10.457 -1.3193  1.6322 -0.1690
  943MPD2     N13847   2.867   0.323  10.835 -0.0021 -0.1467  0.0036
  943MPD2    H513848   2.890   0.421  10.846  0.6737 -0.2837 -0.2373
  943MPD2    N113849   2.894   4.670  10.540 -0.3102  0.3847  0.3874
  943MPD2    H713850   2.924   4.644  10.446 -0.1418  1.8573  0.0350
  944MPD2     C13851   3.026   4.268  10.990 -0.1597  0.5036 -0.5346
  944MPD2    C113852   2.995   4.392  11.036  0.5317  0.1197  0.0397
  944MPD2    C213853   2.906   4.405  11.145  0.6977 -0.2329 -0.1804
  944MPD2    C313854   2.855   4.290  11.206  0.2792  1.0024 -0.2358
  944MPD2    C413855   2.889   4.166  11.155  0.2474  0.2477  1.4482
  944MPD2    C513856   2.977   4.158  11.051  0.4224  0.2785 -1.1264
  944MPD2     H13857   2.890   4.503  11.187 -2.4206  0.1013 -2.1957
  944MPD2    H113858   2.851   4.075  11.198 -1.5451 -0.0786 -0.8086
  944MPD2    H213859   3.103   4.259  10.913  0.1031 -0.3111 -0.1743
  944MPD2    H313860   3.002   4.061  11.009 -0.3614 -0.2132 -0.4418
  944MPD2     N13861   2.773   4.314  11.311 -0.2133  0.5165  0.5242
  944MPD2    H513862   2.757   4.409  11.342 -2.8586  0.1735  0.1682
  944MPD2    N113863   3.056   4.511  10.976 -0.1489  0.0828 -0.4009
  944MPD2    H713864   3.107   4.505  10.889 -3.9590 -1.9917 -2.5128
    1TMC1    C113865   1.450   4.092  15.006 -0.5974  0.5642  0.2445
    1TMC1    C213866   1.487   3.978  15.073  0.5082  0.0011 -0.5395
    1TMC1    C313867   1.529   3.866  14.999 -0.6384  0.2028  0.4175
    1TMC1    C413868   1.444   4.096  14.863 -0.1386 -0.2856  0.3684
    1TMC1    C513869   1.467   3.977  14.800 -0.4613  0.3717 -0.2490
    1TMC1    C613870   1.504   3.864  14.863 -0.1718  0.2423 -0.2666
    1TMC1     C13871   1.417   4.214  15.076 -0.4906  0.1203 -0.1453
    1TMC1     O13872   1.458   4.207  15.193 -0.9521 -0.8619 -0.5890
    1TMC1     H13873   1.473   3.981  15.181 -0.2749  0.9070 -0.6677
    1TMC1    H113874   1.414   4.186  14.809  0.0460 -0.7579 -0.5205
    1TMC1    H213875   1.537   3.776  14.808 -0.1068  0.3440 -0.3919
    1TMC1    C713876   1.503   3.975  14.664 -0.0380  0.6015 -0.1709
    1TMC1    C813877   1.582   3.748  15.062 -0.6095 -0.0526  0.3368
    1TMC1    O113878   1.476   3.876  14.596  0.3726  0.1300  0.4934
    1TMC1    O213879   1.556   3.638  15.013  0.0142 -0.0602  0.3140
    1TMC1    O313880   1.629   4.031  14.660 -0.1478 -0.5393 -0.3868
    1TMC1    H313881   1.650   4.078  14.744  3.4845 -1.6674 -0.6564
    1TMC1    O513882   1.691   3.772  15.141  0.0406 -0.2796 -0.7907
    1TMC1    H513883   1.721   3.865  15.142 -0.6232 -0.0409 -2.1909
    2MPD2     C13884   1.211   4.669  15.183  0.3133  0.4225 -0.0500
    2MPD2    C113885   1.165   4.635  15.059  0.3343  0.0594  0.0994
    2MPD2    C213886   1.213   4.519  15.003  0.1409 -0.2919 -0.3757
    2MPD2    C313887   1.294   4.432  15.066 -0.3488  0.6118  0.2064
    2MPD2    C413888   1.339   4.471  15.191  0.4415  0.1449 -0.7830
    2MPD2    C513889   1.302   4.590  15.246  0.1073  0.6780 -0.1751
    2MPD2     H13890   1.177   4.485  14.906 -0.9436  0.6108 -0.2988
    2MPD2    H113891   1.414   4.419  15.250 -0.8584 -0.1818  0.5513
    2MPD2    H213892   1.170   0.017  15.237  2.7318  1.5929 -0.0655
    2MPD2    H313893   1.349   4.619  15.339 -0.9973 -0.2638  0.6719
    2MPD2     N13894   1.337   4.310  15.014 -0.7918  0.6187 -0.0097
    2MPD2    H513895   1.294   4.292  14.924  0.7796  0.2361 -0.6800
    2MPD2    N113896   1.069   4.722  15.002 -0.3580  0.1165  0.8333
    2MPD2    H713897   1.035   0.057  15.065  0.9265  1.7559 -0.3306
    3TMC2    C113898   0.921   0.066  14.836  1.2010  0.5819  0.1760
    3TMC2    C213899   0.839   0.105  14.935 -0.2558  0.1776  0.4353
    3TMC2    C313900   0.743   0.193  14.905  0.4395 -0.1874 -0.5234
    3TMC2    C413901   0.913   0.114  14.702  0.3321 -0.2295 -0.5862
    3TMC2    C513902   0.812   0.195  14.672  0.9261  0.4521 -0.5610
    3TMC2    C613903   0.724   0.229  14.776 -0.2418 -0.3831  0.0824
    3TMC2     C13904   1.042   4.720  14.871 -0.1087 -0.2553  0.2586
    3TMC2     O13905   1.110   4.663  14.784 -0.2544 -0.1867  0.2344
    3TMC2     H13906   0.849   0.070  15.037 -0.0502 -0.1489  0.3032
    3TMC2    H113907   0.983   0.088  14.624  0.8471  3.4315 -1.3581
    3TMC2    H213908   0.652   0.308  14.759  0.3025 -0.0866 -0.8676
    3TMC2    C713909   0.841   0.302  14.568 -0.5182  0.1662  0.2021
    3TMC2    C813910   0.643   0.229  14.997 -0.5234 -0.3155  0.1101
    3TMC2    O113911   0.957   0.314  14.538  0.3282 -0.0080  0.1581
    3TMC2    O213912   0.528   0.274  14.980 -0.5867  0.0037 -0.0953
    3TMC2    O513913   0.724   0.281  15.097 -0.1094 -0.1870 -0.2958
    3TMC2    H513914   0.811   0.238  15.108  0.3993  0.5976 -1.2671
    4TMC2    C113915   0.123   0.873  14.211 -0.6731  0.5215  0.1808
    4TMC2    C213916   0.165   0.998  14.175  0.0805  0.9979  0.0883
    4TMC2    C313917   0.266   1.055  14.250 -0.7970 -0.3117  0.0075
    4TMC2    C413918   0.186   0.803  14.306 -0.3963 -0.5487 -0.1483
    4TMC2    C513919   0.295   0.849  14.373  0.1851 -1.1899  0.1150
    4TMC2    C613920   0.329   0.983  14.351  0.6328 -1.1699  0.4967
    4TMC2     C13921   0.042   0.790  14.127 -0.0282 -0.0790 -0.9863
    4TMC2     O13922   4.730   0.695  14.185 -0.1867  0.3564 -0.1399
    4TMC2     H13923   0.099   1.058  14.114  0.4852  0.7463 -0.5965
    4TMC2    H113924   0.148   0.705  14.332 -0.7233 -0.3858 -0.0168
    4TMC2    H213925   0.406   1.029  14.412 -0.2903  1.0375 -0.0255
    4TMC2    C713926   0.387   0.752  14.424  0.4824 -0.8444 -0.3293
    4TMC2    C813927   0.337   1.174  14.206 -0.0875 -0.1390 -0.3647
    4TMC2    O113928   0.347   0.651  14.473 -0.4251 -0.1251  0.4513
    4TMC2    O213929   0.427   1.220  14.275  0.2899 -0.0860  0.4253
    4TMC2    O513930   0.349   1.145  14.071  0.5090  0.2278  0.0387
    4TMC2    H513931   0.268   1.140  14.015  3.0567  0.2334 -3.6488
    5MPD2     C13932   4.715   0.584  13.660 -0.3519  0.3332 -1.4533
    5MPD2    C113933   0.022   0.715  13.642  0.7268 -0.1668 -0.2775
    5MPD2    C213934   0.033   0.790  13.767 -0.4861 -0.2709  0.6021
    5MPD2    C313935   0.014   0.737  13.890  0.2745  1.0426 -0.0614
    5MPD2    C413936   4.699   0.611  13.898 -0.4131 -0.2201  0.0055
    5MPD2    C513937   4.679   0.544  13.783 -0.5207 -1.3586  0.2438
    5MPD2     H13938   0.071   0.892  13.765 -1.8254  0.1933 -1.5902
    5MPD2    H113939   4.665   0.556  13.986  0.1616 -1.1069 -0.3319
    5MPD2    H213940   4.700   0.514  13.579 -0.7365  1.4414 -2.3450
    5MPD2    H313941   4.622   0.451  13.786  0.8785 -2.1341  2.5932
    5MPD2     N13942   0.053   0.820  13.997 -0.3173 -0.1004 -0.5948
    5MPD2    H513943   0.097   0.908  13.969 -2.0504  1.1187  0.4768
    5MPD2    N113944   0.040   0.783  13.518 -0.0518 -0.2563  0.1007
    5MPD2    H713945   0.042   0.885  13.522  2.4742 -0.3266  0.2773
    6MPD1     C13946   4.232   2.281  13.093  0.5670  0.5845 -0.6324
    6MPD1    C113947   4.311   2.295  12.981 -0.8503 -0.0669 -0.4759
    6MPD1    C213948   4.354   2.181  12.919  0.7942  0.8111 -0.3551
    6MPD1    C313949   4.320   2.055  12.964  0.3412 -0.4038  0.4062
    6MPD1    C413950   4.233   2.040  13.066  0.1436 -0.0612 -0.6135
    6MPD1    C513951   4.194   2.155  13.132 -0.1428  0.2543  0.1045
    6MPD1     H13952   4.418   2.202  12.834  1.1879  0.0145 -0.2536
    6MPD1    H113953   4.202   1.947  13.111 -0.5781 -0.0970 -1.1765
    6MPD1    H213954   4.195   2.368  13.147 -1.5659 -0.7667  0.0668
    6MPD1    H313955   4.139   2.163  13.225  0.8391  1.5370  0.5773
    6MPD1     N13956   4.367   1.936  12.901 -0.2381 -0.6350 -0.4889
    6MPD1    H513957   4.332   1.848  12.938 -2.4905  0.8368  0.9484
    6MPD1    N113958   4.332   2.414  12.908  0.0177 -0.0568  0.0893
    6MPD1    H613959   4.422   2.413  12.860 -1.4806 -1.8709 -2.6851
    6MPD1    H713960   4.330   2.497  12.966 -1.4092 -1.6182  2.2584
    7MPD2     C13961   4.172   1.195  12.826 -0.0294  0.6485 -0.3778
    7MPD2    C113962   4.285   1.243  12.885  0.1768  0.2000 -0.4565
    7MPD2    C213963   4.363   1.154  12.954 -0.4035 -0.4207 -0.5903
    7MPD2    C313964   4.341   1.021  12.960  0.4267  0.6515  1.0913
    7MPD2    C413965   4.229   0.975  12.888  0.0039 -0.5541 -0.4891
    7MPD2    C513966   4.147   1.058  12.819 -0.9801 -0.6714  0.6139
    7MPD2     H13967   4.446   1.190  13.013 -0.1261 -0.7140 -0.8004
    7MPD2    H113968   4.211   0.868  12.880 -2.3639 -0.2756  0.9424
    7MPD2    H213969   4.108   1.262  12.770 -0.0486 -0.9435 -2.2727
    7MPD2    H313970   4.069   1.016  12.756 -1.2420 -0.6432  0.9166
    7MPD2     N13971   4.433   0.931  13.019 -0.2117 -0.0568  0.0693
    7MPD2    H513972   4.412   0.832  13.019  0.4712 -0.2132 -1.2465
    7MPD2    N113973   4.328   1.378  12.893  0.1892 -0.6231 -0.1693
    7MPD2    H713974   4.418   1.393  12.937  0.0093  0.4122 -0.1673
    8TMC3    C113975   4.628   0.842  13.114  0.7379  0.1343 -0.2805
    8TMC3    C213976   4.662   0.840  13.250  0.8639 -0.3073 -0.1029
    8TMC3    C313977   0.049   0.801  13.285  0.0786  0.9101  0.0602
    8TMC3    C413978   4.721   0.812  13.022 -0.2539 -0.4092  0.3449
    8TMC3    C513979   0.118   0.798  13.054 -0.1143 -0.0682  0.1166
    8TMC3    C613980   0.150   0.782  13.190 -0.3428  0.0147 -0.2184
    8TMC3     C13981   4.555   0.963  13.078 -0.4126 -0.3707 -0.0198
    8TMC3     O13982   4.604   1.065  13.120 -0.5586  0.6723  0.6927
    8TMC3     H13983   4.583   0.854  13.322 -1.0934 -2.1927 -1.9198
    8TMC3    H113984   4.694   0.822  12.917  0.6861 -0.9873  0.0456
    8TMC3    H213985   0.252   0.763  13.220  0.0205  0.7931 -0.9537
    8TMC3    C713986   0.203   0.878  12.969 -0.1245 -0.0205  0.2075
    8TMC3    C813987   0.059   0.712  13.401  0.6323  0.0812  0.2833
    8TMC3    O113988   0.285   0.822  12.895 -0.0396  0.2507 -0.6641
    8TMC3    O213989   0.101   0.601  13.379 -0.2228 -0.8552 -0.3524
    9TMC3    C113990   4.487   1.791  12.762  0.0975  0.3263  0.8312
    9TMC3    C213991   4.616   1.740  12.749  0.1509 -0.0659  0.3599
    9TMC3    C313992   4.628   1.604  12.744 -0.4517 -0.0878 -0.3554
    9TMC3    C413993   4.378   1.708  12.787  0.6949 -0.6289 -1.0113
    9TMC3    C513994   4.406   1.580  12.789  0.1390 -0.4778 -0.2183
    9TMC3    C613995   4.531   1.519  12.784  0.1419 -1.1912 -0.2691
    9TMC3     C13996   4.468   1.930  12.805 -0.1992 -0.3066 -0.2990
    9TMC3     O13997   4.545   2.021  12.772  0.1402  0.3303 -0.0786
    9TMC3     H13998   4.698   1.809  12.737 -1.0300  1.1274 -0.8462
    9TMC3    H113999   4.274   1.737  12.787  0.4187 -1.6433 -0.1815
    9TMC3    H214000   4.541   1.413  12.765 -2.1064 -1.2760 -1.0715
    9TMC3    C714001   4.290   1.485  12.816 -0.1582 -0.0859  0.3213
    9TMC3    C814002   0.024   1.550  12.736  0.2312  0.0467  0.8837
    9TMC3    O114003   4.198   1.491  12.738  0.1414 -0.4201  0.5054
    9TMC3    O214004   0.110   1.611  12.675  0.3854 -0.2769  0.2606
   10MPD2     C14005   0.288   1.100  12.794  0.1296 -0.0214 -0.1586
   10MPD2    C114006   0.190   1.112  12.885  0.8799  0.9288  0.0669
   10MPD2    C214007   0.110   1.226  12.885  0.4953 -0.1619 -0.6916
   10MPD2    C314008   0.131   1.338  12.804 -0.7865 -0.2335 -0.5881
   10MPD2    C414009   0.239   1.326  12.721 -0.4743 -0.0390 -0.0808
   10MPD2    C514010   0.323   1.214  12.727  0.6258 -0.6424  0.3765
   10MPD2     H14011   0.023   1.223  12.950  0.6017  1.3165 -0.4798
   10MPD2    H114012   0.263   1.410  12.656 -0.6561 -1.0886 -1.4945
   10MPD2    H214013   0.353   1.015  12.778 -1.2686 -0.8763 -1.3245
   10MPD2    H314014   0.399   1.203  12.650 -0.7686 -0.5231 -1.0216
   10MPD2     N14015   0.031   1.433  12.807  0.7704 -0.7420  0.3243
   10MPD2    H514016   4.687   1.407  12.861  0.8968 -1.1110  0.3378
   10MPD2    N114017   0.144   1.002  12.965  0.0209 -0.6587  0.2600
   10MPD2    H714018   0.074   1.025  13.034 -1.3298  1.1414 -1.7170
   11MPD2     C14019   0.868   0.582  14.444 -0.4835 -0.5651 -0.7408
   11MPD2    C114020   0.754   0.525  14.493 -0.3515  0.5936  0.2279
   11MPD2    C214021   0.637   0.601  14.484 -0.6466 -0.2568  1.7517
   11MPD2    C314022   0.631   0.729  14.427  0.1003 -1.2059 -0.2795
   11MPD2    C414023   0.749   0.776  14.370  0.1482 -0.3495  0.1604
   11MPD2    C514024   0.865   0.699  14.379 -0.8625  1.2217  0.6291
   11MPD2     H14025   0.542   0.560  14.516 -2.7314  2.1660 -1.2748
   11MPD2    H114026   0.754   0.871  14.318  1.9839  0.2470  1.4338
   11MPD2    H214027   0.953   0.515  14.439  1.8648  2.3415  0.1170
   11MPD2    H314028   0.956   0.734  14.332 -0.6556 -2.9940 -2.0746
   11MPD2     N14029   0.513   0.801  14.406  0.1694 -0.2091 -1.1500
   11MPD2    H514030   0.522   0.892  14.362  3.0898  0.3478  0.6174
   11MPD2    N114031   0.742   0.399  14.550  1.0966 -0.9613  0.8830
   11MPD2    H714032   0.649   0.370  14.579  1.5342 -2.7120  0.5042
    1MPD1     C14033   2.966   1.794  16.906 -0.8484 -0.6728  0.7884
    1MPD1    C114034   2.921   1.843  17.021 -1.0543  0.9249 -0.5518
    1MPD1    C214035   3.005   1.897  17.112 -0.3297  0.4007  0.5310
    1MPD1    C314036   3.136   1.927  17.073 -0.1940  0.3457 -0.1742
    1MPD1    C414037   3.177   1.887  16.949 -0.1464  0.9042 -0.0253
    1MPD1    C514038   3.093   1.823  16.866 -0.3321  0.0590  0.3329
    1MPD1     H14039   2.962   1.939  17.202  1.1712 -2.3169  2.4988
    1MPD1    H114040   3.276   1.914  16.914 -0.2149 -0.6301 -1.4198
    1MPD1    H214041   2.908   1.735  16.836  0.1257 -2.4805  1.5013
    1MPD1    H314042   3.128   1.769  16.779  0.8398  1.3692  0.0007
    1MPD1     N14043   3.226   1.997  17.157  0.0966 -0.6447  0.7022
    1MPD1    H514044   3.311   2.025  17.109 -1.6735  3.1121 -0.3313
    1MPD1    N114045   2.784   1.817  17.057 -0.1909 -0.0585  0.1021
    1MPD1    H614046   2.752   1.883  17.128  0.7718  1.0671 -0.5095
    1MPD1    H714047   2.722   1.816  16.977 -1.1357  2.2030  0.7775
    2MPD1     C14048   3.425   2.429   0.402  0.1262 -0.1380  0.3201
    2MPD1    C114049   3.514   2.331   0.371 -0.2713  0.0928 -0.0714
    2MPD1    C214050   3.525   2.289   0.239 -0.3440  0.1428 -0.7279
    2MPD1    C314051   3.436   2.326   0.137  0.2838 -0.1162  0.0117
    2MPD1    C414052   3.339   2.423   0.173 -0.4222 -0.0708 -0.0323
    2MPD1    C514053   3.339   2.477   0.307  0.2468 -0.7754  0.4493
    2MPD1     H14054   3.600   2.213   0.218  1.9983  2.3496 -0.3817
    2MPD1    H114055   3.269   2.458   0.099 -3.4253 -5.1862  0.3927
    2MPD1    H214056   3.396   2.456   0.503 -0.3467  0.3144  0.0646
    2MPD1    H314057   3.257   2.542   0.336 -0.2781 -1.9740  1.6574
    2MPD1     N14058   3.463   2.286   0.006 -0.8418 -0.5185  0.3373
    2MPD1    H514059   3.550   2.238  17.729 -0.2995  1.9285 -2.6063
    2MPD1    N114060   3.581   2.266   0.479  0.1507  0.0750 -0.0817
    2MPD1    H614061   3.660   2.211   0.445  0.2221 -1.4302  2.5049
    2MPD1    H714062   3.607   2.326   0.557  0.2265  1.5664 -1.2411
    3TMC3    C114063   3.399   2.212  17.539  0.2162 -0.5539  0.0404
    3TMC3    C214064   3.520   2.225  17.487 -1.3658  1.1619  0.1246
    3TMC3    C314065   3.531   2.175  17.356  0.6255  0.3069 -0.6531
    3TMC3    C414066   3.293   2.158  17.474  0.3231 -0.2732 -0.3928
    3TMC3    C514067   3.315   2.109  17.345  0.7013  0.3502  0.2122
    3TMC3    C614068   3.433   2.117  17.282 -0.0268 -0.2923 -1.1123
    3TMC3     C14069   3.365   2.290  17.655  0.3938 -0.4206 -0.8384
    3TMC3     O14070   3.251   2.327  17.664 -0.0791 -0.1788 -0.1466
    3TMC3     H14071   3.593   2.276  17.547 -1.2115  0.4881  0.5091
    3TMC3    H114072   3.193   2.163  17.515  1.1008 -1.4956  1.6472
    3TMC3    H214073   3.458   2.078  17.184  0.5973 -0.5133 -0.8694
    3TMC3    C714074   3.197   2.043  17.284  0.2548 -0.0339  0.1834
    3TMC3    C814075   3.663   2.190  17.290  0.3284 -0.5647 -0.3258
    3TMC3    O114076   3.094   2.058  17.350  0.4391 -0.6754 -0.1026
    3TMC3    O214077   3.667   2.149  17.173 -0.4321 -0.2337  0.0935
    4MPD1     C14078   4.171   2.274  17.297 -0.0389  0.2201 -0.2199
    4MPD1    C114079   4.116   2.323  17.414  0.0623 -0.0965 -0.2164
    4MPD1    C214080   3.975   2.326  17.422 -0.1628 -0.3842 -0.7826
    4MPD1    C314081   3.896   2.261  17.332 -0.0715 -0.3078  0.0135
    4MPD1    C414082   3.948   2.220  17.217 -0.3245  0.1232 -0.1727
    4MPD1    C514083   4.088   2.229  17.200 -0.5482 -0.9656 -0.3612
    4MPD1     H14084   3.926   2.368  17.510  2.0783 -1.2628  0.8888
    4MPD1    H114085   3.894   2.165  17.141  0.1622 -3.0944  1.8256
    4MPD1    H214086   4.277   2.281  17.276 -0.2522  1.1070 -1.0419
    4MPD1    H314087   4.131   2.189  17.109  0.7442  1.7969 -0.9559
    4MPD1     N14088   3.754   2.257  17.362  0.0957 -0.8610  0.1029
    4MPD1    H514089   3.726   2.297  17.451  0.0821  2.9129 -1.6082
    4MPD1    N114090   4.205   2.392  17.498 -0.4874 -0.2261 -0.8383
    4MPD1    H614091   4.174   2.384  17.595  0.5117 -0.6706 -0.5477
    4MPD1    H714092   4.297   2.349  17.490  1.1836  3.0738  0.5770
    1TCq1    O114093   4.460   1.550  12.124 -0.2768 -0.7507 -0.0987
    1TCq1    C114094   4.387   1.495  12.025 -0.1768  0.4134 -0.5100
    1TCq1    O214095   4.269   1.473  12.031  0.1211  0.3708  0.2242
    1TCq1    C214096   4.457   1.526  11.899 -0.5922  0.2028  0.4428
    1TCq1    C314097   4.587   1.499  11.893  0.3940  0.0294 -0.5017
    1TCq1    C414098   4.644   1.500  11.770  0.6744  0.6809  0.2394
    1TCq1    C514099   4.570   1.520  11.654  0.3546  0.1610  0.5504
    1TCq1    C614100   4.440   1.553  11.669 -0.6074 -0.4502  0.2763
    1TCq1    C714101   4.375   1.560  11.791 -0.4961 -0.1366  0.3670
    1TCq1    C814102   4.357   1.575  11.550 -0.3274  0.0692 -0.1219
    1TCq1    O414103   4.236   1.607  11.559  0.1323 -0.3134 -0.1600
    1TCq1    C914104   0.030   1.433  11.761  0.7819 -0.6168 -0.3998
    1TCq1    O514105   0.079   1.415  11.873 -0.1616 -0.1699 -0.5483
    1TCq1    O614106   0.064   1.376  11.650  0.3207 -0.4618  0.2286
    1TCq1    H114107   4.544   1.589  12.092  0.2593 -0.5168  1.5624
    1TCq1    H214108   4.629   1.446  11.978 -0.8550  0.9333  0.6766
    1TCq1    H314109   4.626   1.514  11.561 -3.6989  0.6940 -1.9405
    1TCq1    H414110   4.271   1.581  11.811 -1.1017 -2.5340 -0.3433
    2MPD1     C14111   4.303   1.624  11.029 -0.3857  0.6289 -0.8309
    2MPD1    C114112   4.429   1.577  11.058 -0.5423 -0.3732  0.4538
    2MPD1    C214113   4.462   1.574  11.193 -0.2065 -0.3182  0.3000
    2MPD1    C314114   4.386   1.601  11.297 -0.0372  0.2905  0.6216
    2MPD1    C414115   4.253   1.637  11.259 -0.0164 -0.0731 -1.2138
    2MPD1    C514116   4.208   1.647  11.128 -0.1947 -0.1404 -0.5744
    2MPD1     H14117   4.560   1.530  11.206  0.8707  1.0868 -3.1666
    2MPD1    H114118   4.181   1.672  11.331 -0.7603 -0.1732 -1.9135
    2MPD1    H214119   4.273   1.631  10.925 -0.3921  1.1783 -0.7943
    2MPD1    H314120   4.107   1.675  11.101  0.1441  0.8403 -0.8141
    2MPD1     N14121   4.431   1.576  11.431 -0.3844  0.1869 -0.1299
    2MPD1    H514122   4.530   1.555  11.441 -0.5884 -2.1629 -2.8197
    2MPD1    N114123   4.519   1.548  10.954  0.2651  0.1552 -1.0266
    2MPD1    H614124   4.592   1.485  10.990 -0.9194 -0.9486 -0.5545
    2MPD1    H714125   4.478   1.509  10.870  1.2662  0.3540 -1.6114
    1TMC1    C114126   2.838   0.053  17.612 -0.4842  0.1656  0.2642
    1TMC1    C214127   2.775   4.682  17.559  0.0936  0.3872 -0.0556
    1TMC1    C314128   2.701   4.703  17.446 -0.6305 -0.3261  0.0735
    1TMC1    C414129   2.835   0.175  17.566 -0.2457 -0.2224  0.0051
    1TMC1    C514130   2.755   0.194  17.459  0.1091 -0.2414 -0.6065
    1TMC1    C614131   2.694   0.089  17.391  0.4483  0.4607 -0.4244
    1TMC1     C14132   2.930   0.015  17.716 -0.1740 -0.5301 -0.5431
    1TMC1     O14133   2.917   4.653   0.034  0.2236  0.2852  0.2503
    1TMC1     H14134   2.791   4.584  17.602 -0.6821  0.4189  0.2978
    1TMC1    H114135   2.875   0.254  17.628 -0.3305  0.1702 -0.4491
    1TMC1    H214136   2.621   0.107  17.312 -0.6901  0.0660  0.5271
    1TMC1    C714137   2.767   0.321  17.385  0.2965  0.5415 -0.4042
    1TMC1    C814138   2.656   4.592  17.360  0.1924  0.3348 -0.3645
    1TMC1    O114139   2.709   0.330  17.277  0.6622 -0.1929 -0.3650
    1TMC1    O214140   2.647   4.604  17.237 -0.1864 -0.6915 -0.2321
    1TMC1    O314141   2.761   0.420  17.478  0.4321 -0.0985  0.8271
    1TMC1    H314142   2.834   0.431  17.542 -0.7708  1.6909  1.8965
    1TMC1    O514143   2.684   4.470  17.417  0.0599 -0.5417  0.4217
    1TMC1    H514144   2.674   4.473  17.515  1.6121  1.7265  0.5182
    2MPD1     C14145   3.356   0.027   0.241 -0.5403 -0.4246  0.0286
    2MPD1    C114146   3.383   0.094   0.126 -1.0512  0.5112 -0.4141
    2MPD1    C214147   3.282   0.105   0.036 -0.3117  0.7208 -0.1398
    2MPD1    C314148   3.148   0.067   0.066 -0.2919 -0.1207 -0.3636
    2MPD1    C414149   3.123   0.017   0.190  0.1478 -0.6731 -0.6111
    2MPD1    C514150   3.224   0.007   0.278 -0.2099 -0.5887 -0.6525
    2MPD1     H14151   3.310   0.142  17.685  1.3724 -1.7055 -0.5591
    2MPD1    H114152   3.026   4.730   0.230  0.6276  0.8654  1.4796
    2MPD1    H214153   3.425   0.020   0.324 -1.3993  0.5131  0.8212
    2MPD1    H314154   3.204   4.700   0.375 -0.5997  0.8619 -0.0850
    2MPD1     N14155   3.044   0.089  17.719 -0.7405 -0.2068 -0.4414
    2MPD1    H514156   3.064   0.146  17.637 -0.8292  0.4843  0.0207
    2MPD1    N114157   3.510   0.132   0.096 -0.5688  0.4137  0.6788
    2MPD1    H614158   3.575   0.142   0.173  1.7154 -2.1637 -0.9124
    2MPD1    H714159   3.509   0.216   0.039 -0.5824 -0.5843 -0.7781
    1MPD1     C14160   1.377   0.520  12.121 -0.8887 -0.4471  0.3968
    1MPD1    C114161   1.378   0.611  12.225 -0.3643 -0.7234  0.0197
    1MPD1    C214162   1.427   0.738  12.201 -0.1414 -0.0029  0.3651
    1MPD1    C314163   1.477   0.774  12.071 -0.1984 -0.3907 -0.0355
    1MPD1    C414164   1.471   0.681  11.967 -0.5253  0.5542 -0.1871
    1MPD1    C514165   1.429   0.552  11.999  0.7156  0.7503  0.0473
    1MPD1     H14166   1.442   0.810  12.280 -1.0309 -1.2266  1.6455
    1MPD1    H114167   1.503   0.692  11.864  3.3248 -1.0895  0.8096
    1MPD1    H214168   1.352   0.416  12.135  1.8384 -1.1411  0.0740
    1MPD1    H314169   1.445   0.474  11.926  0.0583  0.4616  0.2121
    1MPD1     N14170   1.512   0.913  12.050  0.0445 -0.5313  0.1429
    1MPD1    H514171   1.514   0.964  12.137 -1.0726 -1.5644  0.7874
    1MPD1    N114172   1.350   0.570  12.353 -0.0869  0.0553 -0.7970
    1MPD1    H614173   1.339   0.640  12.427  1.6500  1.3497 -1.7512
    1MPD1    H714174   1.266   0.514  12.360 -0.5282  0.8892  0.6306
    2MPD1     C14175   1.453   2.863  10.001  0.7423 -0.3718  0.0899
    2MPD1    C114176   1.322   2.821   9.993 -0.0634 -0.0880 -0.2978
    2MPD1    C214177   1.275   2.702  10.058  0.2908  0.5653 -0.6977
    2MPD1    C314178   1.369   2.638  10.132 -0.1607  0.3867  0.1665
    2MPD1    C414179   1.504   2.682  10.144 -0.2703 -0.4480  0.3354
    2MPD1    C514180   1.545   2.790  10.071 -0.2459  0.0439  0.5646
    2MPD1     H14181   1.179   2.660  10.030  0.4084  0.7323 -1.3433
    2MPD1    H114182   1.584   2.631  10.196 -1.4151 -1.4250  1.1445
    2MPD1    H214183   1.491   2.937   9.932  1.2104 -2.3544 -1.7733
    2MPD1    H314184   1.652   2.810  10.073 -0.6051  2.1121 -0.5384
    2MPD1     N14185   1.324   2.523  10.206  0.7733 -0.2795  0.2742
    2MPD1    H514186   1.227   2.496  10.195  0.6110  0.1941  0.5323
    2MPD1    N114187   1.237   2.875   9.895 -0.3621  0.1337  0.1872
    2MPD1    H614188   1.138   2.867   9.917 -0.4297  0.4997  0.0168
    2MPD1    H714189   1.262   2.973   9.884 -0.7793  0.0262 -1.6304
    3MPD1     C14190   0.643   1.822  10.320  0.0221 -0.6955  0.6687
    3MPD1    C114191   0.742   1.765  10.386  0.7068 -0.3358 -0.5945
    3MPD1    C214192   0.853   1.840  10.408 -0.0171  0.1124  0.9304
    3MPD1    C314193   0.867   1.969  10.363 -0.3127  0.2933 -0.4381
    3MPD1    C414194   0.750   2.024  10.310  0.3765  0.0571 -0.4126
    3MPD1    C514195   0.638   1.953  10.287 -0.2840 -0.3695 -0.3400
    3MPD1     H14196   0.935   1.793  10.461  0.6387  1.0125  0.7165
    3MPD1    H114197   0.744   2.131  10.300 -1.5010 -0.2516 -2.4990
    3MPD1    H214198   0.550   1.767  10.306 -1.5941  2.2644 -0.3485
    3MPD1    H314199   0.543   2.000  10.265 -2.0473 -3.1566  1.3138
    3MPD1     N14200   0.982   2.040  10.403  0.1986  0.6475  0.0329
    3MPD1    H514201   1.057   1.998  10.458 -0.7482  2.3123  2.6094
    3MPD1    N114202   0.721   1.637  10.449  0.2126 -0.4538 -0.0450
    3MPD1    H614203   0.657   1.574  10.401 -4.7885  2.6555  2.5652
    3MPD1    H714204   0.809   1.589  10.469  1.1379  0.9874 -0.7492
    4MPD2     C14205   1.323   1.688  12.001  0.0072 -0.2613 -0.5104
    4MPD2    C114206   1.455   1.656  11.978  0.1293 -0.0342 -0.9631
    4MPD2    C214207   1.524   1.739  11.891 -0.5323  0.2415 -0.3988
    4MPD2    C314208   1.465   1.849  11.831  0.1052  0.6456  0.2814
    4MPD2    C414209   1.336   1.880  11.869 -0.3233 -0.6086 -0.3572
    4MPD2    C514210   1.259   1.800  11.953 -0.1938 -0.2079 -0.6578
    4MPD2     H14211   1.624   1.712  11.860  0.1953  1.3280  0.9628
    4MPD2    H114212   1.277   1.964  11.834  1.0491  0.1291 -0.8867
    4MPD2    H214213   1.259   1.625  12.063 -1.4538  0.6530 -1.0868
    4MPD2    H314214   1.167   1.839  11.996 -1.0118 -0.7626 -1.8851
    4MPD2     N14215   1.527   1.922  11.724 -0.0772  0.7828  0.0802
    4MPD2    H514216   1.619   1.884  11.704 -0.7258 -0.5595 -0.3408
    4MPD2    N114217   1.520   1.532  12.018  0.2950 -0.0222 -0.3369
    4MPD2    H714218   1.612   1.517  11.976  1.6416  2.0351  1.8651
    5TMC3    C114219   1.556   1.314  12.080  0.2899 -0.2047  0.1398
    5TMC3    C214220   1.507   1.193  12.049  0.1740 -0.3362  0.3561
    5TMC3    C314221   1.580   1.117  11.963  0.2101 -0.4459  0.3838
    5TMC3    C414222   1.681   1.360  12.048 -0.8631  0.7508 -0.9848
    5TMC3    C514223   1.750   1.276  11.959  0.2679  0.4285  0.4477
    5TMC3    C614224   1.698   1.155  11.912  0.5210  0.0213 -0.3161
    5TMC3     C14225   1.464   1.427  12.087  0.2226 -0.0111 -0.2092
    5TMC3     O14226   1.353   1.408  12.130 -0.3697  0.4437  0.0619
    5TMC3     H14227   1.409   1.155  12.076 -0.3258 -1.4596 -3.0376
    5TMC3    H114228   1.727   1.443  12.100 -0.2977 -0.5108  0.5308
    5TMC3    H214229   1.752   1.100  11.835  0.3579 -1.4396  0.6076
    5TMC3    C714230   1.820   1.357  11.865 -0.5599  0.0476  0.6094
    5TMC3    C814231   1.555   0.975  11.937 -0.5308 -0.1055  0.0328
    5TMC3    O114232   1.833   1.473  11.902 -0.5917 -0.3424 -0.3110
    5TMC3    O214233   1.600   0.926  11.833  0.1446 -0.7980 -0.7588
    6TMC3    C114234   1.321   2.350  10.371  0.3975  0.1520  0.1479
    6TMC3    C214235   1.194   2.320  10.343  0.1121 -0.0102 -0.0535
    6TMC3    C314236   1.133   2.229  10.421  0.2927 -0.1577  0.3826
    6TMC3    C414237   1.390   2.280  10.473 -0.2996 -0.4484  0.2559
    6TMC3    C514238   1.314   2.195  10.550 -0.1609 -0.0166 -0.0111
    6TMC3    C614239   1.184   2.175  10.534 -0.0423 -0.2317 -0.1838
    6TMC3     C14240   1.400   2.448  10.296  0.0812 -0.5436 -0.4288
    6TMC3     O14241   1.522   2.445  10.308  0.1668 -0.0116  0.9161
    6TMC3     H14242   1.142   2.365  10.259 -1.3955 -5.8359 -2.2424
    6TMC3    H114243   1.492   2.307  10.498 -0.5232  0.3872  0.2778
    6TMC3    H214244   1.122   2.109  10.594 -1.3680  1.9358  0.8421
    6TMC3    C714245   1.375   2.137  10.664 -0.7514 -1.0665  0.3662
    6TMC3    C814246   1.005   2.172  10.368 -0.0281  0.5659 -0.6753
    6TMC3    O114247   1.306   2.122  10.765  0.4711  0.0824 -0.9117
    6TMC3    O214248   0.941   2.242  10.290 -0.3175  0.2389 -0.0290
    7MPD2     C14249   1.963   1.475  11.388 -0.1803 -0.2799  0.3633
    7MPD2    C114250   1.912   1.557  11.486  0.5530 -0.0685 -0.3011
    7MPD2    C214251   1.882   1.499  11.609  0.2015 -0.5021  0.5257
    7MPD2    C314252   1.900   1.365  11.635 -0.1445 -0.3493 -0.4493
    7MPD2    C414253   1.954   1.286  11.533  0.7251  0.2023  0.4041
    7MPD2    C514254   1.988   1.342  11.412  0.2890  0.0142  0.5973
    7MPD2     H14255   1.842   1.551  11.695  0.3722  0.0326  0.2845
    7MPD2    H114256   2.003   1.196  11.568 -2.3587 -1.1577  1.2319
    7MPD2    H214257   2.002   1.517  11.296  0.9771  0.7403  1.3289
    7MPD2    H314258   2.060   1.289  11.351 -1.1822 -0.9404 -0.3135
    7MPD2     N14259   1.866   1.298  11.753  0.0857 -0.3466 -0.0559
    7MPD2    H514260   1.864   1.197  11.757  0.9610 -0.2281  3.4310
    7MPD2    N114261   1.872   1.691  11.445  0.5422 -0.1544  0.6600
    7MPD2    H714262   1.890   1.715  11.348 -1.5224  0.0161  0.3054
    8TMC3    C114263   1.740   1.890  11.465 -0.1168 -0.3633 -0.2774
    8TMC3    C214264   1.680   1.859  11.343 -0.1885  0.3777 -0.4096
    8TMC3    C314265   1.572   1.939  11.307  0.7523  0.0033  0.4041
    8TMC3    C414266   1.688   1.976  11.553  0.1359 -0.3006  0.2830
    8TMC3    C514267   1.567   2.035  11.525 -0.0936 -0.1597  0.3189
    8TMC3    C614268   1.520   2.029  11.397 -0.3556 -0.0038  0.2917
    8TMC3     C14269   1.817   1.790  11.526 -0.2203  0.1715  0.0151
    8TMC3     O14270   1.788   1.789  11.647 -0.1911 -0.5640  0.5795
    8TMC3     H14271   1.726   1.794  11.270 -0.4971 -0.4634  0.1346
    8TMC3    H114272   1.731   1.997  11.651  0.8133 -1.5275  0.2507
    8TMC3    H214273   1.435   2.090  11.370  0.2051  0.5405 -0.2399
    8TMC3    C714274   1.471   2.003  11.630 -0.2064  0.1563 -0.1856
    8TMC3    C814275   1.530   1.971  11.165  0.3101  0.1834 -0.0118
    8TMC3    O114276   1.357   2.039  11.615 -0.9913 -0.0934 -0.4842
    8TMC3    O214277   1.417   2.001  11.141 -0.2413 -0.0585 -0.1437
    9MPD2     C14278   1.796   1.978  10.913  0.3618 -0.5248 -0.2954
    9MPD2    C114279   1.659   1.981  10.954 -0.5064  0.0962  0.6551
    9MPD2    C214280   1.560   2.021  10.863  0.6566 -0.3178  0.4415
    9MPD2    C314281   1.598   2.064  10.739 -0.3429  0.2985  0.1986
    9MPD2    C414282   1.730   2.049  10.694  0.1949  0.1815 -0.0421
    9MPD2    C514283   1.824   2.013  10.783  0.1717 -0.5907 -0.0291
    9MPD2     H14284   1.457   2.019  10.898  0.2968 -0.0038 -0.6199
    9MPD2    H114285   1.771   2.097  10.606 -1.2442  0.6847 -0.4335
    9MPD2    H214286   1.873   1.958  10.986  1.8110  1.2614 -1.3331
    9MPD2    H314287   1.924   2.010  10.741 -0.4178  1.6965 -1.6169
    9MPD2     N14288   1.511   2.116  10.644 -0.5542 -0.1102 -0.7657
    9MPD2    H514289   1.547   2.138  10.552 -1.3785  2.6844 -0.4103
    9MPD2    N114290   1.640   1.952  11.092  0.3162  0.2092 -0.0523
    9MPD2    H714291   1.727   1.923  11.136  0.7427 -4.5741 -3.9152
    1MPD1     C14292   0.968   1.504  16.673 -0.4853 -0.5814  1.1309
    1MPD1    C114293   0.927   1.476  16.547  0.6869 -1.0684  0.0763
    1MPD1    C214294   0.843   1.366  16.530  0.1542  0.7245 -0.5790
    1MPD1    C314295   0.826   1.282  16.633  1.0581 -0.4693 -0.1920
    1MPD1    C414296   0.865   1.308  16.759 -0.1385 -0.2165  0.2905
    1MPD1    C514297   0.945   1.417  16.779  0.3423 -0.2463  0.0788
    1MPD1     H14298   0.814   1.344  16.427  0.5398  1.0575 -0.7599
    1MPD1    H114299   0.845   1.243  16.843 -0.4862 -0.1073  0.2929
    1MPD1    H214300   1.024   1.594  16.698  1.1532 -1.5120  0.7931
    1MPD1    H314301   0.980   1.435  16.880 -3.4001  0.2683  1.2850
    1MPD1     N14302   0.743   1.168  16.616  0.1321 -0.7880  0.4063
    1MPD1    H514303   0.721   1.112  16.698 -1.2408 -1.2314 -0.2664
    1MPD1    N114304   0.946   1.577  16.449 -0.2025  0.0818 -0.4776
    1MPD1    H614305   1.045   1.598  16.450  0.0024 -0.9304  1.5829
    1MPD1    H714306   0.929   1.537  16.357  0.8828  2.9439 -1.8873
    2TMC2    C114307   0.614   0.747  16.499  0.0299  0.3228 -0.5337
    2TMC2    C214308   0.532   0.740  16.607 -0.1066  0.1184  0.0223
    2TMC2    C314309   0.512   0.860  16.680 -0.6689  0.5633 -0.4564
    2TMC2    C414310   0.660   0.868  16.449  0.5496 -0.2343  0.1543
    2TMC2    C514311   0.637   0.982  16.529 -0.3154 -0.1589  0.0342
    2TMC2    C614312   0.567   0.981  16.645  0.2799  0.4500  0.1148
    2TMC2     C14313   0.628   0.622  16.418  0.4622  0.4097 -0.3240
    2TMC2     O14314   0.567   0.527  16.452 -0.3298 -0.1925  0.4009
    2TMC2     H14315   0.501   0.646  16.650  2.0641 -1.7392 -2.5399
    2TMC2    H114316   0.723   0.882  16.362 -2.1370 -1.5971 -2.0349
    2TMC2    H214317   0.535   1.071  16.697 -0.0073  1.3066 -1.5466
    2TMC2    C714318   0.710   1.108  16.496 -0.3184 -0.5684  1.0755
    2TMC2    C814319   0.413   0.858  16.780  0.1468 -0.0934 -0.4872
    2TMC2    O114320   0.766   1.119  16.386 -0.0045  0.2300 -0.8522
    2TMC2    O214321   0.336   0.764  16.794 -0.2611  0.4860 -0.3638
    2TMC2    O514322   0.477   0.910  16.884  1.1472 -0.0721 -0.7635
    2TMC2    H514323   0.567   0.950  16.880  1.9278 -1.5197  2.2872
    3MPD1     C14324   0.764   0.352  15.998 -0.2698 -0.3266 -0.0998
    3MPD1    C114325   0.824   0.477  15.986 -0.3198  0.8319 -0.0339
    3MPD1    C214326   0.803   0.568  16.094 -0.2845  0.2292  0.1638
    3MPD1    C314327   0.726   0.531  16.205  0.9153 -0.2830  0.1234
    3MPD1    C414328   0.681   0.402  16.218 -0.6061 -0.4430 -0.5392
    3MPD1    C514329   0.694   0.313  16.114 -0.5982 -0.2130 -0.0920
    3MPD1     H14330   0.838   0.671  16.090 -2.4004  0.9343  0.2329
    3MPD1    H114331   0.629   0.374  16.309  0.1788  2.1484  0.6913
    3MPD1    H214332   0.761   0.285  15.913  0.7275  0.5338 -0.8129
    3MPD1    H314333   0.642   0.218  16.120  2.0782 -1.7163 -0.8664
    3MPD1     N14334   0.699   0.635  16.297  0.7279  0.1891 -0.2168
    3MPD1    H514335   0.734   0.729  16.284  1.1011  0.2222  1.0920
    3MPD1    N114336   0.885   0.524  15.865 -0.0993  0.8799  0.3649
    3MPD1    H614337   0.934   0.454  15.810 -0.3456  2.2673 -1.6265
    3MPD1    H714338   0.963   0.588  15.879  0.9884 -0.8432  2.1652
    1TMC1    C114339   3.979   4.109  12.968 -0.1570  0.0682  0.0093
    1TMC1    C214340   3.920   4.031  13.067 -0.7515 -0.7782 -0.6824
    1TMC1    C314341   3.804   3.967  13.042  0.2896  0.6302  0.5624
    1TMC1    C414342   3.920   4.119  12.844  0.2453 -0.2111  0.7689
    1TMC1    C514343   3.799   4.050  12.824  0.8357  0.9309  0.0609
    1TMC1    C614344   3.736   3.978  12.922 -0.5330 -0.0421 -0.4375
    1TMC1     C14345   4.109   4.179  12.997 -0.0951 -0.6475 -0.0698
    1TMC1     O14346   4.165   4.146  13.101  0.0631  0.3862 -0.1000
    1TMC1     H14347   3.966   4.020  13.165 -0.0882  0.6476 -0.8274
    1TMC1    H114348   3.940   4.199  12.773 -2.0661 -1.5351 -1.3615
    1TMC1    H214349   3.653   3.911  12.902  0.9538 -1.7285 -0.9364
    1TMC1    C714350   3.734   4.052  12.693 -0.7573 -0.4383  0.1868
    1TMC1    C814351   3.713   3.952  13.153  0.9319  0.2027  0.2139
    1TMC1    O114352   3.615   4.026  12.683 -0.3431 -0.0763 -0.1943
    1TMC1    O214353   3.603   3.902  13.133  0.4785  0.0738 -0.4374
    1TMC1    O314354   3.824   4.022  12.602 -0.0027  0.0872  0.6743
    1TMC1    H314355   3.914   4.017  12.640 -0.2471 -1.4671  1.0590
    1TMC1    O514356   3.727   4.051  13.237  0.0410 -0.3739  0.1168
    1TMC1    H514357   3.802   4.113  13.226  1.0162 -1.7633 -1.0454
    2MPD2     C14358   4.272   4.466  12.826  0.7843  0.1123 -0.1924
    2MPD2    C114359   4.265   4.360  12.909  0.6788 -0.1721  0.0598
    2MPD2    C214360   4.370   4.331  12.997  0.5074 -0.3019 -0.0860
    2MPD2    C314361   4.489   4.399  12.983 -0.2984 -0.2385  0.3171
    2MPD2    C414362   4.495   4.500  12.883  0.0022 -0.2757 -0.2480
    2MPD2    C514363   4.386   4.539  12.812  0.1136  0.5669  0.2327
    2MPD2     H14364   4.369   4.242  13.059  0.1358 -0.2034  0.0542
    2MPD2    H114365   4.587   4.557  12.869  0.6344 -0.7580  1.8754
    2MPD2    H214366   4.188   4.470  12.758 -0.2577 -2.4906  0.9497
    2MPD2    H314367   4.386   4.617  12.737 -0.9037  1.6291  1.3372
    2MPD2     N14368   4.593   4.374  13.068  0.2230 -0.1733 -0.3131
    2MPD2    H514369   4.569   4.299  13.132  0.9736  0.0003  0.1690
    2MPD2    N114370   4.144   4.276  12.900 -0.4701  0.8481  0.2150
    2MPD2    H714371   4.075   4.303  12.831 -0.0318  0.2880 -0.4429
    3TCq1    O114372   0.158   3.915  13.104  0.0647  0.1432 -0.3597
    3TCq1    C114373   0.137   3.994  13.214  0.0396  0.1402  0.5333
    3TCq1    O214374   0.044   3.972  13.292  0.4231 -0.3182 -0.0205
    3TCq1    C214375   0.166   4.133  13.179  0.6285  0.2507 -0.3985
    3TCq1    C314376   0.288   4.174  13.219 -0.5668 -0.0508  0.0572
    3TCq1    C414377   0.305   4.312  13.206 -0.5913  0.9946  0.0733
    3TCq1    C514378   0.207   4.390  13.156  0.2284 -0.2204 -0.0550
    3TCq1    C614379   0.082   4.343  13.130 -0.5916  0.1094 -0.2254
    3TCq1    C714380   0.064   4.215  13.149 -0.4286 -0.9349 -0.2233
    3TCq1    C814381   4.724   4.422  13.058 -0.1559  0.4872 -1.0476
    3TCq1    O414382   0.036   4.511  12.990 -0.3452  0.2890 -0.2772
    3TCq1    C914383   0.436   4.363  13.239  0.3788 -0.0573 -0.5426
    3TCq1    O514384   0.519   4.279  13.281 -0.2878 -0.6769 -0.0138
    3TCq1    O614385   0.417   4.484  13.271  0.0935 -0.6970  0.0357
    3TCq1    H114386   0.213   3.963  13.038  1.4875 -0.1222  0.6207
    3TCq1    H214387   0.361   4.098  13.246  0.1639  0.9344  0.8502
    3TCq1    H314388   0.224   4.497  13.142  0.3842 -0.1094  0.9600
    3TCq1    H414389   4.703   4.172  13.130 -0.0067 -1.7147 -0.6373
    1MPD2     C14390   3.225   0.760  15.043  0.1800  0.2203 -0.6702
    1MPD2    C114391   3.154   0.646  15.045 -0.4421 -0.0017 -0.0012
    1MPD2    C214392   3.161   0.568  14.933 -0.1020 -0.2888 -0.6294
    1MPD2    C314393   3.235   0.603  14.824 -0.1522 -1.0168 -0.5685
    1MPD2    C414394   3.302   0.719  14.820 -0.2897 -1.5088 -0.6769
    1MPD2    C514395   3.286   0.800  14.928  0.0781 -0.1080 -0.4451
    1MPD2     H14396   3.106   0.475  14.930  0.8130 -0.8252 -0.8978
    1MPD2    H114397   3.351   0.761  14.733 -0.6246  1.0775  0.3692
    1MPD2    H214398   3.232   0.826  15.129 -0.7760 -0.1688 -0.2903
    1MPD2    H314399   3.332   0.898  14.923 -1.1920  0.6850  3.4361
    1MPD2     N14400   3.243   0.511  14.709 -0.1857  0.3862  0.2818
    1MPD2    H514401   3.205   0.419  14.723  0.1126 -0.1411 -2.2938
    1MPD2    N114402   3.073   0.629  15.159 -0.0724 -0.8401 -0.2405
    1MPD2    H714403   3.093   0.695  15.233  0.5022  0.6188 -1.7039
    2TMC3    C114404   2.918   0.503  15.297  0.1938 -0.3622 -0.1084
    2TMC3    C214405   2.855   0.385  15.300 -0.3111 -0.2189 -0.0455
    2TMC3    C314406   2.723   0.374  15.295  0.1163  0.0489  0.7746
    2TMC3    C414407   2.840   0.627  15.296 -0.0064 -0.4679  1.1805
    2TMC3    C514408   2.713   0.608  15.315 -0.2788  0.3579 -0.1417
    2TMC3    C614409   2.650   0.493  15.298  1.3784  0.0047 -0.6232
    2TMC3     C14410   3.012   0.509  15.188 -0.2931 -0.5117 -0.8896
    2TMC3     O14411   3.012   0.401  15.126  0.4325 -0.1620 -0.4755
    2TMC3     H14412   2.922   0.301  15.316 -0.7236 -0.6732 -0.6908
    2TMC3    H114413   2.885   0.723  15.320 -0.9121 -0.2894  2.1635
    2TMC3    H214414   2.542   0.487  15.283  1.5148  0.5212 -1.8832
    2TMC3    C714415   2.631   0.731  15.322  0.0130  1.0134  0.2478
    2TMC3    C814416   2.673   0.288  15.199  0.9266  0.9263  0.1260
    2TMC3    O114417   2.683   0.829  15.272 -0.0713 -0.3210 -0.7794
    2TMC3    O214418   2.551   0.267  15.191 -0.2551 -0.6640  0.2629
    3TCq1    O114419   1.769   1.085  16.060  0.4579  0.6525 -0.3089
    3TCq1    C114420   1.778   0.962  16.112 -0.1778  0.4176  0.8157
    3TCq1    O214421   1.718   0.915  16.204 -0.1618  0.2565  0.0608
    3TCq1    C214422   1.871   0.883  16.026 -0.0525  0.1626 -0.3097
    3TCq1    C314423   1.924   0.771  16.082 -0.1627  0.0186  0.2576
    3TCq1    C414424   2.013   0.695  16.008  0.4192  0.2465  0.8011
    3TCq1    C514425   2.028   0.721  15.875 -0.1136 -0.3837 -0.1237
    3TCq1    C614426   1.964   0.832  15.821 -0.6718  0.3966  0.5442
    3TCq1    C714427   1.882   0.908  15.895  0.2226  0.4379 -0.8962
    3TCq1    C814428   2.019   0.896  15.700  0.5506  0.3821  0.2799
    3TCq1    O414429   1.970   0.996  15.651 -0.1118  0.2717 -0.3979
    3TCq1    C914430   2.053   0.583  16.077 -0.2465 -0.3891  0.3645
    3TCq1    O514431   2.055   0.593  16.204  0.3822  0.2566  0.7430
    3TCq1    O614432   2.107   0.499  16.006  0.2739  0.3676 -0.1041
    3TCq1    H114433   1.846   1.122  16.011  2.9123 -1.9913  1.5077
    3TCq1    H214434   1.910   0.751  16.187  0.9147 -0.0929  0.3873
    3TCq1    H314435   2.081   0.650  15.812  0.6313  0.7830 -0.8299
    3TCq1    H414436   1.824   0.991  15.856 -1.1711 -0.2591 -0.2849
    4MPD2     C14437   2.189   0.963  15.463  0.1387 -0.6974  0.3193
    4MPD2    C114438   2.212   0.856  15.548 -0.2865  0.1104  0.7764
    4MPD2    C214439   2.330   0.781  15.530 -0.7043 -0.3158 -0.0299
    4MPD2    C314440   2.416   0.807  15.424  0.1691 -0.3814  0.2640
    4MPD2    C414441   2.398   0.921  15.350  0.2676 -0.5236  0.2960
    4MPD2    C514442   2.278   0.996  15.366  0.1041 -0.5997 -0.2748
    4MPD2     H14443   2.346   0.698  15.598  0.7447 -1.1804 -1.4147
    4MPD2    H114444   2.470   0.945  15.272 -2.4246  3.3738 -0.9870
    4MPD2    H214445   2.101   1.026  15.473 -0.3559 -1.6308  1.7825
    4MPD2    H314446   2.244   1.074  15.299  0.5952  0.0896  0.2676
    4MPD2     N14447   2.517   0.712  15.395 -0.2040 -0.5586 -0.2538
    4MPD2    H514448   2.513   0.626  15.448  2.0940 -0.7712 -0.4446
    4MPD2    N114449   2.127   0.820  15.659 -1.1076  0.6351  0.9480
    4MPD2    H714450   2.139   0.728  15.701  0.7998  0.7680  0.7192
    5TMC2    C114451   3.135   0.227  14.565  0.0180 -0.6212  0.3875
    5TMC2    C214452   3.059   0.266  14.461 -0.1959 -0.3953 -0.4302
    5TMC2    C314453   3.109   0.359  14.367 -0.1810 -0.0015  0.3198
    5TMC2    C414454   3.250   0.301  14.583 -0.1492 -0.3216 -0.6333
    5TMC2    C514455   3.280   0.411  14.502 -0.2037  0.0911  0.3950
    5TMC2    C614456   3.220   0.433  14.387 -0.5251 -0.9110  0.3442
    5TMC2     C14457   3.059   0.210  14.688 -0.4758  0.2106 -0.2031
    5TMC2     O14458   3.122   0.252  14.784 -0.6076  0.6265 -0.0438
    5TMC2     H14459   2.954   0.239  14.452 -0.7405  1.8833 -0.7438
    5TMC2    H114460   3.313   0.270  14.665  0.7910  0.4137 -1.0809
    5TMC2    H214461   3.249   0.512  14.319 -1.0635 -1.6277 -0.7126
    5TMC2    C714462   3.286   0.537  14.578  0.6698 -0.2363  0.2063
    5TMC2    C814463   3.044   0.384  14.241  0.0136  0.7131 -0.0508
    5TMC2    O114464   3.307   0.640  14.512  0.2176  0.1926 -0.2292
    5TMC2    O214465   3.076   0.464  14.156 -0.3329  0.1966 -0.8117
    5TMC2    O514466   2.984   0.263  14.224 -0.0963  0.0479 -0.2331
    5TMC2    H514467   2.996   0.212  14.307  1.3100 -0.2945 -0.6401
    6MPD2     C14468   2.633   0.142  14.945 -0.4472 -0.7719 -0.6231
    6MPD2    C114469   2.750   0.197  14.983  0.4028  0.0919  0.2835
    6MPD2    C214470   2.854   0.194  14.895  0.3159  0.2089 -0.7199
    6MPD2    C314471   2.839   0.138  14.767 -0.2277  0.1688  0.6188
    6MPD2    C414472   2.717   0.082  14.730 -0.3812 -0.0073  0.2679
    6MPD2    C514473   2.609   0.089  14.818 -0.0414  0.4148  0.4482
    6MPD2     H14474   2.945   0.244  14.925 -0.6656  1.1871  0.6281
    6MPD2    H114475   2.696   0.043  14.632 -2.0480 -0.1538  0.6814
    6MPD2    H214476   2.557   0.142  15.022  0.2564  0.1902  0.0720
    6MPD2    H314477   2.512   0.047  14.795  0.6621 -0.6397 -0.5807
    6MPD2     N14478   2.935   0.153  14.666  0.2289 -0.1326  0.4229
    6MPD2    H514479   2.915   0.127  14.569  1.0011  4.0068 -0.8416
    6MPD2    N114480   2.767   0.269  15.103 -0.0035  0.4217 -0.2030
    6MPD2    H714481   2.860   0.301  15.128  0.2498 -1.1136  0.7727
  945NH4     N114482   3.744   4.438  17.588 -0.1612  0.6851  0.5412
  945NH4     H214483   3.734   4.365  17.661 -1.2504 -0.9383 -1.2752
  945NH4     H314484   3.705   4.407  17.497 -0.4567  0.0819  0.8760
  945NH4     H414485   3.844   4.463  17.569 -1.2940  1.8043 -3.8278
  945NH4     H514486   3.689   4.523  17.612  0.2855  2.0232 -3.0700
  946SOD     NA14487   3.020   3.513  11.448  0.2839  0.0290 -0.1121
  947SOD     NA14488   3.425   2.867  14.522  0.4751 -0.2363  0.4156
  948SOD     NA14489   4.133   1.476  12.527 -0.0185 -0.0342 -0.6920
  949SOD     NA14490   0.095   2.853  16.329 -0.1621  0.6019  0.0946
  950SOD     NA14491   1.041   1.582   8.286  0.3461  0.4829  0.1267
  951SOD     NA14492   0.688   0.640  13.985  0.1531 -0.2120 -0.7752
  952SOD     NA14493   3.034   1.667   2.660 -0.2612  0.2206 -0.3736
  953SOL     OW14494   3.456   0.110   7.986 -0.2354  0.6930  0.1833
  953SOL    HW114495   3.480   0.061   8.065  0.3474  1.1814  0.3022
  953SOL    HW214496   3.536   0.144   7.947  0.2452 -1.3025 -0.5556
  954SOL     OW14497   1.193   3.202   0.051 -0.0225 -0.2112 -0.4072
  954SOL    HW114498   1.284   3.191   0.079  0.1321  2.2276  0.0519
  954SOL    HW214499   1.141   3.192   0.131  1.3436  2.1791  0.7793
  955SOL     OW14500   1.365   4.389  17.288 -0.2821 -0.3072  0.1190
  955SOL    HW114501   1.426   4.381  17.214 -1.0479  1.0371 -0.6510
  955SOL    HW214502   1.287   4.341  17.262 -0.5279 -0.1491  0.5805
  956SOL     OW14503   3.043   1.147  12.352  0.5087 -0.2070  0.1099
  956SOL    HW114504   3.051   1.054  12.332  1.8088 -0.3721  1.4586
  956SOL    HW214505   2.948   1.163  12.350  0.5434 -0.0851 -0.6757
  957SOL     OW14506   2.679   0.760   4.261  0.1257  0.1624  0.5916
  957SOL    HW114507   2.642   0.711   4.188 -0.4973 -0.8575  1.5998
  957SOL    HW214508   2.754   0.706   4.287 -1.3170 -1.7122  0.8440
  958SOL     OW14509   2.417   3.155   0.340  0.4587 -0.0927  0.0801
  958SOL    HW114510   2.451   3.234   0.380 -2.1740  1.6816 -1.2100
  958SOL    HW214511   2.484   3.087   0.349  1.3112  0.9146  1.2559
  959SOL     OW14512   2.581   3.839   4.832 -0.1328 -0.0369  0.4737
  959SOL    HW114513   2.587   3.931   4.859 -0.2659  0.0523  0.2014
  959SOL    HW214514   2.612   3.793   4.910  1.1322  0.0758  0.0343
  960SOL     OW14515   3.801   2.231   7.600 -0.7338  0.0479  0.0219
  960SOL    HW114516   3.893   2.258   7.605 -1.1578  1.9521 -2.5976
  960SOL    HW214517   3.804   2.163   7.533  0.1512  0.0193  0.0930
  961SOL     OW14518   1.463   2.157   3.794  0.1062 -0.2243 -0.2136
  961SOL    HW114519   1.377   2.119   3.814  0.3326 -0.1887  0.8041
  961SOL    HW214520   1.454   2.175   3.700  0.7405 -1.0417 -0.4287
  962SOL     OW14521   4.154   2.526   6.294 -0.2394 -0.8436 -0.3700
  962SOL    HW114522   4.208   2.576   6.356  0.9290  0.1756 -2.1867
  962SOL    HW214523   4.070   2.560   6.324  0.8273  0.5324  1.1334
  963SOL     OW14524   4.277   1.360   6.255 -0.4221  0.1722  0.4561
  963SOL    HW114525   4.213   1.293   6.280  0.1126 -1.2269 -1.9505
  963SOL    HW214526   4.249   1.434   6.309 -0.4747  0.8561 -0.5072
  964SOL     OW14527   0.344   0.409   3.846  0.2482  0.0893  0.0801
  964SOL    HW114528   0.379   0.447   3.766 -0.0649 -2.1456 -1.1431
  964SOL    HW214529   0.397   0.331   3.862 -0.0210 -0.3917 -1.3225
  965SOL     OW14530   3.181   2.460  16.348 -0.6029  0.0146  0.2972
  965SOL    HW114531   3.138   2.391  16.297 -1.6290 -0.0777  1.2855
  965SOL    HW214532   3.130   2.459  16.430 -0.8090  0.4004  0.1729
  966SOL     OW14533   4.202   0.898   7.770 -0.4975 -0.1931  0.3211
  966SOL    HW114534   4.175   0.883   7.860  1.4273 -3.3973  0.3771
  966SOL    HW214535   4.124   0.864   7.725 -0.9591 -0.2303  1.1495
  967SOL     OW14536   1.906   4.395   6.173  0.5611  0.1746  0.7409
  967SOL    HW114537   1.888   4.377   6.081 -2.2294 -1.5856  1.6663
  967SOL    HW214538   1.926   4.305   6.197 -0.8955 -0.2847  0.1826
  968SOL     OW14539   1.565   1.692   5.139  0.4755  0.4741  0.2241
  968SOL    HW114540   1.475   1.724   5.136 -1.3682 -4.5827  2.1554
  968SOL    HW214541   1.560   1.627   5.209 -0.8114 -2.2262 -2.3547
  969SOL     OW14542   2.195   1.111  16.261  0.2376 -0.0004 -0.2148
  969SOL    HW114543   2.271   1.076  16.308 -0.0316 -1.2085 -0.6805
  969SOL    HW214544   2.233   1.141  16.179 -0.2915 -1.1063 -0.8676
  970SOL     OW14545   1.594   4.083   2.924  0.5782 -0.6639 -0.4237
  970SOL    HW114546   1.683   4.064   2.955  0.1592 -0.0956  1.1698
  970SOL    HW214547   1.615   4.160   2.870  2.2298 -1.3031 -0.6988
  971SOL     OW14548   4.366   0.885   7.147 -0.2683 -0.4377 -0.0102
  971SOL    HW114549   4.296   0.869   7.210  1.3283 -2.4945  1.2357
  971SOL    HW214550   4.425   0.924   7.212 -0.9690  0.8317 -0.1400
  972SOL     OW14551   0.366   1.470  11.802  0.1198  0.3901 -1.0446
  972SOL    HW114552   0.277   1.439  11.785  0.8626 -3.7417  2.6412
  972SOL    HW214553   0.421   1.424  11.739  1.1564  1.1082 -0.6639
  973SOL     OW14554   3.039   2.668   7.924  0.1789  0.6806 -0.4167
  973SOL    HW114555   3.090   2.592   7.951  0.7067  1.1042 -0.2381
  973SOL    HW214556   3.109   2.716   7.880  0.2053 -2.2894 -3.6043
  974SOL     OW14557   3.302   4.528   4.149 -0.2126  0.0530  0.5632
  974SOL    HW114558   3.374   4.586   4.172 -1.7168  1.2171  2.2395
  974SOL    HW214559   3.240   4.578   4.097  0.7980 -0.7488 -1.4477
  975SOL     OW14560   2.010   0.078  16.048  0.2697 -0.4074  0.0213
  975SOL    HW114561   1.932   0.076  15.992 -0.1150 -3.2355  0.6563
  975SOL    HW214562   1.977   0.102  16.135  1.2644 -0.5889  0.4450
  976SOL     OW14563   3.057   0.461   0.806  0.2505  0.5566 -0.1787
  976SOL    HW114564   3.095   0.471   0.719 -0.4801 -0.4257 -0.6105
  976SOL    HW214565   3.041   0.552   0.830 -0.5743  1.0789 -2.6803
  977SOL     OW14566   0.179   1.782   0.345 -0.0856 -0.5203  0.8105
  977SOL    HW114567   0.258   1.728   0.355 -0.1183 -0.6861  0.1962
  977SOL    HW214568   0.220   1.867   0.359  2.1213 -1.0343 -2.4311
  978SOL     OW14569   3.818   3.715   2.761 -0.3123  0.4408 -0.0580
  978SOL    HW114570   3.782   3.788   2.811 -1.3597  0.1217 -0.3625
  978SOL    HW214571   3.738   3.693   2.714 -1.5933  4.4737  0.2574
  979SOL     OW14572   3.784   1.928   1.701 -0.4242 -0.6997 -0.2553
  979SOL    HW114573   3.707   1.919   1.757 -2.4168  0.9370 -2.7018
  979SOL    HW214574   3.829   1.952   1.781 -2.6245 -0.5137  0.9220
  980SOL     OW14575   1.878   0.625  15.530  0.9536 -0.5198  0.2683
  980SOL    HW114576   1.958   0.601  15.483  0.2682  1.6652 -1.9972
  980SOL    HW214577   1.878   0.720  15.517 -1.6747 -0.5522  0.0698
  981SOL     OW14578   4.472   0.397   7.966 -0.0708  0.3575 -0.3342
  981SOL    HW114579   4.492   0.304   7.953  0.5572  0.3994  0.3381
  981SOL    HW214580   4.512   0.432   8.046  2.1255 -2.3923 -0.2239
  982SOL     OW14581   0.299   2.548   2.875  0.2533  0.1193  0.1907
  982SOL    HW114582   0.328   2.505   2.955  0.8805  0.4841  0.1608
  982SOL    HW214583   0.308   2.482   2.806 -2.6428 -1.8144  1.6770
  983SOL     OW14584   1.614   4.579   7.262  0.0349 -0.0941 -0.1821
  983SOL    HW114585   1.545   4.524   7.225 -0.3986 -0.1219  0.6833
  983SOL    HW214586   1.688   4.523   7.238 -0.1844  0.0354 -1.1692
  984SOL     OW14587   1.486   2.595   8.660  0.2943  0.1053 -0.2436
  984SOL    HW114588   1.477   2.690   8.650 -0.4649  0.0497 -0.1112
  984SOL    HW214589   1.468   2.595   8.754 -0.2240 -0.2095 -0.3399
  985SOL     OW14590   3.854   0.813   2.059 -0.0810 -0.3774 -0.0815
  985SOL    HW114591   3.899   0.824   2.142  0.9378 -2.1591 -0.4107
  985SOL    HW214592   3.916   0.764   2.005 -1.3405 -0.3812 -1.5545
  986SOL     OW14593   3.474   4.658   2.637  0.1255  0.8589  0.0045
  986SOL    HW114594   3.492   4.574   2.680 -0.1624  0.1372 -1.2803
  986SOL    HW214595   3.381   4.655   2.614 -0.0188  1.9583  0.4533
  987SOL     OW14596   2.820   2.289   6.524 -0.4827 -0.6697  0.0481
  987SOL    HW114597   2.767   2.263   6.599  0.4781  0.2057  1.0387
  987SOL    HW214598   2.911   2.291   6.555 -0.1913  0.3005 -0.8576
  988SOL     OW14599   0.202   0.604   5.115 -0.1279  0.0581  0.0224
  988SOL    HW114600   0.128   0.607   5.055  2.5249  1.4211 -3.1581
  988SOL    HW214601   0.171   0.650   5.193 -1.5851  1.9569 -1.6559
  989SOL     OW14602   4.696   2.313   6.696 -0.1625 -0.5165  0.6491
  989SOL    HW114603   4.615   2.327   6.744  0.4004  2.8767  0.6105
  989SOL    HW214604   4.667   2.300   6.606  0.1218  0.2277  0.4439
  990SOL     OW14605   0.264   3.545   2.443 -0.2193 -0.6057  0.2712
  990SOL    HW114606   0.323   3.590   2.383 -0.4431  1.5262  1.6670
  990SOL    HW214607   0.282   3.581   2.530  0.6820 -0.0741 -0.1349
  991SOL     OW14608   2.457   2.235  14.024  0.0145  0.2881 -0.0441
  991SOL    HW114609   2.474   2.169  14.091 -0.0382  1.7746  1.4192
  991SOL    HW214610   2.370   2.217  13.987 -0.1568 -0.3441  0.6648
  992SOL     OW14611   0.475   0.608   5.027  0.1398 -0.3507  0.3843
  992SOL    HW114612   0.391   0.647   5.051 -0.6098 -1.2437 -0.7842
  992SOL    HW214613   0.517   0.611   5.114 -1.2912  0.3919  1.0465
  993SOL     OW14614   1.227   1.126   7.956 -0.1525 -0.7734 -0.1293
  993SOL    HW114615   1.255   1.045   7.999  2.8416  0.5581  0.4654
  993SOL    HW214616   1.250   1.182   8.030 -2.1440 -0.7433  0.4664
  994SOL     OW14617   2.019   1.999   6.399  0.1559  0.0018 -0.0070
  994SOL    HW114618   2.077   2.062   6.442 -0.3685 -0.3879  1.2513
  994SOL    HW214619   1.997   1.932   6.463 -1.4966  0.9440  0.4013
  995SOL     OW14620   3.410   4.584  17.251  0.7433  0.1461 -0.1374
  995SOL    HW114621   3.409   4.637  17.331  0.9742 -1.3624  0.8516
  995SOL    HW214622   3.358   4.641  17.194  2.9884  1.5418 -0.7953
  996SOL     OW14623   2.388   3.706   1.904  0.1155 -0.3540  0.6548
  996SOL    HW114624   2.330   3.633   1.925 -0.5071  0.3198  1.2193
  996SOL    HW214625   2.326   3.778   1.911 -0.1899 -0.4650 -0.8406
  997SOL     OW14626   4.280   1.553   2.979 -0.2361  0.9715 -0.6197
  997SOL    HW114627   4.279   1.523   2.888  1.3793 -0.4301 -0.1708
  997SOL    HW214628   4.345   1.622   2.971 -0.1586  0.7637 -1.7700
  998SOL     OW14629   3.728   3.909  16.175  0.3457 -0.7265 -0.0972
  998SOL    HW114630   3.733   3.835  16.115 -0.6137 -0.9344  0.0755
  998SOL    HW214631   3.639   3.921  16.209  0.3609 -0.0715 -0.2794
  999SOL     OW14632   0.888   2.277  10.661 -0.0009 -0.6506 -0.4669
  999SOL    HW114633   0.847   2.227  10.591  0.1294  0.7312 -1.5284
  999SOL    HW214634   0.911   2.212  10.728 -1.8157 -0.6441  0.1697
 1000SOL     OW14635   3.166   1.031   0.546 -0.2445 -0.0895 -0.5658
 1000SOL    HW114636   3.171   1.087   0.469  0.7992  0.7678  0.1330
 1000SOL    HW214637   3.111   1.080   0.606 -1.6839 -2.4855  0.0975
 1001SOL     OW14638   1.734   3.923  10.155  0.5723 -0.2177  0.1274
 1001SOL    HW114639   1.678   3.992  10.190  0.6891 -0.5194  0.9167
 1001SOL    HW214640   1.783   3.972  10.089 -1.4407  0.6791 -0.7045
 1002SOL     OW14641   0.660   1.511   3.117 -0.2254 -0.1348  0.4601
 1002SOL    HW114642   0.682   1.432   3.166 -1.1858 -1.6511 -1.5414
 1002SOL    HW214643   0.750   1.523   3.085 -0.2051  0.3640  0.7031
 1003SOL     OW14644   0.759   1.285  12.288 -0.1735  0.0533  0.8828
 1003SOL    HW114645   0.840   1.249  12.323  0.8797  0.8824 -0.6873
 1003SOL    HW214646   0.784   1.377  12.297  1.2934 -0.2502 -0.0689
 1004SOL     OW14647   0.103   2.385  10.675 -0.0435 -0.0519 -0.1768
 1004SOL    HW114648   0.048   2.459  10.702 -0.9592 -0.4360 -0.9673
 1004SOL    HW214649   0.048   2.308  10.690 -0.5788  0.5225  0.7526
 1005SOL     OW14650   1.691   3.905   5.319  0.0265  0.1769 -0.2179
 1005SOL    HW114651   1.760   3.867   5.374 -0.2860  1.1964  0.8843
 1005SOL    HW214652   1.710   3.886   5.228 -0.2096  3.1813 -0.9116
 1006SOL     OW14653   4.023   0.591  12.655  0.0889 -0.1953 -0.0502
 1006SOL    HW114654   4.079   0.523  12.694 -0.4851 -1.2726 -1.0890
 1006SOL    HW214655   4.086   0.656  12.624  1.0812  0.0019  2.3891
 1007SOL     OW14656   0.861   0.905   1.639 -0.1498  0.3533  0.2573
 1007SOL    HW114657   0.920   0.950   1.700 -0.7703  1.1217  0.2934
 1007SOL    HW214658   0.819   0.830   1.681  0.4679 -0.1797 -0.0922
 1008SOL     OW14659   1.516   2.753   5.238 -0.3805 -0.0799  0.0080
 1008SOL    HW114660   1.562   2.812   5.298  1.7721  0.3838 -2.1226
 1008SOL    HW214661   1.573   2.677   5.231 -1.3652 -0.8619  0.4414
 1009SOL     OW14662   2.020   4.022  15.325 -0.3634 -0.2935 -0.0892
 1009SOL    HW114663   2.113   3.998  15.320 -0.9615 -1.8687 -3.4570
 1009SOL    HW214664   2.015   4.031  15.420 -0.9356 -1.1402 -0.0340
 1010SOL     OW14665   2.792   3.953  16.181  0.3695  0.0046  0.9114
 1010SOL    HW114666   2.738   3.907  16.245  0.4379  2.6424  2.8616
 1010SOL    HW214667   2.733   4.028  16.170 -0.9974 -1.1113  0.6151
 1011SOL     OW14668   0.168   1.218   7.441  0.6266  0.0241  0.2639
 1011SOL    HW114669   0.138   1.307   7.461 -2.5487 -1.0087  0.0863
 1011SOL    HW214670   0.212   1.196   7.523 -1.1924  0.4367  1.3377
 1012SOL     OW14671   2.910   1.909   3.432  0.1527  0.1463 -0.2607
 1012SOL    HW114672   2.862   1.973   3.485 -0.1202  1.7573 -2.4801
 1012SOL    HW214673   2.910   1.951   3.346  0.6490  0.7033  0.0167
 1013SOL     OW14674   4.590   2.049  12.018 -0.2492  0.6337 -0.4198
 1013SOL    HW114675   4.537   1.992  12.075  0.3477 -0.2597 -0.7677
 1013SOL    HW214676   4.573   2.008  11.934 -1.9851  0.9696 -0.2345
 1014SOL     OW14677   3.434   3.077   2.400  0.0716  0.4051 -0.9347
 1014SOL    HW114678   3.432   3.086   2.305  1.5853 -1.9895 -1.1822
 1014SOL    HW214679   3.476   2.993   2.418 -1.0888 -0.2159 -1.1153
 1015SOL     OW14680   3.129   3.127   2.075  0.1100  0.4797  0.1699
 1015SOL    HW114681   3.070   3.158   2.143  0.1713  1.2765 -0.1384
 1015SOL    HW214682   3.068   3.107   2.004  1.8776  0.3479 -1.3129
 1016SOL     OW14683   2.137   4.515  12.381 -0.5037  0.1840 -0.2922
 1016SOL    HW114684   2.113   4.600  12.345 -0.2349  0.2670 -0.2780
 1016SOL    HW214685   2.199   4.478  12.318 -0.4832 -0.4972  0.1295
 1017SOL     OW14686   0.097   2.363   3.294 -0.1085  0.1855  0.2808
 1017SOL    HW114687   0.043   2.289   3.320 -0.3862  0.2409 -0.1382
 1017SOL    HW214688   0.061   2.439   3.340 -2.2361  0.5702 -2.0046
 1018SOL     OW14689   0.253   2.102   8.155 -0.5708  0.2749 -0.1286
 1018SOL    HW114690   0.347   2.087   8.146 -0.4943  1.0486 -0.7158
 1018SOL    HW214691   0.233   2.148   8.073  0.4741 -0.6126 -0.8788
 1019SOL     OW14692   1.491   3.618   2.747 -0.1007  0.2483 -0.6037
 1019SOL    HW114693   1.567   3.661   2.708 -0.9018  2.1383 -0.0717
 1019SOL    HW214694   1.451   3.693   2.791 -0.4407  0.5152 -1.3658
 1020SOL     OW14695   2.378   0.207  13.334 -0.0654  0.5957  0.5685
 1020SOL    HW114696   2.436   0.143  13.292  0.0400  0.9524  0.1781
 1020SOL    HW214697   2.434   0.283  13.345  0.2250  0.3924  0.4945
 1021SOL     OW14698   4.713   4.480  14.293 -0.0014  0.4362 -0.2013
 1021SOL    HW114699   4.673   4.424  14.227  1.3523  0.5470 -1.1318
 1021SOL    HW214700   0.039   4.524  14.235 -0.8829  2.7613  0.5908
 1022SOL     OW14701   4.230   0.359  10.250 -0.0904 -0.6974 -0.3413
 1022SOL    HW114702   4.172   0.284  10.234  0.8133 -1.9602  2.2277
 1022SOL    HW214703   4.287   0.314  10.312 -1.7987 -2.2387  0.1312
 1023SOL     OW14704   2.763   4.675   4.839  0.1219  0.3656  0.0437
 1023SOL    HW114705   2.742   0.025   4.873 -1.2534  0.4785 -1.0713
 1023SOL    HW214706   2.849   4.688   4.799  0.3312 -0.3982  0.2567
 1024SOL     OW14707   2.800   1.150   3.236 -0.3958 -0.5712 -0.7179
 1024SOL    HW114708   2.870   1.133   3.172 -0.0346  3.1276 -1.2701
 1024SOL    HW214709   2.718   1.155   3.188 -1.3203 -0.4739  0.8735
 1025SOL     OW14710   0.718   1.226   6.761  0.3565  0.4914 -0.1520
 1025SOL    HW114711   0.723   1.271   6.676 -0.2288  1.5699  0.3817
 1025SOL    HW214712   0.799   1.176   6.771  0.6999  1.4222  1.6672
 1026SOL     OW14713   2.761   2.154   4.449  0.0264 -0.8837 -0.3754
 1026SOL    HW114714   2.701   2.117   4.385 -1.5822  1.5670 -0.2667
 1026SOL    HW214715   2.725   2.118   4.531 -0.6143  1.1603  0.2366
 1027SOL     OW14716   0.548   1.517   7.343  0.0429  0.5613 -0.4550
 1027SOL    HW114717   0.555   1.554   7.431  2.5668 -0.9557 -0.0130
 1027SOL    HW214718   0.599   1.582   7.293 -1.7542  0.6557 -2.1604
 1028SOL     OW14719   4.011   4.314   1.268 -0.0512  0.3852  0.2436
 1028SOL    HW114720   4.081   4.340   1.208  0.5474  1.3961  1.3911
 1028SOL    HW214721   3.942   4.306   1.202 -1.4187  0.5728  1.6532
 1029SOL     OW14722   3.182   1.702  14.323 -0.1273  0.2902  0.6511
 1029SOL    HW114723   3.100   1.745  14.303 -1.1195 -2.5798 -1.4868
 1029SOL    HW214724   3.201   1.644  14.249  0.9728  0.4705  0.7805
 1030SOL     OW14725   2.796   1.566   9.676 -0.5430  0.7293  0.5251
 1030SOL    HW114726   2.723   1.564   9.739 -0.8705  1.7914  0.1808
 1030SOL    HW214727   2.874   1.559   9.731  1.2029  0.1420 -2.0382
 1031SOL     OW14728   1.773   1.417   3.111  0.4206  0.1222  0.5916
 1031SOL    HW114729   1.780   1.511   3.127 -2.7627  0.4747 -0.0717
 1031SOL    HW214730   1.859   1.376   3.126  1.2054  1.3770 -0.5083
 1032SOL     OW14731   2.974   2.427   7.181  0.4060  0.3281  0.1999
 1032SOL    HW114732   2.931   2.477   7.112 -3.9849  0.3469  2.9092
 1032SOL    HW214733   2.910   2.371   7.225 -0.0407 -0.2511 -1.2152
 1033SOL     OW14734   4.050   0.289   3.558 -0.7742  0.1609 -0.1350
 1033SOL    HW114735   4.037   0.381   3.581  0.5033  0.6003 -1.1633
 1033SOL    HW214736   4.135   0.266   3.593 -0.4033 -0.9904 -1.7921
 1034SOL     OW14737   2.213   0.102  14.680 -0.0550 -0.4791 -0.3515
 1034SOL    HW114738   2.121   0.128  14.684  0.4306  1.1465  0.2392
 1034SOL    HW214739   2.240   0.128  14.768  1.1931 -1.8267 -0.3496
 1035SOL     OW14740   0.563   3.644  15.808 -0.0083 -0.0961  0.2252
 1035SOL    HW114741   0.645   3.652  15.759  0.5532  4.4360  1.9288
 1035SOL    HW214742   0.539   3.734  15.829  2.2141  0.5607 -0.0581
 1036SOL     OW14743   0.364   0.496   1.026 -0.3326 -0.5929 -0.1445
 1036SOL    HW114744   0.344   0.580   0.985 -2.3236 -0.1162  1.7629
 1036SOL    HW214745   0.408   0.528   1.106  1.4432 -1.3999 -0.7963
 1037SOL     OW14746   3.332   4.286   7.961 -0.3381  0.1680 -0.0770
 1037SOL    HW114747   3.394   4.235   8.013 -1.6553 -0.5552  0.7974
 1037SOL    HW214748   3.289   4.230   7.896 -0.1166  0.6800 -0.6722
 1038SOL     OW14749   3.534   1.005  15.290 -0.0520 -0.5120  0.0484
 1038SOL    HW114750   3.592   0.941  15.248  0.7161  1.4370 -1.8884
 1038SOL    HW214751   3.592   1.048  15.353 -0.9615 -2.5942  2.3293
 1039SOL     OW14752   0.954   3.332  10.029 -1.0943  0.2696  0.4226
 1039SOL    HW114753   1.045   3.316  10.004 -1.3306 -0.0206 -0.2500
 1039SOL    HW214754   0.965   3.362  10.119 -1.4393  2.1291 -0.1524
 1040SOL     OW14755   3.049   1.262  16.049  0.2736 -0.0261 -0.1513
 1040SOL    HW114756   3.142   1.264  16.071  0.3221  0.6277 -0.4037
 1040SOL    HW214757   3.039   1.347  16.006 -0.4309  0.7575  1.5268
 1041SOL     OW14758   4.255   4.702  16.484 -0.7860 -0.3553 -0.1473
 1041SOL    HW114759   4.221   0.008  16.406 -0.9172 -1.5547 -0.7603
 1041SOL    HW214760   4.350   4.710  16.473 -1.2687 -0.2837 -4.2156
 1042SOL     OW14761   1.480   1.350   1.276 -0.2065 -0.2129 -0.1472
 1042SOL    HW114762   1.396   1.391   1.294  1.7488  3.3353  0.8251
 1042SOL    HW214763   1.504   1.323   1.365 -0.8622 -0.3429 -0.0098
 1043SOL     OW14764   2.196   2.007  16.793 -1.1639  0.0817 -0.4234
 1043SOL    HW114765   2.259   1.988  16.723  1.1600  3.2181  0.8463
 1043SOL    HW214766   2.153   1.922  16.803 -1.6808  0.0607 -2.8065
 1044SOL     OW14767   4.015   3.513   2.522 -0.4337 -0.2836 -0.1774
 1044SOL    HW114768   4.035   3.427   2.484 -0.9300 -0.5969  0.2589
 1044SOL    HW214769   4.075   3.511   2.596 -0.9778 -2.3373  0.2055
 1045SOL     OW14770   4.207   2.670   2.896  0.5976  0.2490 -0.0900
 1045SOL    HW114771   4.163   2.624   2.968  1.2717  1.3654  1.0502
 1045SOL    HW214772   4.229   2.759   2.923  0.8926  0.1322  0.0505
 1046SOL     OW14773   0.276   2.583   4.047 -0.3943  0.1102  0.2046
 1046SOL    HW114774   0.303   2.662   4.093 -1.3809  0.2903  0.4646
 1046SOL    HW214775   0.356   2.531   4.048 -1.0506 -0.9055  0.0851
 1047SOL     OW14776   4.461   1.187  14.194 -0.3639  0.4564  0.3407
 1047SOL    HW114777   4.390   1.251  14.195 -0.1939  0.6342  1.4466
 1047SOL    HW214778   4.535   1.224  14.242  0.6715  0.3188 -1.1654
 1048SOL     OW14779   4.609   3.510   1.673  0.5717  0.0803  0.6062
 1048SOL    HW114780   4.646   3.480   1.590 -2.2304  1.2391 -1.0859
 1048SOL    HW214781   4.598   3.426   1.718 -0.1873 -1.5719 -2.6502
 1049SOL     OW14782   1.341   3.214   2.003 -0.1430  0.1974  0.4966
 1049SOL    HW114783   1.348   3.302   1.967  0.3281  1.3593  3.3742
 1049SOL    HW214784   1.401   3.171   1.942 -1.7387 -0.1957 -0.7738
 1050SOL     OW14785   4.564   0.235   4.177 -0.1407 -0.0534 -0.5101
 1050SOL    HW114786   4.595   0.145   4.188  0.5747  0.3766  1.0277
 1050SOL    HW214787   4.628   0.285   4.228 -0.7693 -2.1411  2.2872
 1051SOL     OW14788   0.955   3.627   5.542  0.6055 -0.2742  0.5434
 1051SOL    HW114789   0.893   3.606   5.611  0.1206  2.3474  0.9272
 1051SOL    HW214790   0.921   3.596   5.458 -1.9835 -1.0405  1.8792
 1052SOL     OW14791   0.504   2.881   5.069  0.3551 -0.0874  0.3284
 1052SOL    HW114792   0.579   2.916   5.022 -1.1643  2.8059  0.0499
 1052SOL    HW214793   0.474   2.942   5.137  0.8179  0.7873 -0.2497
 1053SOL     OW14794   1.673   1.055   8.611  0.2003 -0.1353  0.4470
 1053SOL    HW114795   1.617   0.985   8.645  0.7135 -1.7667 -2.0167
 1053SOL    HW214796   1.705   1.016   8.530 -1.2182 -1.4989  0.5432
 1054SOL     OW14797   4.187   2.954   8.306  0.6385 -0.5617 -0.4642
 1054SOL    HW114798   4.201   2.980   8.398  0.8522 -0.7629 -0.4410
 1054SOL    HW214799   4.104   2.906   8.315  0.8750 -0.6317  1.5351
 1055SOL     OW14800   4.470   0.907  14.115 -0.0963  0.1991 -0.1864
 1055SOL    HW114801   4.520   0.886  14.194  1.5850  0.0880 -1.2512
 1055SOL    HW214802   4.441   0.995  14.138 -1.9449 -0.2619 -0.8011
 1056SOL     OW14803   1.861   1.160   2.409 -0.1983  0.4933  0.8020
 1056SOL    HW114804   1.795   1.151   2.340 -0.8161  1.0590  1.3227
 1056SOL    HW214805   1.937   1.120   2.366  0.2802  1.3505  0.8383
 1057SOL     OW14806   3.632   0.414  14.347  0.1262  0.1905  0.0118
 1057SOL    HW114807   3.728   0.414  14.342  0.1815  2.2070  0.7894
 1057SOL    HW214808   3.608   0.478  14.280 -0.9907  0.3950  0.6118
 1058SOL     OW14809   3.638   1.560   4.026  0.4569 -0.3904 -0.0923
 1058SOL    HW114810   3.593   1.496   4.081 -0.0672  0.3060  0.2830
 1058SOL    HW214811   3.625   1.524   3.938  0.1768  0.7992 -0.5440
 1059SOL     OW14812   2.631   4.259   1.366  0.2506 -0.2096  0.0859
 1059SOL    HW114813   2.588   4.333   1.323 -1.4796 -1.9598 -1.1826
 1059SOL    HW214814   2.701   4.302   1.415  2.5007 -0.9251 -2.4678
 1060SOL     OW14815   1.058   1.060  13.715  0.1029 -0.2945  0.4787
 1060SOL    HW114816   1.019   0.992  13.661  0.6115  0.0202 -0.2836
 1060SOL    HW214817   1.030   1.141  13.671 -1.4915 -0.8283  0.5359
 1061SOL     OW14818   2.490   2.883   0.865  0.7197  0.1210 -0.5927
 1061SOL    HW114819   2.564   2.936   0.895 -0.1700  0.8220  0.3927
 1061SOL    HW214820   2.425   2.921   0.925 -1.7076 -0.8407 -2.6490
 1062SOL     OW14821   0.364   2.834   4.226 -0.3909  0.0264  0.5270
 1062SOL    HW114822   0.394   2.924   4.233  0.5019 -0.3196  1.0994
 1062SOL    HW214823   0.447   2.786   4.233  0.3904  0.8033 -3.4644
 1063SOL     OW14824   2.968   4.273   8.132  0.5497 -0.5230 -0.1258
 1063SOL    HW114825   2.874   4.288   8.145  0.5183 -1.3537  0.5867
 1063SOL    HW214826   2.981   4.311   8.046  0.1552  1.9168  0.8794
 1064SOL     OW14827   4.487   3.155   2.098  0.4177  0.1684  0.5204
 1064SOL    HW114828   4.435   3.122   2.025 -1.0339 -0.8626  2.0176
 1064SOL    HW214829   4.530   3.077   2.132  0.9074  1.0237  1.8822
 1065SOL     OW14830   3.987   1.098  14.311  0.4786 -0.5607  0.6509
 1065SOL    HW114831   4.023   1.186  14.327  1.6952 -0.6990 -1.3522
 1065SOL    HW214832   4.065   1.045  14.293  0.5160 -0.6699  1.1318
 1066SOL     OW14833   0.036   0.874  15.333  0.5815  0.4838 -0.1647
 1066SOL    HW114834   0.026   0.905  15.423 -0.7831  1.5948 -0.7137
 1066SOL    HW214835   0.108   0.930  15.304  1.7393 -0.5092  0.7310
 1067SOL     OW14836   0.464   1.366   3.016  0.2074 -0.3020  0.0736
 1067SOL    HW114837   0.383   1.410   3.043  1.0829 -1.3590  4.4802
 1067SOL    HW214838   0.535   1.424   3.045  0.0663  0.5300 -1.2380
 1068SOL     OW14839   4.270   0.299   8.414  0.1575  0.1245 -0.3156
 1068SOL    HW114840   4.218   0.301   8.494 -0.9738  0.4958 -1.0591
 1068SOL    HW214841   4.344   0.242   8.434 -0.0889  0.5134  1.6935
 1069SOL     OW14842   4.425   0.705   3.747  0.1261 -0.3776  0.7341
 1069SOL    HW114843   4.428   0.662   3.661  1.0733 -0.9493  1.0526
 1069SOL    HW214844   4.493   0.770   3.732 -0.6398  0.3999  0.5835
 1070SOL     OW14845   4.122   3.992   8.529 -0.2390 -0.2167 -0.5984
 1070SOL    HW114846   4.147   3.946   8.610 -0.4577  0.3443 -0.2170
 1070SOL    HW214847   4.068   4.066   8.557  0.7006  0.9129 -1.7940
 1071SOL     OW14848   1.821   3.170   4.254 -0.1816 -0.2900  0.4286
 1071SOL    HW114849   1.869   3.148   4.334 -0.0517 -0.4148  0.3168
 1071SOL    HW214850   1.885   3.229   4.213 -1.1972  0.7402  0.3218
 1072SOL     OW14851   2.955   3.560  14.582  0.1504  0.1214 -0.3026
 1072SOL    HW114852   2.883   3.599  14.531  1.0313  0.0298 -1.5987
 1072SOL    HW214853   3.012   3.528  14.512 -0.0350  1.5444 -1.1180
 1073SOL     OW14854   0.897   3.129   7.108 -0.1547 -0.8281  0.1545
 1073SOL    HW114855   0.968   3.155   7.166  0.5422  1.1552 -1.6039
 1073SOL    HW214856   0.882   3.036   7.127  1.5240 -1.1441 -0.1078
 1074SOL     OW14857   4.328   3.578   5.381  0.2289  0.3937  0.1493
 1074SOL    HW114858   4.392   3.596   5.450  0.2400  0.3714  0.1448
 1074SOL    HW214859   4.273   3.510   5.420 -0.2251 -0.2750 -1.6402
 1075SOL     OW14860   0.747   1.729  16.574  0.4654  0.2372  0.1568
 1075SOL    HW114861   0.804   1.667  16.528 -2.2649 -0.4418 -2.2989
 1075SOL    HW214862   0.800   1.808  16.580 -0.8364  1.0320  1.1267
 1076SOL     OW14863   2.716   3.763   7.170 -0.3220  0.2758 -0.3221
 1076SOL    HW114864   2.809   3.742   7.164 -0.6704 -1.0718 -0.8705
 1076SOL    HW214865   2.665   3.682   7.166  0.2364 -0.2006  1.8512
 1077SOL     OW14866   4.183   0.379   7.123  0.0299  0.6624 -0.3418
 1077SOL    HW114867   4.267   0.401   7.163  0.7892 -1.8606 -0.5477
 1077SOL    HW214868   4.128   0.374   7.202  1.9474 -3.9090  0.7564
 1078SOL     OW14869   3.713   1.257   1.373  0.1915  0.5037  0.3231
 1078SOL    HW114870   3.634   1.311   1.379  0.2646  0.7170 -0.6562
 1078SOL    HW214871   3.782   1.309   1.415  0.3797 -1.2345  2.1803
 1079SOL     OW14872   1.436   0.270   6.215 -0.5454  0.1973  0.8674
 1079SOL    HW114873   1.416   0.197   6.156  0.6334  1.8317 -1.5661
 1079SOL    HW214874   1.517   0.306   6.178 -0.3680 -0.5294  0.5391
 1080SOL     OW14875   2.345   0.685  15.911 -0.0730 -0.3228 -0.3364
 1080SOL    HW114876   2.280   0.644  15.969 -1.2301 -0.8422 -2.0076
 1080SOL    HW214877   2.341   0.776  15.942 -0.3027 -0.1228 -0.9459
 1081SOL     OW14878   1.272   2.835   7.725 -0.6213  0.1260 -0.2745
 1081SOL    HW114879   1.282   2.772   7.653  0.5116  0.6520 -0.5798
 1081SOL    HW214880   1.243   2.918   7.687 -0.0688  1.1099  1.4754
 1082SOL     OW14881   1.848   4.636  12.205 -0.3486 -0.0148  0.4285
 1082SOL    HW114882   1.790   4.676  12.140  0.9890 -1.3715 -1.6005
 1082SOL    HW214883   1.898   4.712  12.235 -1.9947  1.0196  0.5593
 1083SOL     OW14884   1.500   3.798   0.994 -0.6669 -0.2109 -0.0835
 1083SOL    HW114885   1.491   3.846   0.912  0.9109  0.7496  0.2880
 1083SOL    HW214886   1.432   3.731   0.993 -1.0901  0.2330 -0.9472
 1084SOL     OW14887   1.060   0.089   5.514 -0.1598 -0.2658  0.0403
 1084SOL    HW114888   0.994   0.119   5.452 -0.1264  0.8051  0.5412
 1084SOL    HW214889   1.134   0.120   5.462 -0.2264  1.1044  0.7825
 1085SOL     OW14890   0.509   4.507   4.833 -0.0563  0.1124  0.3351
 1085SOL    HW114891   0.416   4.492   4.822  0.1487 -0.7892 -0.1115
 1085SOL    HW214892   0.507   4.504   4.929  2.7222 -0.2243  0.3973
 1086SOL     OW14893   2.914   2.820   9.917  0.3912 -0.3464  0.4891
 1086SOL    HW114894   2.937   2.734   9.881  1.6989 -0.5743  1.8675
 1086SOL    HW214895   2.996   2.844   9.961 -1.0559  0.5336  2.6786
 1087SOL     OW14896   2.322   0.792   6.582 -0.0432  0.1550 -0.0171
 1087SOL    HW114897   2.303   0.699   6.569  1.6124  0.0566 -1.7434
 1087SOL    HW214898   2.311   0.806   6.676 -0.7246  1.8675 -0.3423
 1088SOL     OW14899   1.324   1.025   5.821 -0.0924 -0.4217 -0.0320
 1088SOL    HW114900   1.367   0.940   5.827 -0.6289 -0.7920 -1.6399
 1088SOL    HW214901   1.317   1.027   5.726 -0.5257  0.9407  0.0254
 1089SOL     OW14902   3.018   2.064   6.762 -0.1404  0.0852 -0.3085
 1089SOL    HW114903   2.967   2.117   6.823 -0.4390  0.0390 -0.5211
 1089SOL    HW214904   3.082   2.128   6.732  0.8334  0.4614  2.5449
 1090SOL     OW14905   0.503   0.923   4.238 -0.4620 -0.2690  0.2795
 1090SOL    HW114906   0.582   0.898   4.191 -0.4402 -0.2789  0.3210
 1090SOL    HW214907   0.441   0.947   4.169 -0.7084  3.4060  1.7892
 1091SOL     OW14908   4.602   4.250   3.253 -0.7069  0.1405  0.4747
 1091SOL    HW114909   4.544   4.326   3.258  0.7875  1.4441 -1.6989
 1091SOL    HW214910   4.679   4.305   3.237 -0.5615 -0.2299 -0.1171
 1092SOL     OW14911   4.475   3.597   2.133  0.0368 -0.2571  0.1673
 1092SOL    HW114912   4.398   3.654   2.145 -0.7719 -1.4961  0.8255
 1092SOL    HW214913   4.488   3.567   2.223 -1.4338  1.5890  1.0004
 1093SOL     OW14914   3.618   3.724   0.062 -0.3605  0.0301  0.7227
 1093SOL    HW114915   3.606   3.727  17.715  0.5208  0.1022  0.6114
 1093SOL    HW214916   3.556   3.653   0.074  0.9605 -1.2160  0.1534
 1094SOL     OW14917   4.355   1.106   4.651  0.0599 -0.1048 -0.2329
 1094SOL    HW114918   4.443   1.071   4.641 -0.4004 -1.2604 -0.3068
 1094SOL    HW214919   4.353   1.187   4.599  3.7718  0.6418  0.8277
 1095SOL     OW14920   4.239   3.807   0.988 -0.0971  0.1373  0.2161
 1095SOL    HW114921   4.326   3.812   0.949 -0.3998  2.7888 -0.1112
 1095SOL    HW214922   4.231   3.899   1.016 -2.3313  0.3683 -1.2197
 1096SOL     OW14923   1.722   4.622   3.938  0.6321 -0.2392  0.0644
 1096SOL    HW114924   1.794   4.653   3.993  1.8496 -2.7053 -0.1513
 1096SOL    HW214925   1.677   4.565   4.001 -2.3996 -0.7516 -2.5736
 1097SOL     OW14926   1.622   1.224   3.476  0.2126  0.0075 -0.1326
 1097SOL    HW114927   1.556   1.293   3.489 -1.6045 -2.0697  1.7833
 1097SOL    HW214928   1.598   1.191   3.390  1.8373  1.2688 -1.0696
 1098SOL     OW14929   4.147   0.909   4.881  0.0485 -0.0399 -0.3278
 1098SOL    HW114930   4.127   1.002   4.896  1.7038  0.2721  0.0210
 1098SOL    HW214931   4.150   0.908   4.786 -0.8296  2.1079 -0.3916
 1099SOL     OW14932   1.891   2.202   4.916 -0.1039  0.1236  0.0780
 1099SOL    HW114933   1.907   2.187   5.009  1.8951  1.0510 -0.1090
 1099SOL    HW214934   1.958   2.139   4.889 -1.4539 -2.1589  2.0548
 1100SOL     OW14935   2.452   0.771   7.794  0.2455 -0.4582  0.6730
 1100SOL    HW114936   2.422   0.802   7.880  0.7315  4.0365 -0.8242
 1100SOL    HW214937   2.368   0.743   7.759  0.6538 -0.3867 -0.3416
 1101SOL     OW14938   2.837   1.468   4.202  0.1472  0.3405  0.0514
 1101SOL    HW114939   2.917   1.508   4.235  1.1838 -0.5737 -1.3766
 1101SOL    HW214940   2.797   1.427   4.279 -0.5932 -2.7709 -2.0015
 1102SOL     OW14941   3.020   2.611  13.388  0.3763 -0.1931  0.1470
 1102SOL    HW114942   3.085   2.653  13.445  0.4854 -0.1500 -0.0073
 1102SOL    HW214943   3.053   2.615  13.298  1.2864  0.8510  0.5116
 1103SOL     OW14944   4.223   2.703  11.327  0.0038  0.1867  0.0020
 1103SOL    HW114945   4.294   2.639  11.325  1.1211  1.5190 -1.9355
 1103SOL    HW214946   4.156   2.647  11.367  1.1686 -0.7659  0.6223
 1104SOL     OW14947   4.039   1.379   0.772 -0.0906 -0.3218 -0.4294
 1104SOL    HW114948   4.040   1.427   0.855 -0.3742  0.4208 -0.8488
 1104SOL    HW214949   4.131   1.360   0.756 -0.2336 -1.0978 -0.2899
 1105SOL     OW14950   0.512   4.654   9.246 -0.0035 -0.8010  0.1906
 1105SOL    HW114951   0.451   4.726   9.228  0.6184 -0.3428 -0.0872
 1105SOL    HW214952   0.500   4.583   9.183 -1.8341  0.1673 -0.5475
 1106SOL     OW14953   2.260   1.723   9.765 -0.2605 -0.3140  0.0604
 1106SOL    HW114954   2.251   1.818   9.753 -2.3000 -0.2316  2.2167
 1106SOL    HW214955   2.189   1.693   9.709 -1.5920  0.0200  1.5737
 1107SOL     OW14956   3.830   2.522  16.663 -0.7075 -0.1673 -0.3600
 1107SOL    HW114957   3.915   2.532  16.707 -0.0060 -4.0813 -0.8150
 1107SOL    HW214958   3.810   2.430  16.677  2.3950 -0.5544  1.6325
 1108SOL     OW14959   0.365   3.830   8.728  0.5470  0.0251 -0.3136
 1108SOL    HW114960   0.310   3.752   8.739 -0.5649  0.9141  0.3695
 1108SOL    HW214961   0.394   3.843   8.818 -0.9923  0.8248  0.0604
 1109SOL     OW14962   2.961   1.942   7.652 -0.3551  0.4410  0.8247
 1109SOL    HW114963   3.045   1.923   7.692  0.0524  0.9297  0.1916
 1109SOL    HW214964   2.946   2.030   7.688 -2.1170  1.3706 -2.1476
 1110SOL     OW14965   3.058   4.114   0.837  0.5252  0.2869  0.1676
 1110SOL    HW114966   3.073   4.208   0.822 -0.3585 -0.1548 -3.4665
 1110SOL    HW214967   3.105   4.120   0.920  0.9370 -0.9205  0.0111
 1111SOL     OW14968   2.729   2.157  12.351  0.4084 -0.0382  0.3883
 1111SOL    HW114969   2.705   2.086  12.291  0.5337 -0.2993  0.6488
 1111SOL    HW214970   2.805   2.188  12.302 -0.3997  1.5969  0.1607
 1112SOL     OW14971   0.023   3.187   7.773  0.1158 -0.1975 -0.0169
 1112SOL    HW114972   0.035   3.202   7.866 -0.4838  2.1731 -0.3324
 1112SOL    HW214973   4.710   3.105   7.774  1.3812 -0.9799 -0.0879
 1113SOL     OW14974   1.161   3.743   5.096  0.4920  0.0928  1.0941
 1113SOL    HW114975   1.245   3.697   5.098 -0.4423 -1.7605 -1.4748
 1113SOL    HW214976   1.125   3.690   5.166 -1.1385 -0.6903 -0.3369
 1114SOL     OW14977   0.489   4.687  16.716  0.2160  0.8231 -0.1624
 1114SOL    HW114978   0.497   4.601  16.759  2.1776  1.2164  0.2974
 1114SOL    HW214979   0.520   0.012  16.782 -0.2725 -1.3180  2.0921
 1115SOL     OW14980   3.739   1.842  16.161  0.4638  0.1527 -0.2842
 1115SOL    HW114981   3.728   1.930  16.124 -2.3787 -0.1392 -0.1848
 1115SOL    HW214982   3.830   1.825  16.140 -0.2382 -0.8484 -2.5135
 1116SOL     OW14983   2.414   1.540  17.532 -0.0984 -0.5094 -0.2181
 1116SOL    HW114984   2.480   1.495  17.479 -0.9257  0.6342 -2.2316
 1116SOL    HW214985   2.463   1.572  17.608 -0.2474 -0.0961 -0.3001
 1117SOL     OW14986   3.453   2.002   5.381  0.6078 -0.7188  1.1055
 1117SOL    HW114987   3.373   2.051   5.403  0.4666 -0.6205  0.3500
 1117SOL    HW214988   3.516   2.073   5.380 -0.1363 -0.0627  0.6537
 1118SOL     OW14989   4.475   3.383   9.324 -0.1494 -1.0534  0.0653
 1118SOL    HW114990   4.439   3.343   9.245  2.0762 -0.3881 -1.2645
 1118SOL    HW214991   4.424   3.345   9.396 -1.8475  0.3459 -0.3883
 1119SOL     OW14992   0.743   3.830   4.886  0.1455  0.5164  0.4553
 1119SOL    HW114993   0.824   3.878   4.900 -0.0497  0.0146  3.4921
 1119SOL    HW214994   0.773   3.739   4.883 -2.3367 -0.3148  0.8149
 1120SOL     OW14995   3.116   4.222   7.287  0.5362  0.6417 -0.5468
 1120SOL    HW114996   3.066   4.194   7.364  0.5953  3.2148  0.4422
 1120SOL    HW214997   3.054   4.215   7.215  1.2886 -1.5789 -0.9573
 1121SOL     OW14998   4.426   1.373   5.156  0.0813  0.5788 -0.1477
 1121SOL    HW114999   4.455   1.288   5.124 -0.5721  0.5072 -0.5458
 1121SOL    HW215000   4.340   1.383   5.116 -0.0247  0.3449  0.0228
 1122SOL     OW15001   0.558   4.343   1.138 -0.1183 -0.2286  0.0369
 1122SOL    HW115002   0.652   4.345   1.120 -0.0113  1.1119  0.7265
 1122SOL    HW215003   0.525   4.376   1.054 -0.3129 -1.5670 -0.4050
 1123SOL     OW15004   1.632   2.241   2.846  0.3787 -0.1177  0.1895
 1123SOL    HW115005   1.675   2.290   2.916  0.5970  0.3577 -0.2801
 1123SOL    HW215006   1.546   2.284   2.847  0.2258 -0.3741 -1.4025
 1124SOL     OW15007   1.352   3.680   8.829  0.4085 -0.1609  0.0856
 1124SOL    HW115008   1.334   3.653   8.739 -0.2952  0.8169 -0.0772
 1124SOL    HW215009   1.268   3.724   8.847  0.8271  0.5002  0.4319
 1125SOL     OW15010   0.717   3.888   3.018 -0.3998  0.0083  1.0842
 1125SOL    HW115011   0.803   3.896   2.977  0.1877  1.8260  2.6664
 1125SOL    HW215012   0.717   3.794   3.038  2.8130  0.0542  1.2869
 1126SOL     OW15013   3.456   1.835   9.848  0.0374 -0.0671  0.5622
 1126SOL    HW115014   3.528   1.872   9.796  0.0704  0.9249  1.3250
 1126SOL    HW215015   3.384   1.891   9.821  1.0977  1.5872  1.2296
 1127SOL     OW15016   3.875   3.760  10.591 -0.1898  0.5380 -0.0201
 1127SOL    HW115017   3.829   3.733  10.511 -1.3764 -0.2017  0.9248
 1127SOL    HW215018   3.808   3.814  10.633 -0.0547 -0.0850  0.9938
 1128SOL     OW15019   0.063   2.373  15.981 -0.3230 -0.2476 -0.3547
 1128SOL    HW115020   0.057   2.309  16.052 -0.2297 -0.4419 -0.5230
 1128SOL    HW215021   0.156   2.397  15.976 -0.5702  1.3912  2.5565
 1129SOL     OW15022   4.607   2.211  15.357 -0.3069  0.2464  0.0641
 1129SOL    HW115023   4.638   2.158  15.284  0.9955 -1.5650  1.9485
 1129SOL    HW215024   4.550   2.266  15.303  0.4327  1.2499  0.2999
 1130SOL     OW15025   0.051   3.278   1.817  0.1649  0.1150  0.3985
 1130SOL    HW115026   0.075   3.217   1.887 -2.6707 -0.5738  0.7772
 1130SOL    HW215027   4.725   3.331   1.867 -1.8377 -0.0457 -1.9554
 1131SOL     OW15028   0.865   2.376   4.662  0.0106  0.4214  0.8380
 1131SOL    HW115029   0.862   2.313   4.590 -0.1278  1.7505 -0.2984
 1131SOL    HW215030   0.890   2.313   4.730 -0.0275  0.0428  0.5021
 1132SOL     OW15031   1.131   0.052   7.989  0.3036  0.2900 -0.3454
 1132SOL    HW115032   1.038   0.055   8.011  0.2841 -1.8272 -0.0871
 1132SOL    HW215033   1.129   4.722   7.920  1.4033 -1.6663  1.5228
 1133SOL     OW15034   2.601   2.765   3.035  0.4319  0.4268 -0.1877
 1133SOL    HW115035   2.620   2.768   3.129  0.7137 -0.7384 -0.1961
 1133SOL    HW215036   2.656   2.834   2.999 -0.6730  0.5125 -1.7137
 1134SOL     OW15037   0.705   1.356   4.717  0.4702  0.2459 -0.3114
 1134SOL    HW115038   0.729   1.291   4.783 -0.1181  1.1662  0.8060
 1134SOL    HW215039   0.616   1.378   4.743  1.1935  1.5836  1.0481
 1135SOL     OW15040   3.847   3.646   4.882  0.5590 -0.2056 -0.2165
 1135SOL    HW115041   3.838   3.698   4.802  0.1978 -1.8147 -1.2103
 1135SOL    HW215042   3.935   3.666   4.913  0.8550  0.4220 -1.4510
 1136SOL     OW15043   3.396   3.699   6.005  0.5648  0.1525 -0.2195
 1136SOL    HW115044   3.433   3.787   5.998  2.0252 -0.2849  1.9579
 1136SOL    HW215045   3.453   3.650   5.947 -0.6086 -2.7788  1.1030
 1137SOL     OW15046   2.132   0.250   2.852  0.0436 -0.0814 -0.3126
 1137SOL    HW115047   2.121   0.156   2.835  3.5072 -0.9788  2.5324
 1137SOL    HW215048   2.040   0.270   2.868  0.6045  0.5883  2.0477
 1138SOL     OW15049   2.111   3.570   6.891  0.2765 -0.0724  0.5243
 1138SOL    HW115050   2.103   3.509   6.964  2.5639 -1.7031 -0.5999
 1138SOL    HW215051   2.203   3.570   6.866  0.5747 -0.7261  1.6033
 1139SOL     OW15052   3.867   1.681   8.755  0.0148 -0.0376 -0.4861
 1139SOL    HW115053   3.790   1.652   8.805  1.8435 -0.7252  1.9573
 1139SOL    HW215054   3.903   1.595   8.731  1.3516  0.7521 -1.3261
 1140SOL     OW15055   3.263   1.106  13.179  0.5688  0.1498 -0.1990
 1140SOL    HW115056   3.185   1.078  13.131  0.4850  1.7577 -0.9957
 1140SOL    HW215057   3.248   1.060  13.262  0.5966  0.3279 -0.0927
 1141SOL     OW15058   1.074   4.167  15.704 -0.1243  0.0513 -0.6327
 1141SOL    HW115059   1.076   4.072  15.700 -0.9369  0.0353 -0.6309
 1141SOL    HW215060   0.985   4.184  15.674 -0.1059 -0.4285 -0.9611
 1142SOL     OW15061   1.955   2.152  14.049  0.2740  0.0698  0.5775
 1142SOL    HW115062   1.921   2.143  13.959 -2.5632 -0.3695  1.6689
 1142SOL    HW215063   1.924   2.068  14.084 -1.7905  1.7528  2.8150
 1143SOL     OW15064   3.617   1.958   8.566  0.3968 -0.3441  0.6516
 1143SOL    HW115065   3.651   1.880   8.524 -2.0467 -2.1477  2.0550
 1143SOL    HW215066   3.528   1.922   8.573  0.0970  0.1141 -0.7399
 1144SOL     OW15067   0.383   2.704   6.241 -0.2012 -0.1280 -0.0960
 1144SOL    HW115068   0.476   2.724   6.253  0.1481 -1.8973  0.2357
 1144SOL    HW215069   0.372   2.647   6.317  1.9233 -3.5745 -2.3310
 1145SOL     OW15070   3.106   1.664   3.735 -0.1686 -0.3844  0.2181
 1145SOL    HW115071   3.164   1.724   3.688 -2.2305  1.1187 -0.4455
 1145SOL    HW215072   3.045   1.734   3.761  0.5828  0.8747 -1.3880
 1146SOL     OW15073   3.619   0.919   3.711 -0.3306  0.0717 -0.0277
 1146SOL    HW115074   3.714   0.930   3.720 -0.4543 -0.2953  1.6347
 1146SOL    HW215075   3.613   0.832   3.749 -1.0727  0.0922 -0.0997
 1147SOL     OW15076   3.370   4.389  15.457 -0.5668  0.3505 -0.2447
 1147SOL    HW115077   3.302   4.417  15.519  1.5954 -0.7758  2.6688
 1147SOL    HW215078   3.439   4.444  15.495 -1.1902  0.1872  1.1509
 1148SOL     OW15079   0.044   1.632   4.625 -0.1835 -0.1861 -0.6880
 1148SOL    HW115080   0.087   1.681   4.555  2.7668 -2.2858 -0.3542
 1148SOL    HW215081   0.024   1.547   4.586 -1.4520 -0.0954 -0.2348
 1149SOL     OW15082   3.786   2.786  14.273 -0.3002 -0.3572  0.2161
 1149SOL    HW115083   3.705   2.788  14.322 -0.9097  1.9738 -0.8575
 1149SOL    HW215084   3.799   2.878  14.250 -2.8124 -0.7595 -2.8253
 1150SOL     OW15085   2.971   4.331   4.815  0.2944  0.3876 -0.0964
 1150SOL    HW115086   2.919   4.281   4.878  1.4428 -1.7150 -0.7994
 1150SOL    HW215087   3.049   4.351   4.866  0.9901  1.4496 -1.5982
 1151SOL     OW15088   1.286   1.099   6.433  0.3306  0.2857  0.3586
 1151SOL    HW115089   1.278   1.174   6.374  1.1788 -1.2367 -1.6854
 1151SOL    HW215090   1.301   1.147   6.514 -1.9830  3.5774 -1.1493
 1152SOL     OW15091   2.317   1.769   7.490  0.2436  0.6961  0.0414
 1152SOL    HW115092   2.399   1.780   7.441  0.5394 -0.4985  0.2620
 1152SOL    HW215093   2.347   1.809   7.571  0.5841  1.7070 -0.5876
 1153SOL     OW15094   3.733   3.609   8.632  0.3872  0.1830 -0.3464
 1153SOL    HW115095   3.673   3.683   8.624 -4.1831 -3.4256  0.7272
 1153SOL    HW215096   3.793   3.641   8.699  1.7067 -2.1196 -0.4379
 1154SOL     OW15097   1.351   3.219   7.072  0.7289 -0.2260  0.5661
 1154SOL    HW115098   1.319   3.306   7.051 -1.0496 -1.0928 -0.3425
 1154SOL    HW215099   1.378   3.233   7.162  1.1611  1.6478  0.1443
 1155SOL     OW15100   3.184   1.937   1.949  0.1802  0.2057 -0.0463
 1155SOL    HW115101   3.215   1.934   2.040 -1.9461  0.6125  0.6935
 1155SOL    HW215102   3.114   1.872   1.954  0.1502  0.2519  0.1503
 1156SOL     OW15103   0.188   0.950   8.628  0.3230 -0.2528  0.0693
 1156SOL    HW115104   0.180   1.044   8.642 -0.8002 -0.3858  0.3416
 1156SOL    HW215105   0.280   0.942   8.652  0.8310  2.3350 -0.9978
 1157SOL     OW15106   0.026   1.453   9.818 -0.1157 -0.3043  0.2696
 1157SOL    HW115107   0.074   1.528   9.855 -0.5366  0.2958 -0.3896
 1157SOL    HW215108   0.090   1.382   9.816  0.5291  0.3208 -1.4241
 1158SOL     OW15109   0.923   0.437   1.295  0.2564 -0.1481  0.2897
 1158SOL    HW115110   0.992   0.492   1.331  2.7224 -2.0626 -1.4923
 1158SOL    HW215111   0.940   0.351   1.334 -0.3699 -1.1892 -1.6970
 1159SOL     OW15112   1.994   1.176   6.679  0.2235 -0.7194  1.0226
 1159SOL    HW115113   1.919   1.148   6.627  0.4704  0.0587  0.2451
 1159SOL    HW215114   2.069   1.150   6.625 -0.0429 -0.5074  0.5574
 1160SOL     OW15115   2.194   1.115   0.721 -0.2553  0.2117 -0.0261
 1160SOL    HW115116   2.216   1.128   0.629  0.1336  0.1158  0.0513
 1160SOL    HW215117   2.257   1.045   0.739 -1.1169 -1.1681 -2.4179
 1161SOL     OW15118   1.970   0.831   7.471  0.0069 -0.3318 -0.2361
 1161SOL    HW115119   2.056   0.792   7.485 -0.2381 -0.6414  0.4522
 1161SOL    HW215120   1.985   0.916   7.513 -0.0341 -0.6358  0.3903
 1162SOL     OW15121   2.873   0.858   4.027 -0.0921  0.3511 -0.0619
 1162SOL    HW115122   2.927   0.862   4.106 -0.9074  0.0614  0.5014
 1162SOL    HW215123   2.931   0.907   3.968 -0.0997 -0.7343 -0.9672
 1163SOL     OW15124   3.208   1.801   1.526  0.1224  0.1432  0.5247
 1163SOL    HW115125   3.301   1.799   1.505  0.0724 -0.6347  0.3896
 1163SOL    HW215126   3.187   1.709   1.541 -1.7840  0.1972 -1.7882
 1164SOL     OW15127   0.040   1.718  11.265 -0.3241  0.3667 -0.8593
 1164SOL    HW115128   0.133   1.735  11.253 -0.2538  0.6577  0.0702
 1164SOL    HW215129   0.050   1.668  11.346  2.0096  1.6714 -0.3468
 1165SOL     OW15130   4.378   2.469   2.475 -0.4013 -0.0128 -0.5494
 1165SOL    HW115131   4.300   2.508   2.514  1.4510  3.0955  0.0661
 1165SOL    HW215132   4.391   2.388   2.525 -3.0597 -0.3654 -0.4143
 1166SOL     OW15133   1.111   1.178   4.780  0.1636  0.4138 -0.3587
 1166SOL    HW115134   1.194   1.188   4.732  1.2488 -4.7523  0.4590
 1166SOL    HW215135   1.045   1.220   4.726 -1.6761 -2.0438 -0.0118
 1167SOL     OW15136   2.929   3.639  14.944  0.0558 -0.2128 -0.2980
 1167SOL    HW115137   3.023   3.639  14.964 -0.3636 -0.5500  1.6148
 1167SOL    HW215138   2.891   3.704  15.003  2.2153  0.8192 -0.0340
 1168SOL     OW15139   1.540   3.629   6.793 -0.6541 -0.6512  0.0834
 1168SOL    HW115140   1.559   3.535   6.795  1.3057 -0.2483 -0.0406
 1168SOL    HW215141   1.591   3.650   6.871 -1.0112  0.1977  0.0900
 1169SOL     OW15142   3.087   3.022   7.925  0.2941  0.0888  0.2627
 1169SOL    HW115143   3.069   3.103   7.972  0.4042 -1.1455  2.4070
 1169SOL    HW215144   3.174   3.001   7.957  1.3503  1.0181 -1.9817
 1170SOL     OW15145   0.897   1.186   6.403 -0.3670 -0.2359 -0.1758
 1170SOL    HW115146   0.982   1.145   6.418 -0.9062 -1.5112 -0.6284
 1170SOL    HW215147   0.850   1.103   6.391 -2.7670  0.7735  2.3194
 1171SOL     OW15148   3.410   1.439   8.159 -0.5016  0.3683 -0.5872
 1171SOL    HW115149   3.443   1.350   8.173  1.3243  0.7648 -2.3452
 1171SOL    HW215150   3.445   1.485   8.236 -2.0323  1.0390 -0.3056
 1172SOL     OW15151   3.747   2.525   0.154 -0.1167  0.1769 -0.0231
 1172SOL    HW115152   3.758   2.493   0.243  0.4378 -0.1527 -0.2072
 1172SOL    HW215153   3.806   2.600   0.154  1.3928 -1.0125  0.8436
 1173SOL     OW15154   3.534   2.315   5.513  0.5042  0.4505 -0.2304
 1173SOL    HW115155   3.469   2.384   5.501  1.6579  1.7981  1.2386
 1173SOL    HW215156   3.613   2.362   5.485  0.4643  0.6841  0.0476
 1174SOL     OW15157   2.557   0.504   7.655  0.4185 -0.1509  0.1805
 1174SOL    HW115158   2.526   0.588   7.621  1.4770 -0.6689 -2.0271
 1174SOL    HW215159   2.514   0.496   7.741 -0.5628  0.6057 -0.2327
 1175SOL     OW15160   1.054   1.287  17.701  0.4395 -0.0932  0.3687
 1175SOL    HW115161   1.029   1.374  17.733  0.0103 -1.1626  3.0262
 1175SOL    HW215162   0.987   1.269  17.635 -0.7855  0.7112  1.4047
 1176SOL     OW15163   0.571   4.440   2.984 -0.4141  0.4355 -0.3870
 1176SOL    HW115164   0.537   4.394   3.061  0.2021  1.4428  0.4828
 1176SOL    HW215165   0.614   4.365   2.943  1.7735  1.0394  0.8353
 1177SOL     OW15166   2.401   4.056   7.543  0.5035 -0.3545  0.2504
 1177SOL    HW115167   2.383   4.102   7.460 -0.7819 -0.9697  0.1874
 1177SOL    HW215168   2.317   4.017   7.564 -0.2929  0.7075 -0.9508
 1178SOL     OW15169   1.642   2.106  10.363 -0.4533 -0.2595 -0.0443
 1178SOL    HW115170   1.685   2.165  10.301  2.6133 -2.5287 -0.0861
 1178SOL    HW215171   1.595   2.047  10.304 -0.5844  0.5584 -0.7596
 1179SOL     OW15172   1.864   0.503  16.967 -0.3077  0.2392  0.1007
 1179SOL    HW115173   1.806   0.427  16.961  0.1976 -0.2153  1.0012
 1179SOL    HW215174   1.835   0.546  17.048 -1.4538  2.4477 -1.4736
 1180SOL     OW15175   2.236   0.799   9.250 -0.1784  0.5604 -0.2396
 1180SOL    HW115176   2.268   0.837   9.332  0.0511 -1.4291  0.5770
 1180SOL    HW215177   2.144   0.777   9.263 -0.0172  0.0418 -0.0104
 1181SOL     OW15178   0.103   4.359   4.603  0.2031 -0.0395 -0.1199
 1181SOL    HW115179   0.086   4.316   4.519  0.4966 -2.0089  0.8238
 1181SOL    HW215180   0.174   4.313   4.646  1.4282  0.4756 -1.5793
 1182SOL     OW15181   1.326   2.938   5.192 -0.0014  0.0751  0.3632
 1182SOL    HW115182   1.373   2.856   5.208  2.5610  1.9519  2.5786
 1182SOL    HW215183   1.385   3.007   5.223  0.7767  0.4332 -1.9598
 1183SOL     OW15184   0.798   0.509  13.813  0.0719  0.3614  0.3713
 1183SOL    HW115185   0.879   0.535  13.770 -0.3075  1.6767  0.4615
 1183SOL    HW215186   0.813   0.420  13.845 -0.1064  0.9694  2.1279
 1184SOL     OW15187   1.084   0.877   4.663  0.2477 -0.2374  0.5051
 1184SOL    HW115188   1.105   0.870   4.570  2.6040  0.4039  0.9987
 1184SOL    HW215189   0.991   0.897   4.651  0.6508  1.3168  0.0989
 1185SOL     OW15190   3.113   4.435   0.195 -0.1062  0.3184  0.5315
 1185SOL    HW115191   3.038   4.377   0.183  0.9803 -0.5420 -2.0152
 1185SOL    HW215192   3.081   4.517   0.157 -2.4741 -1.1588 -0.6871
 1186SOL     OW15193   0.359   0.780   7.981 -0.0959 -0.2520  0.1001
 1186SOL    HW115194   0.272   0.743   7.994  0.3407 -1.5282 -0.5132
 1186SOL    HW215195   0.405   0.748   8.058 -0.1956 -0.8947 -0.1048
 1187SOL     OW15196   1.768   3.757   7.288 -0.4227 -0.1247  0.1939
 1187SOL    HW115197   1.793   3.822   7.223  1.7738 -0.1726  1.0099
 1187SOL    HW215198   1.696   3.799   7.336 -1.7420 -2.0039 -0.1186
 1188SOL     OW15199   4.516   3.240  12.371  0.2417  0.1596 -0.1225
 1188SOL    HW115200   4.533   3.333  12.362  2.0054  0.0701  2.1129
 1188SOL    HW215201   4.452   3.220  12.303 -0.5783  1.7319  0.2054
 1189SOL     OW15202   1.519   3.559   7.577 -0.7339 -0.0502 -0.5404
 1189SOL    HW115203   1.469   3.627   7.622 -0.9288 -2.8792  3.4852
 1189SOL    HW215204   1.540   3.500   7.648 -0.5952  0.7714  0.1047
 1190SOL     OW15205   1.784   4.020  15.172  0.1079  0.1106 -0.1088
 1190SOL    HW115206   1.738   4.086  15.224  1.1493  0.6180  0.1718
 1190SOL    HW215207   1.870   4.008  15.213  0.3601  2.5087  0.0697
 1191SOL     OW15208   2.749   2.133   2.703  0.0261 -0.1973  0.7281
 1191SOL    HW115209   2.670   2.186   2.712  0.9684  1.1556  0.9626
 1191SOL    HW215210   2.805   2.191   2.651 -0.8833 -0.9302 -1.0666
 1192SOL     OW15211   2.902   1.799  12.326 -0.3887 -0.0133 -0.0209
 1192SOL    HW115212   2.936   1.875  12.374  2.0422 -0.5137 -0.9298
 1192SOL    HW215213   2.828   1.843  12.284 -0.9764 -3.0938 -2.1555
 1193SOL     OW15214   1.513   1.149  16.475 -0.1006  0.1394 -0.0907
 1193SOL    HW115215   1.608   1.159  16.468 -0.1788  1.5516  0.9520
 1193SOL    HW215216   1.502   1.054  16.477 -0.3593  0.2264  2.5070
 1194SOL     OW15217   2.835   2.859   6.697 -0.1046  0.5856  0.1853
 1194SOL    HW115218   2.916   2.827   6.658 -0.0292 -0.0419  0.8556
 1194SOL    HW215219   2.770   2.805   6.652  1.2838  0.4238 -1.6067
 1195SOL     OW15220   3.574   2.859   7.234  0.5467 -0.0492  0.1029
 1195SOL    HW115221   3.662   2.893   7.250  1.0010 -0.7499 -0.9036
 1195SOL    HW215222   3.543   2.927   7.173 -1.0409  0.0936  1.0662
 1196SOL     OW15223   3.878   0.938   7.823  0.0219 -0.6716  0.5955
 1196SOL    HW115224   3.883   1.009   7.759  0.3577  0.1512  1.5317
 1196SOL    HW215225   3.792   0.965   7.855 -0.0348 -0.6438  0.4193
 1197SOL     OW15226   2.895   0.592   5.372 -0.2451  0.1867 -0.3612
 1197SOL    HW115227   2.950   0.531   5.422  0.3943 -0.1875 -1.5064
 1197SOL    HW215228   2.942   0.673   5.391 -0.6957  0.6002 -1.0146
 1198SOL     OW15229   0.637   3.289  12.601 -0.2363  0.0266  0.1674
 1198SOL    HW115230   0.667   3.204  12.631 -1.5411 -0.6494 -0.4420
 1198SOL    HW215231   0.657   3.353  12.670  4.0572 -0.2113 -0.8710
 1199SOL     OW15232   1.954   3.552   5.002 -0.1683  0.1933 -0.1667
 1199SOL    HW115233   1.889   3.574   5.069  0.3318 -1.9348  1.0163
 1199SOL    HW215234   1.982   3.464   5.027 -2.4129 -0.3042  0.5745
 1200SOL     OW15235   4.287   1.007  10.160 -0.2704 -0.0093 -0.2402
 1200SOL    HW115236   4.268   0.968  10.075 -0.2456 -2.6362  0.9406
 1200SOL    HW215237   4.274   1.099  10.138 -1.2790 -0.4740 -1.5586
 1201SOL     OW15238   0.196   3.503   6.682  0.6209 -0.0753  0.0909
 1201SOL    HW115239   0.185   3.556   6.604 -0.4139 -1.3642 -0.6377
 1201SOL    HW215240   0.147   3.560   6.742  1.8158  1.1785 -0.1269
 1202SOL     OW15241   2.102   2.075  11.055  0.3077  0.6092 -0.4809
 1202SOL    HW115242   2.145   2.035  10.979  0.4433 -0.2398  0.0366
 1202SOL    HW215243   2.180   2.098  11.105 -0.2903  2.5187 -0.4596
 1203SOL     OW15244   2.608   1.345   6.039 -0.3651 -0.2599 -0.3217
 1203SOL    HW115245   2.525   1.380   6.006 -0.1423  1.2996  0.8041
 1203SOL    HW215246   2.603   1.252   6.017  1.6428 -1.2120  3.2740
 1204SOL     OW15247   4.351   0.566   0.012  0.0796  0.0608  0.0012
 1204SOL    HW115248   4.420   0.576  17.694  1.7412  0.6288  1.8485
 1204SOL    HW215249   4.389   0.497   0.066  0.6395  0.9646  0.7708
 1205SOL     OW15250   1.536   1.429   4.151 -0.0497  0.0643  0.1602
 1205SOL    HW115251   1.493   1.348   4.126 -1.0869  0.2141  1.4635
 1205SOL    HW215252   1.521   1.433   4.245  3.2473 -1.2390  0.7450
 1206SOL     OW15253   0.403   0.513   3.573 -0.0012  0.3595 -0.3601
 1206SOL    HW115254   0.344   0.539   3.503 -1.0387  0.5061  0.5636
 1206SOL    HW215255   0.484   0.556   3.547  0.0682 -1.3809 -3.0125
 1207SOL     OW15256   4.263   2.091   3.670 -0.1329  0.1805 -0.4028
 1207SOL    HW115257   4.183   2.077   3.619 -0.3236 -0.9329  0.1953
 1207SOL    HW215258   4.225   2.096   3.758  1.2398 -3.6040  0.3971
 1208SOL     OW15259   1.995   3.636   2.470 -0.3506  0.3841  0.0879
 1208SOL    HW115260   2.030   3.548   2.485 -0.1939  0.0433 -2.3307
 1208SOL    HW215261   2.015   3.644   2.377 -4.4710  1.3229 -0.7215
 1209SOL     OW15262   0.928   3.726   5.966 -0.2361 -0.0500  0.0347
 1209SOL    HW115263   0.894   3.785   6.034  2.7341  1.1761  0.4612
 1209SOL    HW215264   1.018   3.720   5.998 -0.2036  2.0581  0.3638
 1210SOL     OW15265   1.906   2.954   4.039 -0.0393  0.2968 -0.3489
 1210SOL    HW115266   1.819   2.915   4.036  0.0174  0.2171 -0.9821
 1210SOL    HW215267   1.935   2.921   4.124  0.0821 -0.1678 -0.5721
 1211SOL     OW15268   4.372   2.893  11.243 -0.4226 -0.9832  0.4254
 1211SOL    HW115269   4.302   2.841  11.281  0.0898 -1.1992  1.0780
 1211SOL    HW215270   4.453   2.862  11.283 -0.3675 -0.8712  0.4004
 1212SOL     OW15271   2.017   0.988   2.685 -0.4517 -0.2907 -0.3094
 1212SOL    HW115272   1.984   1.072   2.718 -1.5281 -0.9629  0.3340
 1212SOL    HW215273   2.110   0.989   2.706 -0.6170  0.8872  0.3452
 1213SOL     OW15274   2.865   2.457   2.866 -0.4277  0.0866  0.6704
 1213SOL    HW115275   2.914   2.520   2.813 -0.0075 -0.1668  0.7606
 1213SOL    HW215276   2.775   2.492   2.865 -0.5859 -0.4643 -2.2626
 1214SOL     OW15277   1.768   3.048   7.687 -0.1432 -1.1656  0.3045
 1214SOL    HW115278   1.740   2.956   7.689 -0.6126 -1.0066  0.9218
 1214SOL    HW215279   1.721   3.088   7.760 -1.9564 -2.0024 -0.4013
 1215SOL     OW15280   0.677   2.428   5.134 -0.6321  0.2912 -0.0930
 1215SOL    HW115281   0.598   2.376   5.147 -0.9577  0.8246  0.0722
 1215SOL    HW215282   0.735   2.354   5.118 -0.8033  0.2706 -0.6361
 1216SOL     OW15283   0.516   4.392   9.083 -0.1922 -0.6462  0.3964
 1216SOL    HW115284   0.467   4.352   9.154  0.8372  0.6517  1.8358
 1216SOL    HW215285   0.554   4.315   9.040  0.4088 -0.7226  1.0716
 1217SOL     OW15286   3.420   1.352   9.408 -0.3193 -0.8056  0.0859
 1217SOL    HW115287   3.373   1.434   9.423 -0.4759 -0.9348  0.2927
 1217SOL    HW215288   3.367   1.316   9.337  1.4841 -3.2259 -0.0066
 1218SOL     OW15289   4.259   0.532   3.850  0.4027  0.1812 -0.2076
 1218SOL    HW115290   4.325   0.481   3.897  0.6291  0.3489 -0.3423
 1218SOL    HW215291   4.320   0.593   3.809  1.0771 -0.7298 -0.5631
 1219SOL     OW15292   4.002   4.441   9.466  0.3470  0.1745 -0.0990
 1219SOL    HW115293   4.026   4.349   9.452 -0.2415 -0.2686  1.8949
 1219SOL    HW215294   3.915   4.439   9.425  0.5029  2.5297 -0.5138
 1220SOL     OW15295   2.813   1.748   8.315  0.0561  0.1681 -0.1764
 1220SOL    HW115296   2.886   1.750   8.253  0.6754  0.7115  0.5661
 1220SOL    HW215297   2.834   1.671   8.368  2.6201  1.4542  0.6415
 1221SOL     OW15298   4.492   3.874   6.815 -0.0850  0.4483 -0.1000
 1221SOL    HW115299   4.535   3.863   6.730 -1.1778 -0.2771 -0.5576
 1221SOL    HW215300   4.405   3.894   6.781  0.5007  1.0613 -1.2185
 1222SOL     OW15301   0.265   4.277  16.263 -0.2614  0.2459  0.5943
 1222SOL    HW115302   0.252   4.350  16.203  0.2530 -0.0137  0.1647
 1222SOL    HW215303   0.296   4.314  16.345 -0.6649 -0.3927  1.0305
 1223SOL     OW15304   2.001   0.389   5.315 -0.5720  0.2528 -0.4267
 1223SOL    HW115305   2.022   0.480   5.292 -0.6298  0.0335 -1.3625
 1223SOL    HW215306   1.906   0.382   5.322 -0.6822  2.0484 -0.0378
 1224SOL     OW15307   3.063   4.572   7.095 -0.5220 -0.1484  0.6712
 1224SOL    HW115308   3.057   4.632   7.169  1.9474  0.1878  0.5978
 1224SOL    HW215309   2.998   4.619   7.043  1.0908  1.1060 -0.2100
 1225SOL     OW15310   4.625   1.827  16.671  0.5625 -0.2557 -0.1120
 1225SOL    HW115311   4.538   1.797  16.698 -0.4853  0.0742 -3.1255
 1225SOL    HW215312   4.668   1.753  16.627  0.6624 -0.0391 -0.3802
 1226SOL     OW15313   3.532   0.393  17.661  0.1056  0.0605  0.1737
 1226SOL    HW115314   3.506   0.439  17.741  3.6193 -0.2789  1.4932
 1226SOL    HW215315   3.589   0.461  17.625 -0.1330 -0.1636 -0.6298
 1227SOL     OW15316   0.129   1.568   5.672  0.1452  0.0402  0.3338
 1227SOL    HW115317   0.155   1.659   5.686 -0.3407  0.3335 -0.6654
 1227SOL    HW215318   0.202   1.530   5.721  2.0860  2.3073 -0.8130
 1228SOL     OW15319   1.072   1.014   5.390  0.4447 -0.1165 -0.1795
 1228SOL    HW115320   1.009   1.084   5.399  1.3967  0.5648  1.0968
 1228SOL    HW215321   1.034   0.938   5.433  1.1212 -2.9633 -4.5663
 1229SOL     OW15322   0.255   0.330   5.811 -0.1896  0.1024 -0.1220
 1229SOL    HW115323   0.308   0.398   5.854  2.4818 -1.3181 -1.1165
 1229SOL    HW215324   0.307   0.251   5.827 -1.7069 -1.0134 -0.8345
 1230SOL     OW15325   1.715   3.774   1.239  0.5634  0.7071  0.0732
 1230SOL    HW115326   1.683   3.837   1.304 -0.8251 -0.4558  0.5360
 1230SOL    HW215327   1.636   3.739   1.197  1.5272 -0.9951 -0.2933
 1231SOL     OW15328   0.299   2.714   3.408 -0.2189  0.2137  0.0035
 1231SOL    HW115329   0.324   2.805   3.419 -0.0552  0.4170 -2.1215
 1231SOL    HW215330   0.350   2.688   3.331  0.3737 -0.4675  0.6149
 1232SOL     OW15331   1.333   4.308   3.363  0.1765 -0.2038  0.0217
 1232SOL    HW115332   1.316   4.303   3.269  0.5452  2.4232 -0.1821
 1232SOL    HW215333   1.394   4.382   3.361  0.4193 -0.4561 -1.6950
 1233SOL     OW15334   3.168   2.833   8.279 -0.6729  0.3506 -0.8525
 1233SOL    HW115335   3.174   2.927   8.296  2.0521  0.5070 -2.6283
 1233SOL    HW215336   3.081   2.800   8.299 -1.2885  2.6814  0.2976
 1234SOL     OW15337   4.546   0.047   2.703  0.1616  0.1007  0.0230
 1234SOL    HW115338   4.571   0.126   2.656  1.1505 -0.6641 -0.7295
 1234SOL    HW215339   4.471   0.031   2.645  0.7780  0.9653 -1.0034
 1235SOL     OW15340   1.761   2.757   4.294 -0.0630 -0.1185 -0.0963
 1235SOL    HW115341   1.752   2.747   4.389 -3.8623 -1.3833 -0.5762
 1235SOL    HW215342   1.699   2.687   4.274 -1.4639  1.3310 -0.8282
 1236SOL     OW15343   4.466   2.775   2.061 -0.0281  0.0645  0.2124
 1236SOL    HW115344   4.441   2.700   2.006 -2.5320 -0.7873  2.4758
 1236SOL    HW215345   4.415   2.846   2.023  0.2573  0.0420 -0.2138
 1237SOL     OW15346   1.919   0.105  17.164  0.2142  0.1160  0.8111
 1237SOL    HW115347   1.990   0.167  17.151 -1.9406  2.3483 -0.1531
 1237SOL    HW215348   1.885   0.108  17.075  1.3367 -2.3829  0.2740
 1238SOL     OW15349   2.231   4.035   1.344  0.0633 -0.0806  0.2100
 1238SOL    HW115350   2.138   4.053   1.357 -0.3228 -0.8990 -1.4270
 1238SOL    HW215351   2.248   4.114   1.292  1.2158 -2.0832 -2.4600
 1239SOL     OW15352   0.995   2.683   3.057 -0.3321 -0.0921  0.0682
 1239SOL    HW115353   0.960   2.751   2.999 -0.2279  1.7670  2.1820
 1239SOL    HW215354   0.928   2.619   3.034 -0.8969 -0.3163  2.4079
 1240SOL     OW15355   1.010   2.559   2.780 -0.4064 -0.5527 -0.8149
 1240SOL    HW115356   0.946   2.592   2.717 -0.5235  1.4807  0.3464
 1240SOL    HW215357   0.950   2.543   2.853 -0.7536  3.9932 -0.0862
 1241SOL     OW15358   4.187   4.337   9.964 -0.1951  0.0354 -0.3725
 1241SOL    HW115359   4.248   4.366   9.897 -0.5874  2.6452  0.4237
 1241SOL    HW215360   4.136   4.270   9.919 -1.7269 -0.1852  1.7197
 1242SOL     OW15361   3.052   2.027  11.985 -0.8310 -0.1455 -0.0511
 1242SOL    HW115362   3.120   2.033  11.917 -1.7440  1.4498 -0.8099
 1242SOL    HW215363   3.038   1.932  11.991 -1.5062 -0.1964 -2.5047
 1243SOL     OW15364   4.234   0.506   8.026  0.7635  0.0868  0.3166
 1243SOL    HW115365   4.172   0.487   7.956 -0.2477 -1.3690  1.6183
 1243SOL    HW215366   4.312   0.459   7.998 -0.1929 -1.2123 -0.1225
 1244SOL     OW15367   3.562   0.753   3.300 -0.8462 -0.3052 -0.0075
 1244SOL    HW115368   3.549   0.834   3.349 -0.6630  0.1644 -0.7393
 1244SOL    HW215369   3.620   0.706   3.360 -0.5213 -0.1252 -0.1812
 1245SOL     OW15370   2.463   1.067  16.357  0.1371 -0.0098  0.6919
 1245SOL    HW115371   2.504   1.035  16.277 -3.5780 -0.5681 -0.9936
 1245SOL    HW215372   2.490   0.998  16.418  0.3843 -1.3005 -0.8700
 1246SOL     OW15373   0.268   2.681   7.356  0.0481 -0.7856  0.6405
 1246SOL    HW115374   0.212   2.603   7.357 -0.3654 -0.4968  0.3007
 1246SOL    HW215375   0.280   2.701   7.264 -0.6547  0.8621  0.8954
 1247SOL     OW15376   4.110   1.545   5.190  0.0755  0.6862  0.3456
 1247SOL    HW115377   4.068   1.583   5.267  0.6421  0.8504  0.5746
 1247SOL    HW215378   4.076   1.607   5.126 -0.6817  0.2199  0.2930
 1248SOL     OW15379   4.306   4.013   2.233 -0.3207 -0.5082 -0.3108
 1248SOL    HW115380   4.239   4.022   2.300 -2.0695  1.3845 -2.2788
 1248SOL    HW215381   4.290   3.923   2.206 -2.1560  0.0388 -1.0675
 1249SOL     OW15382   1.187   3.310   8.901  0.2703  0.3567 -0.6303
 1249SOL    HW115383   1.117   3.375   8.909 -0.3301  0.2554 -4.7545
 1249SOL    HW215384   1.216   3.306   8.992 -1.3481  2.8127  0.0106
 1250SOL     OW15385   2.082   2.742   4.614  1.1023  0.4683  0.1105
 1250SOL    HW115386   2.136   2.720   4.538  0.7557  1.6059 -0.4779
 1250SOL    HW215387   2.034   2.662   4.634 -0.9913  1.6776 -0.0330
 1251SOL     OW15388   0.190   2.196  14.076  0.3011 -0.0508  0.1154
 1251SOL    HW115389   0.133   2.123  14.050 -1.2527  0.7268  1.3662
 1251SOL    HW215390   0.147   2.265  14.027 -0.7746 -2.0407 -1.7560
 1252SOL     OW15391   2.594   1.268   5.695  0.0522  0.1783  0.2921
 1252SOL    HW115392   2.594   1.216   5.615  0.5194 -1.4679  1.3644
 1252SOL    HW215393   2.618   1.352   5.657  0.0599  0.5708  1.1731
 1253SOL     OW15394   0.401   0.120   3.675  0.1749 -0.0169  0.4021
 1253SOL    HW115395   0.417   0.205   3.633 -0.9662  0.1141  0.2456
 1253SOL    HW215396   0.340   0.077   3.614  3.1385  0.4576 -2.9326
 1254SOL     OW15397   1.789   4.357   5.925  0.3073  0.6895 -0.0959
 1254SOL    HW115398   1.716   4.301   5.951  1.6151 -0.8356  0.3254
 1254SOL    HW215399   1.743   4.404   5.855  0.0834 -0.0753 -0.4674
 1255SOL     OW15400   0.316   0.908   1.745 -0.2779  0.3084  0.0548
 1255SOL    HW115401   0.277   0.873   1.825  1.2295 -0.7023  0.3451
 1255SOL    HW215402   0.269   0.990   1.731 -0.9578 -0.0326  0.3160
 1256SOL     OW15403   3.684   3.727   6.611  0.2455 -0.5787 -0.3941
 1256SOL    HW115404   3.748   3.768   6.670 -1.5206 -0.5773  1.5007
 1256SOL    HW215405   3.604   3.755   6.655  1.4087  0.8173  0.8499
 1257SOL     OW15406   4.638   0.046   5.610 -0.4900  0.1642 -0.6267
 1257SOL    HW115407   4.616   4.691   5.625 -0.1751  0.1961  0.0480
 1257SOL    HW215408   4.560   0.092   5.643  1.2926  0.6753  2.8207
 1258SOL     OW15409   1.665   3.118   1.627  0.2613  0.1474  0.0469
 1258SOL    HW115410   1.723   3.183   1.587  3.4393 -1.9260  1.3784
 1258SOL    HW215411   1.708   3.110   1.711  1.8061 -1.1307 -0.8855
 1259SOL     OW15412   2.939   2.689   1.382  0.0855  0.1580 -0.0714
 1259SOL    HW115413   2.961   2.672   1.474 -0.9796 -0.7796  0.0016
 1259SOL    HW215414   2.928   2.601   1.347  1.6109  0.7871 -2.1364
 1260SOL     OW15415   4.596   2.547  16.051  0.6726  0.0289 -0.2963
 1260SOL    HW115416   4.671   2.488  16.049  0.8395  0.2238  0.0690
 1260SOL    HW215417   4.587   2.584  15.963 -0.4450 -1.1857 -0.6983
 1261SOL     OW15418   1.542   0.480   5.182  0.4462 -0.1495  0.7435
 1261SOL    HW115419   1.465   0.472   5.238 -0.3395  0.5718 -0.2504
 1261SOL    HW215420   1.546   0.400   5.128 -0.5419  0.6671 -0.5341
 1262SOL     OW15421   4.155   2.789   0.874  0.3596  0.3181 -0.5733
 1262SOL    HW115422   4.073   2.742   0.887 -0.4396  1.5355 -1.2082
 1262SOL    HW215423   4.137   2.883   0.879 -3.2057 -0.2976 -1.8678
 1263SOL     OW15424   2.005   0.906   5.674 -0.1010 -0.4901 -0.0116
 1263SOL    HW115425   1.997   0.885   5.581  1.1951  1.7506 -0.6116
 1263SOL    HW215426   2.099   0.921   5.682 -0.2903  1.5327 -1.6853
 1264SOL     OW15427   4.291   3.267   6.727  0.1975  0.2601  0.3901
 1264SOL    HW115428   4.347   3.190   6.742 -0.6392 -0.0290  2.0608
 1264SOL    HW215429   4.298   3.269   6.632 -1.3969  0.2062  0.2783
 1265SOL     OW15430   1.858   2.465  17.656 -0.4916 -0.5576 -0.4541
 1265SOL    HW115431   1.826   2.411  17.729 -0.9168  0.5026  0.1428
 1265SOL    HW215432   1.834   2.555  17.678 -0.4655 -0.5635 -0.4012
 1266SOL     OW15433   2.126   4.126   6.679 -0.5638 -0.6779  0.4230
 1266SOL    HW115434   2.157   4.148   6.592 -1.9934  0.5533  0.2342
 1266SOL    HW215435   2.084   4.040   6.670 -2.0471 -0.2052  2.6504
 1267SOL     OW15436   1.960   2.110   7.454 -0.3138  0.7044 -0.5210
 1267SOL    HW115437   1.990   2.184   7.507  1.8462  1.3142 -2.6113
 1267SOL    HW215438   2.045   2.085   7.417 -0.6688 -0.2756 -0.6602
 1268SOL     OW15439   3.067   0.500   1.386  0.0383 -0.2951  0.2255
 1268SOL    HW115440   3.056   0.563   1.456  1.8527  1.5104 -1.1035
 1268SOL    HW215441   3.158   0.521   1.366 -0.5097 -0.5838 -2.6630
 1269SOL     OW15442   3.295   1.626   0.319  0.2306  0.1092  0.0146
 1269SOL    HW115443   3.343   1.615   0.237  1.2855 -2.1963  0.9306
 1269SOL    HW215444   3.263   1.714   0.298 -2.0229 -0.5907  0.4352
 1270SOL     OW15445   3.728   3.273  16.310 -0.2873  0.5521  0.6779
 1270SOL    HW115446   3.636   3.256  16.289  0.6637 -1.5454 -1.8082
 1270SOL    HW215447   3.734   3.368  16.299 -0.6009  0.7621  2.3449
 1271SOL     OW15448   0.232   3.165  14.517  0.5344 -0.0331  0.7481
 1271SOL    HW115449   0.229   3.197  14.427  2.1562 -0.1637  0.6381
 1271SOL    HW215450   0.306   3.103  14.515  1.1567  0.6202  3.0329
 1272SOL     OW15451   3.834   0.893   2.551 -0.0985 -0.1561  0.8074
 1272SOL    HW115452   3.900   0.956   2.521  0.8390 -1.1183  0.8527
 1272SOL    HW215453   3.874   0.806   2.554  0.4105  0.1118  1.5904
 1273SOL     OW15454   2.594   0.420   3.138 -0.7440  0.4210 -0.3398
 1273SOL    HW115455   2.642   0.379   3.066  1.7716  0.7656  1.1509
 1273SOL    HW215456   2.657   0.476   3.183 -0.3063 -1.8665  1.8973
 1274SOL     OW15457   0.543   0.042   5.144  0.1354  0.3841  0.2784
 1274SOL    HW115458   0.522   4.707   5.085  0.8117 -0.6820  1.3502
 1274SOL    HW215459   0.454   0.076   5.145 -0.4174 -0.9876 -1.7099
 1275SOL     OW15460   1.969   1.006   7.191  0.0492  0.4037 -0.0629
 1275SOL    HW115461   1.888   1.002   7.141 -0.2269  1.2963  0.3062
 1275SOL    HW215462   1.939   0.984   7.279 -0.3754  1.7465  0.1253
 1276SOL     OW15463   3.819   1.203   7.691  0.0779  0.2833  0.7519
 1276SOL    HW115464   3.743   1.246   7.729 -1.2682 -0.8807 -0.6351
 1276SOL    HW215465   3.877   1.278   7.683  0.0059  0.1572 -0.9568
 1277SOL     OW15466   0.278   1.468  16.055 -0.0765 -0.5172 -0.4332
 1277SOL    HW115467   0.232   1.503  15.978 -0.2277  1.4483  0.5497
 1277SOL    HW215468   0.360   1.517  16.055 -1.3217  1.5823 -1.6656
 1278SOL     OW15469   4.657   4.174   4.907 -0.0239 -0.3241  0.7816
 1278SOL    HW115470   4.697   4.142   4.988  0.1355  0.0435  0.8496
 1278SOL    HW215471   4.565   4.176   4.934 -0.4725 -2.7432 -0.5815
 1279SOL     OW15472   3.026   2.645   8.652  0.2491 -0.3750  0.5072
 1279SOL    HW115473   2.940   2.666   8.689 -0.5078 -0.2162 -1.3263
 1279SOL    HW215474   3.012   2.570   8.594 -0.6771  1.0802 -1.1583
 1280SOL     OW15475   4.219   4.719   9.006  0.1555 -0.4206  0.0701
 1280SOL    HW115476   4.125   4.729   8.993  0.2875  1.2665  0.4191
 1280SOL    HW215477   4.221   4.623   9.014 -1.3231 -0.3211  1.5689
 1281SOL     OW15478   0.057   0.670   2.097  0.3285  0.0489 -0.2005
 1281SOL    HW115479   4.711   0.634   2.067  0.3481  0.7655 -1.1013
 1281SOL    HW215480   0.101   0.600   2.146 -0.9602  0.5813  1.7308
 1282SOL     OW15481   0.041   3.689   7.830  0.7071 -0.2786  0.2022
 1282SOL    HW115482   0.099   3.765   7.832  0.4240 -0.0855  1.1669
 1282SOL    HW215483   0.053   3.661   7.921 -1.0026 -2.1804 -0.1517
 1283SOL     OW15484   3.702   3.075  15.912 -0.6722  0.5241  0.0154
 1283SOL    HW115485   3.720   3.164  15.882 -1.5867  1.0214  0.9157
 1283SOL    HW215486   3.728   3.073  16.004 -0.8810 -3.7931 -0.0214
 1284SOL     OW15487   2.263   1.090   8.147  0.1899  0.4787 -0.6137
 1284SOL    HW115488   2.354   1.109   8.171 -0.1304  0.3933  0.6795
 1284SOL    HW215489   2.260   0.995   8.157  1.5858  0.4841 -0.1014
 1285SOL     OW15490   1.062   0.497  17.495  0.1270  0.2686  0.9084
 1285SOL    HW115491   1.121   0.421  17.492 -0.3729 -0.1474  1.7564
 1285SOL    HW215492   1.060   0.520  17.402  1.2504  0.4453  0.9298
 1286SOL     OW15493   2.953   2.282   2.128 -0.5437 -0.0185 -0.2077
 1286SOL    HW115494   2.976   2.346   2.061 -3.3779  0.5368 -0.6641
 1286SOL    HW215495   2.884   2.225   2.093 -0.6897  1.9219 -3.0203
 1287SOL     OW15496   2.004   1.372   5.466  0.1782 -0.3078  0.2484
 1287SOL    HW115497   2.051   1.293   5.439  0.7357  1.1730 -3.0936
 1287SOL    HW215498   1.912   1.348   5.480 -0.2760  1.8860  0.9230
 1288SOL     OW15499   1.540   4.523   9.376 -0.0067  0.3354  0.3231
 1288SOL    HW115500   1.567   4.569   9.456 -0.5799  1.3402 -0.0587
 1288SOL    HW215501   1.580   4.442   9.407 -0.7446  0.5121  1.7422
 1289SOL     OW15502   0.891   0.681   5.316 -0.3437 -0.0964 -0.5747
 1289SOL    HW115503   0.910   0.589   5.334 -2.1429 -0.4232 -0.2755
 1289SOL    HW215504   0.831   0.712   5.384 -0.5500 -1.9947  0.1038
 1290SOL     OW15505   2.973   2.103   7.038  0.0580  0.0196 -0.4784
 1290SOL    HW115506   3.031   2.157   7.091  1.9734 -1.1725 -1.3533
 1290SOL    HW215507   2.995   2.015   7.068 -1.6559 -0.2212  0.1083
 1291SOL     OW15508   3.390   1.849  12.919  0.3320 -0.3133 -0.7590
 1291SOL    HW115509   3.337   1.770  12.931  2.1139 -1.5815 -1.3185
 1291SOL    HW215510   3.339   1.892  12.850  1.3544 -0.3888 -1.5506
 1292SOL     OW15511   4.450   2.708   2.324 -0.4484 -0.1742  0.2646
 1292SOL    HW115512   4.412   2.636   2.373  0.5221 -1.4969 -0.9422
 1292SOL    HW215513   4.439   2.696   2.230  0.1196  1.7724 -0.0581
 1293SOL     OW15514   1.269   2.172   4.706  0.1409  0.8763  0.2953
 1293SOL    HW115515   1.255   2.080   4.683 -1.6477  0.2399  3.8450
 1293SOL    HW215516   1.195   2.180   4.767  0.5527 -0.0050  0.8985
 1294SOL     OW15517   2.713   1.442   7.333 -0.4436 -0.2729 -0.4030
 1294SOL    HW115518   2.807   1.439   7.315 -0.6255 -2.7532 -0.9204
 1294SOL    HW215519   2.709   1.358   7.379 -1.8312 -0.3830 -0.7316
 1295SOL     OW15520   1.658   3.885  12.666  0.0478  0.0406 -0.4213
 1295SOL    HW115521   1.692   3.969  12.635 -0.6244  0.8125  0.9759
 1295SOL    HW215522   1.695   3.829  12.597  0.6881  0.5784 -0.5165
 1296SOL     OW15523   2.568   2.817   8.414  0.4143  0.1570 -0.7853
 1296SOL    HW115524   2.635   2.776   8.360 -0.6305 -1.3927 -0.9050
 1296SOL    HW215525   2.526   2.867   8.344 -1.2379 -0.4080 -0.1928
 1297SOL     OW15526   1.654   1.306   1.066  0.2371 -0.3625  0.1088
 1297SOL    HW115527   1.600   1.323   1.143  1.1317 -0.9441  0.8715
 1297SOL    HW215528   1.629   1.214   1.054 -1.3041  0.1276 -0.4332
 1298SOL     OW15529   1.250   1.265   2.095 -0.3112 -0.0735 -0.3796
 1298SOL    HW115530   1.308   1.298   2.026  1.7112  0.3367  1.5126
 1298SOL    HW215531   1.212   1.347   2.127  1.2805  0.2920  0.5561
 1299SOL     OW15532   0.583   4.734  14.323 -0.4711  0.0652  0.3333
 1299SOL    HW115533   0.548   4.724  14.234  2.2641 -0.0303 -0.7164
 1299SOL    HW215534   0.502   0.033  14.359  0.2198 -0.4475  2.4106
 1300SOL     OW15535   0.859   0.912   6.380 -0.4500 -0.0310 -0.3118
 1300SOL    HW115536   0.818   0.863   6.308 -2.6774  1.5044 -0.1128
 1300SOL    HW215537   0.952   0.927   6.362 -0.1443  2.7435  3.6461
 1301SOL     OW15538   2.974   4.537   1.663  0.1149  0.6598 -0.1697
 1301SOL    HW115539   3.017   4.525   1.748  1.6044 -0.0508 -1.0285
 1301SOL    HW215540   2.895   4.573   1.703 -0.6475 -2.3407  1.0245
 1302SOL     OW15541   1.193   1.307   0.170  1.3596  0.5482  0.4780
 1302SOL    HW115542   1.144   1.284   0.092  0.0320  0.3205  1.3835
 1302SOL    HW215543   1.252   1.231   0.174 -0.3625 -0.8168 -0.5939
 1303SOL     OW15544   4.302   0.573   7.562  0.1475  0.0601 -0.3227
 1303SOL    HW115545   4.208   0.564   7.578 -0.0450  2.1442 -0.2774
 1303SOL    HW215546   4.338   0.550   7.647  0.3097  0.3619 -0.3085
 1304SOL     OW15547   2.848   3.476   8.104  0.4504  0.0543  0.4604
 1304SOL    HW115548   2.803   3.508   8.182  1.3465 -0.5196  1.2281
 1304SOL    HW215549   2.775   3.489   8.043 -0.5892  0.1043  1.7245
 1305SOL     OW15550   2.659   4.437  11.981 -0.2182  0.0142 -0.3109
 1305SOL    HW115551   2.603   4.479  11.916 -0.4103  0.6421  0.2514
 1305SOL    HW215552   2.732   4.498  11.988  1.0356 -1.6421  1.2873
 1306SOL     OW15553   2.764   3.444   4.651  0.4419 -0.8475 -0.2398
 1306SOL    HW115554   2.672   3.455   4.624  0.0565 -0.0140  1.4696
 1306SOL    HW215555   2.765   3.436   4.746 -2.1473  0.7331 -0.0775
 1307SOL     OW15556   3.977   0.936   1.822  1.0249 -0.0305  0.0532
 1307SOL    HW115557   3.911   0.970   1.884  2.2828  1.7952  0.4048
 1307SOL    HW215558   4.051   0.990   1.850 -0.1224  1.0643  1.0294
 1308SOL     OW15559   3.721   0.659  17.356 -0.4535  0.0567  0.3218
 1308SOL    HW115560   3.804   0.635  17.316 -0.6347  0.2849 -0.1916
 1308SOL    HW215561   3.722   0.589  17.422  0.2096  0.1426  0.4021
 1309SOL     OW15562   4.327   0.562   4.176  0.2477 -0.4493  0.2468
 1309SOL    HW115563   4.330   0.652   4.144  0.6989  0.5274  2.9956
 1309SOL    HW215564   4.333   0.513   4.094  2.2454 -0.7666  0.5680
 1310SOL     OW15565   4.205   0.824   0.573  0.2049  0.6373 -0.8576
 1310SOL    HW115566   4.296   0.853   0.572  0.3634  0.2177  0.8132
 1310SOL    HW215567   4.162   0.897   0.528 -0.0096 -0.0750 -1.7995
 1311SOL     OW15568   2.220   1.605   2.608  0.4258 -0.4073  0.3661
 1311SOL    HW115569   2.244   1.527   2.657 -1.0775 -1.2910 -0.2743
 1311SOL    HW215570   2.281   1.601   2.534  1.4472  3.7626  0.9656
 1312SOL     OW15571   2.239   2.837  12.221 -0.4899 -0.0097 -0.2328
 1312SOL    HW115572   2.261   2.861  12.311  0.3645 -0.9172 -0.2110
 1312SOL    HW215573   2.180   2.766  12.243  0.1425 -1.4639 -3.2591
 1313SOL     OW15574   1.000   2.747   5.608  0.5227 -0.2938  0.4482
 1313SOL    HW115575   1.031   2.804   5.537 -4.9561  1.1863 -0.7724
 1313SOL    HW215576   0.905   2.761   5.608  0.6919  0.7844  2.0747
 1314SOL     OW15577   0.617   4.426   5.410  0.1551  0.0934  0.0753
 1314SOL    HW115578   0.611   4.389   5.498 -1.7114  0.7810  0.2286
 1314SOL    HW215579   0.535   4.474   5.402  0.3612  0.2537 -1.0292
 1315SOL     OW15580   2.798   1.511   3.927  0.2368 -0.2580 -0.0601
 1315SOL    HW115581   2.816   1.546   4.014  1.3514 -1.3027  0.1088
 1315SOL    HW215582   2.851   1.434   3.942  2.1683  0.5178 -2.9533
 1316SOL     OW15583   4.536   2.170   7.179  0.2215  0.2316 -0.4592
 1316SOL    HW115584   4.479   2.096   7.199 -0.0220  0.4151 -0.4822
 1316SOL    HW215585   4.469   2.234   7.200 -1.3982 -1.4788 -0.3677
 1317SOL     OW15586   2.777   1.865   1.047 -0.3396  0.0697 -0.6453
 1317SOL    HW115587   2.747   1.777   1.027  1.1191 -1.3297  3.3467
 1317SOL    HW215588   2.868   1.843   1.069 -0.6480 -2.1016 -1.5903
 1318SOL     OW15589   4.125   0.595   2.236  0.0603 -0.3791 -0.5669
 1318SOL    HW115590   4.124   0.612   2.142 -2.2617 -0.7374 -0.6078
 1318SOL    HW215591   4.077   0.512   2.238 -1.4082  0.4291 -2.5963
 1319SOL     OW15592   3.887   1.997  11.966 -0.1237 -0.2369 -0.5740
 1319SOL    HW115593   3.949   2.068  11.950 -1.0698  0.9113  0.7540
 1319SOL    HW215594   3.838   1.992  11.884  0.4654 -1.1744 -0.8692
 1320SOL     OW15595   2.300   3.621   8.864 -1.0231 -0.1760  0.0025
 1320SOL    HW115596   2.357   3.648   8.936  0.6964 -0.0210 -1.3967
 1320SOL    HW215597   2.308   3.526   8.868  3.0892  0.1829 -0.1169
 1321SOL     OW15598   0.599   1.254   4.181  1.0240 -0.7171  0.0772
 1321SOL    HW115599   0.634   1.331   4.225  2.3425 -2.4720  2.0615
 1321SOL    HW215600   0.672   1.236   4.123 -1.3559 -0.7544 -2.9378
 1322SOL     OW15601   2.184   1.792   9.268  0.2393 -1.3407  0.0200
 1322SOL    HW115602   2.146   1.789   9.355 -1.0472 -2.1388 -0.5764
 1322SOL    HW215603   2.214   1.703   9.252  1.8821 -0.6756 -0.6812
 1323SOL     OW15604   0.685   3.650   2.564 -0.3954 -0.6940  0.0599
 1323SOL    HW115605   0.766   3.602   2.549 -0.6845 -1.3664  0.6790
 1323SOL    HW215606   0.629   3.589   2.613  0.3978 -2.8918 -1.8295
 1324SOL     OW15607   1.054   0.276   5.745 -0.2920  1.1002  0.2713
 1324SOL    HW115608   1.068   0.219   5.669 -0.5066  4.4904 -2.2915
 1324SOL    HW215609   1.020   0.356   5.706 -1.2064  0.2379 -0.7261
 1325SOL     OW15610   2.798   0.704   9.430 -0.5388 -0.0117 -0.3896
 1325SOL    HW115611   2.704   0.695   9.448  0.0447 -1.9992  1.6516
 1325SOL    HW215612   2.809   0.632   9.368 -0.1434  0.1748 -0.5349
 1326SOL     OW15613   3.541   4.406  16.240  0.5800 -0.2336  0.1140
 1326SOL    HW115614   3.572   4.350  16.311  1.0144  2.6601  2.1799
 1326SOL    HW215615   3.478   4.345  16.200 -0.8186  1.7070 -0.6020
 1327SOL     OW15616   4.182   2.903   6.051  0.2112  0.2524 -0.1730
 1327SOL    HW115617   4.199   2.809   6.062  0.8658  0.3838 -0.0537
 1327SOL    HW215618   4.203   2.905   5.958  0.5397 -1.2765 -0.1427
 1328SOL     OW15619   2.581   3.053   8.560  0.3104  0.2716 -0.5105
 1328SOL    HW115620   2.590   2.969   8.514 -2.9931 -0.1465 -0.4078
 1328SOL    HW215621   2.624   3.028   8.641 -2.4114  0.5712  1.0104
 1329SOL     OW15622   3.290   4.713   4.773  0.4114  0.2685 -0.1993
 1329SOL    HW115623   3.318   4.729   4.683  1.4328  1.7521  0.4042
 1329SOL    HW215624   3.296   4.617   4.781  2.8885  0.3079 -1.5045
 1330SOL     OW15625   4.732   1.052   0.862 -0.2073 -0.6915  0.3361
 1330SOL    HW115626   0.000   1.121   0.796  1.6669  0.7331  1.9852
 1330SOL    HW215627   0.065   1.078   0.922 -0.1405 -0.0223 -0.0418
 1331SOL     OW15628   3.951   4.625   7.251  0.0178  0.3622  0.0699
 1331SOL    HW115629   4.029   4.676   7.228  0.9214 -1.2191 -0.3398
 1331SOL    HW215630   3.960   4.599   7.343  0.2620 -0.8342 -0.2938
 1332SOL     OW15631   1.186   3.077   6.230  0.2627  0.1190  0.1028
 1332SOL    HW115632   1.096   3.050   6.250 -0.9404  0.9404 -4.3184
 1332SOL    HW215633   1.166   3.162   6.191  2.1758  0.5290 -0.0041
 1333SOL     OW15634   3.594   1.396   5.697 -0.3138  0.0509 -0.8752
 1333SOL    HW115635   3.551   1.366   5.616 -3.2741 -0.9707  1.0700
 1333SOL    HW215636   3.562   1.329   5.757 -1.6938  0.5861 -1.0174
 1334SOL     OW15637   1.964   1.269  16.882  0.3723  0.4788  0.4483
 1334SOL    HW115638   1.898   1.230  16.939  1.8367 -1.3125  0.9131
 1334SOL    HW215639   1.953   1.215  16.804 -0.4934  0.6053  0.4867
 1335SOL     OW15640   0.730   4.667  10.403 -0.0109  0.3246 -0.2014
 1335SOL    HW115641   0.715   4.578  10.373 -2.9153  0.2596  1.3458
 1335SOL    HW215642   0.669   4.713  10.345 -1.0468 -0.5155  0.2320
 1336SOL     OW15643   0.164   4.047   5.761  0.2711 -0.2667  0.0417
 1336SOL    HW115644   0.253   4.072   5.787  0.9801 -0.0336 -2.5432
 1336SOL    HW215645   0.182   4.016   5.672 -0.3280  0.8800 -0.4702
 1337SOL     OW15646   2.752   1.016   7.002 -0.3031 -0.2079 -0.4280
 1337SOL    HW115647   2.657   1.000   7.005 -0.7231  1.4390 -4.0603
 1337SOL    HW215648   2.760   1.108   6.975 -0.4551 -0.1938 -0.4296
 1338SOL     OW15649   1.977   4.495   1.707  0.5041 -0.1389  0.0673
 1338SOL    HW115650   2.001   4.518   1.617 -1.6723  0.8553 -0.2718
 1338SOL    HW215651   2.061   4.494   1.752  1.0269 -0.3145 -0.9148
 1339SOL     OW15652   3.268   2.350   4.984 -1.0222  0.7358 -0.3868
 1339SOL    HW115653   3.270   2.446   4.985  1.2786  0.6576  2.7161
 1339SOL    HW215654   3.197   2.318   4.929  2.0614 -4.2667 -1.3843
 1340SOL     OW15655   0.324   4.611   3.132 -0.4581  0.5187  0.5348
 1340SOL    HW115656   0.244   4.642   3.089 -0.8454  0.7361  1.4037
 1340SOL    HW215657   0.299   4.568   3.214  1.2280  0.4012  0.9875
 1341SOL     OW15658   1.712   2.139   3.271  0.3846  0.1335 -0.0975
 1341SOL    HW115659   1.702   2.214   3.213  0.6450 -0.5642 -1.0541
 1341SOL    HW215660   1.727   2.184   3.354 -0.9074 -0.9851  0.7334
 1342SOL     OW15661   1.813   4.586   6.320 -0.0361  0.2457  0.1338
 1342SOL    HW115662   1.868   4.519   6.280 -2.2297 -2.0637  1.0335
 1342SOL    HW215663   1.741   4.525   6.331  0.4939 -0.1462  1.5140
 1343SOL     OW15664   0.287   3.953   6.631  0.1481  0.1201  0.0184
 1343SOL    HW115665   0.234   3.954   6.551  1.0351 -2.3461 -0.6040
 1343SOL    HW215666   0.217   3.958   6.697 -0.1823 -3.3434 -0.0451
 1344SOL     OW15667   4.717   4.516   8.600  0.2922 -0.4253  0.4412
 1344SOL    HW115668   4.655   4.518   8.526 -0.7153  0.7171  1.2982
 1344SOL    HW215669   4.696   4.428   8.630 -1.3236  0.4582  1.9040
 1345SOL     OW15670   3.426   2.487  15.207 -0.0344 -0.1105 -0.5582
 1345SOL    HW115671   3.520   2.503  15.194  0.5241 -2.4428  0.4263
 1345SOL    HW215672   3.404   2.451  15.121  2.2387 -0.7323 -0.8940
 1346SOL     OW15673   0.833   2.163   8.434  0.2235  0.4823  0.6913
 1346SOL    HW115674   0.877   2.079   8.424  0.3295  0.7100 -0.7203
 1346SOL    HW215675   0.907   2.219   8.454  1.5693 -0.5995 -1.2239
 1347SOL     OW15676   2.734   0.216   4.871 -0.2809  0.1832 -0.3008
 1347SOL    HW115677   2.656   0.259   4.837 -0.6421 -0.5640 -0.4152
 1347SOL    HW215678   2.743   0.265   4.953  0.0755 -3.1513  1.6903
 1348SOL     OW15679   0.370   1.540   5.387  0.5650 -0.5230  0.3249
 1348SOL    HW115680   0.377   1.543   5.483  2.8721  0.8620  0.1288
 1348SOL    HW215681   0.383   1.632   5.361 -0.2252 -0.4135  0.3397
 1349SOL     OW15682   3.933   0.599   4.886 -0.3863  0.7182  0.3206
 1349SOL    HW115683   3.986   0.521   4.900  0.4448  1.3258  0.5860
 1349SOL    HW215684   3.874   0.557   4.823  1.4577  0.3271 -1.1598
 1350SOL     OW15685   1.459   1.695  11.052 -0.4519  0.0935 -0.4299
 1350SOL    HW115686   1.416   1.611  11.039  0.0474  0.1143 -2.2936
 1350SOL    HW215687   1.385   1.746  11.018 -0.7926 -0.7615 -0.9815
 1351SOL     OW15688   4.019   1.295   0.505  0.0659 -0.3352 -0.1079
 1351SOL    HW115689   4.039   1.341   0.586  0.6664 -1.4150  0.3653
 1351SOL    HW215690   3.950   1.345   0.461  1.1454  0.4549 -0.8845
 1352SOL     OW15691   4.695   2.516   2.765  0.2449 -1.0090  0.4933
 1352SOL    HW115692   4.617   2.493   2.815 -0.0290  0.8207  0.9363
 1352SOL    HW215693   4.729   2.593   2.812  0.5814 -0.7021 -0.2475
 1353SOL     OW15694   1.283   2.526   8.888 -0.4443 -0.3134  0.3730
 1353SOL    HW115695   1.228   2.584   8.940 -1.6999  1.5883 -3.0863
 1353SOL    HW215696   1.285   2.449   8.945  4.6225 -1.0847 -0.7882
 1354SOL     OW15697   0.171   3.932   3.051 -0.9806 -0.2731  0.2974
 1354SOL    HW115698   0.192   3.866   3.116  0.9150  1.5289  1.5261
 1354SOL    HW215699   0.242   3.906   2.992 -3.4072 -0.8895 -2.3700
 1355SOL     OW15700   0.983   2.082   4.127 -0.2563 -0.5088 -0.2923
 1355SOL    HW115701   0.914   2.091   4.062 -0.0935 -0.8001 -0.5005
 1355SOL    HW215702   0.976   1.994   4.164  0.4315 -0.1425  0.7122
 1356SOL     OW15703   4.657   0.245  11.377 -0.3527  0.2976  0.3130
 1356SOL    HW115704   4.694   0.243  11.465  0.7113  1.0320 -0.1221
 1356SOL    HW215705   4.570   0.207  11.388 -0.4569  0.4435 -0.0203
 1357SOL     OW15706   3.943   1.068  16.322 -0.6313 -0.0969  0.5351
 1357SOL    HW115707   3.977   0.988  16.362  0.8052  0.5352  0.5652
 1357SOL    HW215708   3.915   1.118  16.398  0.0864  1.0837  0.0216
 1358SOL     OW15709   3.779   0.610   3.472  0.1746 -0.1544 -0.5921
 1358SOL    HW115710   3.842   0.631   3.541 -0.3948  1.1691 -0.4763
 1358SOL    HW215711   3.726   0.542   3.515 -0.9456  1.9917  1.4001
 1359SOL     OW15712   0.961   0.870  13.563  0.8021  0.0583 -0.1807
 1359SOL    HW115713   0.991   0.784  13.593  1.8514  0.9765  1.3968
 1359SOL    HW215714   0.875   0.841  13.531  0.0919 -0.4374  2.2029
 1360SOL     OW15715   1.495   3.701  12.817 -0.1417  0.9883  0.7043
 1360SOL    HW115716   1.440   3.672  12.744 -0.8868 -0.6342  1.8957
 1360SOL    HW215717   1.557   3.751  12.765 -0.3049  1.0397  0.5595
 1361SOL     OW15718   1.617   3.969   7.141 -0.6376 -0.4090 -0.1252
 1361SOL    HW115719   1.648   4.043   7.089 -1.9702 -0.6586 -1.2897
 1361SOL    HW215720   1.589   4.011   7.222  0.3860 -1.9887  1.0493
 1362SOL     OW15721   0.657   0.189   5.886 -0.2407 -0.2366  0.0273
 1362SOL    HW115722   0.690   0.268   5.843  0.7974 -0.2997  0.6986
 1362SOL    HW215723   0.741   0.148   5.909 -1.0784 -1.2961  1.1555
 1363SOL     OW15724   4.175   0.052   5.683  0.2823 -0.4099  0.2471
 1363SOL    HW115725   4.167   4.729   5.609 -1.1849  0.9650 -0.7090
 1363SOL    HW215726   4.088   0.093   5.683  1.4444  2.0548  1.5550
 1364SOL     OW15727   4.391   3.161  12.595  0.1958  0.2710 -0.4664
 1364SOL    HW115728   4.429   3.184  12.511  0.0646 -0.0437 -0.6111
 1364SOL    HW215729   4.469   3.129  12.640  1.1308  1.9713 -0.8966
 1365SOL     OW15730   4.139   1.956   6.765  0.3743 -0.0912  0.4033
 1365SOL    HW115731   4.098   1.903   6.834  2.4991  0.8773  2.4195
 1365SOL    HW215732   4.211   1.999   6.811 -1.0458  0.1398  2.4326
 1366SOL     OW15733   4.010   4.647  13.647  0.3241  0.0824 -0.3913
 1366SOL    HW115734   4.049   4.573  13.600 -0.6531 -1.2328  0.8656
 1366SOL    HW215735   4.021   4.621  13.738  2.3636  2.0915 -0.0609
 1367SOL     OW15736   3.456   3.177  16.229  0.0328  0.6538 -0.0148
 1367SOL    HW115737   3.376   3.124  16.223  1.3658 -1.1349 -2.1723
 1367SOL    HW215738   3.418   3.237  16.293  1.4304  0.6562  0.7934
 1368SOL     OW15739   4.059   2.695  14.736  0.4639  0.1162  0.1257
 1368SOL    HW115740   4.047   2.725  14.646 -0.6702 -0.0577  0.2113
 1368SOL    HW215741   3.971   2.665  14.762  0.6112 -0.5632 -0.1486
 1369SOL     OW15742   4.468   3.851   8.711  0.0967  0.5411 -0.4498
 1369SOL    HW115743   4.433   3.913   8.775  1.2107 -0.0888  0.7799
 1369SOL    HW215744   4.393   3.793   8.701 -0.7052  1.3091  1.0033
 1370SOL     OW15745   4.489   4.189   8.498  0.0175 -0.2449 -0.4097
 1370SOL    HW115746   4.429   4.233   8.558  0.5740 -0.4969  0.3312
 1370SOL    HW215747   4.574   4.197   8.543  0.0066  0.2312 -0.4737
 1371SOL     OW15748   3.616   1.595  17.016 -0.4653 -0.0666 -0.1334
 1371SOL    HW115749   3.611   1.559  17.105  0.0530  1.3041  0.4527
 1371SOL    HW215750   3.634   1.516  16.965 -1.0433 -0.0212 -0.4093
 1372SOL     OW15751   4.304   1.055   6.150 -0.2290 -0.3836  0.3028
 1372SOL    HW115752   4.314   1.127   6.088 -1.0912  0.2887  0.9492
 1372SOL    HW215753   4.253   1.086   6.225  1.1533  4.3026 -0.6731
 1373SOL     OW15754   4.326   4.648  16.061  0.0304  0.1669  0.0224
 1373SOL    HW115755   4.277   4.710  16.007 -1.3404 -1.0904 -0.1624
 1373SOL    HW215756   4.307   4.683  16.148 -1.5053  0.2287 -0.3454
 1374SOL     OW15757   4.210   2.363   7.952  0.5150 -0.0545 -0.0234
 1374SOL    HW115758   4.305   2.380   7.952  0.5934 -0.4906  0.1398
 1374SOL    HW215759   4.210   2.294   8.018 -1.1466  0.2834  0.3171
 1375SOL     OW15760   2.793   2.505  16.447 -0.8531 -0.5615  0.2808
 1375SOL    HW115761   2.887   2.493  16.458 -1.1132 -1.8689  1.0079
 1375SOL    HW215762   2.780   2.599  16.462 -1.4303 -1.0210  2.6348
 1376SOL     OW15763   3.692   3.023   5.933  0.5038  0.0613  0.5759
 1376SOL    HW115764   3.642   2.941   5.935  0.6661 -0.0808 -1.0061
 1376SOL    HW215765   3.662   3.079   6.005  1.2437  1.7857 -0.4678
 1377SOL     OW15766   1.143   3.771   3.988  0.1024  0.0928 -0.1402
 1377SOL    HW115767   1.071   3.755   3.927  0.8176 -2.6716 -0.2782
 1377SOL    HW215768   1.111   3.722   4.063 -0.9896 -1.4112 -1.5732
 1378SOL     OW15769   1.500   1.748   5.900 -0.2313  0.1055 -0.4045
 1378SOL    HW115770   1.491   1.694   5.821  0.9821  0.6147 -0.8980
 1378SOL    HW215771   1.595   1.755   5.899 -0.0380 -2.7996 -0.5285
 1379SOL     OW15772   1.264   4.561  12.695 -0.3818 -0.2485 -0.3290
 1379SOL    HW115773   1.357   4.569  12.677 -0.5776 -0.0507 -1.2153
 1379SOL    HW215774   1.264   4.544  12.790 -1.7040 -2.4711 -0.7310
 1380SOL     OW15775   0.314   3.305   8.631  0.0471 -0.2307  0.4470
 1380SOL    HW115776   0.324   3.394   8.664 -0.0056 -0.2547  0.5274
 1380SOL    HW215777   0.402   3.267   8.625 -0.6544 -1.2461 -3.1790
 1381SOL     OW15778   4.644   2.136   1.468 -0.4897  0.1465  0.0010
 1381SOL    HW115779   4.627   2.220   1.424 -1.6126 -0.1777 -0.1812
 1381SOL    HW215780   4.583   2.143   1.541 -0.2132  3.3570 -0.0527
 1382SOL     OW15781   4.446   3.910   9.977  0.0749 -0.9029  0.6025
 1382SOL    HW115782   4.394   3.885  10.054 -0.3415  3.1818  1.6590
 1382SOL    HW215783   4.407   3.849   9.915 -1.3753 -0.3778  0.9856
 1383SOL     OW15784   0.347   4.143  10.762  0.1581  0.2827  0.2441
 1383SOL    HW115785   0.405   4.172  10.692 -2.1205 -0.8164 -2.0699
 1383SOL    HW215786   0.377   4.182  10.844 -3.2799  1.6041  0.8573
 1384SOL     OW15787   4.704   1.704  12.113  0.1064  0.2121  0.0424
 1384SOL    HW115788   0.015   1.683  12.193 -0.9776  0.3235  0.7244
 1384SOL    HW215789   4.653   1.777  12.148  0.8447  0.9038 -0.3122
 1385SOL     OW15790   0.733   1.557  12.277  0.0119  0.8090  0.1099
 1385SOL    HW115791   0.700   1.617  12.344 -0.1815  0.2730  0.5024
 1385SOL    HW215792   0.823   1.589  12.272 -0.9572  3.8764  2.1111
 1386SOL     OW15793   2.942   2.409   8.495 -0.1064 -0.0906 -0.1510
 1386SOL    HW115794   2.979   2.334   8.447 -0.9909 -0.8052  0.2853
 1386SOL    HW215795   2.871   2.367   8.543 -1.2462  1.1044 -0.7970
 1387SOL     OW15796   2.246   0.439   2.027  0.5853  0.0079 -0.2133
 1387SOL    HW115797   2.210   0.417   1.941  0.9993 -1.8431  0.0811
 1387SOL    HW215798   2.167   0.427   2.078  1.2266 -0.6765  0.6078
 1388SOL     OW15799   4.129   1.178  11.373 -0.3272  0.0254  0.0529
 1388SOL    HW115800   4.088   1.093  11.355 -1.9714  0.3271  2.3970
 1388SOL    HW215801   4.207   1.174  11.318 -1.1630 -0.1593 -1.1232
 1389SOL     OW15802   3.865   4.451   0.124 -0.1620  0.4967  0.4073
 1389SOL    HW115803   3.772   4.461   0.146 -0.2876  1.6814 -0.7027
 1389SOL    HW215804   3.898   4.533   0.161  0.0495  0.4494  0.3222
 1390SOL     OW15805   4.233   2.627   6.014 -0.1990 -0.3061  0.0697
 1390SOL    HW115806   4.182   2.548   6.030 -0.3938 -0.4116 -1.0151
 1390SOL    HW215807   4.324   2.598   6.016  0.0225  0.3102 -1.0695
 1391SOL     OW15808   3.269   2.103   5.540  0.2247  0.8156 -0.0576
 1391SOL    HW115809   3.265   2.191   5.503  0.8301  0.6041 -0.6138
 1391SOL    HW215810   3.264   2.118   5.635  1.1121 -0.6724  0.2232
 1392SOL     OW15811   4.087   1.095   2.901 -0.1712  0.4543  0.2369
 1392SOL    HW115812   4.037   1.175   2.920 -1.1227  0.1921 -1.1679
 1392SOL    HW215813   4.037   1.014   2.910  1.2254 -0.5089 -0.7990
 1393SOL     OW15814   0.427   3.772   7.960 -0.3270 -0.7644 -0.0677
 1393SOL    HW115815   0.386   3.808   7.881  1.9149  0.3987 -0.6991
 1393SOL    HW215816   0.476   3.699   7.922 -0.5221 -0.7207 -0.4128
 1394SOL     OW15817   0.898   3.249   4.542  0.1738  0.3772 -0.1007
 1394SOL    HW115818   0.983   3.285   4.518  0.1789  2.1516  2.6164
 1394SOL    HW215819   0.851   3.281   4.465  1.4936  2.1098 -0.1882
 1395SOL     OW15820   3.245   1.866   2.210 -0.0844  0.4649 -0.1285
 1395SOL    HW115821   3.223   1.800   2.276 -0.3378  0.6240 -0.0551
 1395SOL    HW215822   3.311   1.902   2.269 -0.2268 -1.6020  1.2791
 1396SOL     OW15823   0.284   3.615  14.636  0.3757 -0.0427  0.2806
 1396SOL    HW115824   0.283   3.521  14.656  0.0355 -0.1921 -0.4381
 1396SOL    HW215825   0.193   3.625  14.607  0.3996 -0.5404  0.0340
 1397SOL     OW15826   0.115   2.433  17.583 -0.2222 -0.1502  0.1918
 1397SOL    HW115827   0.020   2.440  17.575 -0.2624  0.6335  1.4619
 1397SOL    HW215828   0.141   2.497  17.517 -2.7842  1.0680  0.3793
 1398SOL     OW15829   3.932   1.602   2.597 -0.4430 -0.0324 -0.6901
 1398SOL    HW115830   3.983   1.520   2.598 -0.0848  0.2168  1.1774
 1398SOL    HW215831   3.840   1.581   2.614 -0.6985  0.4742 -1.4715
 1399SOL     OW15832   2.291   2.368   6.608  0.5362 -0.1542  0.0294
 1399SOL    HW115833   2.305   2.461   6.624 -1.7166  0.2269 -0.2340
 1399SOL    HW215834   2.264   2.330   6.691 -1.6010  0.6184 -0.2999
 1400SOL     OW15835   1.008   2.335   2.282 -0.1567 -0.7344  0.7445
 1400SOL    HW115836   0.967   2.400   2.340 -1.3500 -0.5453 -0.3273
 1400SOL    HW215837   1.018   2.398   2.211 -0.5297  0.5696  1.8304
 1401SOL     OW15838   1.790   3.875   7.647  0.0405 -0.0813  0.4516
 1401SOL    HW115839   1.723   3.862   7.581 -0.3518  0.7510  0.6946
 1401SOL    HW215840   1.853   3.806   7.627 -0.3380 -0.2069 -0.3244
 1402SOL     OW15841   3.608   2.396   2.886 -0.1079  0.5156 -0.1182
 1402SOL    HW115842   3.569   2.422   2.970 -3.5285  0.9419 -1.8408
 1402SOL    HW215843   3.564   2.313   2.871 -0.8219  0.7816  0.5034
 1403SOL     OW15844   4.661   4.364   2.211  0.2141 -0.0234 -0.4644
 1403SOL    HW115845   4.631   4.418   2.137  0.2156  0.2641 -0.2573
 1403SOL    HW215846   4.577   4.324   2.233 -0.0325  1.5030  1.3547
 1404SOL     OW15847   1.585   0.297   7.091 -0.1282  0.5742  0.2506
 1404SOL    HW115848   1.528   0.353   7.145  0.3307  1.7045 -0.4509
 1404SOL    HW215849   1.587   0.232   7.162 -0.4602  0.6120  0.2938
 1405SOL     OW15850   1.014   0.360   6.587 -0.0149 -0.5341 -0.1206
 1405SOL    HW115851   0.940   0.326   6.639  2.5060 -1.5207  2.8181
 1405SOL    HW215852   0.979   0.386   6.502 -1.9613  0.0984  0.8795
 1406SOL     OW15853   3.056   2.146   3.611 -0.3098 -0.4083  0.0511
 1406SOL    HW115854   3.111   2.186   3.679 -1.0404 -0.9658  0.9871
 1406SOL    HW215855   3.061   2.200   3.533  0.9624 -1.0986 -0.3322
 1407SOL     OW15856   2.731   0.126   7.464  0.4998  0.2444 -0.1748
 1407SOL    HW115857   2.809   0.179   7.448  2.2604 -1.9388  1.1817
 1407SOL    HW215858   2.675   0.203   7.463 -0.0418 -0.1316  1.6778
 1408SOL     OW15859   3.411   1.758  12.604  0.4161 -0.6203 -0.1759
 1408SOL    HW115860   3.447   1.717  12.526  2.5132 -0.2791  0.6081
 1408SOL    HW215861   3.455   1.710  12.675  2.1746  0.4795 -0.5333
 1409SOL     OW15862   3.357   2.171  16.985  0.2091 -0.1606  0.9649
 1409SOL    HW115863   3.451   2.171  16.964  0.1094  1.0944  0.5225
 1409SOL    HW215864   3.315   2.169  16.899  0.2035  0.1132  0.9590
 1410SOL     OW15865   1.521   2.732   1.548  0.1574 -0.1249 -0.3145
 1410SOL    HW115866   1.429   2.734   1.520  0.4921 -0.5509 -1.4135
 1410SOL    HW215867   1.564   2.763   1.469 -0.0440 -0.9752 -0.7594
 1411SOL     OW15868   0.944   3.859   8.826 -0.1849  0.2965 -0.1075
 1411SOL    HW115869   0.909   3.802   8.758 -0.5649  2.1870 -1.4950
 1411SOL    HW215870   0.915   3.947   8.799 -0.5038 -0.2038 -1.3617
 1412SOL     OW15871   3.555   4.402   5.525 -0.1549 -0.0497 -0.4930
 1412SOL    HW115872   3.482   4.363   5.476 -2.0632  0.4124  1.9537
 1412SOL    HW215873   3.572   4.335   5.591 -3.2035 -0.3396  0.0005
 1413SOL     OW15874   2.597   4.321   6.791  0.8224  0.1789 -0.0748
 1413SOL    HW115875   2.688   4.309   6.816  0.7117 -0.7456 -0.1175
 1413SOL    HW215876   2.597   4.251   6.725 -0.1583  1.2112 -1.1777
 1414SOL     OW15877   0.754   0.902   3.989 -0.3189 -0.4732 -0.0304
 1414SOL    HW115878   0.739   0.814   4.023  0.2210 -0.8704 -0.8431
 1414SOL    HW215879   0.829   0.887   3.932 -0.6796 -2.9078  0.1208
 1415SOL     OW15880   3.404   1.517  16.756 -0.6987  0.0614 -0.5442
 1415SOL    HW115881   3.342   1.549  16.689 -1.1149  1.6098  0.5792
 1415SOL    HW215882   3.485   1.564  16.736  0.4944 -1.3308  1.0633
 1416SOL     OW15883   3.277   3.671   7.883  0.0457 -0.2877 -0.4065
 1416SOL    HW115884   3.188   3.705   7.890 -0.3235 -1.9426  2.7843
 1416SOL    HW215885   3.274   3.610   7.956  1.7479  1.7690  1.3539
 1417SOL     OW15886   3.573   2.047   7.682 -0.0680  0.1550 -0.4473
 1417SOL    HW115887   3.655   2.096   7.676  0.0724  0.0999  0.9406
 1417SOL    HW215888   3.600   1.968   7.635 -0.8278 -0.0226 -0.5818
 1418SOL     OW15889   1.071   1.701   5.175 -0.1155  0.1626 -0.1714
 1418SOL    HW115890   1.058   1.714   5.269  0.8919 -0.2399  0.0191
 1418SOL    HW215891   1.043   1.610   5.166 -0.3582  0.1109  1.2047
 1419SOL     OW15892   3.621   2.158   1.433 -1.0426 -0.2839  0.1429
 1419SOL    HW115893   3.667   2.190   1.510  0.4440 -0.4731 -0.6772
 1419SOL    HW215894   3.569   2.236   1.413  0.7330  0.4331 -1.6693
 1420SOL     OW15895   1.666   2.338  17.486 -0.3561  0.1083 -0.0149
 1420SOL    HW115896   1.703   2.400  17.423  3.6273 -1.0270  1.2269
 1420SOL    HW215897   1.702   2.376  17.566  0.2257  1.0069 -0.7081
 1421SOL     OW15898   1.735   1.407   4.551 -0.2505 -1.1281  0.1927
 1421SOL    HW115899   1.797   1.480   4.552  1.3800 -2.5459  1.6074
 1421SOL    HW215900   1.766   1.340   4.612  1.0671 -1.1914 -0.5491
 1422SOL     OW15901   3.830   3.105   4.038 -0.7186 -0.1159 -0.3867
 1422SOL    HW115902   3.816   3.062   4.122 -1.7069 -0.0640 -0.5321
 1422SOL    HW215903   3.862   3.191   4.065  1.1684 -1.3052  1.1641
 1423SOL     OW15904   0.483   4.588   4.574  0.1296  0.0287 -0.0891
 1423SOL    HW115905   0.509   4.590   4.666 -0.1270 -2.5070  0.0389
 1423SOL    HW215906   0.476   4.681   4.550 -2.2395  0.1638  1.1008
 1424SOL     OW15907   2.121   1.681  11.727  0.3262 -0.3262 -0.2021
 1424SOL    HW115908   2.157   1.767  11.749  0.0137 -0.6873  1.7272
 1424SOL    HW215909   2.120   1.683  11.632  0.7736 -0.7098 -0.2147
 1425SOL     OW15910   1.313   2.485   3.680  0.3136  0.1519 -0.4560
 1425SOL    HW115911   1.317   2.578   3.660 -1.1791  0.8118  2.3579
 1425SOL    HW215912   1.402   2.479   3.714 -0.0718  2.4951  0.9306
 1426SOL     OW15913   3.794   0.750  13.185  0.0125  0.7647  0.3723
 1426SOL    HW115914   3.733   0.789  13.248 -1.6965 -0.9441 -0.2038
 1426SOL    HW215915   3.741   0.678  13.150  2.0358  0.0336 -1.1786
 1427SOL     OW15916   4.201   2.016   5.050  0.1011  0.3925  0.1430
 1427SOL    HW115917   4.247   1.979   5.126  0.5350 -0.4040 -0.5113
 1427SOL    HW215918   4.268   1.999   4.984  1.5118  0.4792  1.5391
 1428SOL     OW15919   2.802   2.312   4.015 -0.1721  0.3102  0.1013
 1428SOL    HW115920   2.824   2.287   4.105 -1.5873 -3.0778 -0.5108
 1428SOL    HW215921   2.826   2.225   3.983 -2.6347  0.0555 -1.0455
 1429SOL     OW15922   3.362   1.105  14.168 -0.5404  0.0544  0.1976
 1429SOL    HW115923   3.313   1.186  14.181 -1.0196 -0.3261  0.8271
 1429SOL    HW215924   3.430   1.138  14.110  0.6809  0.9804  2.1656
 1430SOL     OW15925   4.522   2.371   9.226 -0.0129 -0.0057 -0.5634
 1430SOL    HW115926   4.533   2.419   9.143  0.0318  0.4825 -0.2782
 1430SOL    HW215927   4.453   2.418   9.272 -1.0926  0.5334 -2.7210
 1431SOL     OW15928   0.279   3.952  14.909 -0.1130 -0.0591 -0.4141
 1431SOL    HW115929   0.340   4.021  14.935 -0.1833  0.2661 -1.1241
 1431SOL    HW215930   0.308   3.876  14.960  2.3000  1.3070  0.2930
 1432SOL     OW15931   0.737   2.429   2.439  0.6520  0.2083 -0.6232
 1432SOL    HW115932   0.688   2.349   2.459 -0.7380  1.5780  1.4929
 1432SOL    HW215933   0.721   2.413   2.346  2.4339  0.0300 -0.9007
 1433SOL     OW15934   1.046   0.889   8.063  0.0055 -0.3455  0.0535
 1433SOL    HW115935   1.067   0.851   8.149 -0.6770  1.9689  1.2409
 1433SOL    HW215936   1.116   0.869   8.002  0.4109 -3.4911  1.5655
 1434SOL     OW15937   2.593   3.017  16.222  0.1555  0.4328  0.0764
 1434SOL    HW115938   2.580   3.054  16.135 -0.6936  0.6594  0.2999
 1434SOL    HW215939   2.571   2.924  16.215  0.4009  0.2043  2.1427
 1435SOL     OW15940   1.510   0.387   1.681 -0.6077  0.2050 -0.1521
 1435SOL    HW115941   1.457   0.354   1.609  0.9324 -1.2142 -0.6393
 1435SOL    HW215942   1.456   0.462   1.704  1.6001  1.9651 -0.7299
 1436SOL     OW15943   4.638   4.552   3.866  0.0610 -0.1450  0.6201
 1436SOL    HW115944   4.548   4.582   3.878 -0.8805 -1.8811 -2.0513
 1436SOL    HW215945   4.618   4.461   3.845 -0.4456 -0.0116  0.5306
 1437SOL     OW15946   3.330   1.681   4.093  0.1423  0.0621  0.7453
 1437SOL    HW115947   3.408   1.657   4.042 -0.6056  2.0125 -1.3368
 1437SOL    HW215948   3.286   1.719   4.017 -1.6935  0.4650  2.0149
 1438SOL     OW15949   3.030   0.841  12.878 -0.3614  0.3692 -0.6301
 1438SOL    HW115950   3.062   0.929  12.899  0.2519  0.3268 -1.3894
 1438SOL    HW215951   3.050   0.816  12.787 -1.3853 -0.4015 -0.6379
 1439SOL     OW15952   4.169   2.616   2.598  0.0031 -0.5089 -0.3064
 1439SOL    HW115953   4.080   2.650   2.596 -0.6722 -2.1795  0.6553
 1439SOL    HW215954   4.206   2.627   2.686  1.2160  2.9730 -1.2796
 1440SOL     OW15955   0.138   3.180   7.069 -0.1871 -0.0483 -0.0234
 1440SOL    HW115956   0.202   3.180   7.140  0.0258 -0.8701 -0.2166
 1440SOL    HW215957   0.172   3.258   7.026  0.1561 -0.5783 -0.7174
 1441SOL     OW15958   0.001   2.599   3.387  0.3300 -0.3655  0.4124
 1441SOL    HW115959   0.076   2.656   3.404  1.5528 -2.2417  1.3225
 1441SOL    HW215960   4.658   2.630   3.430  0.1516  2.5452 -2.0783
 1442SOL     OW15961   3.543   3.383   3.599 -0.3647 -0.2413 -0.1903
 1442SOL    HW115962   3.525   3.340   3.683 -1.1443 -0.7738 -0.6299
 1442SOL    HW215963   3.637   3.399   3.608 -0.3116 -0.2970 -0.6918
 1443SOL     OW15964   2.035   3.529   0.341 -0.1032  0.1700  0.1990
 1443SOL    HW115965   2.113   3.541   0.288 -0.7659  2.1465 -0.3391
 1443SOL    HW215966   2.011   3.438   0.324 -2.7481  0.5400  1.8949
 1444SOL     OW15967   4.265   4.620   4.870  0.0366 -0.2621 -0.5253
 1444SOL    HW115968   4.335   4.667   4.823  0.0636  0.0958 -0.1312
 1444SOL    HW215969   4.242   4.683   4.939 -0.1459 -0.3326 -0.5225
 1445SOL     OW15970   2.940   0.077   5.831  0.3665 -0.2723 -0.3102
 1445SOL    HW115971   2.845   0.065   5.836  0.6768 -1.8380  1.6325
 1445SOL    HW215972   2.970   0.009   5.891 -3.2401  0.8519  2.7016
 1446SOL     OW15973   2.534   2.952  15.869 -0.0929  0.4676  0.5788
 1446SOL    HW115974   2.601   2.889  15.842 -0.6799 -1.0246  2.6211
 1446SOL    HW215975   2.480   2.893  15.921 -0.1063 -1.7406 -1.9240
 1447SOL     OW15976   0.125   3.125   8.714  0.5661  0.6202 -0.1573
 1447SOL    HW115977   0.091   3.189   8.776 -1.0195  0.4531 -0.8432
 1447SOL    HW215978   0.190   3.180   8.670  0.0854  0.3491 -1.2219
 1448SOL     OW15979   4.707   3.458   7.049  0.1785  0.3035  0.3696
 1448SOL    HW115980   0.018   3.427   7.125  1.4194 -0.6298 -0.8041
 1448SOL    HW215981   4.614   3.438   7.064 -0.1709  1.5436 -0.1558
 1449SOL     OW15982   3.895   0.175   5.604  0.7821 -0.0499 -0.3013
 1449SOL    HW115983   3.919   0.147   5.692  0.8287  1.1448  0.0615
 1449SOL    HW215984   3.877   0.268   5.616  2.5587  0.5527 -2.2701
 1450SOL     OW15985   1.432   3.400  12.540  0.4300 -0.2560  0.0658
 1450SOL    HW115986   1.391   3.486  12.552 -1.7822 -1.2855 -0.2530
 1450SOL    HW215987   1.506   3.405  12.601 -0.9868  0.0981  1.7297
 1451SOL     OW15988   0.811   1.260   8.246  0.2207 -0.5082  0.2605
 1451SOL    HW115989   0.796   1.165   8.238 -0.0578 -0.5075  0.7882
 1451SOL    HW215990   0.720   1.290   8.239  0.6048  0.8230  1.1358
 1452SOL     OW15991   3.395   2.939   9.657 -0.3735 -0.4357 -0.0553
 1452SOL    HW115992   3.379   2.883   9.733  2.3235 -2.8913 -1.2821
 1452SOL    HW215993   3.327   3.004   9.672  0.6782  0.3140  1.5310
 1453SOL     OW15994   2.288   0.390   3.576 -0.0892  0.1327  0.5596
 1453SOL    HW115995   2.317   0.389   3.484 -1.3946  3.9905  0.0854
 1453SOL    HW215996   2.285   0.485   3.589 -1.0478 -0.0722  1.8000
 1454SOL     OW15997   0.206   2.660   4.689  0.3943  0.1976 -0.0895
 1454SOL    HW115998   0.158   2.603   4.751  1.5779  0.3371  0.9538
 1454SOL    HW215999   0.243   2.730   4.742 -0.1287  0.5723 -0.2203
 1455SOL     OW16000   2.214   3.677   9.392 -0.2118 -0.1730  0.1094
 1455SOL    HW116001   2.225   3.593   9.348  0.2963  1.0170 -2.0419
 1455SOL    HW216002   2.210   3.653   9.484  0.1792  2.2673  0.7735
 1456SOL     OW16003   0.670   2.182  16.072  0.7167 -0.3386  0.1335
 1456SOL    HW116004   0.607   2.214  16.007  0.9962 -0.6091 -0.2660
 1456SOL    HW216005   0.748   2.162  16.021  0.4475  2.4682 -1.3425
 1457SOL     OW16006   4.712   2.582   4.897 -0.2815 -0.0023 -0.0578
 1457SOL    HW116007   4.633   2.587   4.951  2.0917  0.0024  3.3765
 1457SOL    HW216008   0.012   2.670   4.903 -1.7991  0.4521  2.5608
 1458SOL     OW16009   4.630   4.376   5.374  0.5243 -0.2651  0.5249
 1458SOL    HW116010   4.542   4.340   5.361  0.6420  0.6078 -2.6004
 1458SOL    HW216011   4.641   4.422   5.291  1.4746 -0.2350  0.6761
 1459SOL     OW16012   1.642   2.845   4.049 -0.1074  0.1732 -0.3576
 1459SOL    HW116013   1.679   2.825   4.134  0.2828  3.4626  0.2550
 1459SOL    HW216014   1.651   2.757   4.012  1.2480 -0.1516  0.7700
 1460SOL     OW16015   2.340   3.774   6.377  0.7822  0.4525  0.1738
 1460SOL    HW116016   2.302   3.701   6.426 -0.3341  0.6575 -0.3891
 1460SOL    HW216017   2.284   3.755   6.302 -1.1347  0.0440  1.6923
 1461SOL     OW16018   0.336   0.854  10.306 -0.6263  0.0020 -0.5374
 1461SOL    HW116019   0.268   0.886  10.365 -0.7587 -0.4444 -0.4436
 1461SOL    HW216020   0.357   0.772  10.352 -1.1083 -0.7780 -1.7073
 1462SOL     OW16021   0.325   3.497   5.123 -0.3620 -0.5100  0.1474
 1462SOL    HW116022   0.309   3.583   5.085 -1.2647 -0.0332  1.6224
 1462SOL    HW216023   0.281   3.510   5.207  0.4309 -0.1641  0.5187
 1463SOL     OW16024   4.591   2.287  10.114  0.3489 -0.0033 -0.2019
 1463SOL    HW116025   4.518   2.252  10.165 -1.1185  1.8214 -1.0204
 1463SOL    HW216026   4.600   2.227  10.040  2.0201 -0.6492  0.5250
 1464SOL     OW16027   4.242   1.772   4.180  0.2046  0.1124 -0.0652
 1464SOL    HW116028   4.318   1.824   4.206 -0.8459  0.7452  1.7027
 1464SOL    HW216029   4.168   1.819   4.218 -0.4849 -1.2821  0.3054
 1465SOL     OW16030   1.320   0.242   3.543 -0.2802  0.0160  0.3893
 1465SOL    HW116031   1.304   0.303   3.471 -2.2023 -0.5936  0.3170
 1465SOL    HW216032   1.374   0.295   3.602 -1.8370 -0.3727  2.1666
 1466SOL     OW16033   4.094   3.763   7.046 -0.2644  0.2765 -0.1193
 1466SOL    HW116034   4.157   3.701   7.009  1.5424  1.4331  1.0488
 1466SOL    HW216035   4.098   3.752   7.141  1.4990  0.7754 -0.1357
 1467SOL     OW16036   0.831   0.339   9.238  0.2980 -0.1038 -0.5167
 1467SOL    HW116037   0.767   0.368   9.173  0.8897 -0.9362 -1.4800
 1467SOL    HW216038   0.793   0.255   9.261 -0.9657  0.5643 -0.1504
 1468SOL     OW16039   2.478   0.056   1.377  0.6410 -0.1289 -0.1262
 1468SOL    HW116040   2.468   0.151   1.372  0.7067 -0.1448 -0.4979
 1468SOL    HW216041   2.428   0.038   1.457 -0.3002  1.2635 -0.3871
 1469SOL     OW16042   3.114   2.833   2.072  0.1535  0.0894 -0.1415
 1469SOL    HW116043   3.105   2.902   2.138  0.9142 -0.8513  0.9489
 1469SOL    HW216044   3.110   2.751   2.122  1.0014  0.1712  0.0606
 1470SOL     OW16045   0.823   4.703   1.929 -0.2854  0.3475  0.4842
 1470SOL    HW116046   0.860   4.728   2.014  2.2671  0.2742 -0.5810
 1470SOL    HW216047   0.819   4.609   1.945 -1.1132  0.3015 -0.0166
 1471SOL     OW16048   0.923   0.657   9.084 -0.3070 -0.7719 -0.0798
 1471SOL    HW116049   0.923   0.562   9.079  0.6895 -0.8441  1.1687
 1471SOL    HW216050   0.886   0.665   9.172  2.3184 -2.1649  1.1387
 1472SOL     OW16051   2.881   3.016  15.927  0.3170 -0.3119 -0.3015
 1472SOL    HW116052   2.819   3.086  15.906  0.6271  0.8215  2.5466
 1472SOL    HW216053   2.842   2.938  15.889  1.3293  0.8854 -3.7463
 1473SOL     OW16054   0.469   3.661   9.808  0.0479  0.1712  0.1326
 1473SOL    HW116055   0.563   3.660   9.826  0.5776 -0.7563 -2.6751
 1473SOL    HW216056   0.448   3.753   9.825 -1.1142 -0.1590  0.4438
 1474SOL     OW16057   2.150   3.799   5.639 -0.7086  0.3751  0.1971
 1474SOL    HW116058   2.182   3.739   5.571 -0.1870 -0.2801  1.0268
 1474SOL    HW216059   2.088   3.853   5.590 -0.8414 -0.2250 -0.2939
 1475SOL     OW16060   3.992   1.265   5.994  0.2590  0.0196  0.2498
 1475SOL    HW116061   4.009   1.353   6.025  0.3670  0.4093 -0.9153
 1475SOL    HW216062   3.976   1.289   5.902 -0.5653  3.5681  1.3234
 1476SOL     OW16063   3.733   3.249   7.428  0.3628  0.0120 -0.1856
 1476SOL    HW116064   3.650   3.285   7.397  0.4318  0.5384  0.2558
 1476SOL    HW216065   3.741   3.185   7.357 -1.1873 -0.2578 -0.1261
 1477SOL     OW16066   4.043   0.576   2.788 -0.4751  0.2000  0.5081
 1477SOL    HW116067   3.951   0.559   2.806 -0.6561 -0.3419 -0.9474
 1477SOL    HW216068   4.089   0.545   2.866 -0.5357  0.9971  0.8657
 1478SOL     OW16069   3.606   0.936  12.058  0.1608 -0.0702 -0.2760
 1478SOL    HW116070   3.660   1.005  12.020  0.9732 -0.5524  0.0064
 1478SOL    HW216071   3.674   0.884  12.101 -1.1941 -0.0400  1.9018
 1479SOL     OW16072   4.670   0.618  15.373  0.1067  0.4186 -0.3443
 1479SOL    HW116073   4.634   0.619  15.284  0.9297 -1.1830 -0.6881
 1479SOL    HW216074   4.711   0.704  15.378 -0.6628  0.8017 -0.4906
 1480SOL     OW16075   0.115   0.911  11.955  0.1305 -0.0303  0.5186
 1480SOL    HW116076   0.118   0.983  11.892 -0.0334 -1.4618 -1.1226
 1480SOL    HW216077   0.038   0.867  11.918  1.6175 -1.0480 -1.3328
 1481SOL     OW16078   0.211   3.311   3.435 -0.3129 -0.3270 -0.5418
 1481SOL    HW116079   0.217   3.404   3.456  1.1567 -0.4226 -0.5285
 1481SOL    HW216080   0.117   3.299   3.421 -0.3078 -0.3260 -0.5767
 1482SOL     OW16081   0.777   3.301  12.341 -0.5830  0.1922  0.5039
 1482SOL    HW116082   0.775   3.207  12.323 -0.1447  0.1368  0.7484
 1482SOL    HW216083   0.721   3.302  12.419  1.6498 -0.3086  2.1286
 1483SOL     OW16084   3.579   3.286  14.533 -0.4834 -0.2781 -0.0420
 1483SOL    HW116085   3.511   3.293  14.600 -0.6618 -1.6245 -0.0782
 1483SOL    HW216086   3.659   3.303  14.582  0.4102  1.1662 -2.0096
 1484SOL     OW16087   4.238   0.679  14.668 -0.1282  0.2876 -0.1626
 1484SOL    HW116088   4.165   0.619  14.654  0.2371 -0.0487 -0.6193
 1484SOL    HW216089   4.199   0.756  14.627  0.5167  1.1875  0.9209
 1485SOL     OW16090   1.971   3.629  15.443  0.2648 -0.3460 -0.2776
 1485SOL    HW116091   1.884   3.615  15.406 -0.3756  1.2455  0.6476
 1485SOL    HW216092   2.007   3.548  15.407 -0.6835 -1.1165  0.5202
 1486SOL     OW16093   2.560   3.545   9.198  0.7607 -0.0556 -0.1492
 1486SOL    HW116094   2.572   3.591   9.282  2.7193  0.1020 -0.5176
 1486SOL    HW216095   2.563   3.615   9.133 -1.8945  2.0418  1.9662
 1487SOL     OW16096   2.322   0.659   3.602  0.0232 -0.7408 -0.0752
 1487SOL    HW116097   2.281   0.739   3.635  1.7971 -0.6274  1.8192
 1487SOL    HW216098   2.374   0.696   3.531  0.1339  3.3144  2.1692
 1488SOL     OW16099   3.182   3.977  10.692 -0.1451 -0.5640  0.1186
 1488SOL    HW116100   3.173   3.885  10.719  0.6731 -0.7424 -0.2068
 1488SOL    HW216101   3.128   3.987  10.614 -0.4313  2.4939  0.7044
 1489SOL     OW16102   4.017   3.655  13.215  0.5437 -0.6283  0.2374
 1489SOL    HW116103   4.056   3.669  13.129 -0.4013  2.7549  0.3925
 1489SOL    HW216104   3.925   3.635  13.201 -0.1387  0.9452  2.5031
 1490SOL     OW16105   3.638   2.045   2.726 -0.5547 -0.2823 -0.2633
 1490SOL    HW116106   3.696   2.016   2.796  0.8085 -0.3600 -1.4161
 1490SOL    HW216107   3.582   2.096   2.785 -1.3831 -3.4230  1.6463
 1491SOL     OW16108   0.434   3.344   2.487  0.0032  0.5742 -0.5774
 1491SOL    HW116109   0.501   3.357   2.419  0.6845 -1.6117 -0.3388
 1491SOL    HW216110   0.372   3.415   2.470  1.8561  1.8843 -1.7685
 1492SOL     OW16111   2.113   4.610  14.045 -0.3557  0.6998  0.1494
 1492SOL    HW116112   2.124   4.525  14.001 -0.1665  2.9152 -4.1571
 1492SOL    HW216113   2.192   4.651  14.011 -0.6623  1.6875  0.6292
 1493SOL     OW16114   4.601   0.585  12.403  0.4065 -0.0419 -0.1970
 1493SOL    HW116115   4.658   0.507  12.398  1.3347  0.7130 -1.3997
 1493SOL    HW216116   4.662   0.651  12.436  0.1441  0.4399 -0.6891
 1494SOL     OW16117   2.120   4.081   8.132  0.6540 -0.2072 -0.0156
 1494SOL    HW116118   2.168   4.138   8.072  0.9167 -2.3805 -1.8573
 1494SOL    HW216119   2.198   4.055   8.182 -0.9256 -0.8673  2.1085
 1495SOL     OW16120   1.779   0.773   7.978  0.4140  0.5158 -0.1784
 1495SOL    HW116121   1.779   0.733   7.891 -0.3417 -0.8912  0.4618
 1495SOL    HW216122   1.814   0.858   7.952  1.3420  0.5606  1.2392
 1496SOL     OW16123   0.659   1.014   1.248 -0.0317 -0.3364 -0.1287
 1496SOL    HW116124   0.684   1.079   1.314  2.9552  0.1265 -1.7220
 1496SOL    HW216125   0.701   1.056   1.172 -0.8541 -1.1997 -1.0622
 1497SOL     OW16126   1.738   4.687   9.168  0.3888  0.0270 -0.0238
 1497SOL    HW116127   1.695   4.604   9.186  0.9522  0.0208  1.3658
 1497SOL    HW216128   1.689   4.717   9.092 -0.1813  3.8588  1.8108
 1498SOL     OW16129   3.096   3.966  16.937 -0.1232  0.3747 -0.0214
 1498SOL    HW116130   3.025   4.026  16.957 -0.5822 -0.0238 -0.4829
 1498SOL    HW216131   3.067   3.918  16.860  0.1095  0.9679 -0.4795
 1499SOL     OW16132   3.504   0.370   7.560  0.4214  0.0786 -0.3544
 1499SOL    HW116133   3.448   0.298   7.589  0.4579 -0.5502 -1.8417
 1499SOL    HW216134   3.581   0.313   7.550  0.9617  0.8320 -0.4713
 1500SOL     OW16135   1.998   1.086  12.148 -0.2836  0.1168 -0.4337
 1500SOL    HW116136   1.959   1.164  12.187  1.4052  0.5818  0.3449
 1500SOL    HW216137   2.066   1.125  12.093 -0.0823  1.5663  0.8451
 1501SOL     OW16138   4.710   3.931   8.165  0.6425 -0.5049 -0.3078
 1501SOL    HW116139   4.619   3.905   8.183  0.0899  0.3543 -1.7807
 1501SOL    HW216140   4.692   4.024   8.157 -1.5955 -0.9483 -0.4171
 1502SOL     OW16141   2.214   2.628   5.392  0.4446 -0.0565 -0.4881
 1502SOL    HW116142   2.197   2.547   5.344  1.3470  0.4157 -1.5919
 1502SOL    HW216143   2.228   2.605   5.484 -0.1436  1.6449  0.0424
 1503SOL     OW16144   4.059   1.080   2.494  0.3617 -0.0615 -0.1206
 1503SOL    HW116145   4.097   1.030   2.422 -1.2900 -0.2493 -0.8653
 1503SOL    HW216146   4.110   1.058   2.572 -0.1227  1.2329  0.5715
 1504SOL     OW16147   3.946   4.018   1.247  0.1786  0.3326 -0.6266
 1504SOL    HW116148   3.951   3.947   1.311 -0.0620 -0.1916 -1.1899
 1504SOL    HW216149   3.964   4.095   1.301 -1.0674 -0.8377  1.4412
 1505SOL     OW16150   4.035   3.790   2.441  0.2822  0.4496  0.2985
 1505SOL    HW116151   4.084   3.838   2.508  3.1087 -1.5110 -0.3587
 1505SOL    HW216152   4.034   3.702   2.480  1.0758  0.0330 -0.6061
 1506SOL     OW16153   4.406   3.554   4.750 -0.1651 -0.6079  0.1002
 1506SOL    HW116154   4.395   3.643   4.785 -0.9614 -0.1123 -1.3955
 1506SOL    HW216155   4.434   3.573   4.660 -0.9308 -2.2364 -0.4815
 1507SOL     OW16156   3.614   2.908  15.015  0.2114 -0.7968 -0.1897
 1507SOL    HW116157   3.642   2.968  14.945  0.7069 -2.2786 -1.2609
 1507SOL    HW216158   3.637   2.955  15.094  0.8173 -0.1909 -0.7254
 1508SOL     OW16159   4.305   4.664   1.587  0.7430  0.1541  0.2031
 1508SOL    HW116160   4.346   4.600   1.646  1.0433 -0.5699 -0.7721
 1508SOL    HW216161   4.239   4.608   1.546  0.5877  0.7909 -0.3987
 1509SOL     OW16162   3.412   4.499  12.167 -0.0290  0.5746 -0.5058
 1509SOL    HW116163   3.429   4.541  12.082  2.2556 -0.1900 -0.4393
 1509SOL    HW216164   3.469   4.423  12.154 -2.2464 -1.2095  0.2101
 1510SOL     OW16165   0.308   0.162   5.163  0.1832  0.2510  0.1333
 1510SOL    HW116166   0.277   0.205   5.243 -0.0151 -0.2262  0.3093
 1510SOL    HW216167   0.274   0.228   5.102 -0.2629  0.6735  0.8480
 1511SOL     OW16168   1.180   1.039   3.762 -0.0200 -0.4706  0.5910
 1511SOL    HW116169   1.238   1.082   3.824  1.2126  0.3405 -1.1392
 1511SOL    HW216170   1.226   1.059   3.680  1.3167  0.5578  1.6063
 1512SOL     OW16171   3.296   3.889   2.396  0.6896 -0.0956  0.6901
 1512SOL    HW116172   3.269   3.804   2.429  0.0735  0.0512  0.5664
 1512SOL    HW216173   3.238   3.908   2.322 -1.6023  0.2709  2.5934
 1513SOL     OW16174   1.398   2.893   2.915 -0.7545 -0.9262 -0.3628
 1513SOL    HW116175   1.452   2.951   2.861 -0.7506  0.6925  1.3549
 1513SOL    HW216176   1.436   2.810   2.888  0.0279 -0.1975 -1.5332
 1514SOL     OW16177   2.539   0.018   8.412 -0.7836  0.0609  0.2314
 1514SOL    HW116178   2.514   0.021   8.320  1.1746 -0.0250 -0.2977
 1514SOL    HW216179   2.531   4.663   8.436 -0.0506 -0.4722 -1.6536
 1515SOL     OW16180   0.819   4.096   5.950 -0.7602 -1.0965  0.4689
 1515SOL    HW116181   0.834   4.055   5.865 -1.1541 -0.8096  0.2673
 1515SOL    HW216182   0.894   4.155   5.959 -0.7221 -1.2913  1.4909
 1516SOL     OW16183   3.683   1.565  15.822  0.1371 -0.1166 -0.3213
 1516SOL    HW116184   3.704   1.553  15.729  0.9343 -1.2369  0.0095
 1516SOL    HW216185   3.627   1.642  15.811  1.6484  1.0051 -0.1209
 1517SOL     OW16186   4.052   3.228   2.443 -0.5043  0.4270 -0.6031
 1517SOL    HW116187   4.145   3.223   2.468 -0.9163  3.0477  1.4539
 1517SOL    HW216188   4.045   3.175   2.364  0.5274  0.1161 -0.4951
 1518SOL     OW16189   2.994   4.020   2.600  0.2654  0.2154  0.4875
 1518SOL    HW116190   2.961   4.032   2.511  1.0274 -2.9602 -0.2376
 1518SOL    HW216191   2.952   3.935   2.618 -0.7426  0.2955 -1.4498
 1519SOL     OW16192   1.033   1.133   1.325 -0.5972 -0.1498  0.1862
 1519SOL    HW116193   1.027   1.040   1.346 -0.2487  0.0818  1.2798
 1519SOL    HW216194   1.126   1.149   1.340 -0.7652 -0.2601  1.3261
 1520SOL     OW16195   0.319   3.266  10.175 -0.3071 -0.2726  0.5538
 1520SOL    HW116196   0.318   3.202  10.246  0.9702 -1.4649 -0.4862
 1520SOL    HW216197   0.399   3.237  10.130 -1.6000 -0.2267 -1.8007
 1521SOL     OW16198   4.672   2.432   8.211 -0.5763  0.4347 -0.1675
 1521SOL    HW116199   4.580   2.458   8.220 -0.9374 -1.0771  0.6503
 1521SOL    HW216200   4.670   2.366   8.141 -0.4655  0.0338  0.2091
 1522SOL     OW16201   4.693   4.027   1.492 -0.2654  0.5403 -0.2171
 1522SOL    HW116202   4.608   3.986   1.474  0.3203 -0.7108 -0.0932
 1522SOL    HW216203   0.005   3.946   1.503  0.7889  1.0894 -0.9314
 1523SOL     OW16204   2.506   0.712   1.662 -0.3370  0.4066  0.4061
 1523SOL    HW116205   2.570   0.731   1.730 -0.7167  1.1477  0.5557
 1523SOL    HW216206   2.538   0.761   1.586 -0.5697 -1.1262 -0.6815
 1524SOL     OW16207   2.841   2.637  10.407  0.5162  0.1574  0.0011
 1524SOL    HW116208   2.787   2.561  10.428 -1.3594  1.4874  0.0238
 1524SOL    HW216209   2.801   2.645  10.320  0.3619  0.4690  0.1018
 1525SOL     OW16210   2.442   4.572   5.687 -0.0840  0.1567  0.3010
 1525SOL    HW116211   2.537   4.562   5.686  0.1444  2.5564 -1.5121
 1525SOL    HW216212   2.418   4.522   5.609  0.5051  1.4473 -0.7035
 1526SOL     OW16213   0.316   3.207   7.266 -0.5571  0.2740  0.2518
 1526SOL    HW116214   0.404   3.210   7.304 -0.4054  2.3576 -0.2182
 1526SOL    HW216215   0.278   3.282   7.313 -1.8025  0.7291 -1.5031
 1527SOL     OW16216   4.285   3.238   5.931  0.0976  0.3985  0.1808
 1527SOL    HW116217   4.291   3.332   5.918  0.9870  0.4726  1.1417
 1527SOL    HW216218   4.292   3.225   6.026 -0.0999 -1.7361 -0.0964
 1528SOL     OW16219   4.603   0.246   4.934 -0.0077  0.1669 -0.1810
 1528SOL    HW116220   4.665   0.180   4.904  0.0642 -0.3189  1.0228
 1528SOL    HW216221   4.545   0.188   4.983  0.5508  1.9939  2.6919
 1529SOL     OW16222   1.198   0.374   6.059 -0.0285 -0.1561  0.0319
 1529SOL    HW116223   1.273   0.321   6.031  1.5359  1.8046  0.5075
 1529SOL    HW216224   1.180   0.416   5.975  2.6145  1.3412  0.1889
 1530SOL     OW16225   4.428   3.395  12.026  0.0701 -0.3287 -0.1391
 1530SOL    HW116226   4.471   3.317  11.991 -0.6275 -1.4678  1.5590
 1530SOL    HW216227   4.354   3.354  12.071  0.0041 -0.5513 -0.4529
 1531SOL     OW16228   3.958   3.568  16.193 -0.6385 -0.0365  0.3948
 1531SOL    HW116229   3.969   3.472  16.194  3.2324  0.4098 -0.0314
 1531SOL    HW216230   3.864   3.570  16.173 -0.6797 -0.7779  0.4798
 1532SOL     OW16231   0.595   2.317  15.225  0.2832  0.8850 -1.2503
 1532SOL    HW116232   0.555   2.233  15.201 -0.8006 -0.1342  4.0568
 1532SOL    HW216233   0.603   2.352  15.137  1.4207 -2.1815 -2.3644
 1533SOL     OW16234   3.324   2.721   5.784 -0.0876  0.1425 -0.0616
 1533SOL    HW116235   3.332   2.811   5.753  0.4481 -0.3368 -1.3103
 1533SOL    HW216236   3.237   2.697   5.752  0.0552  1.2897 -1.3006
 1534SOL     OW16237   4.361   0.372   2.751  0.4636  0.4208 -0.3061
 1534SOL    HW116238   4.409   0.326   2.682 -0.8921 -1.8742  0.2846
 1534SOL    HW216239   4.413   0.452   2.761  0.1643  0.6678 -0.7277
 1535SOL     OW16240   2.378   0.297   0.887 -0.2375 -0.0028  0.0653
 1535SOL    HW116241   2.468   0.329   0.894 -0.0752 -0.5224  0.3439
 1535SOL    HW216242   2.366   0.275   0.794 -1.5768  0.5184  0.1151
 1536SOL     OW16243   2.715   0.370   2.188  0.0911  0.1809 -0.0201
 1536SOL    HW116244   2.701   0.359   2.282  3.1861  0.3995  0.4423
 1536SOL    HW216245   2.640   0.422   2.157  0.1328  0.2353 -0.0285
 1537SOL     OW16246   0.666   3.394   6.378  0.7132 -0.6680 -0.1424
 1537SOL    HW116247   0.665   3.305   6.342 -2.2353 -0.9954  0.6823
 1537SOL    HW216248   0.608   3.388   6.455  0.8621  0.1895  0.0390
 1538SOL     OW16249   4.026   4.662   7.872  0.0526  0.7388  0.0177
 1538SOL    HW116250   4.109   4.617   7.889  0.9196  0.9420 -3.6151
 1538SOL    HW216251   3.972   4.591   7.838 -0.9488  2.6239 -2.3443
 1539SOL     OW16252   3.183   3.220   4.212  0.6662 -0.1501  0.4251
 1539SOL    HW116253   3.254   3.271   4.250 -0.8590  1.0710  1.6569
 1539SOL    HW216254   3.119   3.263   4.269  1.5189  0.5381  0.8585
 1540SOL     OW16255   2.561   1.063   2.714 -0.4416  0.1771 -0.0699
 1540SOL    HW116256   2.599   0.976   2.702  1.2114  0.9566 -0.4301
 1540SOL    HW216257   2.467   1.052   2.695 -0.5115  0.1807  0.2740
 1541SOL     OW16258   2.142   4.630   1.956 -0.2706 -0.1633  0.0202
 1541SOL    HW116259   2.125   4.651   1.864 -0.3937 -0.1371  0.0487
 1541SOL    HW216260   2.206   4.698   1.977 -1.2461  1.3747 -1.9625
 1542SOL     OW16261   1.633   3.070   7.449 -0.6605  0.1892 -0.4080
 1542SOL    HW116262   1.697   3.005   7.419  0.1224  0.6470  0.2825
 1542SOL    HW216263   1.666   3.095   7.535 -1.6504  0.2979 -0.0632
 1543SOL     OW16264   3.615   2.617  14.993  0.2674  0.3307 -0.5897
 1543SOL    HW116265   3.710   2.608  15.003  0.0219 -0.2432  1.1823
 1543SOL    HW216266   3.605   2.712  15.007 -1.2266 -0.1665  1.6375
 1544SOL     OW16267   0.833   2.553   5.329 -0.0209  0.4699  0.3306
 1544SOL    HW116268   0.772   2.619   5.361  0.3807  1.2694 -0.5555
 1544SOL    HW216269   0.786   2.503   5.262 -2.7555  0.5158  2.2092
 1545SOL     OW16270   0.581   2.082  13.901  0.1381 -0.0523  0.2310
 1545SOL    HW116271   0.568   2.053  13.991 -1.2085 -1.0187 -0.2771
 1545SOL    HW216272   0.652   2.024  13.872 -0.6729 -1.1149  0.3865
 1546SOL     OW16273   0.709   3.961   7.718 -0.3620 -0.4128  0.0344
 1546SOL    HW116274   0.677   3.955   7.809  0.2687 -2.8538  0.1027
 1546SOL    HW216275   0.719   3.867   7.700  1.3282 -0.4934  1.4398
 1547SOL     OW16276   2.243   0.025  10.110 -0.5632  0.4150  0.1437
 1547SOL    HW116277   2.199   0.028  10.195 -2.9531  0.8639 -1.1136
 1547SOL    HW216278   2.333   0.023  10.144 -0.5287  0.0117  0.0270
 1548SOL     OW16279   2.329   2.208   7.970  0.0017 -0.1249  0.2725
 1548SOL    HW116280   2.301   2.147   7.902 -1.0943  2.1784 -1.3460
 1548SOL    HW216281   2.423   2.219   7.957 -0.2998  0.4118 -1.3595
 1549SOL     OW16282   2.230   4.367   3.713 -0.3341 -0.4940 -0.0732
 1549SOL    HW116283   2.206   4.281   3.748  1.9363  0.2403  3.2673
 1549SOL    HW216284   2.310   4.356   3.663  1.2084 -1.2892  2.5628
 1550SOL     OW16285   4.670   1.773  16.004 -0.0125  0.2769  0.5816
 1550SOL    HW116286   0.010   1.731  15.967 -0.6586  0.1611 -0.6097
 1550SOL    HW216287   4.687   1.747  16.095  1.2602  0.4843  0.3977
 1551SOL     OW16288   4.193   1.265   7.289 -0.0201 -0.9143 -0.1799
 1551SOL    HW116289   4.236   1.347   7.264  1.2629 -1.4044  0.4018
 1551SOL    HW216290   4.227   1.240   7.375 -0.2266  0.7079  0.3740
 1552SOL     OW16291   2.769   1.535  11.537  0.3350  0.5199 -0.0246
 1552SOL    HW116292   2.779   1.457  11.483  2.5176  0.5282  0.3560
 1552SOL    HW216293   2.675   1.528  11.554  0.2618 -0.9578 -1.1019
 1553SOL     OW16294   4.368   4.464   7.567  0.0482 -0.4367 -0.4794
 1553SOL    HW116295   4.282   4.423   7.558 -0.5232  0.8721 -0.9995
 1553SOL    HW216296   4.385   4.472   7.473 -2.2888 -1.0771 -0.9635
 1554SOL     OW16297   3.623   1.144   8.774 -0.2469 -0.3899  0.0176
 1554SOL    HW116298   3.538   1.148   8.731  0.7214 -1.7485 -2.0066
 1554SOL    HW216299   3.669   1.082   8.718  2.5334  2.4464 -0.8718
 1555SOL     OW16300   2.625   3.568   2.180 -0.5786 -0.3612  0.6064
 1555SOL    HW116301   2.687   3.495   2.187  1.2340  1.1081 -0.3146
 1555SOL    HW216302   2.624   3.572   2.084  0.7621  1.0135  0.6613
 1556SOL     OW16303   0.876   0.255   7.294 -0.0804 -0.3903 -0.1026
 1556SOL    HW116304   0.925   0.174   7.308  0.7946  0.0199 -0.7982
 1556SOL    HW216305   0.790   0.214   7.303 -0.9480  1.8098  1.6289
 1557SOL     OW16306   0.907   1.219   3.855  0.1593  0.1028  0.2637
 1557SOL    HW116307   0.947   1.276   3.920  0.8343 -0.5065  0.3780
 1557SOL    HW216308   0.985   1.165   3.843  0.8243  1.6740 -2.5966
 1558SOL     OW16309   2.661   1.528   2.420  0.2469 -0.7509 -0.0944
 1558SOL    HW116310   2.670   1.443   2.463  1.6790 -0.0777  0.9642
 1558SOL    HW216311   2.680   1.594   2.487  1.4483 -0.3951 -0.7813
 1559SOL     OW16312   3.435   1.445   2.554  0.1985 -0.5870  0.1422
 1559SOL    HW116313   3.496   1.485   2.492 -0.0446  1.3641  1.1577
 1559SOL    HW216314   3.480   1.362   2.542  0.6489 -0.4750  1.0683
 1560SOL     OW16315   0.810   3.687   9.126 -0.3840  0.2498 -0.1911
 1560SOL    HW116316   0.743   3.619   9.122  0.0710 -0.2299  0.3714
 1560SOL    HW216317   0.787   3.725   9.210  1.7498 -4.5862  2.5590
 1561SOL     OW16318   3.667   4.227   3.405 -0.0335  0.1648 -0.0493
 1561SOL    HW116319   3.662   4.159   3.337 -1.6933  1.4418 -1.2308
 1561SOL    HW216320   3.761   4.238   3.414  0.0187 -0.2606 -0.0364
 1562SOL     OW16321   3.101   4.036   7.738 -0.1584  0.1009 -0.2772
 1562SOL    HW116322   3.076   4.126   7.761  0.0645  0.6521 -2.1135
 1562SOL    HW216323   3.018   3.996   7.713 -0.5286 -0.9801  2.7592
 1563SOL     OW16324   2.275   0.069   7.141 -0.2893 -0.2757 -0.4738
 1563SOL    HW116325   2.347   0.090   7.081 -1.7352  1.8670 -1.4431
 1563SOL    HW216326   2.297   4.714   7.155  0.3580 -0.4932 -2.8463
 1564SOL     OW16327   2.473   1.966   3.293  0.7825 -0.4680 -0.1692
 1564SOL    HW116328   2.395   2.019   3.277  1.1101  0.2985  0.7219
 1564SOL    HW216329   2.457   1.928   3.379 -1.1695  0.8542  0.0428
 1565SOL     OW16330   1.330   3.779   7.437  0.5119 -0.0969 -0.2451
 1565SOL    HW116331   1.332   3.684   7.444 -2.8566 -0.1929 -0.7441
 1565SOL    HW216332   1.276   3.804   7.512 -1.5016 -1.0199 -1.3932
 1566SOL     OW16333   4.407   2.286   5.889 -0.0844 -0.0591  0.3227
 1566SOL    HW116334   4.440   2.216   5.945  3.7377  1.5447  0.0700
 1566SOL    HW216335   4.389   2.243   5.806 -0.4861  1.1154 -0.2026
 1567SOL     OW16336   2.842   4.319   6.518 -0.4288  0.5878  0.2957
 1567SOL    HW116337   2.781   4.391   6.536 -0.9974 -0.6068  3.0792
 1567SOL    HW216338   2.786   4.246   6.542  1.1342 -1.0170 -0.9018
 1568SOL     OW16339   2.476   2.805  16.109  0.2616  0.0038  0.6825
 1568SOL    HW116340   2.433   2.771  16.187 -2.3421  0.2722 -0.6603
 1568SOL    HW216341   2.489   2.722  16.062  0.3855  0.7615 -0.6127
 1569SOL     OW16342   0.084   2.373   1.407  0.1745 -0.0835  0.0264
 1569SOL    HW116343   0.165   2.414   1.375 -0.1045  1.3695  1.2232
 1569SOL    HW216344   0.111   2.281   1.414 -0.0427 -0.2603 -1.5385
 1570SOL     OW16345   1.072   4.145   4.745 -0.0476  0.4782  0.1199
 1570SOL    HW116346   1.161   4.121   4.774 -0.3359 -2.6073 -1.5155
 1570SOL    HW216347   1.024   4.128   4.826 -0.6658  1.9530  0.0511
 1571SOL     OW16348   3.778   0.350   2.411  0.0848 -0.0984 -0.3048
 1571SOL    HW116349   3.721   0.378   2.483  0.7608 -0.7141  0.4823
 1571SOL    HW216350   3.723   0.352   2.333  0.3353  2.9142 -0.4181
 1572SOL     OW16351   4.654   0.376   4.666 -0.2071 -0.4009  0.0788
 1572SOL    HW116352   4.571   0.393   4.621 -0.9451 -1.3421  1.0742
 1572SOL    HW216353   4.628   0.363   4.757 -2.0418 -2.6519 -0.7628
 1573SOL     OW16354   0.448   4.466   0.926  0.3123 -0.5585  0.0839
 1573SOL    HW116355   0.523   4.506   0.883 -1.0943  0.6375 -1.2468
 1573SOL    HW216356   0.394   4.536   0.962 -1.1939 -0.0999 -3.1043
 1574SOL     OW16357   3.559   1.211   6.395  0.2287  0.2033 -0.7924
 1574SOL    HW116358   3.524   1.299   6.382  1.2009  0.8615  1.0086
 1574SOL    HW216359   3.481   1.159   6.374 -0.1465 -0.2075  1.6311
 1575SOL     OW16360   1.655   2.927   1.009  0.3881  0.1179 -0.1579
 1575SOL    HW116361   1.691   2.968   1.088 -2.1296 -0.0533  1.0871
 1575SOL    HW216362   1.669   2.986   0.935 -0.1519 -0.7543 -0.9492
 1576SOL     OW16363   4.001   1.330  12.075  0.0444 -0.1456 -0.3567
 1576SOL    HW116364   4.090   1.354  12.100  1.0795 -1.2367 -2.9880
 1576SOL    HW216365   4.024   1.317  11.982  2.6985  0.0890  0.2764
 1577SOL     OW16366   0.750   2.210   3.479  0.0406 -0.8013  0.2696
 1577SOL    HW116367   0.695   2.287   3.464 -0.5803 -0.8097  2.5055
 1577SOL    HW216368   0.807   2.210   3.402 -2.7967 -0.8748 -1.8490
 1578SOL     OW16369   1.292   1.259   6.642  0.6517 -0.3206  0.0262
 1578SOL    HW116370   1.304   1.286   6.733 -0.3937 -1.9763  0.6503
 1578SOL    HW216371   1.303   1.349   6.610  0.9570 -0.4416 -0.2174
 1579SOL     OW16372   2.514   4.437   8.055 -0.2715  0.0036 -0.0447
 1579SOL    HW116373   2.423   4.466   8.052 -0.1311  0.2661 -1.7133
 1579SOL    HW216374   2.528   4.396   7.969  0.6982  0.9000 -0.3057
 1580SOL     OW16375   0.831   2.765  13.233  0.3484  0.3553 -0.9151
 1580SOL    HW116376   0.749   2.766  13.281 -1.8537 -1.1452 -4.6414
 1580SOL    HW216377   0.893   2.715  13.286 -0.8714 -1.2431 -0.9695
 1581SOL     OW16378   1.778   1.420   6.452  0.0468 -0.2056 -0.1842
 1581SOL    HW116379   1.736   1.357   6.393 -0.5201 -1.3886  1.4626
 1581SOL    HW216380   1.786   1.360   6.527 -1.1212  2.3054  1.9306
 1582SOL     OW16381   3.085   4.311   5.921 -0.2283  0.7425 -0.0490
 1582SOL    HW116382   3.119   4.400   5.930 -1.3940  0.8200  3.7631
 1582SOL    HW216383   3.044   4.298   6.007  2.1082  0.0671  0.9701
 1583SOL     OW16384   0.785   3.403   9.799 -0.9321 -0.1986  0.4475
 1583SOL    HW116385   0.811   3.380   9.889  0.1962 -2.1760 -0.3589
 1583SOL    HW216386   0.763   3.495   9.809 -1.9367 -0.3685 -0.2396
 1584SOL     OW16387   1.373   2.598   0.684  0.1345  0.3037  0.6285
 1584SOL    HW116388   1.381   2.656   0.760 -2.6666 -0.6814  1.6732
 1584SOL    HW216389   1.327   2.663   0.631 -0.4767  1.2591  2.3458
 1585SOL     OW16390   0.904   2.957   6.530 -0.2954 -0.3956  0.0610
 1585SOL    HW116391   0.877   3.035   6.579  1.8356 -0.3132  1.0821
 1585SOL    HW216392   0.907   2.890   6.597  2.4499 -1.6165 -1.2972
 1586SOL     OW16393   4.659   0.518  14.741 -0.0835 -0.1970 -0.2228
 1586SOL    HW116394   4.651   0.461  14.818  1.2693  0.0040  0.0678
 1586SOL    HW216395   4.597   0.586  14.767 -0.0699  0.5598 -2.2106
 1587SOL     OW16396   1.282   4.319   8.697 -0.4199  0.1858 -0.6742
 1587SOL    HW116397   1.369   4.280   8.696 -0.3366  0.3897 -1.2376
 1587SOL    HW216398   1.228   4.241   8.708  0.0376 -0.3150 -1.9579
 1588SOL     OW16399   1.186   3.458   7.066  0.0181  0.6948 -0.0932
 1588SOL    HW116400   1.222   3.536   7.024  1.0216 -0.1028 -0.7154
 1588SOL    HW216401   1.189   3.400   6.990  0.5422 -0.1316  0.5627
 1589SOL     OW16402   3.817   0.491  17.564 -0.5339 -0.1047 -0.2406
 1589SOL    HW116403   3.909   0.519  17.571 -0.7791  0.7359 -0.3581
 1589SOL    HW216404   3.813   0.429  17.637 -1.6984 -1.3762 -1.3980
 1590SOL     OW16405   0.426   1.902   6.423  0.1154 -0.1103  0.1793
 1590SOL    HW116406   0.375   1.926   6.345  2.2336  1.0292 -0.8409
 1590SOL    HW216407   0.378   1.965   6.476 -0.8142 -0.0961 -0.6591
 1591SOL     OW16408   1.318   0.727  17.284  0.0440 -0.2845  0.0918
 1591SOL    HW116409   1.341   0.669  17.356  1.1843 -1.4376 -1.1808
 1591SOL    HW216410   1.264   0.792  17.328 -1.7722 -1.5047 -0.3323
 1592SOL     OW16411   4.215   0.842  16.643 -0.3163 -0.0194  0.2621
 1592SOL    HW116412   4.179   0.897  16.712  1.4095  1.4985 -0.0294
 1592SOL    HW216413   4.192   0.758  16.681  0.1630  0.0334  0.6740
 1593SOL     OW16414   1.159   4.026   6.448  0.1742  0.6134  0.4875
 1593SOL    HW116415   1.232   4.054   6.394  0.0670  0.3835  0.2221
 1593SOL    HW216416   1.197   4.036   6.536  3.2060  1.6624 -0.9619
 1594SOL     OW16417   2.851   0.573   9.159  0.7950  0.5345 -0.3558
 1594SOL    HW116418   2.923   0.513   9.178  0.8523  1.1076  1.2194
 1594SOL    HW216419   2.786   0.516   9.117 -0.4136  0.6721  1.3301
 1595SOL     OW16420   1.070   1.344   9.232  0.8818 -0.1269  0.1677
 1595SOL    HW116421   0.987   1.311   9.198 -0.3702  2.2450  0.9450
 1595SOL    HW216422   1.099   1.379   9.148  3.0398 -1.5559  0.3161
 1596SOL     OW16423   2.095   3.774   3.371  0.8002  0.4654 -0.9398
 1596SOL    HW116424   2.061   3.703   3.426  0.7847  1.9295  0.9284
 1596SOL    HW216425   2.024   3.792   3.309 -0.5566 -0.1963  0.4304
 1597SOL     OW16426   3.844   2.872   9.282  0.0408  0.1236 -0.6090
 1597SOL    HW116427   3.845   2.967   9.267  1.6039 -0.0259 -1.4115
 1597SOL    HW216428   3.854   2.839   9.192 -1.6296 -2.0113 -0.0158
 1598SOL     OW16429   4.671   0.516   7.526 -0.4579 -0.1930 -0.5299
 1598SOL    HW116430   4.694   0.576   7.454  0.9037 -0.2490 -0.1390
 1598SOL    HW216431   4.728   0.553   7.593 -0.7163 -1.3189  0.2881
 1599SOL     OW16432   4.486   4.183   2.915  0.0197  0.3059  0.5805
 1599SOL    HW116433   4.529   4.130   2.848 -0.2139  2.9562 -1.6314
 1599SOL    HW216434   4.412   4.219   2.867  1.0283 -0.9641 -1.9282
 1600SOL     OW16435   2.868   2.818   7.006 -0.1223 -0.1743  0.3158
 1600SOL    HW116436   2.841   2.727   6.998 -1.8880  0.2268  1.5710
 1600SOL    HW216437   2.869   2.832   7.101  0.8268  1.7157  0.0318
 1601SOL     OW16438   2.981   2.386  16.859  0.2614  0.5290 -0.6795
 1601SOL    HW116439   3.068   2.392  16.899  0.3516  2.4496 -1.1553
 1601SOL    HW216440   2.941   2.470  16.882  1.9361  0.5162  2.3037
 1602SOL     OW16441   0.859   1.161   5.790  0.7410 -0.2826  0.1342
 1602SOL    HW116442   0.941   1.125   5.823  2.0660  0.6543 -2.1567
 1602SOL    HW216443   0.873   1.256   5.788  0.9589 -0.3492 -1.2225
 1603SOL     OW16444   0.535   1.266   5.047  0.0745 -0.7504  0.0490
 1603SOL    HW116445   0.594   1.334   5.079 -0.1508 -0.2879 -0.5182
 1603SOL    HW216446   0.584   1.187   5.071  1.0859 -0.3802 -0.8190
 1604SOL     OW16447   3.404   0.331   4.704 -0.8224  0.1252  0.8927
 1604SOL    HW116448   3.347   0.388   4.653 -0.4672 -0.6578 -0.3862
 1604SOL    HW216449   3.398   0.374   4.789  0.7200 -0.8478  1.4933
 1605SOL     OW16450   0.058   0.620   4.057  0.1490 -0.2486 -0.2832
 1605SOL    HW116451   0.051   0.588   3.967 -1.8472  0.0678 -0.2394
 1605SOL    HW216452   0.015   0.549   4.105  0.4709  0.5713  1.2488
 1606SOL     OW16453   2.033   4.414  10.069  0.1861  0.0508  0.1784
 1606SOL    HW116454   1.948   4.417  10.026 -0.2080 -1.6708  0.8658
 1606SOL    HW216455   2.015   4.341  10.128  0.3723 -1.5192 -1.7225
 1607SOL     OW16456   2.714   3.163   9.221  0.1907 -0.3370  0.4019
 1607SOL    HW116457   2.736   3.078   9.259  0.3882 -1.2443 -1.7196
 1607SOL    HW216458   2.694   3.135   9.132  0.9096  0.5794 -0.0537
 1608SOL     OW16459   0.994   0.186   1.740 -0.2131  0.6960  0.0507
 1608SOL    HW116460   1.016   0.100   1.778  0.1924  0.0039 -1.7799
 1608SOL    HW216461   0.999   0.243   1.817 -1.0276 -0.0083  0.6373
 1609SOL     OW16462   2.891   1.154   5.268  0.2201 -0.1395 -0.6335
 1609SOL    HW116463   2.897   1.244   5.300 -2.7154 -0.8647  1.9390
 1609SOL    HW216464   2.980   1.124   5.283 -0.0196  0.1430  1.4191
 1610SOL     OW16465   4.594   0.746  11.537 -0.3557  0.2975 -0.0153
 1610SOL    HW116466   4.522   0.748  11.473 -0.9443  0.0591  0.6392
 1610SOL    HW216467   4.647   0.815  11.496 -1.4221  1.8049  1.1216
 1611SOL     OW16468   2.249   0.737   3.253  0.4402 -0.6822 -0.0139
 1611SOL    HW116469   2.288   0.652   3.234 -0.3588 -0.8570 -0.8297
 1611SOL    HW216470   2.325   0.791   3.276 -0.7510  0.4167  1.3272
 1612SOL     OW16471   1.310   3.640   2.369  0.7904 -0.5451  0.4886
 1612SOL    HW116472   1.401   3.611   2.365  0.5800 -0.9856 -0.8578
 1612SOL    HW216473   1.274   3.592   2.444  0.7166  0.6142  1.2046
 1613SOL     OW16474   1.414   1.797   3.716  0.3998 -0.4485  0.6360
 1613SOL    HW116475   1.480   1.813   3.648  0.1162  0.3707  0.5532
 1613SOL    HW216476   1.352   1.743   3.667  0.0970  1.7251 -1.3957
 1614SOL     OW16477   1.188   4.536   4.349  0.2184  0.1008 -0.2352
 1614SOL    HW116478   1.095   4.525   4.365  0.4767  0.7720  1.7368
 1614SOL    HW216479   1.218   4.487   4.425 -0.6672 -0.6042 -0.3444
 1615SOL     OW16480   1.582   1.907   6.287 -0.1404 -0.5689  0.1364
 1615SOL    HW116481   1.528   1.916   6.365  0.2143  0.4451  0.2672
 1615SOL    HW216482   1.624   1.821   6.294 -2.5522 -1.5326  2.8809
 1616SOL     OW16483   2.404   4.313  16.404  0.4398 -0.3190 -0.2257
 1616SOL    HW116484   2.432   4.401  16.377 -0.3413 -0.2568 -0.8400
 1616SOL    HW216485   2.319   4.326  16.447  1.3979  0.5903  1.3834
 1617SOL     OW16486   3.637   2.155  16.912 -0.1372 -0.2975  0.2213
 1617SOL    HW116487   3.708   2.188  16.857 -0.7238 -0.2374 -0.5022
 1617SOL    HW216488   3.665   2.157  17.004  1.7062  0.4291 -0.3658
 1618SOL     OW16489   4.593   1.912   9.164  0.2259 -0.4697 -0.2853
 1618SOL    HW116490   4.606   2.004   9.142  1.0944 -0.2110  1.3148
 1618SOL    HW216491   4.685   1.884   9.158  0.2848  0.3250 -3.2782
 1619SOL     OW16492   4.360   4.208  14.614 -0.6263  0.0652 -0.2088
 1619SOL    HW116493   4.324   4.285  14.657  0.6630  1.9681 -2.5642
 1619SOL    HW216494   4.435   4.200  14.673  0.6091  2.3156 -1.4664
 1620SOL     OW16495   3.825   4.238   7.126  0.0405  0.3656 -0.1988
 1620SOL    HW116496   3.769   4.172   7.167  2.4065 -1.7121 -0.3354
 1620SOL    HW216497   3.878   4.190   7.063 -2.0928 -0.8770 -1.0496
 1621SOL     OW16498   3.159   1.021   7.047 -0.3546 -0.2152  0.3445
 1621SOL    HW116499   3.112   1.100   7.020  0.1507  0.2788  0.9212
 1621SOL    HW216500   3.248   1.043   7.021 -0.6723  0.7267  0.0455
 1622SOL     OW16501   1.533   3.297  14.639  0.2195 -0.5800  0.5913
 1622SOL    HW116502   1.505   3.290  14.548  3.1338  1.9868 -0.4778
 1622SOL    HW216503   1.593   3.224  14.650 -0.1455 -0.7418  1.5017
 1623SOL     OW16504   1.343   4.255   6.902 -0.3324 -0.1082  0.1056
 1623SOL    HW116505   1.292   4.173   6.903  0.5888 -0.7180 -1.4751
 1623SOL    HW216506   1.315   4.301   6.981 -1.2501 -0.2289 -0.1455
 1624SOL     OW16507   1.787   1.076   3.636  0.0038  0.4317  0.4887
 1624SOL    HW116508   1.724   1.080   3.707  0.0642 -0.0435  0.5673
 1624SOL    HW216509   1.735   1.125   3.572 -1.0650 -0.5869  0.5741
 1625SOL     OW16510   2.119   2.751   8.906  0.0896 -0.4847 -0.0110
 1625SOL    HW116511   2.205   2.756   8.948 -0.2312 -0.3342  0.6267
 1625SOL    HW216512   2.100   2.844   8.898  2.1828  0.0550  1.4539
 1626SOL     OW16513   4.048   3.964   5.863 -0.6289  0.1888  0.0001
 1626SOL    HW116514   4.024   3.988   5.773 -0.2275  0.0466 -0.1450
 1626SOL    HW216515   4.089   4.045   5.893 -1.8393  1.5517 -1.9772
 1627SOL     OW16516   0.053   0.088   8.678 -0.2019  0.3835  0.5221
 1627SOL    HW116517   0.013   0.001   8.684  1.3113 -0.4129 -0.8714
 1627SOL    HW216518   0.102   0.082   8.596 -2.5831  2.7521 -1.0502
 1628SOL     OW16519   0.172   3.709   9.662 -0.0524  0.1270 -0.3906
 1628SOL    HW116520   0.206   3.738   9.578  2.5166 -1.0399  0.2361
 1628SOL    HW216521   0.219   3.766   9.724  0.0258  1.4657 -1.6811
 1629SOL     OW16522   3.990   4.171   5.030 -0.1739 -0.1136  0.4320
 1629SOL    HW116523   3.907   4.213   5.050 -0.2833 -0.1425  0.0425
 1629SOL    HW216524   4.030   4.162   5.116  1.4228  1.8846 -0.0827
 1630SOL     OW16525   0.132   3.613  16.991 -0.1676 -0.2601 -0.0258
 1630SOL    HW116526   0.217   3.656  16.998 -1.7040  2.3891  2.4913
 1630SOL    HW216527   0.089   3.671  16.928  1.1112 -0.4770 -1.1043
 1631SOL     OW16528   4.408   4.675  10.681 -0.0896 -0.6947  0.1515
 1631SOL    HW116529   4.326   4.652  10.723  0.5045  0.0986  1.7448
 1631SOL    HW216530   4.441   4.709  10.764 -0.3736  3.0406 -1.2764
 1632SOL     OW16531   1.773   1.767   5.849  0.2835 -0.5676 -0.1743
 1632SOL    HW116532   1.828   1.774   5.771 -0.9356 -0.7264 -1.0608
 1632SOL    HW216533   1.833   1.740   5.918  0.0666 -0.5431  0.0239
 1633SOL     OW16534   1.723   2.168   5.339  0.3416  0.1020 -0.2967
 1633SOL    HW116535   1.674   2.099   5.295  1.4339 -1.3033  0.6816
 1633SOL    HW216536   1.662   2.222   5.390 -0.8762 -1.7653  0.2301
 1634SOL     OW16537   2.991   2.311   5.823 -0.3824 -0.1027 -0.4625
 1634SOL    HW116538   2.942   2.389   5.849 -1.4780 -1.1314  0.6052
 1634SOL    HW216539   3.034   2.295   5.906  0.3909 -1.1848 -1.0682
 1635SOL     OW16540   2.176   0.038   2.521 -0.0194 -0.1650 -0.4446
 1635SOL    HW116541   2.122   4.717   2.467  1.0736 -0.1750 -1.5420
 1635SOL    HW216542   2.162   0.120   2.474 -0.0104  0.3494  0.4567
 1636SOL     OW16543   1.267   0.183  13.115  0.3274  0.0520  0.7049
 1636SOL    HW116544   1.195   0.212  13.060 -0.7701 -0.7351  1.7215
 1636SOL    HW216545   1.220   0.139  13.186 -0.7652  0.6118  0.3250
 1637SOL     OW16546   3.127   2.604   4.170  0.4983 -0.0110 -0.2056
 1637SOL    HW116547   3.126   2.563   4.256  0.3536  0.5878  0.0732
 1637SOL    HW216548   3.175   2.682   4.197  1.3955 -0.0900 -1.5192
 1638SOL     OW16549   1.491   0.690   3.237 -0.4088  0.0859 -0.2390
 1638SOL    HW116550   1.459   0.700   3.148 -2.1205  1.9303  0.5936
 1638SOL    HW216551   1.427   0.740   3.287  0.3856 -0.2121  1.1184
 1639SOL     OW16552   2.525   2.587   5.297  0.2007 -0.0980  0.2168
 1639SOL    HW116553   2.480   2.656   5.248  3.2788  0.3497 -2.0256
 1639SOL    HW216554   2.601   2.564   5.242  0.0451 -0.0873 -0.0024
 1640SOL     OW16555   1.929   1.316   7.040  0.4405  0.4016 -0.1974
 1640SOL    HW116556   2.021   1.307   7.063  1.1084  0.1969 -2.9049
 1640SOL    HW216557   1.900   1.400   7.076  1.7834  0.6303  0.3470
 1641SOL     OW16558   0.488   0.439  13.861  0.6464 -0.3945  0.2446
 1641SOL    HW116559   0.415   0.470  13.807 -0.6411 -2.5318  0.7637
 1641SOL    HW216560   0.450   0.354  13.884 -0.5098  0.2276  0.6079
 1642SOL     OW16561   3.096   0.827   8.195  0.4105  0.4989  0.3896
 1642SOL    HW116562   3.056   0.858   8.114 -1.2052 -1.3966  0.4619
 1642SOL    HW216563   3.045   0.882   8.255 -0.4191 -1.2779  1.2857
 1643SOL     OW16564   0.306   2.127  14.879 -0.4680 -0.1426  0.4937
 1643SOL    HW116565   0.353   2.175  14.811 -0.6615 -0.7459 -0.0593
 1643SOL    HW216566   0.244   2.073  14.831 -0.2294  0.0115  0.0105
 1644SOL     OW16567   3.217   0.784   3.803  0.0737  0.2006  0.0794
 1644SOL    HW116568   3.153   0.723   3.838 -0.8493  1.6263  0.8934
 1644SOL    HW216569   3.284   0.775   3.871 -1.0586  0.3996  1.2086
 1645SOL     OW16570   0.667   2.594   3.421 -0.0828 -0.0375  0.0554
 1645SOL    HW116571   0.594   2.632   3.372 -0.5894 -0.5311  0.4417
 1645SOL    HW216572   0.629   2.563   3.503 -2.5082 -1.3654 -1.5609
 1646SOL     OW16573   4.512   4.592  14.781  0.2499 -0.3719 -0.2001
 1646SOL    HW116574   4.531   4.566  14.691 -1.3488 -0.1081 -0.6132
 1646SOL    HW216575   4.417   4.590  14.793  0.0865 -0.7382 -1.6056
 1647SOL     OW16576   4.366   0.799  17.234 -0.6854 -0.4112  0.1802
 1647SOL    HW116577   4.392   0.836  17.150 -1.6377 -0.0392  0.0522
 1647SOL    HW216578   4.453   0.770  17.262 -2.0406 -1.7705  2.9485
 1648SOL     OW16579   2.675   3.173  15.802  0.2210  0.2421 -0.2728
 1648SOL    HW116580   2.618   3.107  15.840  1.8762 -1.0773 -0.0999
 1648SOL    HW216581   2.617   3.210  15.736 -0.4042 -0.1158  0.0743
 1649SOL     OW16582   1.160   3.021   3.629  0.4689  0.3030 -0.2645
 1649SOL    HW116583   1.186   2.981   3.713  0.4406  0.2408 -0.2858
 1649SOL    HW216584   1.194   2.960   3.564 -3.3942 -1.2110 -0.8056
 1650SOL     OW16585   1.126   2.461   0.371 -0.2652  0.1531  0.3288
 1650SOL    HW116586   1.127   2.474   0.466  3.5321  0.2660  0.2769
 1650SOL    HW216587   1.047   2.511   0.350 -0.3125 -1.2342 -2.8298
 1651SOL     OW16588   3.258   1.454   1.840  0.0150 -1.1455 -0.0280
 1651SOL    HW116589   3.336   1.434   1.789 -0.2675 -1.9076 -0.1577
 1651SOL    HW216590   3.288   1.533   1.885 -2.1396 -1.2043  1.5632
 1652SOL     OW16591   2.578   1.757   8.159  0.4873  0.3025 -0.2503
 1652SOL    HW116592   2.551   1.716   8.241  2.2483 -1.0793 -0.3483
 1652SOL    HW216593   2.672   1.750   8.176  0.5738  1.2540 -0.3336
 1653SOL     OW16594   3.913   3.671   1.209 -0.2374  0.1159  0.4679
 1653SOL    HW116595   3.882   3.682   1.119 -1.1818  0.1687  0.8058
 1653SOL    HW216596   3.882   3.581   1.218 -0.2861  0.0281 -0.5738
 1654SOL     OW16597   3.957   3.075   5.821 -0.5455 -0.0354 -0.1774
 1654SOL    HW116598   3.869   3.051   5.850 -0.5487 -0.1504 -0.2847
 1654SOL    HW216599   4.007   3.057   5.900  0.9781  1.0234 -0.8978
 1655SOL     OW16600   1.851   2.268   2.693 -0.5616  0.0140 -0.2651
 1655SOL    HW116601   1.807   2.299   2.614 -0.7302 -1.7388 -0.8570
 1655SOL    HW216602   1.775   2.267   2.750 -0.6393 -4.4197 -0.4228
 1656SOL     OW16603   0.747   3.208  17.086 -0.4709  0.1978 -0.2162
 1656SOL    HW116604   0.806   3.137  17.112  0.0436  0.7317  0.0823
 1656SOL    HW216605   0.694   3.158  17.025 -1.8107  1.8882 -0.4604
 1657SOL     OW16606   2.268   0.344   7.156 -0.1014 -0.0072 -0.1209
 1657SOL    HW116607   2.260   0.254   7.187 -2.3761  1.2143  2.8732
 1657SOL    HW216608   2.244   0.338   7.063  1.3368 -0.9452 -0.4233
 1658SOL     OW16609   3.711   0.132   9.046 -0.0437  0.2504  0.0757
 1658SOL    HW116610   3.676   0.214   9.012 -2.0060 -0.6441 -0.0436
 1658SOL    HW216611   3.787   0.126   8.989 -1.4946  2.9145 -2.1447
 1659SOL     OW16612   2.090   1.628   5.364 -0.0159  0.6966 -0.4484
 1659SOL    HW116613   2.057   1.547   5.402  1.3863  0.1119 -0.4585
 1659SOL    HW216614   2.069   1.622   5.271  0.5404 -2.2664 -0.3701
 1660SOL     OW16615   3.099   1.890   8.540  0.8515  0.1646  0.0150
 1660SOL    HW116616   3.031   1.934   8.487  0.2097 -0.4477  0.3338
 1660SOL    HW216617   3.087   1.798   8.518 -2.4177  0.2074  1.5375
 1661SOL     OW16618   2.957   1.101   4.653  0.0365 -0.0092  0.4012
 1661SOL    HW116619   2.903   1.159   4.598  2.2392  3.2234  1.6929
 1661SOL    HW216620   2.974   1.154   4.730 -0.3917 -1.4144  1.4592
 1662SOL     OW16621   3.093   3.683   3.782  0.8254  0.5813  0.2597
 1662SOL    HW116622   3.099   3.594   3.817 -0.7209  1.0239  1.6656
 1662SOL    HW216623   3.095   3.670   3.687 -0.5283 -1.2195  0.5046
 1663SOL     OW16624   1.219   2.549   2.483  0.8116  1.1423 -0.1345
 1663SOL    HW116625   1.244   2.578   2.396  0.8762 -1.2105 -0.8833
 1663SOL    HW216626   1.136   2.598   2.484  0.3038  0.2974 -0.6484
 1664SOL     OW16627   3.733   0.231   1.689 -0.0427 -0.7165 -0.0517
 1664SOL    HW116628   3.802   0.232   1.623  0.3575  0.5684  0.3852
 1664SOL    HW216629   3.699   0.145   1.666 -1.6233 -0.5264  1.6001
 1665SOL     OW16630   3.516   1.795   2.705 -0.8283 -0.0799  1.0823
 1665SOL    HW116631   3.572   1.873   2.700 -0.0440 -0.6564  0.9079
 1665SOL    HW216632   3.485   1.789   2.795 -2.2035 -2.8101  0.4432
 1666SOL     OW16633   1.732   4.536   7.867  0.2092  0.1031  0.0255
 1666SOL    HW116634   1.818   4.521   7.907  0.5980  0.4606 -0.6567
 1666SOL    HW216635   1.688   4.574   7.943 -1.5759 -2.9980  0.5070
 1667SOL     OW16636   1.286   3.849   8.267  0.0490 -0.0594  0.2698
 1667SOL    HW116637   1.217   3.873   8.329  0.1573  0.2133  0.2826
 1667SOL    HW216638   1.353   3.821   8.329  1.6503 -0.3085 -1.5626
 1668SOL     OW16639   1.168   0.143   6.666  0.4350  0.1252  0.0182
 1668SOL    HW116640   1.134   0.232   6.661 -0.0757 -0.0550  0.3707
 1668SOL    HW216641   1.102   0.105   6.724 -0.4320  0.0742 -1.0070
 1669SOL     OW16642   0.180   0.075   9.336 -0.1784  0.1561  0.1128
 1669SOL    HW116643   0.107   0.014   9.326  0.4242 -0.3759 -1.0953
 1669SOL    HW216644   0.224   0.062   9.252 -2.3551 -0.6682 -0.8895
 1670SOL     OW16645   3.738   2.813  16.279 -0.4907 -0.3863 -0.5804
 1670SOL    HW116646   3.757   2.848  16.366  2.3999 -1.8835 -0.6126
 1670SOL    HW216647   3.669   2.753  16.307  0.0737 -1.0120 -0.5305
 1671SOL     OW16648   1.349   1.742   2.479 -0.3453  0.0016  0.3439
 1671SOL    HW116649   1.443   1.753   2.493 -0.3739  1.9047 -0.8947
 1671SOL    HW216650   1.343   1.697   2.395  1.8823  0.8489 -0.2665
 1672SOL     OW16651   3.124   3.800   3.381  0.7302  0.2873 -0.1125
 1672SOL    HW116652   3.102   3.874   3.437 -0.0785 -1.1079  1.4115
 1672SOL    HW216653   3.055   3.806   3.314  3.2217  1.0190 -2.5748
 1673SOL     OW16654   0.485   3.945   9.409  0.1163 -0.1483 -0.2633
 1673SOL    HW116655   0.442   4.030   9.408  1.4921  0.5248 -1.4304
 1673SOL    HW216656   0.414   3.897   9.453 -0.5281  1.3613  0.3409
 1674SOL     OW16657   1.136   0.312   5.071  1.0671  0.2421 -0.8069
 1674SOL    HW116658   1.135   0.227   5.114 -2.0824  0.5177 -0.3345
 1674SOL    HW216659   1.150   0.285   4.980 -0.5729  0.5073 -1.1275
 1675SOL     OW16660   3.117   1.825   9.872 -0.2697  0.4909  0.4772
 1675SOL    HW116661   3.068   1.905   9.890 -0.6281  0.3251  0.2558
 1675SOL    HW216662   3.049   1.760   9.886  1.3096 -1.1601  0.4509
 1676SOL     OW16663   1.262   2.398  13.735  0.1040 -0.3336 -0.0748
 1676SOL    HW116664   1.167   2.386  13.734  0.0362  0.1051  2.3853
 1676SOL    HW216665   1.296   2.316  13.769  1.6601  0.5514  0.5158
 1677SOL     OW16666   3.175   1.632  14.034 -0.0404 -0.1728 -0.1616
 1677SOL    HW116667   3.270   1.642  14.039  0.1607 -1.9768 -0.4792
 1677SOL    HW216668   3.165   1.540  14.011 -0.5575 -0.2883  0.5241
 1678SOL     OW16669   2.076   0.042  12.328 -0.2971 -0.2605 -0.7277
 1678SOL    HW116670   2.078   0.102  12.403 -0.5305 -1.0354 -0.0997
 1678SOL    HW216671   2.155   0.072  12.282  0.1395  0.2748  0.3779
 1679SOL     OW16672   2.019   4.547   4.561  0.3736  0.2295 -0.3931
 1679SOL    HW116673   2.000   4.580   4.473 -0.0045 -0.5212 -0.5945
 1679SOL    HW216674   2.085   4.607   4.595  1.7616 -1.7816  0.4607
 1680SOL     OW16675   3.885   4.694   7.550 -0.0155  0.3251 -0.5668
 1680SOL    HW116676   3.967   0.005   7.542  1.1151 -1.5938 -0.6237
 1680SOL    HW216677   3.848   0.019   7.613  2.5663 -0.1187  1.3867
 1681SOL     OW16678   2.655   2.105  17.695 -0.1538  0.9549  0.2493
 1681SOL    HW116679   2.622   2.098   0.037  0.0758 -0.0521  0.2546
 1681SOL    HW216680   2.572   2.103  17.647 -0.4390  2.7222  0.6897
 1682SOL     OW16681   2.465   0.378   9.389 -0.4649  0.1066  0.3721
 1682SOL    HW116682   2.484   0.287   9.366 -0.7744 -0.4005  2.1278
 1682SOL    HW216683   2.375   0.388   9.357  0.2952 -1.8242 -2.3770
 1683SOL     OW16684   3.627   1.032   7.102  0.1132 -0.5507  0.4650
 1683SOL    HW116685   3.687   1.065   7.035 -1.6687  2.8069  0.5215
 1683SOL    HW216686   3.603   1.108   7.155 -0.8505 -0.9846  0.6425
 1684SOL     OW16687   3.350   4.268   4.216  0.1233 -0.7448 -0.5830
 1684SOL    HW116688   3.398   4.275   4.133  0.7489  0.3807 -0.1299
 1684SOL    HW216689   3.302   4.345   4.187 -1.9265 -1.5693  0.6710
 1685SOL     OW16690   1.538   3.569   2.134 -0.2100 -0.5753 -0.4792
 1685SOL    HW116691   1.599   3.639   2.112 -0.5783 -0.6922 -1.8808
 1685SOL    HW216692   1.459   3.592   2.085 -0.1098 -1.6090 -1.1255
 1686SOL     OW16693   3.245   4.689   2.946  0.0003 -0.0325 -0.0386
 1686SOL    HW116694   3.192   4.621   2.905  3.8170 -2.7697 -0.4644
 1686SOL    HW216695   3.260   0.020   2.881  2.6529 -0.4426  0.1416
 1687SOL     OW16696   0.131   4.241  10.372  0.1929 -0.3087 -0.1075
 1687SOL    HW116697   0.114   4.191  10.452 -0.1637 -0.1695 -0.0993
 1687SOL    HW216698   0.071   4.208  10.305  0.3207  1.0908 -0.9122
 1688SOL     OW16699   0.492   2.988   9.712  0.0590  0.0460 -0.1899
 1688SOL    HW116700   0.558   3.048   9.678  0.0793 -0.5884 -1.2582
 1688SOL    HW216701   0.539   2.970   9.794  0.6738 -1.1880 -0.8084
 1689SOL     OW16702   2.419   1.813   0.187 -0.5343 -0.4256  0.7714
 1689SOL    HW116703   2.332   1.841   0.217 -2.0519 -1.8500 -2.2297
 1689SOL    HW216704   2.456   1.746   0.244  2.0864 -1.1724 -1.8302
 1690SOL     OW16705   0.643   3.674   6.197  0.5704  0.2447  0.0251
 1690SOL    HW116706   0.691   3.633   6.268 -0.3519 -1.3968 -0.3062
 1690SOL    HW216707   0.675   3.764   6.204 -0.4085  0.4610  1.7579
 1691SOL     OW16708   3.171   0.459   8.126  0.1209  0.2072  0.4816
 1691SOL    HW116709   3.109   0.507   8.071  2.0477 -0.2689 -2.1032
 1691SOL    HW216710   3.227   0.533   8.151 -2.1380  2.2815 -0.5201
 1692SOL     OW16711   2.921   3.831   5.806 -0.3434  0.1149 -0.1946
 1692SOL    HW116712   2.931   3.816   5.712 -0.1199 -0.0528 -0.1431
 1692SOL    HW216713   3.004   3.801   5.843 -1.2106 -0.9478  0.9066
 1693SOL     OW16714   1.976   0.349  15.841  0.6311  0.0122  0.0399
 1693SOL    HW116715   1.947   0.282  15.903  0.0348 -0.1097 -0.3635
 1693SOL    HW216716   2.005   0.408  15.910  0.5158  0.9604 -0.7201
 1694SOL     OW16717   4.261   3.558   5.804 -0.0514  0.4422  0.0142
 1694SOL    HW116718   4.219   3.629   5.853  0.5746  1.9658 -1.6551
 1694SOL    HW216719   4.350   3.578   5.832  0.1427  0.7446 -0.8023
 1695SOL     OW16720   0.013   3.111  12.788 -0.2279  0.1425 -0.3165
 1695SOL    HW116721   0.107   3.128  12.787 -0.7069  2.8080  0.5872
 1695SOL    HW216722   4.703   3.192  12.771  0.4842  0.8816  1.2466
 1696SOL     OW16723   3.172   3.187   3.091 -0.6426  0.5926  0.2785
 1696SOL    HW116724   3.238   3.257   3.091  1.3477 -1.3073 -1.0861
 1696SOL    HW216725   3.154   3.182   2.997  0.5287 -0.5347  0.1279
 1697SOL     OW16726   0.191   0.385  13.119  0.3895  0.2155  0.4374
 1697SOL    HW116727   0.257   0.317  13.124  0.5123  0.3524  0.6980
 1697SOL    HW216728   0.224   0.429  13.041  0.7243 -1.8839 -0.5734
 1698SOL     OW16729   2.347   0.413   3.294 -0.0862  0.2684  0.0834
 1698SOL    HW116730   2.434   0.404   3.255 -0.8512 -0.1937 -1.5147
 1698SOL    HW216731   2.297   0.341   3.257 -1.1487  1.4675 -0.7760
 1699SOL     OW16732   3.789   3.044  14.221  0.2640 -0.3751  0.4561
 1699SOL    HW116733   3.808   3.102  14.148 -0.6754  0.2865  0.7403
 1699SOL    HW216734   3.820   3.090  14.300 -0.3843  0.6688  0.1004
 1700SOL     OW16735   3.767   2.527   6.580 -0.2036 -0.5547 -0.1477
 1700SOL    HW116736   3.769   2.456   6.516 -1.6565 -0.8578  0.1452
 1700SOL    HW216737   3.776   2.488   6.667 -0.9198 -0.2334  0.0756
 1701SOL     OW16738   2.286   2.370   6.228 -0.2630  0.3834  0.1324
 1701SOL    HW116739   2.260   2.462   6.225 -0.5967  0.2457 -1.2802
 1701SOL    HW216740   2.373   2.366   6.189 -0.1941 -0.9379  0.4125
 1702SOL     OW16741   0.484   0.940   5.299 -0.3685 -0.0066 -0.0090
 1702SOL    HW116742   0.398   0.925   5.260  0.8088 -1.8776 -1.8938
 1702SOL    HW216743   0.536   0.987   5.234 -1.6779  0.0571 -1.0017
 1703SOL     OW16744   0.409   3.289  15.048  0.2581 -0.2141 -0.5847
 1703SOL    HW116745   0.325   3.253  15.076  1.1104 -1.5535  0.2566
 1703SOL    HW216746   0.458   3.207  15.049 -0.6289 -0.7440 -0.7157
 1704SOL     OW16747   1.687   2.009   8.810  0.6707 -0.4711 -0.1197
 1704SOL    HW116748   1.679   2.104   8.821  1.7660  0.0818 -4.2011
 1704SOL    HW216749   1.770   2.001   8.764  1.1205  3.1994 -0.0039
 1705SOL     OW16750   2.382   4.257  12.525  0.8524 -0.1339 -0.0436
 1705SOL    HW116751   2.442   4.322  12.561  0.5039 -1.3397  2.6739
 1705SOL    HW216752   2.323   4.237  12.597  0.3104  0.2220 -0.3820
 1706SOL     OW16753   2.127   0.641   4.012 -0.1552 -0.0553 -0.4011
 1706SOL    HW116754   2.085   0.591   4.082 -0.6094 -1.6612 -1.8073
 1706SOL    HW216755   2.108   0.589   3.934 -0.2050  0.6024 -0.8250
 1707SOL     OW16756   4.087   1.162   6.345  0.1908 -0.3244 -0.1348
 1707SOL    HW116757   4.004   1.201   6.371  0.8636  1.0628 -0.0668
 1707SOL    HW216758   4.058   1.071   6.340 -0.5733 -0.0780 -0.1993
 1708SOL     OW16759   1.702   2.331   2.217 -0.0764  0.0904 -0.0756
 1708SOL    HW116760   1.702   2.241   2.249 -2.0336  1.0147  2.5061
 1708SOL    HW216761   1.612   2.355   2.240 -1.0224 -2.3311 -1.2610
 1709SOL     OW16762   4.097   0.928  14.520  0.1163  0.1374 -0.0259
 1709SOL    HW116763   4.009   0.965  14.513  0.3703  0.4921 -1.4639
 1709SOL    HW216764   4.120   0.961  14.607  1.5592 -1.2727  0.1202
 1710SOL     OW16765   2.856   3.784   3.900  0.0819  0.2085  0.2594
 1710SOL    HW116766   2.886   3.788   3.991  1.0280 -1.6854  0.0375
 1710SOL    HW216767   2.934   3.739   3.867  0.5794  0.6961  0.7652
 1711SOL     OW16768   0.654   4.338   6.472  0.2325 -0.5976  0.1437
 1711SOL    HW116769   0.571   4.291   6.471  0.0038 -0.1904 -0.0283
 1711SOL    HW216770   0.630   4.431   6.468 -0.0735 -0.6926 -0.2179
 1712SOL     OW16771   0.447   2.015  16.241 -0.3117  0.5226 -0.3194
 1712SOL    HW116772   0.401   1.934  16.262  1.5365 -0.5970 -0.6306
 1712SOL    HW216773   0.532   1.994  16.205  0.3091 -1.1640  2.1458
 1713SOL     OW16774   2.430   3.377   9.006  0.2136 -0.0794  0.3137
 1713SOL    HW116775   2.484   3.300   8.987  0.8544  0.6560 -0.8830
 1713SOL    HW216776   2.485   3.421   9.070  2.7588 -1.7636 -0.7067
 1714SOL     OW16777   4.181   2.953   7.018  0.4116  0.1250 -0.1363
 1714SOL    HW116778   4.170   2.935   6.925  1.5667  0.6296 -0.3589
 1714SOL    HW216779   4.189   3.047   7.001  0.2612 -0.3716 -2.8758
 1715SOL     OW16780   0.895   0.476   0.200  0.3768 -0.1218 -0.0268
 1715SOL    HW116781   0.859   0.511   0.119 -0.3335 -0.7333  0.0199
 1715SOL    HW216782   0.966   0.421   0.165  0.5885 -1.3849  2.4014
 1716SOL     OW16783   4.578   0.193  11.125  0.0696 -0.5182 -0.4295
 1716SOL    HW116784   4.619   0.220  11.207  0.2575  2.0060 -1.3477
 1716SOL    HW216785   4.583   0.270  11.069 -0.0298 -0.5683 -0.5087
 1717SOL     OW16786   1.411   2.315   6.062 -0.0114 -0.1533 -0.3586
 1717SOL    HW116787   1.405   2.357   5.977  2.3415  0.9553  0.0228
 1717SOL    HW216788   1.501   2.282   6.056 -0.0804 -0.0335 -1.9368
 1718SOL     OW16789   4.290   0.444   6.007  0.2515 -0.4333 -0.7402
 1718SOL    HW116790   4.249   0.450   5.921 -2.8317 -1.3082  0.6624
 1718SOL    HW216791   4.330   0.359   5.992 -0.6658 -1.0951  0.5394
 1719SOL     OW16792   1.292   2.379   8.656  0.4745  0.0134 -0.1856
 1719SOL    HW116793   1.296   2.415   8.744  0.1993  0.0388 -0.1829
 1719SOL    HW216794   1.346   2.447   8.614  1.1166 -1.2413 -1.4003
 1720SOL     OW16795   2.073   0.974   4.199  0.1604  0.4041 -0.4130
 1720SOL    HW116796   2.138   0.950   4.133 -1.5846  0.2716 -2.0888
 1720SOL    HW216797   2.007   0.909   4.175 -1.0910  1.0334  1.3596
 1721SOL     OW16798   3.461   4.678   8.218  0.1018 -0.0177 -0.2332
 1721SOL    HW116799   3.427   4.589   8.214 -1.3250  0.5613 -0.8625
 1721SOL    HW216800   3.553   4.658   8.235  0.4381  1.2340 -0.5772
 1722SOL     OW16801   4.478   3.913   8.467 -0.3896 -0.1997 -0.3261
 1722SOL    HW116802   4.472   3.882   8.557 -1.3779 -1.2332 -0.7327
 1722SOL    HW216803   4.474   4.007   8.479 -2.1891 -0.4376  0.9201
 1723SOL     OW16804   2.702   3.955  10.026  1.1171  0.5726 -0.2471
 1723SOL    HW116805   2.703   3.899   9.948  1.6223  0.4301 -0.1366
 1723SOL    HW216806   2.740   4.036   9.992  1.6864  0.8484  1.0582
 1724SOL     OW16807   1.190   4.168   6.128  0.7619  0.1409  0.2144
 1724SOL    HW116808   1.259   4.205   6.183  0.7461 -0.3356  0.5525
 1724SOL    HW216809   1.132   4.243   6.115 -0.0252 -0.3439  0.8832
 1725SOL     OW16810   1.306   1.034  10.403 -0.3924  0.4596  0.4396
 1725SOL    HW116811   1.331   1.123  10.377  0.9138  0.5042  1.8907
 1725SOL    HW216812   1.259   1.003  10.325  0.8632 -0.2408 -0.0312
 1726SOL     OW16813   4.345   2.879   3.056  0.0479 -0.0384  0.4702
 1726SOL    HW116814   4.439   2.896   3.068  0.4374 -0.9757 -1.1774
 1726SOL    HW216815   4.326   2.853   3.146  1.7326  0.1716  0.8998
 1727SOL     OW16816   4.094   4.586   3.182 -0.2676 -0.0847 -0.0260
 1727SOL    HW116817   4.043   4.509   3.207  1.3351 -1.1001  0.1379
 1727SOL    HW216818   4.163   4.533   3.142  0.4708  3.5589 -3.6665
 1728SOL     OW16819   1.749   1.995   1.805 -0.0938  0.2512  0.1417
 1728SOL    HW116820   1.775   1.951   1.886  0.6615  1.3569  0.5032
 1728SOL    HW216821   1.659   2.021   1.826  0.0717  0.4507  0.6226
 1729SOL     OW16822   3.844   1.208   0.870  0.2669  0.3217 -0.3561
 1729SOL    HW116823   3.935   1.231   0.854 -1.2224  4.8924 -2.2333
 1729SOL    HW216824   3.814   1.204   0.779 -3.5372 -2.4444  1.0023
 1730SOL     OW16825   0.274   2.924   0.565 -0.0763  0.6003  0.5794
 1730SOL    HW116826   0.283   3.007   0.613 -1.7867  0.0982  1.7608
 1730SOL    HW216827   0.191   2.885   0.590 -0.8778  2.1585  0.3171
 1731SOL     OW16828   4.635   1.796   3.397 -0.1914  0.1816 -0.8704
 1731SOL    HW116829   4.720   1.754   3.409 -0.6239 -0.8015 -1.2144
 1731SOL    HW216830   4.603   1.804   3.487 -2.7116 -0.6124 -1.6862
 1732SOL     OW16831   0.050   2.691  13.296 -0.4750 -0.3711 -0.4502
 1732SOL    HW116832   0.030   2.646  13.378  1.6040 -0.1136  0.1784
 1732SOL    HW216833   4.718   2.754  13.316 -0.9391 -1.2206  0.6521
 1733SOL     OW16834   3.313   1.429  14.237 -0.0266 -0.0008  0.6306
 1733SOL    HW116835   3.237   1.380  14.269 -0.0083  0.0653  0.7738
 1733SOL    HW216836   3.283   1.423  14.146 -0.1361 -0.4458  0.6939
 1734SOL     OW16837   1.561   0.156   2.957  0.0780  0.5788  0.5090
 1734SOL    HW116838   1.593   0.153   3.047 -1.4306  1.8611  1.0777
 1734SOL    HW216839   1.503   0.081   2.951 -1.8986  2.2086 -0.7075
 1735SOL     OW16840   0.182   0.066  15.610  0.3411 -0.0945  0.0878
 1735SOL    HW116841   0.105   0.038  15.660 -0.1454  1.3555  0.1549
 1735SOL    HW216842   0.174   0.160  15.628  0.3790 -0.0968  0.1141
 1736SOL     OW16843   3.919   3.531   9.593 -0.3225 -0.3032 -0.2691
 1736SOL    HW116844   3.923   3.503   9.501  0.8699 -3.2985  0.6781
 1736SOL    HW216845   3.825   3.540   9.607 -0.3925 -1.8817  0.2004
 1737SOL     OW16846   0.857   4.106   9.602 -0.0195 -0.0761 -0.6495
 1737SOL    HW116847   0.815   4.192   9.594 -1.4930 -0.9320 -2.1604
 1737SOL    HW216848   0.791   4.048   9.641 -0.5431 -0.0477 -1.4954
 1738SOL     OW16849   3.526   3.834   8.319 -0.3747  0.1437 -0.3288
 1738SOL    HW116850   3.438   3.799   8.328  0.1719 -1.3040 -0.6070
 1738SOL    HW216851   3.522   3.900   8.387  1.6348 -1.0509  0.9291
 1739SOL     OW16852   0.139   3.425   7.269 -0.0741  0.0262  0.3105
 1739SOL    HW116853   0.180   3.508   7.291 -1.6421  1.2028 -1.1990
 1739SOL    HW216854   0.112   3.399   7.357  0.0367  0.3676  0.4434
 1740SOL     OW16855   1.536   3.360   3.549  0.2011 -0.3945 -0.1880
 1740SOL    HW116856   1.550   3.328   3.460 -1.0106  2.2797 -1.3582
 1740SOL    HW216857   1.471   3.426   3.526 -1.4568 -1.9597  0.0239
 1741SOL     OW16858   3.456   2.126   3.152 -0.0416  0.4587  0.0909
 1741SOL    HW116859   3.514   2.159   3.220  0.5685 -1.8488  0.6754
 1741SOL    HW216860   3.381   2.114   3.211 -0.1741  0.1618 -0.1366
 1742SOL     OW16861   1.583   4.730  14.456  0.2298  0.1831  0.1976
 1742SOL    HW116862   1.673   4.729  14.487  0.2728 -3.4522 -0.0325
 1742SOL    HW216863   1.584   4.694  14.367 -0.7995  0.8867 -0.0976
 1743SOL     OW16864   0.651   1.686   4.377  0.5462  0.5715  0.0805
 1743SOL    HW116865   0.746   1.682   4.361  0.1280 -0.5174 -2.1945
 1743SOL    HW216866   0.645   1.680   4.472  1.3917 -1.1636  0.0194
 1744SOL     OW16867   0.226   3.325   5.507  0.6695 -0.3075 -0.1175
 1744SOL    HW116868   0.202   3.404   5.460 -1.0731 -0.8406 -0.1185
 1744SOL    HW216869   0.225   3.342   5.601  1.1530 -1.9800  0.2027
 1745SOL     OW16870   2.986   0.101   3.730 -0.0995 -0.4023 -0.6277
 1745SOL    HW116871   2.986   0.158   3.653 -0.5433 -1.2316 -1.2359
 1745SOL    HW216872   2.987   0.156   3.809 -1.9267 -0.6665 -0.4141
 1746SOL     OW16873   1.879   0.030   3.095  0.4146  0.9404 -0.2412
 1746SOL    HW116874   1.821   0.051   3.169 -0.2752  1.7969 -1.0310
 1746SOL    HW216875   1.952   4.716   3.130 -0.3912  1.3458  2.0850
 1747SOL     OW16876   2.333   3.044  11.705 -0.6488  0.8598 -0.4223
 1747SOL    HW116877   2.257   2.986  11.712  0.6537 -0.7992  0.2055
 1747SOL    HW216878   2.346   3.084  11.791  1.2203  1.6593 -1.0783
 1748SOL     OW16879   0.253   1.303   9.334  0.0993  0.0905  0.5556
 1748SOL    HW116880   0.207   1.309   9.418  0.2978 -0.9791  0.7469
 1748SOL    HW216881   0.287   1.214   9.328  0.1565  0.1342  0.2519
 1749SOL     OW16882   4.329   4.193   8.267 -0.7643  0.1255  0.4655
 1749SOL    HW116883   4.298   4.206   8.357  0.5210  0.8476  0.7952
 1749SOL    HW216884   4.303   4.102   8.253 -1.7124  0.2419  1.4273
 1750SOL     OW16885   2.463   0.963  12.299 -0.5630  0.5999  0.6724
 1750SOL    HW116886   2.434   0.993  12.213 -1.5717 -1.5645  0.2634
 1750SOL    HW216887   2.418   1.029  12.352 -3.2925 -0.6683 -0.0695
 1751SOL     OW16888   0.072   4.705   2.864  0.8120 -0.3116  0.1901
 1751SOL    HW116889   0.000   4.717   2.801  1.3644  2.0519 -0.0039
 1751SOL    HW216890   0.111   4.621   2.841 -1.5690 -0.8581 -1.8988
 1752SOL     OW16891   1.944   3.568  10.343 -0.9932  0.6519  0.5932
 1752SOL    HW116892   1.879   3.520  10.292 -0.8753 -1.2403  2.2330
 1752SOL    HW216893   2.009   3.499  10.353 -0.8369  0.7179  0.0757
 1753SOL     OW16894   0.905   1.504   2.997  0.0474 -0.2470 -0.6825
 1753SOL    HW116895   0.941   1.568   2.936 -2.2809  2.0280  0.3362
 1753SOL    HW216896   0.968   1.508   3.069 -1.3745  3.0757  0.3659
 1754SOL     OW16897   2.044   0.129   8.030  0.2353  0.4948 -0.0868
 1754SOL    HW116898   1.962   0.178   8.023  0.5291  0.8707 -0.9081
 1754SOL    HW216899   2.102   0.200   8.056  0.5438  0.6712 -1.2270
 1755SOL     OW16900   4.524   0.154   7.833 -0.0579 -0.1690  0.2941
 1755SOL    HW116901   4.435   0.119   7.834  0.4017 -1.3439  0.2080
 1755SOL    HW216902   4.565   0.080   7.788 -1.6217  0.1939 -1.7071
 1756SOL     OW16903   3.808   2.464   4.602  0.1680 -0.1337  0.0284
 1756SOL    HW116904   3.727   2.414   4.613 -1.5446  2.5756 -0.1264
 1756SOL    HW216905   3.841   2.425   4.521  0.7145  0.3128  0.0323
 1757SOL     OW16906   1.080   3.491   5.246  0.1019  0.3596 -0.1756
 1757SOL    HW116907   1.094   3.399   5.226 -0.3334  0.2773 -0.1090
 1757SOL    HW216908   1.003   3.474   5.301 -0.7418  0.9350 -1.1651
 1758SOL     OW16909   3.766   2.010   2.132  0.1264 -0.1964  0.2690
 1758SOL    HW116910   3.772   1.918   2.156 -0.7658 -0.6906 -1.3805
 1758SOL    HW216911   3.856   2.042   2.121  0.5151 -1.1193  0.8210
 1759SOL     OW16912   2.014   3.578   1.929  0.3163 -0.1238 -0.1060
 1759SOL    HW116913   2.064   3.644   1.881 -2.7167  2.0454 -0.2242
 1759SOL    HW216914   2.020   3.614   2.017  0.6645 -0.4759  0.0173
 1760SOL     OW16915   3.010   3.025   4.917  0.4137 -0.1782  0.6705
 1760SOL    HW116916   2.915   3.018   4.930  0.3720  0.5922  0.7960
 1760SOL    HW216917   3.010   2.994   4.827  1.5546 -1.3959  1.0946
 1761SOL     OW16918   2.579   1.207   3.853 -0.5621 -0.2681  0.3566
 1761SOL    HW116919   2.630   1.245   3.781 -2.3150  3.0153  0.8510
 1761SOL    HW216920   2.647   1.159   3.900 -1.1567  0.1348  1.6170
 1762SOL     OW16921   4.211   2.872  17.224  0.1430 -0.4932  0.2270
 1762SOL    HW116922   4.228   2.834  17.138  1.4787 -0.0667  0.3073
 1762SOL    HW216923   4.200   2.797  17.283  2.2076 -1.1584 -0.2350
 1763SOL     OW16924   3.482   3.233   9.271 -0.1528  0.2053  0.1273
 1763SOL    HW116925   3.397   3.222   9.228  0.7833 -0.2733 -1.5677
 1763SOL    HW216926   3.458   3.243   9.363 -0.1983  3.0091 -0.1866
 1764SOL     OW16927   2.570   2.200   5.636  0.3749  0.0423 -0.1806
 1764SOL    HW116928   2.533   2.274   5.587 -0.8744  0.0850  0.8443
 1764SOL    HW216929   2.523   2.134   5.584 -1.1942  1.5748 -0.7206
 1765SOL     OW16930   3.705   2.109  17.745  0.4400  0.1484  0.2304
 1765SOL    HW116931   3.748   2.048   0.057 -0.5559 -0.3469  0.4367
 1765SOL    HW216932   3.778   2.126  17.685  0.3122 -2.7952 -0.7541
 1766SOL     OW16933   0.844   4.148  10.278 -0.0671  0.9271  0.3733
 1766SOL    HW116934   0.853   4.187  10.365  0.9389  1.2891  0.1026
 1766SOL    HW216935   0.921   4.091  10.276  0.9846  2.3890 -0.9237
 1767SOL     OW16936   1.221   3.124   8.615 -0.5197 -0.7236  0.0288
 1767SOL    HW116937   1.192   3.166   8.534 -0.8110 -1.7644 -0.4058
 1767SOL    HW216938   1.135   3.119   8.657 -1.3212  2.0448 -1.2779
 1768SOL     OW16939   0.713   0.176   7.556 -0.2928 -0.4772  0.2054
 1768SOL    HW116940   0.679   0.113   7.494 -2.3341  1.0339 -0.2137
 1768SOL    HW216941   0.636   0.232   7.571  1.4211  1.8434  0.3358
 1769SOL     OW16942   0.655   3.007   2.056 -0.1058 -1.1282  0.5257
 1769SOL    HW116943   0.583   3.021   2.118  0.5894 -0.3026  1.1596
 1769SOL    HW216944   0.603   3.012   1.976  1.6443  1.3741 -0.4507
 1770SOL     OW16945   3.301   2.040   6.874 -0.0488  0.1831 -0.2720
 1770SOL    HW116946   3.349   1.983   6.815 -0.4224  0.0737 -0.4732
 1770SOL    HW216947   3.307   1.995   6.958 -0.2479 -1.3799 -1.0958
 1771SOL     OW16948   0.048   4.102  16.290  0.2715 -0.5194  0.2198
 1771SOL    HW116949   4.729   4.153  16.233  0.5680  2.3323  2.4947
 1771SOL    HW216950   0.131   4.147  16.270 -0.1570 -0.2374 -0.8958
 1772SOL     OW16951   2.461   0.362   0.489  0.6951 -0.2406  0.3510
 1772SOL    HW116952   2.385   0.392   0.539 -1.2704 -1.8290 -1.7386
 1772SOL    HW216953   2.521   0.436   0.501  0.4328 -0.0041  0.2100
 1773SOL     OW16954   0.565   4.600   6.423  0.2803  0.2885 -0.4605
 1773SOL    HW116955   0.604   4.644   6.347 -1.5941 -0.1097 -1.6495
 1773SOL    HW216956   0.474   4.627   6.408  1.0648  2.1808 -1.8285
 1774SOL     OW16957   1.953   1.005   6.875 -0.0045 -0.3141  0.3229
 1774SOL    HW116958   1.981   1.038   6.961 -2.2115  3.3048 -0.3481
 1774SOL    HW216959   1.992   1.075   6.823  1.5297 -0.8705  0.7188
 1775SOL     OW16960   3.016   1.363   7.321 -0.9744  0.6510 -0.1341
 1775SOL    HW116961   3.036   1.352   7.414  0.8503  0.8183 -0.5094
 1775SOL    HW216962   3.035   1.274   7.292 -1.1504  1.1287 -1.7035
 1776SOL     OW16963   3.217   1.049   0.112  0.1503 -0.3009 -1.0107
 1776SOL    HW116964   3.152   1.006   0.056 -1.2320 -1.7255  1.6887
 1776SOL    HW216965   3.167   1.086   0.184  0.0689 -0.2223 -1.1073
 1777SOL     OW16966   0.206   4.279  12.123  0.3312  0.3231  0.0129
 1777SOL    HW116967   0.140   4.261  12.190 -0.7406 -0.8803 -1.3749
 1777SOL    HW216968   0.282   4.293  12.179  1.1121  1.8749 -1.4380
 1778SOL     OW16969   3.297   0.641   6.857  0.3704  0.2387  0.3900
 1778SOL    HW116970   3.299   0.712   6.922 -0.4483  0.6741 -0.0566
 1778SOL    HW216971   3.292   0.693   6.777 -1.0001  1.3734  1.2030
 1779SOL     OW16972   1.426   2.417   2.884  0.2159 -0.3431 -0.0451
 1779SOL    HW116973   1.404   2.408   2.977 -0.4985 -1.5039 -0.3298
 1779SOL    HW216974   1.348   2.384   2.840 -0.3188 -0.9970  1.3816
 1780SOL     OW16975   1.940   1.668  16.197 -0.2349  0.2249 -0.5801
 1780SOL    HW116976   1.900   1.742  16.152 -1.1454  0.9038  1.3167
 1780SOL    HW216977   1.995   1.711  16.262 -1.0624 -0.2186  0.4223
 1781SOL     OW16978   4.445   1.490  10.469 -0.2990  0.2133 -0.0336
 1781SOL    HW116979   4.514   1.484  10.402  0.2053  1.7802  0.3507
 1781SOL    HW216980   4.475   1.567  10.518 -0.9356  1.4116 -1.5230
 1782SOL     OW16981   4.065   0.239  16.020 -0.4090 -0.1110 -0.1835
 1782SOL    HW116982   4.008   0.281  15.956  1.1725 -1.2234 -2.3399
 1782SOL    HW216983   4.007   0.248  16.096 -0.6095  3.1193 -0.7111
 1783SOL     OW16984   0.856   1.864   2.240 -0.5014  0.0676 -0.9694
 1783SOL    HW116985   0.867   1.950   2.200 -2.8651  0.5180 -0.6057
 1783SOL    HW216986   0.799   1.824   2.174  0.3944 -1.6599 -0.7188
 1784SOL     OW16987   3.632   0.409   4.255 -0.0309 -0.0384 -0.4392
 1784SOL    HW116988   3.643   0.426   4.162 -0.6264  0.4217 -0.4291
 1784SOL    HW216989   3.700   0.342   4.256 -0.9426 -0.9502  1.7955
 1785SOL     OW16990   2.364   1.746  14.180 -0.8035  0.0317 -0.1176
 1785SOL    HW116991   2.395   1.718  14.267 -2.3882 -2.9765 -0.5228
 1785SOL    HW216992   2.392   1.668  14.133  1.8102 -0.5230  2.3461
 1786SOL     OW16993   3.798   3.103   8.125  0.0502  0.4687 -0.1566
 1786SOL    HW116994   3.728   3.039   8.110 -0.7399  1.1387  0.6818
 1786SOL    HW216995   3.820   3.110   8.032 -0.1889  0.3799 -0.2191
 1787SOL     OW16996   1.922   1.734  11.141  0.6336  0.2243  0.0022
 1787SOL    HW116997   1.987   1.769  11.081 -1.5322 -1.9985 -3.6105
 1787SOL    HW216998   1.887   1.657  11.097 -0.6682  0.6421  0.3053
 1788SOL     OW16999   3.796   0.981   7.528  0.2661  0.2495  0.9458
 1788SOL    HW117000   3.800   1.057   7.587  0.8563  1.5513 -0.7916
 1788SOL    HW217001   3.867   0.996   7.466 -0.6574 -0.0227 -0.1582
 1789SOL     OW17002   1.326   0.223   8.728 -0.6953 -0.0504 -0.0029
 1789SOL    HW117003   1.268   0.240   8.803 -1.7016  1.2009 -1.0620
 1789SOL    HW217004   1.269   0.180   8.664  0.3184 -2.4940  0.7452
 1790SOL     OW17005   1.376   0.260   3.932  0.1420  0.7094 -0.9773
 1790SOL    HW117006   1.319   0.213   3.872 -2.9240  1.6254  1.1506
 1790SOL    HW217007   1.453   0.217   3.896  0.2761  0.5976 -0.5570
 1791SOL     OW17008   3.703   1.388  11.985 -0.0184 -0.1199 -0.1659
 1791SOL    HW117009   3.760   1.321  12.023 -0.9789  0.0147  1.5312
 1791SOL    HW217010   3.644   1.338  11.928 -1.2615  0.5534  0.5358
 1792SOL     OW17011   1.164   0.379  14.659  0.4785 -0.3731  0.5792
 1792SOL    HW117012   1.088   0.339  14.616 -1.4277  2.6990  1.0920
 1792SOL    HW217013   1.128   0.457  14.701 -0.5093  0.5356 -1.9723
 1793SOL     OW17014   2.417   0.147  16.090 -0.2508  0.1141  0.1179
 1793SOL    HW117015   2.354   0.121  16.023 -0.0941  2.5132 -0.9679
 1793SOL    HW217016   2.372   0.211  16.145  0.0530 -0.4493  1.0059
 1794SOL     OW17017   1.664   1.231   9.403  0.3217 -0.9042  0.1045
 1794SOL    HW117018   1.675   1.320   9.370 -1.6521 -1.4049 -1.9080
 1794SOL    HW217019   1.669   1.172   9.327 -1.2574  0.0673 -0.7640
 1795SOL     OW17020   1.802   4.433   3.600  0.0392 -0.5503  0.0298
 1795SOL    HW117021   1.833   4.465   3.685 -3.7125  1.4283  0.6572
 1795SOL    HW217022   1.880   4.409   3.551 -0.4582 -1.3620 -0.3616
 1796SOL     OW17023   2.667   1.394  12.975 -0.0889  0.1145  0.0278
 1796SOL    HW117024   2.722   1.364  12.902 -2.4888 -0.2767 -1.6302
 1796SOL    HW217025   2.615   1.463  12.934 -0.9605 -1.4759 -1.5580
 1797SOL     OW17026   0.381   1.087   5.683  0.7339 -0.2351  0.2880
 1797SOL    HW117027   0.287   1.104   5.696  0.2347 -2.0219 -0.9444
 1797SOL    HW217028   0.384   1.132   5.599  0.8363 -0.2967  0.2585
 1798SOL     OW17029   4.285   1.966   6.324  0.3933  0.7003  0.1491
 1798SOL    HW117030   4.358   2.000   6.377 -0.8004 -0.5652  2.5869
 1798SOL    HW217031   4.210   1.984   6.381 -0.5584  0.1418 -0.9383
 1799SOL     OW17032   4.056   3.607   3.357  0.0738  0.3422  0.1527
 1799SOL    HW117033   3.997   3.677   3.330  0.5989  1.1211  1.0503
 1799SOL    HW217034   4.031   3.603   3.449 -1.0412 -1.0654 -0.1985
 1800SOL     OW17035   1.418   0.368   8.236 -0.4248 -0.2604  0.5000
 1800SOL    HW117036   1.424   0.275   8.259 -0.0997 -0.2817  0.3229
 1800SOL    HW217037   1.444   0.405   8.320 -2.9564  2.1931  0.2054
 1801SOL     OW17038   0.323   1.970   4.741 -0.0302  0.4489  0.0880
 1801SOL    HW117039   0.268   2.014   4.676  0.6678  0.4796 -0.4809
 1801SOL    HW217040   0.264   1.898   4.763  1.0551 -1.2322 -2.4423
 1802SOL     OW17041   4.404   1.558   8.366  0.1390  0.4208  0.6304
 1802SOL    HW117042   4.406   1.528   8.276 -1.4646  1.5008  0.2348
 1802SOL    HW217043   4.442   1.645   8.354  0.0309  0.5058  0.8960
 1803SOL     OW17044   0.900   2.626  13.497 -0.5209 -0.1527  0.0921
 1803SOL    HW117045   0.881   2.561  13.430  1.6353 -0.6907 -0.0171
 1803SOL    HW217046   0.996   2.636  13.496 -0.7397  1.9734  0.1432
 1804SOL     OW17047   0.453   3.833   6.864 -0.4832  0.2018  0.3401
 1804SOL    HW117048   0.376   3.816   6.809  0.1968 -2.7488  0.2537
 1804SOL    HW217049   0.500   3.890   6.803 -1.8248 -0.0105 -0.8846
 1805SOL     OW17050   4.732   3.961   4.427 -0.5834 -0.1019  0.6580
 1805SOL    HW117051   4.699   3.999   4.346  1.1048  1.5630  0.7247
 1805SOL    HW217052   4.664   4.001   4.481 -1.3238  1.3474 -1.3789
 1806SOL     OW17053   3.285   1.454  15.328 -0.4348 -0.1435  0.1168
 1806SOL    HW117054   3.325   1.498  15.402  1.7045  1.3718 -1.9583
 1806SOL    HW217055   3.195   1.489  15.327 -1.4386 -2.6722  1.9268
 1807SOL     OW17056   4.193   1.312   2.261 -0.4024 -0.0287  0.6216
 1807SOL    HW117057   4.224   1.288   2.348  1.6727  0.0689 -0.0983
 1807SOL    HW217058   4.108   1.269   2.249  0.8032 -2.2145 -0.2593
 1808SOL     OW17059   0.709   3.872  13.022 -0.7367  0.0449  0.5304
 1808SOL    HW117060   0.763   3.951  13.021  0.1324 -0.5506  0.7306
 1808SOL    HW217061   0.731   3.838  13.108 -2.4122  1.1512  1.3940
 1809SOL     OW17062   1.404   3.481   5.073 -0.3830 -0.2272 -0.0528
 1809SOL    HW117063   1.425   3.536   4.998  2.2535  0.6012  1.2831
 1809SOL    HW217064   1.384   3.399   5.029  1.1541 -0.3367 -0.5486
 1810SOL     OW17065   0.561   1.725   3.019  0.1127  0.2263 -0.2197
 1810SOL    HW117066   0.604   1.640   3.029  0.7082  0.7120  1.3689
 1810SOL    HW217067   0.517   1.705   2.936 -1.9803  3.4543  0.1178
 1811SOL     OW17068   4.525   2.270  13.589  0.2888 -0.1086 -0.3589
 1811SOL    HW117069   4.502   2.351  13.634  2.6931 -1.2847  3.0260
 1811SOL    HW217070   4.596   2.237  13.645  0.2753  1.3650  0.5307
 1812SOL     OW17071   3.212   2.333  15.319 -0.4850 -0.0494 -0.1547
 1812SOL    HW117072   3.266   2.392  15.266 -3.5763  0.5012 -2.6896
 1812SOL    HW217073   3.139   2.391  15.342  0.6548  1.5000 -0.3784
 1813SOL     OW17074   3.379   2.807   7.744 -0.1305 -0.1755  0.7715
 1813SOL    HW117075   3.354   2.722   7.780 -3.7339  0.0077 -1.2995
 1813SOL    HW217076   3.449   2.789   7.681 -0.4873  1.3703 -0.0657
 1814SOL     OW17077   0.204   4.719   1.869 -0.0776 -0.3069  0.1278
 1814SOL    HW117078   0.111   4.734   1.854 -0.7713 -3.2893  1.3476
 1814SOL    HW217079   0.213   4.663   1.946  2.4950 -1.3603 -0.9251
 1815SOL     OW17080   1.382   3.736   3.147  0.6446  0.0277  0.1374
 1815SOL    HW117081   1.323   3.661   3.136 -0.8123  1.1097  0.4586
 1815SOL    HW217082   1.352   3.758   3.235 -1.1383  3.1703 -1.2533
 1816SOL     OW17083   2.320   2.546   4.479  0.1235 -0.4328 -0.5434
 1816SOL    HW117084   2.335   2.514   4.568  0.0532 -2.5792 -1.3091
 1816SOL    HW217085   2.304   2.462   4.435 -0.2942 -0.6490  0.0351
 1817SOL     OW17086   0.389   2.924   2.378  0.0053 -0.2293  0.3710
 1817SOL    HW117087   0.383   2.859   2.308  0.1069  0.0153  0.1297
 1817SOL    HW217088   0.423   2.999   2.328  1.4854  0.5131  2.5024
 1818SOL     OW17089   3.218   0.485   3.238  0.0020 -0.1157  0.3482
 1818SOL    HW117090   3.160   0.557   3.265  0.3779  0.5794 -0.6983
 1818SOL    HW217091   3.243   0.440   3.319  2.8278  1.8786  0.5924
 1819SOL     OW17092   3.920   4.532   2.520 -0.0061 -0.1754 -0.2294
 1819SOL    HW117093   3.926   4.627   2.519 -1.5019 -0.0503  2.0161
 1819SOL    HW217094   3.838   4.520   2.472  1.6867 -1.1503 -2.9044
 1820SOL     OW17095   0.498   2.872  11.432 -0.2116 -0.1759  0.0626
 1820SOL    HW117096   0.495   2.960  11.394 -0.6636 -0.6733 -1.0562
 1820SOL    HW217097   0.588   2.843  11.415  0.4520  1.1788  1.2640
 1821SOL     OW17098   2.226   4.514   8.359  0.2546 -0.2934 -0.1088
 1821SOL    HW117099   2.161   4.557   8.305 -0.4006 -3.0234 -1.4927
 1821SOL    HW217100   2.187   4.505   8.446  0.6826  2.2032  0.3314
 1822SOL     OW17101   1.510   1.816   0.896 -0.2644 -0.6908 -0.5825
 1822SOL    HW117102   1.460   1.745   0.855  1.1280 -1.2447 -1.3005
 1822SOL    HW217103   1.518   1.769   0.978  1.5225  0.4552 -0.1077
 1823SOL     OW17104   0.423   4.468   9.819  0.6348 -0.0556 -0.0258
 1823SOL    HW117105   0.516   4.464   9.844  1.1382  1.8261 -1.6152
 1823SOL    HW217106   0.418   4.553   9.776  0.2424 -0.2246 -0.3130
 1824SOL     OW17107   1.545   0.368   8.690  0.4057 -0.0494  0.3888
 1824SOL    HW117108   1.469   0.312   8.701 -1.5505  1.8471 -3.4434
 1824SOL    HW217109   1.535   0.422   8.768  1.0537 -0.0711  0.4939
 1825SOL     OW17110   0.804   2.235   2.736  0.2941 -0.3248 -0.9042
 1825SOL    HW117111   0.887   2.196   2.707  0.8186  2.1207 -2.6960
 1825SOL    HW217112   0.806   2.218   2.831 -0.4508 -1.6440 -1.1213
 1826SOL     OW17113   3.643   1.156   4.049 -0.3453 -0.3437 -0.0319
 1826SOL    HW117114   3.596   1.221   4.101  0.2835  2.1851 -2.5972
 1826SOL    HW217115   3.667   1.203   3.968  1.0876  0.3938  0.8131
 1827SOL     OW17116   0.033   4.456   7.470  0.0941  0.0368  0.2125
 1827SOL    HW117117   0.012   4.404   7.547  2.7841 -3.0496 -1.1753
 1827SOL    HW217118   4.713   4.408   7.410 -0.7363  2.6594 -1.1224
 1828SOL     OW17119   1.552   3.812   4.998  0.4164 -0.0791 -0.1112
 1828SOL    HW117120   1.645   3.799   5.015  0.1296 -0.7280  0.9798
 1828SOL    HW217121   1.531   3.754   4.925  0.6599  0.5070 -0.6447
 1829SOL     OW17122   1.254   4.131   8.211  0.8562  0.2444 -0.6421
 1829SOL    HW117123   1.284   4.053   8.164  1.4948  0.0046  0.1714
 1829SOL    HW217124   1.304   4.128   8.292 -0.1387 -0.2994 -0.0429
 1830SOL     OW17125   3.039   3.817   7.941 -0.7871 -0.2015  0.5189
 1830SOL    HW117126   2.965   3.795   7.884 -1.3869 -0.4113  1.3830
 1830SOL    HW217127   2.997   3.880   8.001  1.2856  0.6993  1.0042
 1831SOL     OW17128   4.148   1.024  15.636  0.5702 -0.0988 -0.5496
 1831SOL    HW117129   4.154   1.116  15.611 -0.0292 -0.3859 -1.7703
 1831SOL    HW217130   4.150   0.980  15.551  0.0385 -2.9185  0.9225
 1832SOL     OW17131   2.234   3.345   9.717  0.1143 -0.0424 -0.5920
 1832SOL    HW117132   2.195   3.432   9.706  0.3516  0.2641  1.0034
 1832SOL    HW217133   2.313   3.347   9.664 -0.9561  2.0262 -2.1013
 1833SOL     OW17134   1.415   4.321   5.860 -0.4675  0.6741  0.2714
 1833SOL    HW117135   1.462   4.259   5.917  0.6396 -0.5575 -2.0033
 1833SOL    HW217136   1.420   4.288   5.771  0.7838  0.6135  0.3679
 1834SOL     OW17137   1.223   3.459   8.618  0.6797 -0.0207  0.1972
 1834SOL    HW117138   1.284   3.413   8.676 -2.6924 -2.7519  1.5388
 1834SOL    HW217139   1.210   3.382   8.563 -0.9629 -0.0229  0.5818
 1835SOL     OW17140   3.550   1.173   2.479  0.1665 -0.1106 -0.3631
 1835SOL    HW117141   3.559   1.121   2.559  0.7236 -0.4466 -0.6418
 1835SOL    HW217142   3.630   1.225   2.479  0.2165 -0.1805  0.9347
 1836SOL     OW17143   0.700   0.251   3.898  0.0070  0.3098 -0.2986
 1836SOL    HW117144   0.783   0.284   3.864  0.3879 -1.0931 -0.7345
 1836SOL    HW217145   0.697   0.162   3.864 -2.3458  1.2675 -2.5467
 1837SOL     OW17146   1.871   3.355   2.174  0.5540  0.0695  0.2741
 1837SOL    HW117147   1.963   3.369   2.199  0.5729 -1.0741  0.8179
 1837SOL    HW217148   1.879   3.261   2.187 -0.7183 -0.4459 -2.9189
 1838SOL     OW17149   1.493   1.424   8.500 -0.1741 -0.7638  0.6981
 1838SOL    HW117150   1.442   1.503   8.515  0.4683 -0.4454  1.1941
 1838SOL    HW217151   1.579   1.458   8.472 -0.7160  0.9524  1.1339
 1839SOL     OW17152   4.209   4.734   7.283 -0.8885  0.0209  0.7494
 1839SOL    HW117153   4.259   0.078   7.289 -0.3669 -0.0777 -2.1157
 1839SOL    HW217154   4.226   4.713   7.191  0.5917  0.8588  0.8374
 1840SOL     OW17155   2.884   4.583   6.279 -0.0807  0.6441  0.1292
 1840SOL    HW117156   2.853   4.493   6.273  2.0748 -0.1733  1.2718
 1840SOL    HW217157   2.966   4.565   6.325 -0.1610 -1.9744 -0.7217
 1841SOL     OW17158   2.021   0.413   3.114  0.3727  0.4624  0.5128
 1841SOL    HW117159   1.993   0.361   3.039 -0.5466 -0.9504  1.8422
 1841SOL    HW217160   1.977   0.362   3.183 -0.1403  1.7122  1.1178
 1842SOL     OW17161   2.284   3.332   2.478  0.0809  0.5726 -0.4503
 1842SOL    HW117162   2.343   3.407   2.476 -1.4458  1.8778  2.7567
 1842SOL    HW217163   2.357   3.282   2.514 -1.4694 -1.8656 -0.7066
 1843SOL     OW17164   4.559   3.625   1.181  0.2089  0.3098 -0.3057
 1843SOL    HW117165   4.591   3.556   1.239  0.0851 -0.9581 -1.7408
 1843SOL    HW217166   4.636   3.679   1.197  1.3079 -1.8608  1.6791
 1844SOL     OW17167   2.100   2.285   4.436  1.4308  0.0533 -0.3517
 1844SOL    HW117168   2.086   2.222   4.507  1.0761 -1.3491 -1.6597
 1844SOL    HW217169   2.119   2.216   4.372 -0.9561  1.0440 -2.1502
 1845SOL     OW17170   1.527   0.888   9.472 -0.2786 -0.2630 -0.3026
 1845SOL    HW117171   1.491   0.828   9.407  0.1665 -0.8100 -0.0455
 1845SOL    HW217172   1.462   0.890   9.542  0.8209  2.2052  0.6605
 1846SOL     OW17173   0.621   3.555   3.777  0.5125  0.1278 -0.1127
 1846SOL    HW117174   0.689   3.615   3.748 -1.6268  2.4702 -0.2340
 1846SOL    HW217175   0.649   3.532   3.866 -1.3421  0.7436  0.6352
 1847SOL     OW17176   0.177   4.463   2.814 -0.0502 -0.6351  0.1536
 1847SOL    HW117177   0.189   4.432   2.724  0.5933 -0.0239  0.0276
 1847SOL    HW217178   0.218   4.402   2.875 -1.7119 -1.9022 -0.0154
 1848SOL     OW17179   1.818   3.174   8.819  0.5300 -0.2168  0.4909
 1848SOL    HW117180   1.750   3.222   8.867 -0.2402 -0.9114  0.0865
 1848SOL    HW217181   1.832   3.245   8.757 -2.9653  0.1358  0.1120
 1849SOL     OW17182   3.022   1.762   2.391  0.3353  0.5546 -0.4898
 1849SOL    HW117183   3.029   1.854   2.363  0.2480 -0.1643 -2.8598
 1849SOL    HW217184   2.932   1.736   2.372  0.3656 -0.7602  1.1674
 1850SOL     OW17185   3.514   1.538   7.551  0.0821 -0.3621 -0.0875
 1850SOL    HW117186   3.439   1.553   7.493  0.2762  0.7420 -0.0505
 1850SOL    HW217187   3.553   1.468   7.498 -1.8802 -1.0479 -0.6368
 1851SOL     OW17188   3.152   1.962   4.937  0.6294 -0.3199  0.1794
 1851SOL    HW117189   3.229   2.019   4.926  0.0381  0.2597 -0.9446
 1851SOL    HW217190   3.122   1.993   5.022 -0.0267  0.4758 -0.3441
 1852SOL     OW17191   3.531   4.325   8.581  0.1164  0.1000 -0.2547
 1852SOL    HW117192   3.592   4.318   8.508 -1.4301 -1.9877 -1.3359
 1852SOL    HW217193   3.470   4.397   8.563  0.1148 -0.3421 -2.0151
 1853SOL     OW17194   2.369   1.002   5.382 -0.2985 -0.4943 -0.5322
 1853SOL    HW117195   2.430   0.977   5.450 -0.6116  0.7637  0.2108
 1853SOL    HW217196   2.391   0.940   5.313  0.4058  1.1174 -1.7595
 1854SOL     OW17197   0.529   4.049   6.695  0.0231 -0.6956 -0.1394
 1854SOL    HW117198   0.475   4.102   6.754  2.3977  2.1925 -0.5598
 1854SOL    HW217199   0.465   4.003   6.640 -2.5117  0.1971  2.0158
 1855SOL     OW17200   1.489   0.287   7.769  0.1539 -0.9375 -0.2451
 1855SOL    HW117201   1.410   0.233   7.768 -0.3641 -0.1679 -1.1334
 1855SOL    HW217202   1.477   0.310   7.677  0.8128 -2.7136 -0.7768
 1856SOL     OW17203   3.144   1.814  15.459 -0.0819  0.2367 -0.2162
 1856SOL    HW117204   3.085   1.823  15.534  0.7335  0.6980  0.3677
 1856SOL    HW217205   3.125   1.892  15.408 -0.4347  0.9274  0.9862
 1857SOL     OW17206   0.952   4.010   4.957 -0.4624 -0.0166 -0.5962
 1857SOL    HW117207   0.907   4.094   4.962  0.2286  0.3720 -0.9974
 1857SOL    HW217208   0.960   4.000   5.052  0.5560 -0.0118 -0.6817
 1858SOL     OW17209   4.605   2.232  12.199  0.3849  0.7921  0.2804
 1858SOL    HW117210   4.615   2.174  12.123  0.5971  0.8141  0.2902
 1858SOL    HW217211   4.538   2.290  12.165  1.4536  1.1801 -1.1574
 1859SOL     OW17212   0.166   1.086  17.557 -0.0104  0.4072  0.6474
 1859SOL    HW117213   0.079   1.122  17.575  0.4233  0.8164  1.9023
 1859SOL    HW217214   0.194   1.131  17.477  0.1678 -0.7855  0.0382
 1860SOL     OW17215   3.637   2.814   7.571 -0.2142 -0.4087 -0.6976
 1860SOL    HW117216   3.719   2.864   7.568  0.0336 -0.7913 -0.1875
 1860SOL    HW217217   3.578   2.880   7.535  1.9512  1.8824 -0.1019
 1861SOL     OW17218   3.467   3.065   4.980 -0.6410  0.4367  0.2203
 1861SOL    HW117219   3.526   3.140   4.987  0.9295 -0.8984  1.3289
 1861SOL    HW217220   3.521   2.990   5.006 -1.1014 -0.0498 -0.2217
 1862SOL     OW17221   1.126   0.572   8.741 -0.4086 -0.5573  0.4424
 1862SOL    HW117222   1.154   0.486   8.770  2.3834  0.0371 -0.5012
 1862SOL    HW217223   1.181   0.569   8.662  0.1345 -2.0728  0.8764
 1863SOL     OW17224   2.245   0.278  15.060 -0.0714  0.2623 -0.1492
 1863SOL    HW117225   2.218   0.344  15.124  2.3835 -0.1326  1.3126
 1863SOL    HW217226   2.301   0.330  15.001 -1.7222  0.4893 -1.5207
 1864SOL     OW17227   4.411   2.334  10.755  0.2134 -0.8061  0.0091
 1864SOL    HW117228   4.344   2.280  10.712  0.0515 -0.6089  0.0102
 1864SOL    HW217229   4.358   2.339  10.835 -1.6349  0.7076 -1.2930
 1865SOL     OW17230   4.424   1.740   8.740  0.4278 -0.1024 -0.2775
 1865SOL    HW117231   4.465   1.658   8.711  1.7454  0.2261  0.6770
 1865SOL    HW217232   4.330   1.720   8.736  0.3410  0.2526 -0.0132
 1866SOL     OW17233   3.207   0.190   2.776  0.4194  0.1854 -0.0339
 1866SOL    HW117234   3.112   0.198   2.781  0.6565  2.1703  1.6799
 1866SOL    HW217235   3.239   0.264   2.828 -1.1978  0.4263  0.6282
 1867SOL     OW17236   2.492   0.530   8.676 -0.1253 -0.1524 -0.0410
 1867SOL    HW117237   2.490   0.444   8.720 -1.1269 -1.2425 -2.2391
 1867SOL    HW217238   2.583   0.548   8.702 -0.1313 -0.8822  0.5040
 1868SOL     OW17239   3.399   3.724   9.519  0.0602  0.2569  0.7672
 1868SOL    HW117240   3.343   3.733   9.442  1.0100  0.4952  0.1053
 1868SOL    HW217241   3.349   3.666   9.577 -2.5336 -1.3487 -3.1231
 1869SOL     OW17242   3.159   3.692  10.440  0.5962 -0.3114  0.1054
 1869SOL    HW117243   3.177   3.683  10.534 -0.8197  0.2598  0.4384
 1869SOL    HW217244   3.115   3.776  10.433 -0.9482 -1.1039  0.1705
 1870SOL     OW17245   0.766   1.376  10.644 -0.0337 -0.9593 -0.2299
 1870SOL    HW117246   0.705   1.411  10.709 -0.1077 -1.1877 -0.1769
 1870SOL    HW217247   0.849   1.366  10.689 -0.7614  1.4353  1.6448
 1871SOL     OW17248   1.200   0.934   2.451 -0.3538  0.1022 -0.9764
 1871SOL    HW117249   1.225   0.855   2.403  1.0389  0.3353 -0.6160
 1871SOL    HW217250   1.286   0.941   2.492 -0.7145  3.0005 -0.7182
 1872SOL     OW17251   1.393   0.970   8.136  0.3004  0.1482 -0.8104
 1872SOL    HW117252   1.423   0.884   8.108 -0.0167 -1.2053  2.9424
 1872SOL    HW217253   1.456   0.987   8.206  0.0811 -0.4556 -0.4698
 1873SOL     OW17254   2.219   0.257   2.344  0.4938  0.0049  0.2392
 1873SOL    HW117255   2.275   0.333   2.364  1.1517 -0.5559  0.5498
 1873SOL    HW217256   2.143   0.298   2.304 -1.2297 -2.1406  1.3202
 1874SOL     OW17257   3.817   4.506   5.447 -0.7945  0.5532 -0.1320
 1874SOL    HW117258   3.815   4.501   5.543  1.7188 -2.2120 -0.2161
 1874SOL    HW217259   3.733   4.460   5.444 -0.8612  0.7788 -1.5244
 1875SOL     OW17260   2.434   1.862  17.647  0.1147  0.0546 -0.0853
 1875SOL    HW117261   2.431   1.957  17.651 -1.8615 -0.0870  2.2335
 1875SOL    HW217262   2.434   1.833  17.738  1.3823 -2.2320 -0.8101
 1876SOL     OW17263   4.248   1.139   4.105 -0.9369  0.6422 -0.4846
 1876SOL    HW117264   4.269   1.114   4.015 -0.7879  0.5920 -0.4350
 1876SOL    HW217265   4.303   1.091   4.167 -0.6882  1.0112 -0.4177
 1877SOL     OW17266   1.594   3.762  13.608 -0.3244 -0.3912  0.3233
 1877SOL    HW117267   1.553   3.689  13.561 -3.0399  3.0395 -2.6767
 1877SOL    HW217268   1.522   3.773  13.670 -0.1228 -1.5917  0.7677
 1878SOL     OW17269   2.669   0.383   4.494  0.5030  0.6563 -0.2715
 1878SOL    HW117270   2.640   0.404   4.583  1.8813 -1.7441  0.7201
 1878SOL    HW217271   2.609   0.314   4.465 -0.1355  0.9071  0.4850
 1879SOL     OW17272   0.180   4.305   5.086 -0.0602  0.1610 -0.5090
 1879SOL    HW117273   0.215   4.284   4.999  1.7959 -0.4861  0.3888
 1879SOL    HW217274   0.132   4.224   5.105  1.3267 -0.5194  0.1090
 1880SOL     OW17275   4.204   4.373   4.988  0.6780 -0.1938 -0.4189
 1880SOL    HW117276   4.124   4.327   4.962  0.8293 -0.5032 -0.3333
 1880SOL    HW217277   4.181   4.461   4.958 -3.1286 -1.3641 -0.9915
 1881SOL     OW17278   2.886   0.055   2.338 -0.0577  0.4075  0.4101
 1881SOL    HW117279   2.809   0.002   2.318 -1.0569  1.5571  1.2650
 1881SOL    HW217280   2.904   0.113   2.264  0.3704 -1.0468 -0.6145
 1882SOL     OW17281   3.939   1.287   3.022  0.2152 -0.0428  0.2989
 1882SOL    HW117282   3.995   1.312   3.095 -1.7882  0.6549  1.6143
 1882SOL    HW217283   3.867   1.350   3.032  0.5749  0.2755  0.8333
 1883SOL     OW17284   2.905   3.878  13.620  0.0998  0.3397 -0.5620
 1883SOL    HW117285   2.939   3.798  13.582  0.3732  1.4449 -2.6554
 1883SOL    HW217286   2.817   3.843  13.634  0.6724 -1.6572 -2.0257
 1884SOL     OW17287   2.359   3.393   5.011  0.2669 -0.1995  0.5297
 1884SOL    HW117288   2.339   3.485   4.993 -0.8390 -0.5940 -0.2974
 1884SOL    HW217289   2.335   3.352   4.927  2.7411 -0.2838 -0.1399
 1885SOL     OW17290   3.273   2.898  16.523  0.0333  0.1466 -0.5817
 1885SOL    HW117291   3.229   2.964  16.469  0.0040  1.0176  0.5070
 1885SOL    HW217292   3.223   2.905  16.605  0.7643  0.7058 -0.1831
 1886SOL     OW17293   1.148   0.796   8.335  0.2674 -0.2410  0.1846
 1886SOL    HW117294   1.179   0.870   8.387  0.5751 -0.5443  0.4348
 1886SOL    HW217295   1.232   0.762   8.303  0.5041  1.5955 -1.1910
 1887SOL     OW17296   1.429   0.723   0.666 -0.0962 -0.2940  0.3893
 1887SOL    HW117297   1.433   0.696   0.574  0.8208  2.2837 -0.3415
 1887SOL    HW217298   1.494   0.669   0.709  0.8724  0.3639 -0.2516
 1888SOL     OW17299   2.742   2.961   8.758  0.6821  0.4099  0.1887
 1888SOL    HW117300   2.773   2.960   8.849  1.0585 -3.0131  0.0475
 1888SOL    HW217301   2.740   2.867   8.738  0.1023 -0.0261  2.2256
 1889SOL     OW17302   1.816   3.269  14.017  0.0606 -0.0805  0.6179
 1889SOL    HW117303   1.779   3.185  13.990  1.3164 -0.4661  0.1059
 1889SOL    HW217304   1.807   3.320  13.936 -3.1070  0.0769  1.0665
 1890SOL     OW17305   2.319   2.381   7.194  0.7812 -0.4234  0.5246
 1890SOL    HW117306   2.270   2.442   7.250  1.2410  0.7160 -0.3086
 1890SOL    HW217307   2.248   2.318   7.183  0.7966 -0.4435  0.5370
 1891SOL     OW17308   0.099   3.245   3.136  0.7921  0.4346  0.6675
 1891SOL    HW117309   0.093   3.305   3.210 -4.2729  1.2457 -0.3779
 1891SOL    HW217310   0.064   3.164   3.174  1.0678  0.8755  1.8518
 1892SOL     OW17311   0.997   0.136   8.322 -0.6562  0.2431 -0.3399
 1892SOL    HW117312   1.057   0.062   8.334 -1.4512 -0.1915  0.9856
 1892SOL    HW217313   0.920   0.097   8.281 -0.3523  0.3430 -1.0069
 1893SOL     OW17314   1.192   3.446  14.700 -0.3522 -0.6040 -0.0835
 1893SOL    HW117315   1.228   3.405  14.621  1.3009 -2.2298  1.5016
 1893SOL    HW217316   1.273   3.464  14.748 -1.3450  0.1536  1.3021
 1894SOL     OW17317   4.067   3.689   1.626 -0.8777  0.3778  0.0095
 1894SOL    HW117318   4.149   3.720   1.664  0.0983  1.8182 -3.2466
 1894SOL    HW217319   4.008   3.717   1.695  0.4757 -0.8587  1.6643
 1895SOL     OW17320   0.964   2.998   4.265 -0.5333 -0.5266  0.4219
 1895SOL    HW117321   0.969   3.029   4.175  2.0460 -1.4837  0.2206
 1895SOL    HW217322   1.052   3.023   4.293 -0.3583 -0.0547 -0.5561
 1896SOL     OW17323   1.844   2.981  13.726  0.2202  0.4575 -0.1388
 1896SOL    HW117324   1.846   3.073  13.698  1.4478  1.0524  1.9226
 1896SOL    HW217325   1.862   2.989  13.819  1.5688  0.7081 -0.4203
 1897SOL     OW17326   4.577   0.207   1.073 -0.8106  0.5344  0.1977
 1897SOL    HW117327   4.631   0.198   1.152 -1.7499  1.3698  0.9325
 1897SOL    HW217328   4.621   0.144   1.016 -0.1062 -1.7542  3.2143
 1898SOL     OW17329   2.763   3.300   2.532 -0.2364  0.2536 -0.2713
 1898SOL    HW117330   2.760   3.326   2.624 -1.5096 -0.8255 -0.0140
 1898SOL    HW217331   2.851   3.329   2.507 -0.4990  0.4285 -1.0030
 1899SOL     OW17332   0.402   2.078   9.187  0.0959 -0.1908 -0.0137
 1899SOL    HW117333   0.447   2.104   9.107  0.1520 -3.8100 -1.1705
 1899SOL    HW217334   0.461   2.109   9.256  0.9865  0.6513 -1.1681
 1900SOL     OW17335   2.870   2.501   6.734 -0.4521 -0.0413 -0.1953
 1900SOL    HW117336   2.815   2.550   6.673 -1.6297  0.8918  1.6080
 1900SOL    HW217337   2.928   2.455   6.674 -0.2540  1.0963 -0.8776
 1901SOL     OW17338   2.330   4.348   5.561  0.7580  0.8158  0.4629
 1901SOL    HW117339   2.244   4.316   5.532  0.3133  1.6418  0.8658
 1901SOL    HW217340   2.325   4.295   5.641  2.1122  1.1308  0.7500
 1902SOL     OW17341   0.315   0.530  12.906 -0.4332 -0.0926  0.2278
 1902SOL    HW117342   0.327   0.624  12.909  0.7094 -0.2879  1.6682
 1902SOL    HW217343   0.406   0.512  12.930 -0.7218  0.1386  1.4567
 1903SOL     OW17344   2.994   3.222  16.806  0.0383 -0.4283 -0.5090
 1903SOL    HW117345   2.993   3.177  16.721  1.6771  1.5230 -1.5729
 1903SOL    HW217346   2.949   3.303  16.781  0.1880 -0.9543 -2.4871
 1904SOL     OW17347   1.364   4.736  11.624  0.3129  0.6395 -0.5523
 1904SOL    HW117348   1.324   4.673  11.564 -1.6810  0.0425  1.4197
 1904SOL    HW217349   1.450   4.694  11.626  0.0912  0.2283  0.2473
 1905SOL     OW17350   0.935   3.528   4.691 -0.1774 -0.2686 -0.1591
 1905SOL    HW117351   0.841   3.545   4.684 -0.2412 -1.0553 -1.1307
 1905SOL    HW217352   0.942   3.515   4.786  2.2059  1.4569 -0.0895
 1906SOL     OW17353   4.086   0.735   7.975 -0.5762  0.2156  0.3696
 1906SOL    HW117354   4.090   0.793   8.051  1.8103  1.0464 -0.3680
 1906SOL    HW217355   4.126   0.655   8.011  0.5129 -0.3844 -2.1495
 1907SOL     OW17356   2.580   2.479   2.160 -0.1718  0.3139 -1.1832
 1907SOL    HW117357   2.605   2.426   2.085  0.0541 -1.4034  0.0968
 1907SOL    HW217358   2.490   2.504   2.138 -0.3105  1.4766  0.6402
 1908SOL     OW17359   4.332   2.405   8.869  0.3172  0.1682 -0.1603
 1908SOL    HW117360   4.360   2.315   8.885  3.1025  1.3727  1.7276
 1908SOL    HW217361   4.398   2.447   8.925 -1.3275 -0.1949  2.0673
 1909SOL     OW17362   0.174   4.431  14.830  0.5056 -0.1677  0.2006
 1909SOL    HW117363   0.160   4.515  14.787  0.6843  0.0650  0.5933
 1909SOL    HW217364   0.085   4.419  14.863 -0.2849 -1.5625 -2.4899
 1910SOL     OW17365   4.504   1.259   7.816  0.2639  0.4545 -0.0939
 1910SOL    HW117366   4.497   1.206   7.895 -0.8555 -0.3897 -0.7537
 1910SOL    HW217367   4.548   1.337   7.848  0.7049  0.2678 -0.2357
 1911SOL     OW17368   0.353   3.100   9.516  0.2153  0.1835  0.1925
 1911SOL    HW117369   0.261   3.112   9.541  0.0941  0.9981 -0.6542
 1911SOL    HW217370   0.388   3.068   9.600 -0.6081  1.0118  0.8606
 1912SOL     OW17371   1.178   3.490  10.817  0.4309 -0.3294 -0.3518
 1912SOL    HW117372   1.121   3.442  10.877  1.7687  0.9637  1.9382
 1912SOL    HW217373   1.245   3.426  10.796  2.2321  0.9676  1.4868
 1913SOL     OW17374   3.338   0.455   1.700  0.5269 -0.1183 -0.0996
 1913SOL    HW117375   3.355   0.393   1.771  1.4453 -0.1563 -0.3545
 1913SOL    HW217376   3.282   0.407   1.639  1.0077 -0.8592  0.0420
 1914SOL     OW17377   3.140   4.341   7.657  0.2803 -0.3530 -0.2044
 1914SOL    HW117378   3.226   4.361   7.619 -0.3208 -0.5684 -1.7020
 1914SOL    HW217379   3.103   4.428   7.670  0.7460 -0.1960  0.0797
 1915SOL     OW17380   1.598   4.548   5.834  0.6231  0.0424  0.4807
 1915SOL    HW117381   1.518   4.501   5.856 -0.2559  1.0902 -0.5021
 1915SOL    HW217382   1.597   4.630   5.884  0.5807  1.1564 -1.3531
 1916SOL     OW17383   1.939   0.503   2.640 -0.4172  0.5444  0.0308
 1916SOL    HW117384   1.926   0.592   2.671  2.3806  0.7835  0.5239
 1916SOL    HW217385   1.878   0.456   2.697 -0.4811  2.2964  1.4166
 1917SOL     OW17386   3.353   4.388   6.113  0.4179 -0.2093 -0.1472
 1917SOL    HW117387   3.374   4.397   6.020 -2.4922  0.3176 -0.7703
 1917SOL    HW217388   3.329   4.474   6.145 -1.6252 -0.6384 -0.4885
 1918SOL     OW17389   3.003   0.910   6.285  0.2452 -0.5530  0.2078
 1918SOL    HW117390   3.011   0.863   6.201 -1.3397 -3.4362  1.6534
 1918SOL    HW217391   2.923   0.873   6.323  0.8665  1.7990  3.7272
 1919SOL     OW17392   4.351   3.216   7.504 -0.3033 -0.5140 -0.8198
 1919SOL    HW117393   4.341   3.238   7.411 -1.2587 -0.6188 -0.7411
 1919SOL    HW217394   4.328   3.300   7.544  1.8491 -0.5250  0.4296
 1920SOL     OW17395   1.862   3.942   2.489 -0.1242 -0.1575 -0.3883
 1920SOL    HW117396   1.917   4.020   2.495 -0.7997  0.2678  0.3687
 1920SOL    HW217397   1.918   3.876   2.450  0.2433 -0.9068  1.3849
 1921SOL     OW17398   3.192   3.991  13.542 -0.3352  0.1905 -0.0782
 1921SOL    HW117399   3.120   4.024  13.488  1.6669  3.8538 -0.5213
 1921SOL    HW217400   3.238   4.070  13.567 -2.9439  1.5440  0.3817
 1922SOL     OW17401   2.281   4.220   8.678 -0.0435  0.7314 -0.4496
 1922SOL    HW117402   2.360   4.204   8.729  0.4804  0.4756 -1.3345
 1922SOL    HW217403   2.281   4.133   8.637  1.1021  0.3708  0.3294
 1923SOL     OW17404   2.189   1.571   7.693  0.0115 -0.0376 -0.2886
 1923SOL    HW117405   2.231   1.594   7.610 -0.2053  0.2226 -0.3277
 1923SOL    HW217406   2.116   1.519   7.660  1.8102 -2.2995 -0.6428
 1924SOL     OW17407   1.887   4.672   9.737 -0.7131  0.3409  0.4222
 1924SOL    HW117408   1.891   0.029   9.749  0.2786  0.2392  0.9417
 1924SOL    HW217409   1.954   4.640   9.798  0.9568  0.1538 -1.4920
 1925SOL     OW17410   3.717   3.290   2.814  0.0950 -0.1999  0.3587
 1925SOL    HW117411   3.750   3.205   2.840 -0.4565 -0.7816 -0.8495
 1925SOL    HW217412   3.761   3.295   2.730  0.3391 -1.2903  0.4258
 1926SOL     OW17413   4.006   4.425  13.881 -0.1552 -0.4222 -0.7900
 1926SOL    HW117414   3.964   4.395  13.801  0.2376 -1.3797 -0.6468
 1926SOL    HW217415   4.054   4.344  13.901  2.7522  1.4663 -0.1716
 1927SOL     OW17416   2.601   1.049  14.762 -0.6124  0.4879 -0.4120
 1927SOL    HW117417   2.598   0.976  14.824 -2.4910  0.5913 -0.3725
 1927SOL    HW217418   2.639   1.107  14.828 -2.4137 -0.2106  1.2494
 1928SOL     OW17419   1.264   2.666   3.101 -0.6119  0.0640  0.0856
 1928SOL    HW117420   1.300   2.748   3.068  0.7968 -1.0317 -1.0962
 1928SOL    HW217421   1.169   2.675   3.095 -0.4368  1.9903  0.2456
 1929SOL     OW17422   3.810   0.544   8.651  0.1483  0.0980  0.2261
 1929SOL    HW117423   3.783   0.624   8.697  1.8228 -0.0976  1.5290
 1929SOL    HW217424   3.867   0.581   8.584  2.3220 -0.2098  1.9155
 1930SOL     OW17425   3.453   0.411   3.432  0.4215  0.4361  0.6045
 1930SOL    HW117426   3.459   0.354   3.509  1.6198  0.5835  0.6167
 1930SOL    HW217427   3.497   0.355   3.368  0.4631  1.7156 -0.4845
 1931SOL     OW17428   1.199   0.471  15.491  0.1692 -0.2791  0.1779
 1931SOL    HW117429   1.221   0.499  15.580 -0.5589 -3.0179  1.2311
 1931SOL    HW217430   1.113   0.431  15.504  2.2006 -4.3518  1.1635
 1932SOL     OW17431   4.340   3.549   3.882  0.3908  0.4694  0.0581
 1932SOL    HW117432   4.263   3.606   3.889 -0.7792 -1.0126 -0.6778
 1932SOL    HW217433   4.301   3.462   3.874 -1.5026  1.0840  2.4602
 1933SOL     OW17434   3.187   0.770   5.070 -0.0325  0.4762 -0.0374
 1933SOL    HW117435   3.200   0.726   4.987  0.5133  0.2914  0.1498
 1933SOL    HW217436   3.234   0.851   5.050  1.0319  0.9353  4.2150
 1934SOL     OW17437   1.729   2.921   0.099  0.2356  0.1827 -0.3273
 1934SOL    HW117438   1.716   3.007   0.058  1.0118 -0.5099 -2.0244
 1934SOL    HW217439   1.816   2.931   0.137  0.6978  0.2054 -1.3923
 1935SOL     OW17440   3.573   1.957   1.264 -0.1298  0.2594 -0.1225
 1935SOL    HW117441   3.595   2.032   1.318  0.6051  0.1460 -0.2573
 1935SOL    HW217442   3.647   1.969   1.205  0.5415 -0.5382  0.5570
 1936SOL     OW17443   1.074   1.307  15.586  0.4036  0.2224 -0.1179
 1936SOL    HW117444   1.150   1.270  15.541 -0.8199  2.6058 -4.0788
 1936SOL    HW217445   1.107   1.282  15.673  1.9259  0.1831 -0.7054
 1937SOL     OW17446   3.588   2.057   9.733  0.3407  0.2087  0.3287
 1937SOL    HW117447   3.565   2.025   9.645  3.4686  0.6881 -0.6642
 1937SOL    HW217448   3.641   2.136   9.724  0.9841  0.1361  3.6293
 1938SOL     OW17449   2.833   2.540   6.988  0.0481 -0.4386  0.2265
 1938SOL    HW117450   2.742   2.522   6.964 -0.2193  0.5650  0.4968
 1938SOL    HW217451   2.874   2.518   6.904  1.0617  0.7310  0.4212
 1939SOL     OW17452   0.110   3.709   4.393  0.4519 -0.9500  0.4645
 1939SOL    HW117453   0.112   3.777   4.461  0.5587  0.7897 -1.2878
 1939SOL    HW217454   0.173   3.744   4.329 -0.5031 -0.3133 -0.1181
 1940SOL     OW17455   0.482   3.927  15.834  0.3492 -0.2185 -0.0509
 1940SOL    HW117456   0.451   3.913  15.744 -0.2594 -0.8447  0.2601
 1940SOL    HW217457   0.411   3.908  15.895 -0.7355  1.8122 -0.6630
 1941SOL     OW17458   3.367   3.697   6.701 -0.2332 -0.2678  0.3984
 1941SOL    HW117459   3.276   3.699   6.732 -0.6039  0.4180 -0.7341
 1941SOL    HW217460   3.348   3.718   6.610  0.4762 -0.6361  0.1684
 1942SOL     OW17461   3.327   1.902   5.980 -0.5891  0.2103  0.2881
 1942SOL    HW117462   3.255   1.906   6.044  0.1998 -0.3277  1.2016
 1942SOL    HW217463   3.396   1.917   6.045 -0.4555 -1.2328  0.4716
 1943SOL     OW17464   0.644   3.313   7.701  0.1852  0.0006  0.3165
 1943SOL    HW117465   0.717   3.268   7.743 -0.7365 -1.1221  0.6989
 1943SOL    HW217466   0.582   3.241   7.693 -0.7321  0.7017  1.2445
 1944SOL     OW17467   0.385   3.605  15.265  0.1003 -0.1147  0.1966
 1944SOL    HW117468   0.343   3.522  15.290  0.5196 -0.4817 -0.3259
 1944SOL    HW217469   0.448   3.612  15.337 -0.7152 -1.9574  1.0969
 1945SOL     OW17470   4.384   4.561   4.471  0.3551  0.4614  0.1979
 1945SOL    HW117471   4.406   4.610   4.551 -2.8224 -0.2655  1.5021
 1945SOL    HW217472   4.360   4.631   4.411  0.8083  0.7830  0.3850
 1946SOL     OW17473   1.739   0.220   5.024  0.1026 -1.0514 -0.2445
 1946SOL    HW117474   1.828   0.202   5.056 -0.1629 -0.1757  0.9699
 1946SOL    HW217475   1.766   0.255   4.939  0.6491 -0.3383  0.2222
 1947SOL     OW17476   0.459   4.288   1.629 -0.4908 -0.6359  0.2152
 1947SOL    HW117477   0.388   4.335   1.673 -1.0592 -1.8917  0.6594
 1947SOL    HW217478   0.533   4.301   1.688 -1.2371 -1.2197  1.2820
 1948SOL     OW17479   3.528   2.669   4.737 -0.5696  0.7322  0.5933
 1948SOL    HW117480   3.487   2.634   4.658  3.6362 -1.1349 -0.7510
 1948SOL    HW217481   3.545   2.585   4.778 -2.8974 -0.0769 -0.1159
 1949SOL     OW17482   2.014   4.552   3.765 -0.0786  0.5893  0.0592
 1949SOL    HW117483   2.001   4.553   3.860  2.0335  0.3512  0.3502
 1949SOL    HW217484   2.085   4.492   3.746  0.5027  1.3771 -0.2573
 1950SOL     OW17485   3.795   1.956   7.940  0.7202 -0.7593 -0.2851
 1950SOL    HW117486   3.753   2.024   7.993 -2.2683 -2.9666  0.1491
 1950SOL    HW217487   3.762   1.873   7.973  1.1440 -1.1189 -0.7686
 1951SOL     OW17488   2.042   1.220   6.325  0.3294  0.5812 -0.3578
 1951SOL    HW117489   2.089   1.230   6.242 -1.5791  2.6895 -1.1860
 1951SOL    HW217490   1.993   1.143   6.296 -0.9837  0.3883  2.3947
 1952SOL     OW17491   0.125   2.721   8.547 -0.4048 -0.2993 -0.4851
 1952SOL    HW117492   0.062   2.748   8.614 -0.6304  0.6756 -1.0765
 1952SOL    HW217493   0.191   2.790   8.556  0.0403 -0.7608 -0.2471
 1953SOL     OW17494   2.993   3.841   5.108  0.5928  0.3598 -0.3551
 1953SOL    HW117495   2.972   3.883   5.025 -0.9044  0.2113 -0.0430
 1953SOL    HW217496   2.952   3.901   5.171  0.3178 -0.0717 -0.1264
 1954SOL     OW17497   2.460   3.457   1.305 -0.1803 -0.0742  0.4285
 1954SOL    HW117498   2.445   3.365   1.330  0.4184 -0.3043 -0.0713
 1954SOL    HW217499   2.535   3.477   1.361  0.2173  0.1868 -0.2062
 1955SOL     OW17500   3.954   4.677   0.274 -0.0484  0.3179 -0.1193
 1955SOL    HW117501   3.970   4.627   0.355 -2.4930  0.3104  0.3865
 1955SOL    HW217502   4.013   0.015   0.281  0.1380  0.1225  0.4442
 1956SOL     OW17503   3.005   1.155   8.746  0.2610 -0.4464  0.2010
 1956SOL    HW117504   3.019   1.085   8.810  0.0465 -2.5249 -2.0100
 1956SOL    HW217505   3.081   1.210   8.760 -0.3343  0.1680  1.0432
 1957SOL     OW17506   0.620   2.411   4.259  0.3079 -0.5601 -0.5921
 1957SOL    HW117507   0.698   2.443   4.304  0.2420 -0.7643 -0.3324
 1957SOL    HW217508   0.632   2.316   4.253 -0.7117 -0.7727  0.6449
 1958SOL     OW17509   4.033   3.797  16.297  0.6439  0.9667  0.2595
 1958SOL    HW117510   4.122   3.771  16.322  0.9945  2.5691  0.6674
 1958SOL    HW217511   3.998   3.720  16.251  2.1273 -1.0252  2.4440
 1959SOL     OW17512   1.458   2.386  11.443 -1.0072 -0.4597  0.1152
 1959SOL    HW117513   1.455   2.436  11.525  2.1112 -0.2209  0.1154
 1959SOL    HW217514   1.369   2.361  11.421 -0.7626 -0.3398 -0.9979
 1960SOL     OW17515   0.566   1.491  12.060  0.1171  0.2954  0.3659
 1960SOL    HW117516   0.567   1.569  12.004 -0.8485  0.4098  0.5143
 1960SOL    HW217517   0.634   1.518  12.121  0.3327 -2.7595  1.4810
 1961SOL     OW17518   0.594   0.658   5.291  0.2429 -0.2860  0.0098
 1961SOL    HW117519   0.643   0.723   5.342 -2.6343  1.9959 -0.1681
 1961SOL    HW217520   0.538   0.615   5.355  2.4800  1.0521  2.8826
 1962SOL     OW17521   2.386   4.393   4.754 -0.5492  0.3183  0.6061
 1962SOL    HW117522   2.475   4.394   4.790 -0.6277 -0.2061  0.8222
 1962SOL    HW217523   2.327   4.396   4.830 -2.4996 -3.1346 -0.7615
 1963SOL     OW17524   4.030   1.025   4.632  0.4202 -0.9648 -0.2672
 1963SOL    HW117525   3.978   1.079   4.573  0.0944 -0.6492  0.3205
 1963SOL    HW217526   4.100   0.998   4.572 -0.1890  0.4819 -1.6013
 1964SOL     OW17527   0.057   4.544   9.653  0.4184  0.5829  0.3097
 1964SOL    HW117528   0.144   4.583   9.663 -0.5625  3.3452 -2.0858
 1964SOL    HW217529   0.053   4.498   9.737  1.7350 -0.1814 -0.0253
 1965SOL     OW17530   4.047   2.857  16.066  0.0661  0.1207 -0.2654
 1965SOL    HW117531   4.014   2.946  16.079  1.3057  0.2077  2.2402
 1965SOL    HW217532   4.141   2.868  16.079  0.3591 -1.8077 -0.7531
 1966SOL     OW17533   1.326   1.194   4.953  0.1023  0.1402  0.4470
 1966SOL    HW117534   1.240   1.171   4.916  0.6486 -1.0648 -0.0730
 1966SOL    HW217535   1.372   1.112   4.933  0.6183  0.0039  2.2478
 1967SOL     OW17536   2.301   0.318   0.275  0.8816  0.2890  0.0825
 1967SOL    HW117537   2.351   0.362   0.344  2.7293 -0.0386 -1.0179
 1967SOL    HW217538   2.241   0.268   0.329  0.5343  0.3593 -0.2407
 1968SOL     OW17539   0.086   2.372  14.818 -0.3842 -0.4977  0.2164
 1968SOL    HW117540   0.177   2.400  14.819 -0.5348  0.0285 -0.8304
 1968SOL    HW217541   0.052   2.382  14.729 -2.0288 -1.5325  0.7088
 1969SOL     OW17542   2.932   2.911   9.206  0.4528 -0.2253  0.0471
 1969SOL    HW117543   2.909   2.841   9.268 -0.3376  0.9688  1.0839
 1969SOL    HW217544   3.004   2.957   9.248  1.0963 -0.3221 -0.9566
 1970SOL     OW17545   0.425   2.597   8.208 -0.4268 -0.0658  0.4692
 1970SOL    HW117546   0.335   2.626   8.227  0.0749  1.8391 -0.1034
 1970SOL    HW217547   0.448   2.640   8.126  0.8145 -0.1089  0.7909
 1971SOL     OW17548   3.048   4.260   9.023 -0.7403  0.3351  0.1299
 1971SOL    HW117549   3.022   4.196   8.957 -1.7708  0.2207  0.6448
 1971SOL    HW217550   3.083   4.334   8.973 -0.6925 -0.0628 -0.4243
 1972SOL     OW17551   2.897   0.051  12.199  0.2005 -0.5583 -0.7891
 1972SOL    HW117552   2.888   0.140  12.165  0.7827  0.2027  0.9982
 1972SOL    HW217553   2.916   0.065  12.292  1.2332 -0.1241 -1.0631
 1973SOL     OW17554   2.605   2.971  10.066  0.1054  0.0743  0.3592
 1973SOL    HW117555   2.609   3.056  10.022  2.7730  0.2347  0.9189
 1973SOL    HW217556   2.685   2.928  10.033 -0.3262 -0.0012 -0.5907
 1974SOL     OW17557   3.534   2.632  16.828  0.5124  0.0308 -0.0108
 1974SOL    HW117558   3.627   2.651  16.824  0.1283  1.8089 -0.7219
 1974SOL    HW217559   3.496   2.698  16.887 -2.1510  0.1727 -1.8778
 1975SOL     OW17560   1.801   0.122   5.382  0.3563  0.1842 -0.0371
 1975SOL    HW117561   1.886   0.128   5.425 -0.2105 -1.5608  1.2760
 1975SOL    HW217562   1.835   0.113   5.293 -0.3771  1.3031 -0.4405
 1976SOL     OW17563   3.366   0.872   0.280  0.4038 -0.1536 -0.4681
 1976SOL    HW117564   3.308   0.918   0.219 -2.1009  0.1766  2.1525
 1976SOL    HW217565   3.451   0.914   0.275  0.2885 -0.0849 -1.7437
 1977SOL     OW17566   0.508   0.912   8.403  0.5304  0.1711  0.2021
 1977SOL    HW117567   0.454   0.980   8.443 -0.7070 -0.7008  0.0126
 1977SOL    HW217568   0.544   0.872   8.482 -4.1389 -1.4783  1.4873
 1978SOL     OW17569   1.383   0.775  16.949 -0.1425  0.2571  0.0512
 1978SOL    HW117570   1.449   0.772  17.018  0.9533  0.1341 -1.0068
 1978SOL    HW217571   1.384   0.865  16.916  0.1147  1.6260  3.8226
 1979SOL     OW17572   0.586   2.652   5.398 -0.1268 -0.0330  0.7702
 1979SOL    HW117573   0.501   2.625   5.433  0.8086 -2.8228  0.8604
 1979SOL    HW217574   0.615   2.712   5.468  0.1239  0.8043 -0.0441
 1980SOL     OW17575   1.058   0.971  14.156 -0.5883 -0.7780  0.3739
 1980SOL    HW117576   1.142   0.927  14.169 -0.5218 -0.6301  0.4383
 1980SOL    HW217577   1.064   0.971  14.060  0.5038 -1.0313  0.4411
 1981SOL     OW17578   0.297   0.311   1.912  0.3255 -0.3482 -0.3550
 1981SOL    HW117579   0.207   0.343   1.915  0.1826 -0.7849  0.0496
 1981SOL    HW217580   0.303   0.249   1.839  1.3291  0.6613 -1.1495
 1982SOL     OW17581   4.443   2.823  16.659 -0.0002 -0.2991 -0.1310
 1982SOL    HW117582   4.392   2.888  16.708 -1.5212 -0.2630 -1.7614
 1982SOL    HW217583   4.468   2.762  16.728  0.6093 -1.2242 -1.1690
 1983SOL     OW17584   0.855   2.967   2.410  0.5020 -0.1222  0.8446
 1983SOL    HW117585   0.774   2.979   2.360 -0.4141 -0.1517  2.3335
 1983SOL    HW217586   0.828   2.992   2.498 -1.5884  1.4614 -0.2281
 1984SOL     OW17587   4.230   3.209   4.660 -0.4326 -0.2806 -0.1292
 1984SOL    HW117588   4.170   3.174   4.594 -0.8674  1.6438 -0.7402
 1984SOL    HW217589   4.185   3.292   4.673 -1.3155 -0.4370 -2.2420
 1985SOL     OW17590   3.036   1.205   7.550 -0.5411  0.4326 -0.2391
 1985SOL    HW117591   2.993   1.287   7.577  0.2580  0.4525  0.9695
 1985SOL    HW217592   2.963   1.144   7.542 -0.6987  0.5657  0.2065
 1986SOL     OW17593   2.502   4.464   2.174  0.3687  0.0255 -0.2493
 1986SOL    HW117594   2.410   4.487   2.165  0.0803 -0.6758  0.9309
 1986SOL    HW217595   2.508   4.416   2.257  1.5945  2.2970  0.9883
 1987SOL     OW17596   2.274   2.693   1.512  0.3090  0.4672  0.6113
 1987SOL    HW117597   2.267   2.629   1.583  1.7597 -1.5475 -1.0747
 1987SOL    HW217598   2.228   2.642   1.445 -1.6541  0.7721  1.7350
 1988SOL     OW17599   3.704   3.473   5.448 -0.4593 -0.4382  0.1062
 1988SOL    HW117600   3.720   3.402   5.510 -1.1586 -0.0036  0.7878
 1988SOL    HW217601   3.680   3.411   5.378 -0.4227 -0.5031  0.1514
 1989SOL     OW17602   2.706   2.026   8.190  0.1419  0.4335 -0.0040
 1989SOL    HW117603   2.701   2.022   8.094  0.4152  2.0738 -0.0792
 1989SOL    HW217604   2.689   1.936   8.217 -0.5971  0.3676 -0.6926
 1990SOL     OW17605   3.419   4.425   0.648 -0.4476 -0.4814 -0.0057
 1990SOL    HW117606   3.409   4.361   0.718  0.2089  0.8233  1.2617
 1990SOL    HW217607   3.344   4.420   0.589 -0.9048  0.3906  0.5083
 1991SOL     OW17608   3.560   4.171   5.663 -0.0261  0.4138  0.0797
 1991SOL    HW117609   3.610   4.170   5.745  0.5440 -2.4088 -0.3040
 1991SOL    HW217610   3.470   4.184   5.691 -0.0616  2.1305 -0.7882
 1992SOL     OW17611   3.912   2.085  15.235 -0.5212  0.6762 -0.2375
 1992SOL    HW117612   3.854   2.023  15.192  0.9202 -3.3565  3.5791
 1992SOL    HW217613   3.927   2.052  15.324 -0.5695 -1.4644 -1.0434
 1993SOL     OW17614   1.022   0.585   4.789 -0.2137 -0.0727  0.5995
 1993SOL    HW117615   1.048   0.605   4.879 -1.4900 -1.7089  1.3308
 1993SOL    HW217616   1.084   0.633   4.735  0.2663 -1.2509  0.0829
 1994SOL     OW17617   0.997   0.670   1.880  0.2315 -0.1750  0.3497
 1994SOL    HW117618   1.057   0.704   1.813 -0.5255  0.5099  0.0221
 1994SOL    HW217619   0.913   0.690   1.838  1.4849 -1.5793 -2.8526
 1995SOL     OW17620   4.145   0.102   0.775 -0.2116 -0.4641  0.1639
 1995SOL    HW117621   4.182   0.015   0.768  0.2259 -0.4463  2.2983
 1995SOL    HW217622   4.206   0.142   0.836 -1.2221  2.2054 -0.5377
 1996SOL     OW17623   1.063   2.097  12.627  0.1514 -0.3842 -0.4624
 1996SOL    HW117624   1.123   2.023  12.618  0.4430  0.0912 -2.3954
 1996SOL    HW217625   1.039   2.122  12.538  0.9417 -1.7101 -1.0550
 1997SOL     OW17626   3.322   1.138  12.688 -0.1894 -0.1175 -0.2919
 1997SOL    HW117627   3.284   1.207  12.634  2.0006  1.0854 -0.2919
 1997SOL    HW217628   3.408   1.177  12.706 -0.4269 -0.2166  1.0792
 1998SOL     OW17629   3.171   3.790   5.876  0.5550 -0.5927 -0.2485
 1998SOL    HW117630   3.227   3.835   5.812  1.4499 -1.7273 -0.2627
 1998SOL    HW217631   3.206   3.811   5.962 -0.7084 -0.1996  0.1736
 1999SOL     OW17632   1.127   2.036  11.489  0.3346  0.3371 -0.0324
 1999SOL    HW117633   1.187   2.031  11.564 -0.9578  3.2089  1.1722
 1999SOL    HW217634   1.174   1.989  11.419  0.3091  1.1391 -0.5893
 2000SOL     OW17635   2.074   1.321   2.232 -0.2150  0.3055  0.8475
 2000SOL    HW117636   2.059   1.377   2.308 -0.7895 -2.0642  2.4742
 2000SOL    HW217637   2.169   1.316   2.235 -0.2971 -0.5502  1.9364
 2001SOL     OW17638   2.999   2.630  13.969  0.4130  0.4548  0.0293
 2001SOL    HW117639   2.995   2.726  13.960  2.0025  0.5944  0.7692
 2001SOL    HW217640   2.988   2.602  13.879  0.3150  2.5339 -0.6201
 2002SOL     OW17641   2.781   2.566   8.347 -0.2473 -0.3825  0.0969
 2002SOL    HW117642   2.822   2.636   8.296  0.8235 -1.7639 -0.9406
 2002SOL    HW217643   2.856   2.514   8.375  0.6905  1.5842  1.2494
 2003SOL     OW17644   1.127   2.420   6.248 -0.0593  0.7782 -0.4062
 2003SOL    HW117645   1.060   2.357   6.222  0.1394  0.5971 -0.4791
 2003SOL    HW217646   1.193   2.368   6.295 -0.3767 -0.5939 -1.4766
 2004SOL     OW17647   0.563   2.542  14.089  0.0804  0.7993  0.6078
 2004SOL    HW117648   0.516   2.483  14.030  0.0723  0.6238  0.7846
 2004SOL    HW217649   0.556   2.494  14.172  0.5831  2.7287  1.7616
 2005SOL     OW17650   3.420   2.820   2.942  0.3911 -0.6346  0.1333
 2005SOL    HW117651   3.350   2.792   3.000  0.1621  0.5719  0.4426
 2005SOL    HW217652   3.435   2.733   2.906  0.4732 -0.5706  0.0132
 2006SOL     OW17653   0.277   2.176  12.572  0.1456  0.1639 -0.2429
 2006SOL    HW117654   0.201   2.207  12.524 -0.5275  0.6555  1.1400
 2006SOL    HW217655   0.296   2.094  12.526  0.9116 -0.5434  1.3385
 2007SOL     OW17656   4.064   2.444   7.561 -0.3311  0.1748  0.0546
 2007SOL    HW117657   4.034   2.534   7.578 -0.4042 -0.1032  1.4345
 2007SOL    HW217658   4.159   2.453   7.555 -0.2710 -0.4424  0.1150
 2008SOL     OW17659   3.072   1.505  15.887 -0.5597  0.9191  0.4007
 2008SOL    HW117660   3.158   1.536  15.916  0.0032  0.6918 -1.0345
 2008SOL    HW217661   3.086   1.491  15.793 -0.8959 -0.2581  0.5411
 2009SOL     OW17662   2.648   3.057   6.756 -0.1759 -0.1686 -0.1962
 2009SOL    HW117663   2.589   3.068   6.681  1.8254 -3.0198 -2.1584
 2009SOL    HW217664   2.701   2.981   6.733 -0.2268  0.0313 -0.9924
 2010SOL     OW17665   4.026   0.197   7.532  0.2054  0.4441  0.1632
 2010SOL    HW117666   4.105   0.199   7.586 -0.0789 -1.1265  0.6425
 2010SOL    HW217667   4.036   0.252   7.454  0.1211  1.9561  1.2227
 2011SOL     OW17668   2.537   2.239   8.224  0.2246 -0.6105  0.6272
 2011SOL    HW117669   2.629   2.231   8.247  0.7686  3.7065  0.0214
 2011SOL    HW217670   2.535   2.171   8.157  0.0153 -2.6689  2.7440
 2012SOL     OW17671   3.344   3.460  13.526 -0.2358 -0.0152  0.0072
 2012SOL    HW117672   3.263   3.447  13.576 -1.5280  1.4120 -1.7233
 2012SOL    HW217673   3.336   3.555  13.529 -0.7651 -0.0479 -0.3362
 2013SOL     OW17674   2.726   0.421   9.465  0.1670  0.0801 -0.5431
 2013SOL    HW117675   2.634   0.449   9.470  0.5151  1.1663 -0.1179
 2013SOL    HW217676   2.722   0.339   9.417  2.2830  0.4494 -1.3377
 2014SOL     OW17677   1.039   1.685   2.339  0.5594  0.1160 -0.2289
 2014SOL    HW117678   1.104   1.751   2.364 -1.4247  1.3168  1.7088
 2014SOL    HW217679   0.975   1.748   2.305 -0.6589 -0.5094  0.9003
 2015SOL     OW17680   4.290   0.142   1.859  0.1662  0.4647 -0.2880
 2015SOL    HW117681   4.273   0.141   1.765  2.8198  0.2246 -0.7824
 2015SOL    HW217682   4.228   0.075   1.889 -0.1216 -0.2439 -2.4333
 2016SOL     OW17683   0.327   4.033   1.910 -0.1751 -0.2033  0.0793
 2016SOL    HW117684   0.407   4.025   1.858 -0.9845 -0.5038 -1.1302
 2016SOL    HW217685   0.306   3.939   1.910 -0.3724 -0.1519 -2.0601
 2017SOL     OW17686   1.188   4.587  11.444  0.2527 -0.7613 -0.7753
 2017SOL    HW117687   1.161   4.652  11.379 -0.4929 -0.4040 -0.1179
 2017SOL    HW217688   1.112   4.529  11.443  0.9573 -1.7368  2.2509
 2018SOL     OW17689   0.407   0.111  15.935  0.2454 -0.1974  0.2646
 2018SOL    HW117690   0.444   0.029  15.901 -0.3286  0.5661 -2.2069
 2018SOL    HW217691   0.407   0.097  16.029  3.0528 -2.3713 -0.0343
 2019SOL     OW17692   4.228   4.544  14.819  0.3178  0.8291  0.7528
 2019SOL    HW117693   4.171   4.515  14.747  0.5719 -1.9646  1.6774
 2019SOL    HW217694   4.155   4.550  14.881  0.3673 -0.7515  0.9739
 2020SOL     OW17695   4.490   0.423   1.346  0.1487  0.5153  0.0445
 2020SOL    HW117696   4.444   0.349   1.306 -0.0360  1.0067 -0.6568
 2020SOL    HW217697   4.458   0.498   1.295 -2.6407 -1.0196 -0.4782
 2021SOL     OW17698   4.076   1.521  14.571  0.7941 -0.0170  0.1186
 2021SOL    HW117699   4.045   1.609  14.547  0.4229  0.0009  0.6445
 2021SOL    HW217700   4.003   1.488  14.624 -0.2914  1.8528 -0.2185
 2022SOL     OW17701   1.546   3.947   8.360 -0.4534 -0.4162 -0.2882
 2022SOL    HW117702   1.632   3.956   8.401 -0.4632  0.0369 -0.3602
 2022SOL    HW217703   1.514   4.036   8.376  2.3392  0.5642 -0.1654
 2023SOL     OW17704   0.592   0.226   6.201  0.1925 -0.2420 -0.3154
 2023SOL    HW117705   0.574   0.149   6.147 -0.8078 -0.1178 -0.1596
 2023SOL    HW217706   0.671   0.264   6.162  1.3649 -1.5321  0.8275
 2024SOL     OW17707   2.295   0.761   6.285 -0.3759 -0.3203 -0.3523
 2024SOL    HW117708   2.347   0.841   6.278 -2.8891  1.2330 -1.1414
 2024SOL    HW217709   2.308   0.734   6.376  0.1470 -0.6734 -0.5279
 2025SOL     OW17710   3.244   3.804   8.861  0.1254 -0.3227  0.0903
 2025SOL    HW117711   3.160   3.796   8.815 -0.0805  0.3392  0.3588
 2025SOL    HW217712   3.264   3.895   8.841  0.1693 -0.4843 -0.6065
 2026SOL     OW17713   0.746   1.496  13.054 -0.0150  0.0896 -0.0478
 2026SOL    HW117714   0.815   1.434  13.028 -2.4643 -2.5127 -0.2288
 2026SOL    HW217715   0.800   1.570  13.085  0.5564 -0.7613  0.9870
 2027SOL     OW17716   4.448   3.763   5.084  0.0131  0.1110 -0.1956
 2027SOL    HW117717   4.486   3.769   4.996 -0.4882  0.0936 -0.4124
 2027SOL    HW217718   4.503   3.697   5.127 -0.4371 -0.7508 -0.9494
 2028SOL     OW17719   0.818   1.079   7.375 -0.1501  0.3021 -0.4575
 2028SOL    HW117720   0.769   1.155   7.343 -0.0042  0.2865 -0.7148
 2028SOL    HW217721   0.784   1.001   7.331  2.3613 -0.6710 -0.6537
 2029SOL     OW17722   3.070   3.603   9.006  0.7186  0.0926  0.3764
 2029SOL    HW117723   3.093   3.527   9.059 -0.7323 -1.6214 -1.4566
 2029SOL    HW217724   3.104   3.667   9.069 -2.2556  1.7740  0.3168
 2030SOL     OW17725   0.674   1.806   6.519 -0.5926  1.2119 -0.7632
 2030SOL    HW117726   0.598   1.833   6.468 -1.1361  0.4635 -0.3417
 2030SOL    HW217727   0.631   1.735   6.567  1.3544  1.6635  1.6538
 2031SOL     OW17728   1.127   4.358   5.243  0.5360 -0.1475  0.1245
 2031SOL    HW117729   1.161   4.328   5.328  1.2176 -0.5766 -0.3005
 2031SOL    HW217730   1.039   4.363   5.280  0.4085  0.6662 -0.2964
 2032SOL     OW17731   3.534   4.358   7.797 -0.1590 -0.2575  0.1910
 2032SOL    HW117732   3.477   4.405   7.738  0.8393 -1.2012 -1.5283
 2032SOL    HW217733   3.468   4.330   7.860 -0.8866  0.9463 -0.0420
 2033SOL     OW17734   2.539   1.300   7.535 -0.3487 -0.3454 -0.0633
 2033SOL    HW117735   2.599   1.329   7.603  0.8402 -0.8576 -0.9110
 2033SOL    HW217736   2.455   1.284   7.579 -0.9493  1.5772 -0.5367
 2034SOL     OW17737   1.512   0.807   6.227 -0.1103  0.0016 -0.1269
 2034SOL    HW117738   1.463   0.726   6.216 -0.5836  0.0434  1.6535
 2034SOL    HW217739   1.534   0.801   6.320  2.1632  1.9334 -0.5397
 2035SOL     OW17740   1.048   0.771   3.027 -0.4736 -0.4050 -0.2656
 2035SOL    HW117741   1.084   0.768   2.939 -0.9338 -0.0024 -0.4691
 2035SOL    HW217742   1.060   0.680   3.053  0.5431 -0.0227  0.6430
 2036SOL     OW17743   3.651   0.569   3.117  0.2995 -0.1486  0.2920
 2036SOL    HW117744   3.625   0.484   3.151  2.3026 -1.8644 -2.4688
 2036SOL    HW217745   3.592   0.630   3.161 -0.4783 -1.6848  1.3898
 2037SOL     OW17746   0.962   4.441   8.379  0.1979  0.2043 -0.0584
 2037SOL    HW117747   1.035   4.380   8.392  0.1249 -0.0186 -0.7119
 2037SOL    HW217748   0.975   4.458   8.286  1.3248  0.7388  0.1953
 2038SOL     OW17749   3.648   1.481  12.642 -0.6030 -0.1815 -0.3364
 2038SOL    HW117750   3.625   1.519  12.557 -2.0368  1.2688  0.7173
 2038SOL    HW217751   3.663   1.559  12.695 -1.2596 -2.2639  2.9211
 2039SOL     OW17752   0.278   2.831   5.433  0.5299 -0.3860 -0.2708
 2039SOL    HW117753   0.293   2.925   5.441  2.8384 -0.7596 -0.1894
 2039SOL    HW217754   0.219   2.826   5.358 -0.7019  2.4506  0.5036
 2040SOL     OW17755   2.490   0.330   1.310  0.2951  0.1561 -0.0831
 2040SOL    HW117756   2.461   0.416   1.280 -1.4487 -0.4273 -0.0406
 2040SOL    HW217757   2.576   0.345   1.349  1.7018 -1.4474 -2.5443
 2041SOL     OW17758   1.090   3.772   9.082 -0.0511  0.1423  0.4760
 2041SOL    HW117759   1.005   3.749   9.120 -0.2378  0.1447  0.0502
 2041SOL    HW217760   1.063   3.802   8.996  0.4680  0.6123  0.4791
 2042SOL     OW17761   3.640   2.762   9.705 -0.1392 -0.2997  0.1720
 2042SOL    HW117762   3.567   2.749   9.765  0.3911 -0.3969  0.7894
 2042SOL    HW217763   3.595   2.823   9.646  0.5861  0.7840  0.7419
 2043SOL     OW17764   4.523   1.259   7.282  0.4504  0.1408  0.0608
 2043SOL    HW117765   4.473   1.210   7.346 -0.7876 -1.1152 -1.8567
 2043SOL    HW217766   4.524   1.349   7.314 -4.2084  0.3173 -0.3759
 2044SOL     OW17767   4.597   0.468   6.770  0.3842  0.2390 -0.0186
 2044SOL    HW117768   4.592   0.491   6.678  2.0729  3.6082  0.7251
 2044SOL    HW217769   4.622   0.375   6.767 -0.2452  0.0572  0.3113
 2045SOL     OW17770   3.302   0.557   5.601 -0.3692  0.6168  0.0657
 2045SOL    HW117771   3.386   0.599   5.617 -0.3674  0.8377 -0.5271
 2045SOL    HW217772   3.319   0.468   5.572 -2.1003  0.0217  0.8361
 2046SOL     OW17773   2.307   2.719   7.849  0.0953  0.0722 -0.3415
 2046SOL    HW117774   2.279   2.633   7.819 -1.3379  1.4079 -2.8361
 2046SOL    HW217775   2.319   2.713   7.944  0.9494  0.2581 -0.4380
 2047SOL     OW17776   3.191   4.297  13.765  0.5679 -0.1337 -0.0073
 2047SOL    HW117777   3.198   4.282  13.859 -0.2221 -0.0998  0.0578
 2047SOL    HW217778   3.112   4.250  13.740  1.0979 -0.7076 -0.6116
 2048SOL     OW17779   0.967   2.789   6.738 -0.4356  0.3747  0.3981
 2048SOL    HW117780   1.040   2.786   6.799  0.4311 -0.3762 -0.6599
 2048SOL    HW217781   0.898   2.794   6.804 -1.4811  1.3034 -0.7698
 2049SOL     OW17782   1.427   1.182   8.616  0.1338  0.0335  0.1349
 2049SOL    HW117783   1.439   1.266   8.572  1.7890 -1.0025 -1.4132
 2049SOL    HW217784   1.520   1.164   8.630 -0.0445 -1.0033  0.0183
 2050SOL     OW17785   1.882   0.256   2.929 -0.2251  0.6336  0.0414
 2050SOL    HW117786   1.859   0.175   2.975  2.5672 -0.2906 -0.1581
 2050SOL    HW217787   1.796   0.272   2.891 -1.1906 -2.9677  0.7568
 2051SOL     OW17788   2.657   3.928   6.929 -0.2239 -0.4826  0.3528
 2051SOL    HW117789   2.694   3.876   7.001  0.3697  0.8522  1.0170
 2051SOL    HW217790   2.731   3.955   6.875  0.9472 -3.1358  0.6316
 2052SOL     OW17791   3.731   1.389   4.637 -0.1194  0.3031  0.1245
 2052SOL    HW117792   3.791   1.441   4.691  2.7912  0.1245 -2.9528
 2052SOL    HW217793   3.671   1.368   4.709 -0.0912 -1.2084 -0.2841
 2053SOL     OW17794   3.289   3.873   3.089  0.5121  0.2348 -0.6490
 2053SOL    HW117795   3.307   3.858   2.996  0.1657  0.4781 -0.7543
 2053SOL    HW217796   3.195   3.858   3.100  0.8269 -0.2300  1.3938
 2054SOL     OW17797   3.184   4.181   1.851  0.1513 -0.2663 -0.4127
 2054SOL    HW117798   3.243   4.256   1.844  1.0744 -0.8807  0.8970
 2054SOL    HW217799   3.241   4.105   1.849 -1.0033 -1.1728  1.1649
 2055SOL     OW17800   1.696   0.546  17.193 -0.8256 -0.0784 -0.0697
 2055SOL    HW117801   1.715   0.555  17.286 -0.3675  0.1818 -0.1884
 2055SOL    HW217802   1.641   0.624  17.183  0.1017  0.2236 -2.7361
 2056SOL     OW17803   2.341   4.520   3.279  0.6185 -0.3958 -0.0856
 2056SOL    HW117804   2.379   4.470   3.207 -0.3814 -1.1353 -0.0994
 2056SOL    HW217805   2.350   4.450   3.344  0.8915 -0.9090 -0.6736
 2057SOL     OW17806   3.485   3.469  15.269 -0.6821 -0.2095  0.1302
 2057SOL    HW117807   3.459   3.443  15.358 -0.8195 -0.2053  0.0912
 2057SOL    HW217808   3.527   3.554  15.279 -0.9066  0.1706 -2.1984
 2058SOL     OW17809   2.876   4.544   7.461  0.4796  0.3542 -0.0566
 2058SOL    HW117810   2.929   4.534   7.540 -0.1854  2.6938  0.6839
 2058SOL    HW217811   2.917   4.616   7.413 -1.6699  1.1651 -0.6858
 2059SOL     OW17812   4.236   3.284  12.196  0.4493 -0.5707  0.1124
 2059SOL    HW117813   4.207   3.193  12.189 -0.9698 -0.0096 -1.2860
 2059SOL    HW217814   4.178   3.318  12.264 -1.2241 -1.0651 -1.0478
 2060SOL     OW17815   4.395   2.501   4.663 -0.3051  0.2877 -0.0529
 2060SOL    HW117816   4.363   2.572   4.608  1.3376 -0.0296 -1.4037
 2060SOL    HW217817   4.490   2.497   4.649 -0.2168  2.9127 -0.1845
 2061SOL     OW17818   1.271   2.117   2.287  0.0881 -0.2854 -0.2568
 2061SOL    HW117819   1.271   2.202   2.330  0.8781 -0.2711 -0.2768
 2061SOL    HW217820   1.358   2.086   2.316 -0.5671 -1.4034  0.5149
 2062SOL     OW17821   3.079   3.728   6.466  0.7103 -0.3721  0.0050
 2062SOL    HW117822   3.011   3.701   6.527  0.7406  1.0084  0.6649
 2062SOL    HW217823   3.058   3.820   6.448  3.0293  0.3822  1.0699
 2063SOL     OW17824   2.199   1.457  14.355  0.2370 -0.1726 -0.3196
 2063SOL    HW117825   2.114   1.466  14.398  1.7402 -0.2003  2.6713
 2063SOL    HW217826   2.198   1.366  14.324 -0.2063 -1.0510  2.2181
 2064SOL     OW17827   2.201   4.691  16.277  0.1801 -0.0812 -0.5386
 2064SOL    HW117828   2.151   4.709  16.198 -0.4171  0.5912 -0.0070
 2064SOL    HW217829   2.152   4.622  16.322 -0.6188  0.3571 -0.7522
 2065SOL     OW17830   3.773   0.980  14.209  0.3095 -0.4045 -0.3760
 2065SOL    HW117831   3.852   1.016  14.251 -1.0006  2.3303 -0.2352
 2065SOL    HW217832   3.764   1.044  14.139 -1.3008  0.8593  0.9743
 2066SOL     OW17833   4.039   0.425   7.859 -0.5922  0.0775  0.3377
 2066SOL    HW117834   3.952   0.442   7.822 -1.2834  0.5584  2.2091
 2066SOL    HW217835   4.092   0.403   7.781  0.9855  1.0398  1.1440
 2067SOL     OW17836   3.214   3.645  11.520 -0.1551 -0.1319 -0.4150
 2067SOL    HW117837   3.287   3.618  11.576  0.6553 -0.2716 -1.5262
 2067SOL    HW217838   3.251   3.684  11.441  2.0989 -3.9943 -1.2575
 2068SOL     OW17839   1.830   0.452   5.655  0.2073 -0.6636 -0.3769
 2068SOL    HW117840   1.794   0.439   5.567 -1.1512 -1.4320  0.3057
 2068SOL    HW217841   1.893   0.517   5.624 -1.8260  0.2867 -2.5378
 2069SOL     OW17842   3.303   2.707   1.168 -0.1258 -0.5627 -0.1374
 2069SOL    HW117843   3.290   2.713   1.073 -0.3700 -0.3946 -0.0951
 2069SOL    HW217844   3.261   2.622   1.185 -0.0423  0.1002  3.3145
 2070SOL     OW17845   0.362   2.165  13.717 -0.0916  0.7637 -0.1677
 2070SOL    HW117846   0.304   2.090  13.729  1.8703 -0.6333  0.7454
 2070SOL    HW217847   0.417   2.152  13.795 -0.0186 -1.6299 -0.6232
 2071SOL     OW17848   0.195   1.049  13.868  0.1050  0.0375  0.1205
 2071SOL    HW117849   0.231   1.128  13.827  0.0116 -0.0739 -0.1745
 2071SOL    HW217850   0.122   1.101  13.902  1.5053  0.6664  2.1060
 2072SOL     OW17851   4.489   4.545  15.880 -0.2760 -0.5861  0.5575
 2072SOL    HW117852   4.442   4.462  15.879 -0.5064 -0.4527 -1.0844
 2072SOL    HW217853   4.440   4.590  15.949 -1.1097  0.6025 -0.7873
 2073SOL     OW17854   1.893   3.994   4.590 -0.4557  0.1049  0.6738
 2073SOL    HW117855   1.925   4.046   4.517 -0.3862 -1.1747 -0.2042
 2073SOL    HW217856   1.941   3.915   4.567  2.1350  1.6509  0.8788
 2074SOL     OW17857   3.876   1.607   0.729 -0.0380 -0.3219  0.1347
 2074SOL    HW117858   3.917   1.692   0.748 -0.3031 -0.3619  0.8615
 2074SOL    HW217859   3.953   1.555   0.706 -0.1173 -0.6132  0.5339
 2075SOL     OW17860   0.097   2.892   4.281  0.6706  1.1707 -0.2871
 2075SOL    HW117861   0.191   2.889   4.267  0.2608 -1.3243 -2.3658
 2075SOL    HW217862   0.090   2.815   4.337  0.8180  0.6305 -1.0234
 2076SOL     OW17863   4.525   3.688   7.253  0.0903  0.4217  0.3711
 2076SOL    HW117864   4.512   3.662   7.162  0.3179 -1.1171  0.7787
 2076SOL    HW217865   4.576   3.767   7.234 -1.8407  1.8277  1.0228
 2077SOL     OW17866   1.006   0.772  11.125  0.2776 -0.2710  0.2473
 2077SOL    HW117867   0.922   0.765  11.171  0.6966 -0.8647  0.9204
 2077SOL    HW217868   1.025   0.681  11.104  2.8508  0.0818  1.0852
 2078SOL     OW17869   1.027   2.561  10.199  0.2277  0.2157 -0.4443
 2078SOL    HW117870   1.030   2.649  10.161  3.5658  0.5734  0.6222
 2078SOL    HW217871   0.947   2.559  10.251  1.3118 -0.1621  1.1981
 2079SOL     OW17872   3.763   3.347   8.723 -1.0249 -0.2369  0.3045
 2079SOL    HW117873   3.739   3.437   8.699  0.5087 -0.5694 -2.4030
 2079SOL    HW217874   3.737   3.302   8.643  1.8096 -1.5550  0.1278
 2080SOL     OW17875   3.299   0.636  14.141 -0.1725  0.0624 -0.1867
 2080SOL    HW117876   3.234   0.573  14.109  0.1579  0.5716 -1.8618
 2080SOL    HW217877   3.251   0.718  14.150 -0.1078  0.3250 -2.2561
 2081SOL     OW17878   4.030   1.382   7.752 -0.0611  0.2698  0.1244
 2081SOL    HW117879   4.124   1.379   7.737 -0.4388  1.6795 -2.5948
 2081SOL    HW217880   4.030   1.477   7.759  1.8636  0.2453  0.3429
 2082SOL     OW17881   2.764   1.755  12.572  0.1403 -0.1738  0.9143
 2082SOL    HW117882   2.835   1.779  12.631  0.7742  0.2886 -0.0371
 2082SOL    HW217883   2.799   1.762  12.483 -0.3681  2.6268  0.9119
 2083SOL     OW17884   0.676   0.278   8.097 -0.4940  0.1203 -0.8558
 2083SOL    HW117885   0.622   0.288   8.018 -3.9065 -4.7578  0.8478
 2083SOL    HW217886   0.716   0.365   8.093  0.8030 -0.3935  1.1665
 2084SOL     OW17887   0.270   4.674  15.303 -0.1057  0.5313 -0.2831
 2084SOL    HW117888   0.219   4.679  15.222 -0.6073 -0.6112 -0.0350
 2084SOL    HW217889   0.204   4.646  15.366 -0.7589  0.3653 -1.0477
 2085SOL     OW17890   3.726   1.029   5.184  0.2354 -0.5267 -0.4290
 2085SOL    HW117891   3.674   0.949   5.193 -1.3607  0.6723  1.2175
 2085SOL    HW217892   3.756   1.028   5.094  1.1543 -1.0054 -0.1094
 2086SOL     OW17893   3.595   1.758  15.368 -0.5025  0.7660 -0.1362
 2086SOL    HW117894   3.634   1.820  15.307 -0.8807 -0.2682 -1.4395
 2086SOL    HW217895   3.509   1.756  15.326 -0.7272 -0.0941  0.3568
 2087SOL     OW17896   1.344   1.934   7.502  0.0366  0.4461 -0.3225
 2087SOL    HW117897   1.260   1.979   7.509 -0.2574 -0.2517  0.5825
 2087SOL    HW217898   1.413   2.000   7.492 -0.1656  0.5843 -0.8025
 2088SOL     OW17899   0.328   3.568   3.462  0.6909 -0.7101 -0.4229
 2088SOL    HW117900   0.372   3.509   3.524 -3.1476 -1.5924  1.4572
 2088SOL    HW217901   0.267   3.614   3.520  0.3933 -0.8359 -0.6334
 2089SOL     OW17902   2.436   3.210  17.454 -0.0989 -0.2067 -0.4094
 2089SOL    HW117903   2.413   3.151  17.525  0.8271 -0.4722 -0.3385
 2089SOL    HW217904   2.473   3.143  17.396 -1.6319 -1.8347  0.4884
 2090SOL     OW17905   3.803   3.601   0.259  0.7813  0.6522 -0.1949
 2090SOL    HW117906   3.738   3.646   0.206  0.6152 -0.6504 -1.0987
 2090SOL    HW217907   3.879   3.636   0.213  0.4727  0.4154 -0.8728
 2091SOL     OW17908   0.325   3.753   5.553  0.4693  0.5059 -0.2192
 2091SOL    HW117909   0.344   3.736   5.645  0.2377 -2.0821 -0.6553
 2091SOL    HW217910   0.361   3.841   5.551  0.2731  0.5882 -0.2004
 2092SOL     OW17911   2.023   4.634   5.928 -0.2884  0.0288  0.5628
 2092SOL    HW117912   2.092   4.583   5.886 -1.4520 -0.8982 -0.2324
 2092SOL    HW217913   1.962   4.662   5.859 -1.5674 -0.9579  1.2977
 2093SOL     OW17914   2.782   3.574   2.756  0.2514 -0.1508 -0.1795
 2093SOL    HW117915   2.745   3.489   2.780 -3.2330  1.1504 -0.8359
 2093SOL    HW217916   2.873   3.554   2.776 -0.5194 -1.5450  2.0024
 2094SOL     OW17917   3.877   2.421   2.992 -0.6014 -0.3424  0.0758
 2094SOL    HW117918   3.838   2.505   3.018 -0.6625 -1.2682  2.9086
 2094SOL    HW217919   3.829   2.403   2.911 -0.1383 -2.6879  0.3421
 2095SOL     OW17920   0.689   0.165   1.572  0.2990  0.0596  0.0463
 2095SOL    HW117921   0.634   0.090   1.550  1.8022 -0.8366 -0.6670
 2095SOL    HW217922   0.668   0.178   1.664 -0.5606  4.2663 -0.7343
 2096SOL     OW17923   2.889   2.577   7.443  0.1245 -0.1736 -0.1121
 2096SOL    HW117924   2.956   2.511   7.424 -0.1170 -0.4936  0.1325
 2096SOL    HW217925   2.896   2.587   7.538 -3.2441  3.3914 -0.2555
 2097SOL     OW17926   1.558   2.808   6.997 -0.0924  0.3265 -0.0680
 2097SOL    HW117927   1.498   2.734   6.991  0.5435 -0.3244  1.3724
 2097SOL    HW217928   1.496   2.880   6.989  1.3444  1.5060 -0.4521
 2098SOL     OW17929   0.504   2.833   5.659  0.6492 -0.1358 -0.0541
 2098SOL    HW117930   0.425   2.788   5.629 -0.6545  0.8062  1.8866
 2098SOL    HW217931   0.470   2.918   5.688  0.5598 -0.2132  0.0708
 2099SOL     OW17932   1.429   3.595   5.330 -0.4595  0.0671 -0.1571
 2099SOL    HW117933   1.520   3.566   5.334 -0.8184 -1.0977 -0.4078
 2099SOL    HW217934   1.415   3.570   5.238 -1.7775 -0.6057  0.2374
 2100SOL     OW17935   4.018   4.392   1.908 -0.1507  0.0448 -0.0762
 2100SOL    HW117936   3.927   4.367   1.894 -0.0538  0.3607 -1.2306
 2100SOL    HW217937   4.013   4.424   1.998  0.2116  1.2282 -0.4854
 2101SOL     OW17938   1.116   2.434   1.996 -0.1867  0.1726 -0.0971
 2101SOL    HW117939   1.146   2.480   1.918 -0.3038 -1.2560 -0.9993
 2101SOL    HW217940   1.203   2.414   2.030  0.4065 -0.5115 -2.0053
 2102SOL     OW17941   3.120   3.428   3.920  0.3554 -0.5062 -1.2386
 2102SOL    HW117942   3.194   3.411   3.978 -1.4171 -0.5728  1.0015
 2102SOL    HW217943   3.076   3.343   3.919  0.3226 -0.4826 -2.4206
 2103SOL     OW17944   2.033   4.478   3.430  0.1406  0.3333  0.6008
 2103SOL    HW117945   2.087   4.402   3.453 -1.1749 -1.2091 -1.4056
 2103SOL    HW217946   2.064   4.531   3.503  1.4230  0.5636 -0.1028
 2104SOL     OW17947   2.802   4.411  16.607  0.3320 -0.4596 -0.4397
 2104SOL    HW117948   2.881   4.417  16.661 -0.3483  2.7207  0.1829
 2104SOL    HW217949   2.778   4.502  16.592 -0.3472 -0.5853 -0.0966
 2105SOL     OW17950   4.388   1.628   3.534  0.1486 -0.2988  0.3791
 2105SOL    HW117951   4.438   1.688   3.589 -1.6100  0.2169  1.4254
 2105SOL    HW217952   4.424   1.628   3.446 -1.8993  3.1020 -0.4639
 2106SOL     OW17953   4.212   0.093  16.249  0.1019 -0.9234 -0.4390
 2106SOL    HW117954   4.295   0.139  16.242  0.2412 -0.7582  2.3463
 2106SOL    HW217955   4.161   0.150  16.190  0.3255 -0.8806 -0.5924
 2107SOL     OW17956   4.735   2.133   6.051  0.1951  0.4079 -0.3120
 2107SOL    HW117957   4.640   2.131   6.060  0.1178 -2.4105 -1.4747
 2107SOL    HW217958   0.002   2.048   6.007 -0.3010 -0.4367  1.2798
 2108SOL     OW17959   1.125   2.862   5.002 -0.2549 -0.5140 -0.0487
 2108SOL    HW117960   1.197   2.836   4.944  1.2682  1.5293  0.9565
 2108SOL    HW217961   1.177   2.891   5.076  0.8050 -2.3548 -0.0684
 2109SOL     OW17962   1.415   1.363  16.370 -0.2822  0.3395  0.4247
 2109SOL    HW117963   1.450   1.289  16.419  0.1626  0.5558  0.4335
 2109SOL    HW217964   1.463   1.342  16.291 -0.0272  2.7900 -0.0637
 2110SOL     OW17965   4.096   0.869  11.986  0.6523  0.2280  0.0158
 2110SOL    HW117966   4.170   0.831  11.937 -0.0731 -0.8648 -0.2502
 2110SOL    HW217967   4.139   0.946  12.022 -1.0008  0.9031  0.5207
 2111SOL     OW17968   3.810   2.739  16.001  0.2987 -0.0353  0.1462
 2111SOL    HW117969   3.758   2.746  16.082  0.6302  2.8193  0.1199
 2111SOL    HW217970   3.895   2.777  16.023 -0.6732  3.1599 -1.6587
 2112SOL     OW17971   4.131   1.283   4.459  0.2625 -0.3713 -0.4985
 2112SOL    HW117972   4.095   1.371   4.450 -0.3532 -0.3903  1.8406
 2112SOL    HW217973   4.201   1.299   4.522  1.7223 -0.1063 -2.1726
 2113SOL     OW17974   1.835   4.691   8.587  0.4828 -0.2000 -0.0276
 2113SOL    HW117975   1.757   4.656   8.630  0.2855  0.1965 -0.0552
 2113SOL    HW217976   1.802   0.040   8.562 -1.1336 -1.3632 -1.8964
 2114SOL     OW17977   4.176   0.531   8.305  0.0656  0.6155  0.1257
 2114SOL    HW117978   4.217   0.453   8.344  1.2365  2.1421  1.9309
 2114SOL    HW217979   4.211   0.513   8.217  1.1508 -1.9485  1.0737
 2115SOL     OW17980   0.656   1.095  14.300 -0.3817 -0.2305  0.2537
 2115SOL    HW117981   0.570   1.137  14.307  0.2776  1.0499  0.8750
 2115SOL    HW217982   0.708   1.164  14.258 -2.5371  2.4891  2.0111
 2116SOL     OW17983   1.007   1.718   2.853 -0.1901 -0.4293  0.2430
 2116SOL    HW117984   0.996   1.796   2.907 -1.3364 -0.2148 -0.2921
 2116SOL    HW217985   1.092   1.734   2.812 -0.8171  1.0788 -0.4525
 2117SOL     OW17986   1.910   2.170  16.670  0.6605  0.0432  0.0677
 2117SOL    HW117987   1.872   2.097  16.622 -0.0487  0.2045  0.3874
 2117SOL    HW217988   1.862   2.248  16.642  0.3804 -0.5979 -1.2376
 2118SOL     OW17989   2.189   0.782  16.342 -0.2498  0.1082 -0.3784
 2118SOL    HW117990   2.143   0.714  16.292 -0.0303 -0.7852  0.6441
 2118SOL    HW217991   2.129   0.857  16.342 -0.5524 -0.1371 -0.1319
 2119SOL     OW17992   2.123   0.748   8.447  0.2852 -0.3309  0.3960
 2119SOL    HW117993   2.128   0.691   8.524 -2.0367 -1.1642 -0.0525
 2119SOL    HW217994   2.043   0.710   8.410  0.5653  1.0246 -1.5724
 2120SOL     OW17995   3.404   0.750  17.534  0.7652 -0.1277 -0.0522
 2120SOL    HW117996   3.445   0.736  17.619  2.5072 -0.7474 -1.0061
 2120SOL    HW217997   3.344   0.820  17.560  2.1484  1.1458 -0.3457
 2121SOL     OW17998   1.660   4.093   9.720  0.4467 -0.2548  0.2211
 2121SOL    HW117999   1.577   4.118   9.679  0.4019  0.2895  0.6399
 2121SOL    HW218000   1.705   4.052   9.647  0.4609  1.8120 -0.9130
 2122SOL     OW18001   4.259   0.726   3.339  0.2466  0.2545 -0.1783
 2122SOL    HW118002   4.211   0.653   3.301  0.5109  0.3908 -0.7801
 2122SOL    HW218003   4.310   0.762   3.266 -0.8094 -0.6205 -1.3527
 2123SOL     OW18004   3.414   1.737   0.587 -0.0836  0.3813 -0.1752
 2123SOL    HW118005   3.362   1.723   0.508 -0.0148 -2.3451  0.2328
 2123SOL    HW218006   3.478   1.799   0.553 -1.5278  2.7430  1.4331
 2124SOL     OW18007   2.770   1.802   4.967  0.4310  0.5541 -0.2674
 2124SOL    HW118008   2.722   1.800   5.050  0.1774 -2.7369 -0.5139
 2124SOL    HW218009   2.778   1.897   4.957  2.0639  0.6849  2.4006
 2125SOL     OW18010   2.389   0.002   5.891  0.5184  0.1890 -0.1077
 2125SOL    HW118011   2.405   4.683   5.816  1.7014 -1.8501  1.6728
 2125SOL    HW218012   2.333   0.071   5.857  1.5532  1.5604  0.9522
 2126SOL     OW18013   4.547   2.136   5.425 -0.6200  0.2943  0.1642
 2126SOL    HW118014   4.617   2.081   5.389 -0.1830 -0.1345  1.6935
 2126SOL    HW218015   4.607   2.198   5.466 -2.7846  0.0297  3.7586
 2127SOL     OW18016   4.711   0.145  14.724  0.2672  0.2826 -0.1726
 2127SOL    HW118017   4.629   0.158  14.676  1.6840  1.7457 -2.1891
 2127SOL    HW218018   4.699   0.206  14.797 -1.7862  0.3793 -0.5939
 2128SOL     OW18019   2.338   4.681   6.271 -0.1497 -0.3157 -0.2430
 2128SOL    HW118020   2.293   4.641   6.196 -1.2020 -1.2180  0.8806
 2128SOL    HW218021   2.274   4.657   6.338  1.8141 -1.7853  1.1015
 2129SOL     OW18022   4.462   0.837  13.680 -0.0273  0.0361  0.2870
 2129SOL    HW118023   4.418   0.825  13.595  1.8525 -1.5035 -0.4575
 2129SOL    HW218024   4.542   0.786  13.670  0.4159  0.5425  1.3054
 2130SOL     OW18025   1.725   4.179   6.980  0.5936 -0.0409  0.6709
 2130SOL    HW118026   1.772   4.117   6.925  1.9317  1.3373  0.2838
 2130SOL    HW218027   1.704   4.250   6.919  3.0087  0.1414  0.0536
 2131SOL     OW18028   3.149   2.908  16.808  0.0834  0.2887 -0.2494
 2131SOL    HW118029   3.136   2.854  16.886  0.5168 -0.1386 -0.4795
 2131SOL    HW218030   3.094   2.982  16.836  0.9596  0.8883 -0.1017
 2132SOL     OW18031   4.602   1.927   4.458  0.5794  0.2363 -0.2784
 2132SOL    HW118032   4.563   1.898   4.540 -0.6142  0.0014 -0.9232
 2132SOL    HW218033   4.613   2.020   4.478  1.5407  0.2373 -0.8165
 2133SOL     OW18034   4.044   0.851  16.430  0.4018 -0.4024  0.1567
 2133SOL    HW118035   4.116   0.864  16.493 -0.0294 -0.8538  0.7335
 2133SOL    HW218036   3.982   0.800  16.482  1.0612 -0.6521  0.7095
 2134SOL     OW18037   0.079   3.692   5.976 -0.1976 -0.1565 -0.1782
 2134SOL    HW118038   0.050   3.768   5.926  2.2068  2.3646  2.1960
 2134SOL    HW218039   0.085   3.729   6.064 -1.9561 -3.2070  1.2287
 2135SOL     OW18040   3.411   2.752  11.820  0.1548 -0.2792 -0.0414
 2135SOL    HW118041   3.436   2.660  11.830  1.2294 -0.1686 -1.8345
 2135SOL    HW218042   3.367   2.761  11.905 -0.1573  0.4541 -0.2845
 2136SOL     OW18043   1.118   3.187   7.247 -0.2107  0.1610 -0.1278
 2136SOL    HW118044   1.105   3.281   7.237  0.5158  0.1909 -0.8462
 2136SOL    HW218045   1.167   3.181   7.329  0.1659  0.9402 -0.2933
 2137SOL     OW18046   4.183   1.320   7.010 -0.2985 -0.1167 -0.2750
 2137SOL    HW118047   4.136   1.277   7.081 -0.3491  0.2054 -0.1124
 2137SOL    HW218048   4.261   1.264   7.010 -0.3720 -0.2143  2.2607
 2138SOL     OW18049   0.195   1.979  13.758  0.1328 -0.4966  0.2559
 2138SOL    HW118050   0.179   1.939  13.843  1.1465 -2.0858 -0.2940
 2138SOL    HW218051   0.188   1.910  13.692 -3.9569  0.6306 -0.5303
 2139SOL     OW18052   2.565   1.617  11.725 -0.4818 -0.1931 -0.2199
 2139SOL    HW118053   2.485   1.600  11.674 -0.3696  0.5992 -0.6598
 2139SOL    HW218054   2.551   1.560  11.801 -0.3976  1.2716  0.8804
 2140SOL     OW18055   2.303   2.450  14.256  0.0628  0.1004  1.3781
 2140SOL    HW118056   2.223   2.433  14.306  2.0116 -1.9833  3.8200
 2140SOL    HW218057   2.371   2.443  14.324 -0.8592 -1.2807  2.1586
 2141SOL     OW18058   3.998   2.854   3.874 -0.5125  0.0726  0.0639
 2141SOL    HW118059   3.998   2.815   3.961 -1.1969  0.9502  0.4506
 2141SOL    HW218060   4.074   2.911   3.864  0.1517 -0.4402  2.2398
 2142SOL     OW18061   2.507   0.368   1.940  0.4684  0.6383 -0.3603
 2142SOL    HW118062   2.412   0.374   1.951  0.1038 -0.6729 -2.8229
 2142SOL    HW218063   2.497   0.354   1.846  0.4233 -1.4868 -0.0569
 2143SOL     OW18064   2.091   0.198  12.594 -0.7256  0.0481  0.1821
 2143SOL    HW118065   2.143   0.240  12.662 -0.8403 -0.4121  0.5487
 2143SOL    HW218066   2.073   0.120  12.647 -0.9496  0.3766  0.5845
 2144SOL     OW18067   2.766   4.437   7.225  0.0053 -0.5291 -0.3313
 2144SOL    HW118068   2.720   4.518   7.203  1.7428  0.4914 -0.2029
 2144SOL    HW218069   2.826   4.470   7.293 -0.6452  1.8171 -0.9088
 2145SOL     OW18070   0.552   0.197   4.817  0.4600  0.0976 -0.7383
 2145SOL    HW118071   0.635   0.225   4.856  0.2336  0.1040 -0.2487
 2145SOL    HW218072   0.508   0.282   4.809  0.3801 -0.0017 -1.2927
 2146SOL     OW18073   2.524   2.187   2.963  0.2473  0.7484 -0.0299
 2146SOL    HW118074   2.512   2.242   2.886 -2.8088  0.4008  0.1990
 2146SOL    HW218075   2.463   2.113   2.961 -0.0170  0.9313  0.8604
 2147SOL     OW18076   2.947   2.181  12.184 -0.5331  0.0963 -0.1899
 2147SOL    HW118077   2.970   2.121  12.112  1.2134 -1.2705  1.5151
 2147SOL    HW218078   3.033   2.199  12.222 -0.8537  1.9883 -0.3876
 2148SOL     OW18079   2.380   2.003   9.361  0.1396  0.0216 -0.5409
 2148SOL    HW118080   2.361   1.930   9.302 -1.1376 -0.8946  0.9937
 2148SOL    HW218081   2.306   2.012   9.421 -2.1355 -0.9243 -3.2378
 2149SOL     OW18082   1.371   0.885   1.944  0.5462  0.2826  0.1812
 2149SOL    HW118083   1.380   0.794   1.972  1.5338  0.3847  0.1926
 2149SOL    HW218084   1.345   0.933   2.022  2.8684 -0.5876  1.5069
 2150SOL     OW18085   4.317   4.297   3.806  0.1121  0.5714 -0.0723
 2150SOL    HW118086   4.253   4.367   3.806  1.9901  2.2882  0.4216
 2150SOL    HW218087   4.303   4.246   3.886 -0.2057  0.4000 -0.2379
 2151SOL     OW18088   2.011   2.931   0.169 -0.4124  0.3169 -0.8875
 2151SOL    HW118089   2.012   2.981   0.250  0.1444  0.9843 -1.3072
 2151SOL    HW218090   2.087   2.957   0.117 -0.7472  0.6561 -1.1988
 2152SOL     OW18091   3.825   0.264   3.339 -0.9233 -0.8698  0.3778
 2152SOL    HW118092   3.896   0.274   3.402 -1.2580 -0.6115  0.7147
 2152SOL    HW218093   3.854   0.326   3.272 -0.3963 -1.4873  0.0355
 2153SOL     OW18094   3.629   2.867   3.320 -0.0232  0.1803 -0.4252
 2153SOL    HW118095   3.579   2.940   3.355  2.0394  1.7185 -0.6850
 2153SOL    HW218096   3.666   2.892   3.235  0.8683 -0.6879 -0.2907
 2154SOL     OW18097   0.233   1.392   5.856 -0.2830 -0.0183  0.1335
 2154SOL    HW118098   0.189   1.324   5.804  1.5674  1.2818 -3.0777
 2154SOL    HW218099   0.292   1.334   5.905 -0.4866 -1.5438 -1.4092
 2155SOL     OW18100   0.536   3.652   0.369  0.6292  0.2066  0.1746
 2155SOL    HW118101   0.576   3.714   0.307  0.3439 -1.0301 -1.2613
 2155SOL    HW218102   0.461   3.613   0.324 -1.0913  4.7406 -0.9119
 2156SOL     OW18103   2.633   1.379  11.100 -0.1571 -0.0691  0.3603
 2156SOL    HW118104   2.700   1.437  11.138 -0.0339  0.0677 -0.0735
 2156SOL    HW218105   2.683   1.297  11.101 -0.9219 -0.5268  2.4547
 2157SOL     OW18106   2.108   3.162   9.868 -0.6800 -0.2798  0.9112
 2157SOL    HW118107   2.172   3.205   9.811 -0.5452 -0.0180  1.2579
 2157SOL    HW218108   2.100   3.223   9.942 -2.4772  2.0687 -1.2491
 2158SOL     OW18109   0.988   1.239  17.326 -0.1273  0.0217 -0.2368
 2158SOL    HW118110   0.947   1.279  17.403 -2.8626 -1.4116 -0.9643
 2158SOL    HW218111   1.024   1.165  17.374 -1.8402 -0.8720 -0.3455
 2159SOL     OW18112   1.557   1.917   4.373  0.3668  0.3729  0.1094
 2159SOL    HW118113   1.546   2.001   4.418 -0.6232 -0.1609  0.8548
 2159SOL    HW218114   1.493   1.914   4.301  2.2309 -1.4337 -1.4574
 2160SOL     OW18115   0.699   4.577   7.600  0.8381  1.0829  0.0437
 2160SOL    HW118116   0.683   4.512   7.532  0.3204  0.7749  0.4578
 2160SOL    HW218117   0.759   4.536   7.663  1.9086 -0.0476 -1.7316
 2161SOL     OW18118   3.560   1.278  14.066 -0.8899 -0.2395 -0.3816
 2161SOL    HW118119   3.552   1.349  14.003 -0.5640 -0.3684 -0.5708
 2161SOL    HW218120   3.655   1.277  14.054 -0.9395 -1.7050 -0.6935
 2162SOL     OW18121   1.154   0.314   8.070 -0.0156 -0.3598  0.8960
 2162SOL    HW118122   1.141   0.223   8.043  2.2104 -0.4745  0.2230
 2162SOL    HW218123   1.241   0.309   8.109  0.1222 -1.3536  0.4638
 2163SOL     OW18124   0.903   4.298   5.003 -0.0027  0.1289 -0.1642
 2163SOL    HW118125   0.930   4.337   4.919  0.8537 -0.4256 -0.1444
 2163SOL    HW218126   0.951   4.350   5.067 -1.2284 -0.4991  1.2474
 2164SOL     OW18127   2.530   0.382  14.232  0.2533 -0.1108 -0.0049
 2164SOL    HW118128   2.584   0.358  14.307 -0.0533 -0.3756  0.1312
 2164SOL    HW218129   2.470   0.313  14.201 -1.2027 -0.1311  2.9026
 2165SOL     OW18130   2.561   2.780   2.412 -0.0246 -0.4436  0.0834
 2165SOL    HW118131   2.550   2.827   2.330 -0.7927 -0.3721  0.2293
 2165SOL    HW218132   2.641   2.729   2.401  0.8286  0.9713 -0.2520
 2166SOL     OW18133   1.832   2.104   0.456  0.8431 -0.4722  0.9353
 2166SOL    HW118134   1.909   2.160   0.448  0.1152  0.7019  2.1260
 2166SOL    HW218135   1.806   2.134   0.543  1.2037  0.1426  0.8263
 2167SOL     OW18136   1.247   1.095  12.348 -0.1121 -0.1893 -0.2557
 2167SOL    HW118137   1.329   1.061  12.313 -0.8067 -1.6747 -0.4427
 2167SOL    HW218138   1.192   1.087  12.271 -0.9832 -1.9717  0.5533
 2168SOL     OW18139   2.054   2.058  15.997  0.1509  0.3185  0.0289
 2168SOL    HW118140   1.965   2.024  16.009  0.4706 -0.6509 -0.3539
 2168SOL    HW218141   2.067   2.113  16.074  2.5905 -0.2883  0.0459
 2169SOL     OW18142   0.286   0.111   4.845  0.2286  0.1405 -0.0399
 2169SOL    HW118143   0.379   0.131   4.850  0.3289  0.0893 -1.7838
 2169SOL    HW218144   0.235   0.178   4.892  1.9112  0.5482  1.1939
 2170SOL     OW18145   3.815   0.382   0.069 -0.0562 -0.3793 -0.6608
 2170SOL    HW118146   3.819   0.459   0.125  2.0234 -1.1385  0.2454
 2170SOL    HW218147   3.780   0.318   0.131 -1.3179  1.1309  0.1685
 2171SOL     OW18148   1.926   0.735  11.101 -0.5949  0.5075 -0.2780
 2171SOL    HW118149   1.955   0.821  11.133  0.1056  0.0813  0.2325
 2171SOL    HW218150   1.983   0.680  11.155 -1.7052  0.8862  1.2826
 2172SOL     OW18151   0.547   2.790   7.354 -0.4870 -0.3728 -0.2066
 2172SOL    HW118152   0.484   2.720   7.370 -1.1420  0.7510  2.1243
 2172SOL    HW218153   0.534   2.811   7.261  2.4421 -3.2070 -1.2380
 2173SOL     OW18154   2.082   4.280   5.482 -0.3316  0.7251 -0.3368
 2173SOL    HW118155   2.015   4.322   5.429 -0.9876 -1.7231 -1.4433
 2173SOL    HW218156   2.052   4.296   5.571  0.6552 -1.1562  0.3479
 2174SOL     OW18157   4.277   3.286   3.247 -0.0318 -0.2294  0.0172
 2174SOL    HW118158   4.337   3.251   3.182 -0.5499 -0.9491 -0.0750
 2174SOL    HW218159   4.189   3.266   3.214 -0.1890 -1.4843  1.1964
 2175SOL     OW18160   2.586   1.868  11.907 -0.3315 -0.4154 -0.7477
 2175SOL    HW118161   2.591   1.910  11.821 -1.6039 -0.1560 -0.6947
 2175SOL    HW218162   2.619   1.780  11.893  0.5170 -0.1912 -0.1586
 2176SOL     OW18163   3.637   3.015  15.259  0.3502  0.6052 -0.3283
 2176SOL    HW118164   3.599   3.009  15.347  0.1013  0.1945 -0.4645
 2176SOL    HW218165   3.651   3.109  15.248 -1.1417  0.8403 -0.2518
 2177SOL     OW18166   2.879   4.393   1.454 -0.6886  0.4567 -0.0028
 2177SOL    HW118167   2.914   4.317   1.502 -1.5252  0.3015  0.3807
 2177SOL    HW218168   2.908   4.460   1.516  0.2433 -0.8720  1.0217
 2178SOL     OW18169   3.120   2.225  12.443 -1.1993  0.2794  0.0224
 2178SOL    HW118170   3.142   2.284  12.371  1.4267 -0.7724 -0.0312
 2178SOL    HW218171   3.198   2.238  12.497 -0.8324 -0.4420 -0.3390
 2179SOL     OW18172   0.878   4.350   0.823 -0.1066  0.0459 -0.0543
 2179SOL    HW118173   0.805   4.406   0.797 -0.0056 -0.1526 -0.7726
 2179SOL    HW218174   0.848   4.315   0.907 -0.3718  0.7868  0.1612
 2180SOL     OW18175   2.655   2.809   2.685 -0.0676 -0.7610  0.1221
 2180SOL    HW118176   2.608   2.851   2.758  0.5982  0.6849 -0.2795
 2180SOL    HW218177   2.590   2.813   2.615  0.0219  0.8223  0.1183
 2181SOL     OW18178   0.416   3.858  15.570  0.5746  0.4177  0.8872
 2181SOL    HW118179   0.394   3.896  15.485  2.4013 -0.9455 -0.1819
 2181SOL    HW218180   0.433   3.771  15.534 -0.3726  0.7348 -0.3317
 2182SOL     OW18181   3.613   2.735   9.383 -0.1316  0.9275  0.2941
 2182SOL    HW118182   3.606   2.714   9.290  0.5235  1.6257  0.0841
 2182SOL    HW218183   3.695   2.784   9.385  1.4508 -1.6033 -2.8002
 2183SOL     OW18184   1.187   3.744   5.631 -0.1818 -0.3816 -0.7836
 2183SOL    HW118185   1.113   3.695   5.594 -1.8844  1.2297  0.5307
 2183SOL    HW218186   1.224   3.770   5.547 -1.7987 -2.8534 -2.2806
 2184SOL     OW18187   3.968   0.655  17.253 -0.4038  0.2946  0.1057
 2184SOL    HW118188   4.040   0.595  17.269 -1.1929 -0.8987 -0.8543
 2184SOL    HW218189   3.990   0.682  17.164 -0.1798  1.9491  0.6508
 2185SOL     OW18190   2.896   1.639   1.201 -0.3724  0.4742 -0.3262
 2185SOL    HW118191   2.855   1.670   1.281 -1.4612 -2.8181  0.3627
 2185SOL    HW218192   2.986   1.622   1.231 -0.6912  1.3767  1.1287
 2186SOL     OW18193   1.142   2.424   3.900  0.6228 -0.0476 -0.4949
 2186SOL    HW118194   1.060   2.467   3.875 -1.2434 -2.5298  1.3040
 2186SOL    HW218195   1.192   2.437   3.820  2.3020  1.6143  0.8336
 2187SOL     OW18196   0.371   4.185  15.025 -0.6546  0.2895  0.1502
 2187SOL    HW118197   0.289   4.234  15.031 -0.6422 -0.0740  3.1976
 2187SOL    HW218198   0.402   4.195  15.115  1.3283 -0.7261 -0.4080
 2188SOL     OW18199   4.431   1.564   6.485  0.7231  0.3514  0.1245
 2188SOL    HW118200   4.427   1.629   6.555 -0.1905 -0.0065  0.4077
 2188SOL    HW218201   4.341   1.541   6.462  0.5181  0.4751  0.7906
 2189SOL     OW18202   4.501   4.662   4.730  0.8362  0.1220 -0.5291
 2189SOL    HW118203   4.573   4.724   4.726  0.9674  0.2434  2.9424
 2189SOL    HW218204   4.540   4.575   4.738  0.7205  0.0358 -0.9387
 2190SOL     OW18205   1.885   3.608   9.588  0.2374  0.4432  0.0539
 2190SOL    HW118206   1.980   3.618   9.592  0.4603 -0.7420 -2.8681
 2190SOL    HW218207   1.868   3.550   9.663 -4.0735  0.1070 -1.1801
 2191SOL     OW18208   3.093   0.857  11.196  0.1427 -0.3483 -0.4192
 2191SOL    HW118209   3.090   0.762  11.182  0.1305 -0.3503 -0.4025
 2191SOL    HW218210   3.138   0.856  11.281  1.0301 -2.3221 -0.8988
 2192SOL     OW18211   3.101   0.355  12.284  0.0788  0.1291  0.2294
 2192SOL    HW118212   3.188   0.355  12.325  0.1304  0.0386  0.1188
 2192SOL    HW218213   3.058   0.297  12.348 -0.8358 -2.4863 -2.7459
 2193SOL     OW18214   2.816   0.556   1.678  0.2558 -1.0065 -0.1651
 2193SOL    HW118215   2.805   0.623   1.746  1.0464 -1.4400  0.3913
 2193SOL    HW218216   2.830   0.481   1.736  0.2274 -0.3226  0.7345
 2194SOL     OW18217   0.808   2.333   3.759  0.3413  0.2529 -0.1307
 2194SOL    HW118218   0.888   2.348   3.710  0.4975  0.8086  0.2862
 2194SOL    HW218219   0.759   2.415   3.755 -0.5324 -0.2912 -0.6013
 2195SOL     OW18220   2.974   3.579   2.266  0.2522  0.5190 -0.0744
 2195SOL    HW118221   2.923   3.529   2.202 -1.5388  1.4181  0.6585
 2195SOL    HW218222   3.038   3.626   2.213  0.2306  0.9484  0.2816
 2196SOL     OW18223   1.570   0.064  15.162  0.3568  0.3557  0.6286
 2196SOL    HW118224   1.663   0.071  15.185  0.5108  0.3017  0.0394
 2196SOL    HW218225   1.535   0.126  15.225 -0.5695 -1.7664  2.2042
 2197SOL     OW18226   4.037   2.466   7.210 -0.3087  0.2184 -0.6436
 2197SOL    HW118227   4.037   2.465   7.306  0.5052 -0.8756 -0.6455
 2197SOL    HW218228   4.128   2.448   7.185 -0.9275 -1.7256 -1.5355
 2198SOL     OW18229   4.546   3.797   0.976 -0.2952 -0.2773  0.1096
 2198SOL    HW118230   4.527   3.726   1.036  1.3632 -0.0361  0.9051
 2198SOL    HW218231   4.615   3.757   0.924 -0.0856  0.0930  0.0987
 2199SOL     OW18232   0.917   2.076   8.780 -0.3773  0.2204 -0.1228
 2199SOL    HW118233   0.939   2.024   8.858 -0.2924  0.4586  0.0130
 2199SOL    HW218234   0.970   2.035   8.711 -2.1985  0.2178 -1.5098
 2200SOL     OW18235   0.267   3.260   4.278  0.6380  0.4847 -0.8052
 2200SOL    HW118236   0.304   3.207   4.349 -2.6448 -0.8557 -0.1194
 2200SOL    HW218237   0.219   3.323   4.332  2.4360  1.1670 -0.0118
 2201SOL     OW18238   2.298   1.904   3.948 -0.4749 -0.3335 -0.0192
 2201SOL    HW118239   2.369   1.839   3.946  1.2167  1.5119  0.1298
 2201SOL    HW218240   2.242   1.886   4.024 -1.7263  1.7135 -0.4760
 2202SOL     OW18241   0.385   2.400   4.521  0.0520 -0.1537 -0.2031
 2202SOL    HW118242   0.356   2.434   4.437 -1.4022  0.0778  0.3904
 2202SOL    HW218243   0.386   2.482   4.571  1.3870 -0.1093 -0.2903
 2203SOL     OW18244   4.221   2.432   3.788 -0.0564 -0.1204  0.5903
 2203SOL    HW118245   4.164   2.355   3.793 -1.5945  1.0131  0.4144
 2203SOL    HW218246   4.165   2.497   3.746  0.6643 -1.6354 -2.6489
 2204SOL     OW18247   4.273   1.725  13.060  0.0513 -0.5145  0.0989
 2204SOL    HW118248   4.349   1.702  13.114  0.9069 -1.7394 -1.6151
 2204SOL    HW218249   4.201   1.675  13.097 -0.0199 -0.7881 -0.4018
 2205SOL     OW18250   4.295   4.413  16.205 -0.2187 -0.0821  0.6983
 2205SOL    HW118251   4.226   4.395  16.141  0.4628 -3.3623  0.9038
 2205SOL    HW218252   4.327   4.496  16.169 -0.6985 -0.0204  0.4127
 2206SOL     OW18253   3.934   1.674   5.389  0.2062  0.4813  0.0417
 2206SOL    HW118254   3.871   1.643   5.454 -1.6821  0.7404 -1.6366
 2206SOL    HW218255   3.878   1.706   5.318  0.0859 -0.7170 -0.4043
 2207SOL     OW18256   1.425   4.198   4.669  0.3189  0.0589  0.5106
 2207SOL    HW118257   1.451   4.210   4.760  1.1378 -0.6482  0.3705
 2207SOL    HW218258   1.420   4.103   4.656 -0.4793  0.2477 -0.5652
 2208SOL     OW18259   2.600   1.905   6.103 -0.0889 -0.0133  0.0320
 2208SOL    HW118260   2.642   1.886   6.187  0.2877  1.6946  0.2332
 2208SOL    HW218261   2.605   2.001   6.097  2.7463 -0.1960 -0.8770
 2209SOL     OW18262   4.655   2.818  10.932  0.1914 -0.7517  0.0206
 2209SOL    HW118263   4.653   2.782  11.020  2.7673  1.6575  1.0236
 2209SOL    HW218264   4.634   2.910  10.948  0.7346 -1.1122  2.6687
 2210SOL     OW18265   2.687   3.478   7.098 -0.2370 -0.2317 -0.1515
 2210SOL    HW118266   2.748   3.492   7.171 -1.6594  0.0039  0.9931
 2210SOL    HW218267   2.686   3.385   7.079 -1.4638 -0.0442 -0.9800
 2211SOL     OW18268   3.292   0.492  15.407 -0.2662  0.1472  0.2923
 2211SOL    HW118269   3.308   0.587  15.404  0.6601  0.0335  1.7659
 2211SOL    HW218270   3.341   0.468  15.329  0.3722  1.5713  0.2506
 2212SOL     OW18271   1.515   3.006   0.257  0.2077  0.0519  0.4126
 2212SOL    HW118272   1.606   3.001   0.286  0.5385  3.3698 -0.0282
 2212SOL    HW218273   1.509   2.939   0.189 -0.8548 -0.4577  1.0115
 2213SOL     OW18274   4.048   1.450  13.984 -0.9736 -0.3309  0.8456
 2213SOL    HW118275   4.100   1.504  13.924 -2.8670  0.2819 -0.2395
 2213SOL    HW218276   4.116   1.412  14.039 -0.2461  1.1490  0.9611
 2214SOL     OW18277   1.423   4.078   9.247  0.2163  0.3626  0.0660
 2214SOL    HW118278   1.329   4.085   9.228  0.0142 -1.0488  0.5450
 2214SOL    HW218279   1.431   3.982   9.248  1.4891  0.4604 -1.4898
 2215SOL     OW18280   1.691   0.639   9.106 -0.6097  0.0096 -0.0384
 2215SOL    HW118281   1.741   0.557   9.100  0.6745  0.8877 -1.2680
 2215SOL    HW218282   1.657   0.639   9.017 -1.8284 -1.0691  0.4257
 2216SOL     OW18283   2.450   1.370   5.381  0.3039 -0.1282  0.2749
 2216SOL    HW118284   2.454   1.463   5.402  2.3419 -0.3682  0.9110
 2216SOL    HW218285   2.511   1.367   5.308  0.3844  0.5155  0.3184
 2217SOL     OW18286   3.465   1.994   6.191 -0.3836  0.2061 -0.2322
 2217SOL    HW118287   3.442   2.086   6.199 -1.6933 -0.1601  0.1642
 2217SOL    HW218288   3.549   2.008   6.147 -1.2217 -0.0647 -1.9113
 2218SOL     OW18289   2.384   3.074   2.026 -0.0992  0.0737  0.1057
 2218SOL    HW118290   2.407   3.155   2.071 -0.7489  0.8570 -0.9650
 2218SOL    HW218291   2.399   3.114   1.940 -2.2830  1.0557  0.1803
 2219SOL     OW18292   4.251   0.198   3.740  0.4363 -0.3720  0.4570
 2219SOL    HW118293   4.169   0.217   3.785 -0.7814 -1.0665 -1.4358
 2219SOL    HW218294   4.305   0.165   3.812  0.4186  0.2886  0.7669
 2220SOL     OW18295   0.781   4.586   4.870 -0.5512 -0.2461  0.4090
 2220SOL    HW118296   0.687   4.575   4.857 -0.9119  0.5461  2.3852
 2220SOL    HW218297   0.823   4.520   4.814 -1.3999  0.6663 -1.3125
 2221SOL     OW18298   1.174   1.820  14.830  0.3127  0.0115  0.0153
 2221SOL    HW118299   1.251   1.769  14.855 -0.9747 -1.9181  0.0064
 2221SOL    HW218300   1.172   1.823  14.735 -1.2156  0.4455  0.0725
 2222SOL     OW18301   3.891   2.629   6.325  0.1539  0.1611 -0.3093
 2222SOL    HW118302   3.848   2.711   6.302  1.9772  1.4119  0.7031
 2222SOL    HW218303   3.862   2.621   6.415  1.0655  1.2226  0.0835
 2223SOL     OW18304   2.990   3.989   9.394 -0.1260  0.2248 -0.6203
 2223SOL    HW118305   3.027   4.049   9.329  0.4844  2.3781  1.7097
 2223SOL    HW218306   3.029   4.024   9.474 -0.0629  0.4149 -0.7336
 2224SOL     OW18307   3.536   0.565   5.828 -0.4571 -0.4301  0.3502
 2224SOL    HW118308   3.456   0.516   5.848 -1.9959  2.0840  0.2874
 2224SOL    HW218309   3.573   0.578   5.915  0.5513 -2.6099  0.2590
 2225SOL     OW18310   4.487   3.097   5.777  0.4267  0.0035  0.1481
 2225SOL    HW118311   4.422   3.147   5.827 -0.8944  0.4396 -2.0058
 2225SOL    HW218312   4.484   3.140   5.692  2.3131  2.4376  1.3196
 2226SOL     OW18313   0.966   3.737   0.162  0.4444  0.6481  0.5772
 2226SOL    HW118314   0.936   3.720   0.073 -0.4464 -0.3667  1.0655
 2226SOL    HW218315   1.035   3.672   0.168  1.2649  1.4608 -0.0818
 2227SOL     OW18316   3.245   0.800   1.970 -0.2821 -0.0100 -0.2604
 2227SOL    HW118317   3.280   0.740   2.035  1.6103  2.1400  0.6800
 2227SOL    HW218318   3.256   0.881   2.019  1.6251 -0.0718 -0.5817
 2228SOL     OW18319   2.249   0.362  16.214  0.2176 -0.4460 -0.1910
 2228SOL    HW118320   2.198   0.427  16.166  1.7355 -0.8963 -2.3945
 2228SOL    HW218321   2.181   0.298  16.235  1.1830 -1.3004  0.3133
 2229SOL     OW18322   3.447   0.737   2.627  0.1893 -0.0288 -0.2023
 2229SOL    HW118323   3.362   0.779   2.613  0.6287  0.9381  0.0524
 2229SOL    HW218324   3.481   0.789   2.700 -1.4440  1.8059 -0.7566
 2230SOL     OW18325   0.566   3.296   9.499 -0.5151  0.2041 -0.2126
 2230SOL    HW118326   0.498   3.229   9.504  0.0781 -0.3316  0.8184
 2230SOL    HW218327   0.634   3.262   9.557 -1.0561 -0.1793  0.1981
 2231SOL     OW18328   4.187   2.914   6.745  0.1885 -0.1734  0.1655
 2231SOL    HW118329   4.114   2.954   6.699  0.5765  1.0866  0.6606
 2231SOL    HW218330   4.186   2.821   6.723 -0.0312 -0.3963  1.0955
 2232SOL     OW18331   0.191   2.834  11.924  0.1026 -0.1005 -0.5437
 2232SOL    HW118332   0.256   2.903  11.936 -1.3189  1.1935 -0.2712
 2232SOL    HW218333   0.234   2.761  11.967 -0.5394  0.6114  1.2856
 2233SOL     OW18334   0.768   3.621   5.753 -0.3060 -0.4278 -0.3575
 2233SOL    HW118335   0.700   3.600   5.816  1.3985 -0.1119  1.5909
 2233SOL    HW218336   0.834   3.671   5.801 -1.2957  1.2110 -0.7136
 2234SOL     OW18337   2.210   0.329   0.638 -0.1561  0.0454  0.0928
 2234SOL    HW118338   2.143   0.262   0.650 -1.1556  1.1186  0.5199
 2234SOL    HW218339   2.161   0.412   0.641 -2.1719 -1.1521  0.5728
 2235SOL     OW18340   3.239   0.043   3.690 -0.1361  0.1214 -0.2123
 2235SOL    HW118341   3.156   0.053   3.736 -0.9999  2.7377 -2.3487
 2235SOL    HW218342   3.213   0.006   3.606 -0.4695 -0.5908  0.2042
 2236SOL     OW18343   2.634   2.791   3.302 -0.1039  0.2252  0.4326
 2236SOL    HW118344   2.603   2.742   3.378  0.1112  0.9846  1.0094
 2236SOL    HW218345   2.706   2.736   3.271  0.2871  1.5311 -0.9878
 2237SOL     OW18346   0.795   0.515   7.297  0.0529  0.0053  0.1145
 2237SOL    HW118347   0.793   0.526   7.392  0.1153 -2.8410  0.4354
 2237SOL    HW218348   0.816   0.422   7.291 -0.7880 -0.4072  3.3135
 2238SOL     OW18349   1.948   1.615   3.269  0.2601 -0.1145  0.1365
 2238SOL    HW118350   1.901   1.559   3.330 -0.0656 -0.6449 -0.5985
 2238SOL    HW218351   2.028   1.639   3.315  1.7328 -2.1751 -1.3476
 2239SOL     OW18352   3.101   2.644  10.302 -0.7924 -0.3727  0.1053
 2239SOL    HW118353   3.027   2.676  10.354 -0.9089 -2.8876  1.5482
 2239SOL    HW218354   3.134   2.562  10.340 -3.3663 -1.2514  0.4383
 2240SOL     OW18355   1.989   0.149   3.790  0.2491  0.6592  0.2184
 2240SOL    HW118356   2.074   0.119   3.822 -0.3330 -0.7860  0.3885
 2240SOL    HW218357   1.933   0.072   3.787 -0.4906  1.2213 -0.4139
 2241SOL     OW18358   1.027   3.122   2.623  0.3840 -0.5202 -0.8374
 2241SOL    HW118359   1.056   3.178   2.551 -0.7188  1.2023  0.0514
 2241SOL    HW218360   0.986   3.048   2.578 -0.6735 -0.0780 -0.5987
 2242SOL     OW18361   0.101   0.172   0.678  0.0161  0.3616  0.2463
 2242SOL    HW118362   0.160   0.240   0.645  0.4479  0.7036  1.6930
 2242SOL    HW218363   0.095   0.113   0.603  0.5188  2.2994 -1.3282
 2243SOL     OW18364   1.501   1.743   2.767 -0.0809  0.1837  0.4976
 2243SOL    HW118365   1.492   1.648   2.756 -0.5917  0.2786  0.1338
 2243SOL    HW218366   1.511   1.782   2.680 -0.6226 -0.3053  0.2200
 2244SOL     OW18367   2.795   4.604   1.857 -0.1178  0.6862 -0.5638
 2244SOL    HW118368   2.736   4.674   1.883 -0.5591  0.0572  0.1059
 2244SOL    HW218369   2.791   4.548   1.934  0.1442  0.5565 -0.6433
 2245SOL     OW18370   0.510   0.747   6.416  0.5562  0.3030  0.0693
 2245SOL    HW118371   0.463   0.722   6.496  3.9215 -2.5794  1.1229
 2245SOL    HW218372   0.497   0.842   6.412  2.8353  0.6002  0.1163
 2246SOL     OW18373   2.143   1.788  10.966 -0.7392 -0.1470  0.1388
 2246SOL    HW118374   2.217   1.826  10.919 -0.5086  0.6464  1.1329
 2246SOL    HW218375   2.119   1.717  10.907 -0.0882 -1.3923  1.3731
 2247SOL     OW18376   0.480   2.218   5.187 -0.2887  0.4820 -0.3292
 2247SOL    HW118377   0.437   2.164   5.122 -1.9396  1.2297  0.1357
 2247SOL    HW218378   0.553   2.161   5.210 -1.5930 -0.1286  2.2376
 2248SOL     OW18379   0.651   2.985  10.973  0.6690 -0.2732  0.1360
 2248SOL    HW118380   0.558   3.006  10.986  0.6106  0.3917 -1.3571
 2248SOL    HW218381   0.665   2.954  11.062  0.0254  0.4674  0.4989
 2249SOL     OW18382   4.604   3.428   1.379  0.1833 -0.3403 -0.1358
 2249SOL    HW118383   4.653   3.347   1.392 -1.6438 -1.6635 -1.5533
 2249SOL    HW218384   4.517   3.388   1.378 -0.9015  2.0127 -0.3605
 2250SOL     OW18385   1.389   1.232   8.307 -0.0984  0.3323 -0.1377
 2250SOL    HW118386   1.448   1.158   8.295  0.4706  0.9962 -1.4122
 2250SOL    HW218387   1.445   1.296   8.351  1.2044 -1.3988  0.7112
 2251SOL     OW18388   0.391   1.837   7.635 -0.2214  0.4433 -0.4435
 2251SOL    HW118389   0.381   1.854   7.728  3.0861 -1.2230  0.2351
 2251SOL    HW218390   0.393   1.926   7.600  1.0887  1.7043  2.9352
 2252SOL     OW18391   0.612   2.303   8.447 -0.3564  0.1599  0.2454
 2252SOL    HW118392   0.581   2.214   8.431 -0.2635  0.1209  0.2853
 2252SOL    HW218393   0.703   2.285   8.467 -0.7855  0.4799  2.5088
 2253SOL     OW18394   2.984   1.587   7.174 -0.3233  0.5253  0.3350
 2253SOL    HW118395   2.972   1.604   7.267 -0.0452 -0.1188  0.4932
 2253SOL    HW218396   3.009   1.497   7.198  2.1844  1.0293 -0.4133
 2254SOL     OW18397   2.521   1.656   3.376  0.2518  0.1634  0.3565
 2254SOL    HW118398   2.538   1.729   3.436 -0.5954  1.5831 -1.1264
 2254SOL    HW218399   2.483   1.592   3.437  1.4263  1.7278  2.7205
 2255SOL     OW18400   0.874   3.959   0.316  0.0962 -0.0352 -0.4496
 2255SOL    HW118401   0.892   4.038   0.264  0.9335 -1.3371 -2.1306
 2255SOL    HW218402   0.911   3.883   0.271 -0.6124 -0.0525 -1.0047
 2256SOL     OW18403   4.322   2.133   8.077 -0.2828  0.1628 -0.4019
 2256SOL    HW118404   4.304   2.047   8.114  1.6874 -0.6184 -1.2534
 2256SOL    HW218405   4.373   2.169   8.151  0.3140 -0.0873 -0.6898
 2257SOL     OW18406   3.401   3.300  15.519  0.1080  0.2122  0.2878
 2257SOL    HW118407   3.388   3.231  15.584  0.2650 -1.6291 -1.6268
 2257SOL    HW218408   3.307   3.315  15.507  0.3488 -0.2354 -2.2037
 2258SOL     OW18409   2.895   3.845  15.136 -0.3286  0.0370  0.7289
 2258SOL    HW118410   2.931   3.918  15.086  0.8523  0.4883  2.2296
 2258SOL    HW218411   2.972   3.821  15.187 -0.1627 -1.5341 -0.2502
 2259SOL     OW18412   2.551   2.502   4.005 -0.6686 -0.1149 -0.7475
 2259SOL    HW118413   2.625   2.444   4.022 -0.8196  0.2902  1.2058
 2259SOL    HW218414   2.502   2.487   4.086  0.1089  2.4880  0.1856
 2260SOL     OW18415   2.637   1.967   1.544 -0.2097  0.3271 -0.3444
 2260SOL    HW118416   2.659   1.992   1.453  0.0819 -3.2750 -1.2512
 2260SOL    HW218417   2.542   1.958   1.535 -0.3151  0.7942  0.3195
 2261SOL     OW18418   2.010   4.563   7.594 -0.1649 -0.5110 -0.0554
 2261SOL    HW118419   2.080   4.611   7.549  0.6050 -0.7192  0.9262
 2261SOL    HW218420   1.929   4.601   7.560 -0.7890  1.2542  3.3770
 2262SOL     OW18421   2.585   0.158   7.032 -0.5032 -0.1268  0.3952
 2262SOL    HW118422   2.650   0.216   6.993 -0.1019 -0.1009  1.1034
 2262SOL    HW218423   2.532   0.135   6.955 -0.4680 -1.4875  0.7730
 2263SOL     OW18424   1.874   4.213   8.769  0.1533 -0.3189  0.5050
 2263SOL    HW118425   1.841   4.271   8.837 -1.4738  1.0385 -1.4383
 2263SOL    HW218426   1.892   4.132   8.817  0.8123 -0.6286 -0.2659
 2264SOL     OW18427   2.179   1.160   6.094  0.0104  0.0272  0.3329
 2264SOL    HW118428   2.178   1.223   6.022  0.3058 -0.8728 -0.4568
 2264SOL    HW218429   2.260   1.112   6.078 -0.7855 -0.3282 -2.6124
 2265SOL     OW18430   2.883   4.464   1.196 -0.1369  0.2957 -0.1651
 2265SOL    HW118431   2.869   4.425   1.282  1.2000 -1.0006 -0.5439
 2265SOL    HW218432   2.807   4.521   1.185  1.2865  2.1911 -0.1683
 2266SOL     OW18433   3.058   1.611  12.193  0.3589 -0.0357 -0.8899
 2266SOL    HW118434   3.020   1.688  12.235  1.5529  1.1624 -2.0016
 2266SOL    HW218435   3.038   1.640  12.104 -1.0878  0.5130 -0.3764
 2267SOL     OW18436   4.692   3.762   9.013 -0.5032 -0.7412 -0.1418
 2267SOL    HW118437   4.623   3.727   9.070 -0.9455 -0.4341 -0.4881
 2267SOL    HW218438   4.675   3.855   9.024 -0.1512 -0.7158  0.1891
 2268SOL     OW18439   3.856   0.497   1.753  0.1342  0.1693 -0.2943
 2268SOL    HW118440   3.790   0.431   1.734  0.1826 -0.0345  0.2421
 2268SOL    HW218441   3.834   0.579   1.709  0.4152 -0.4554 -1.5869
 2269SOL     OW18442   0.932   3.181   1.186 -0.3989  0.2499  0.3776
 2269SOL    HW118443   0.930   3.222   1.272  1.8312  1.4605 -0.1483
 2269SOL    HW218444   1.025   3.161   1.181  0.2044  2.9191  0.9328
 2270SOL     OW18445   0.009   2.266   3.705 -0.1460 -0.2083  0.0977
 2270SOL    HW118446   0.042   2.346   3.745 -1.5154 -0.6146  2.0467
 2270SOL    HW218447   4.692   2.292   3.630 -1.8956 -2.8610  0.4287
 2271SOL     OW18448   2.673   3.395  10.048 -0.1173 -0.2430  0.3295
 2271SOL    HW118449   2.763   3.376  10.074  0.1284 -0.4292 -0.6720
 2271SOL    HW218450   2.656   3.466  10.110  2.2620 -1.5829  2.5205
 2272SOL     OW18451   0.445   3.429   6.652  0.1022  0.4887  0.5571
 2272SOL    HW118452   0.353   3.440   6.674 -0.0855  3.2067 -1.5619
 2272SOL    HW218453   0.482   3.486   6.720 -1.5340  0.3997  1.5285
 2273SOL     OW18454   0.932   0.482  11.313  0.1157  0.2508  0.0313
 2273SOL    HW118455   0.908   0.573  11.327 -1.6287 -0.2822  0.5178
 2273SOL    HW218456   0.983   0.488  11.232  0.4194 -0.2825  0.1844
 2274SOL     OW18457   2.625   4.725   2.270 -0.3511  0.5974  0.2307
 2274SOL    HW118458   2.557   4.661   2.249  1.1188 -0.9681  0.2139
 2274SOL    HW218459   2.646   0.033   2.189 -0.9978 -1.7070 -1.2499
 2275SOL     OW18460   2.769   0.877  17.647  0.4243  0.6806 -0.3460
 2275SOL    HW118461   2.798   0.814  17.581 -0.6138  0.6783 -0.8072
 2275SOL    HW218462   2.736   0.952  17.596  1.8117  2.1142  0.8515
 2276SOL     OW18463   0.635   3.920   5.204 -0.5319 -0.3530  0.4281
 2276SOL    HW118464   0.679   3.842   5.170 -1.9487 -0.5547 -0.9410
 2276SOL    HW218465   0.553   3.922   5.154 -0.7700 -1.4149  0.7881
 2277SOL     OW18466   0.357   2.752   7.108  0.4497 -0.2923  0.0677
 2277SOL    HW118467   0.306   2.744   7.027  1.8703  1.4703 -1.0058
 2277SOL    HW218468   0.416   2.826   7.093 -0.7031  0.3203 -1.4776
 2278SOL     OW18469   2.130   2.735  17.360  0.2801 -0.2802  0.3179
 2278SOL    HW118470   2.132   2.647  17.323 -0.3517  0.4834 -1.5085
 2278SOL    HW218471   2.220   2.742  17.392 -0.6215 -1.0532  3.0571
 2279SOL     OW18472   2.983   1.569   9.459 -0.6035 -0.0274 -0.3176
 2279SOL    HW118473   2.926   1.564   9.535 -1.3057  1.0783 -0.7667
 2279SOL    HW218474   3.005   1.662   9.446 -0.3883  0.0981  1.0099
 2280SOL     OW18475   0.058   4.521   4.256  0.3644 -0.1115 -0.2842
 2280SOL    HW118476   0.143   4.526   4.300  0.2204 -1.2015  0.1054
 2280SOL    HW218477   0.076   4.441   4.208  1.9866 -0.5789  1.0755
 2281SOL     OW18478   2.724   0.755   1.899 -0.0640  0.1867 -0.1225
 2281SOL    HW118479   2.818   0.771   1.887 -0.4694  0.3809 -2.9756
 2281SOL    HW218480   2.709   0.780   1.991 -1.1270  0.1204 -0.2853
 2282SOL     OW18481   3.822   3.226   8.951 -0.1727 -0.5558 -0.0209
 2282SOL    HW118482   3.808   3.281   8.874 -1.3264 -2.4045 -1.1354
 2282SOL    HW218483   3.915   3.242   8.967  0.5084 -2.8339 -1.7709
 2283SOL     OW18484   3.065   4.658  11.488  0.1448 -0.2555  0.0700
 2283SOL    HW118485   3.068   4.673  11.582 -2.1711 -0.8572  0.2361
 2283SOL    HW218486   3.154   4.633  11.462 -0.4996 -0.7647 -1.6522
 2284SOL     OW18487   3.432   3.135  15.708  0.3420 -0.2514 -0.2270
 2284SOL    HW118488   3.394   3.051  15.735 -0.4308  0.8165  2.0206
 2284SOL    HW218489   3.458   3.182  15.787 -0.5772  0.6131 -0.4454
 2285SOL     OW18490   0.022   2.681   6.641  0.5276  0.4227 -0.7096
 2285SOL    HW118491   4.730   2.748   6.703 -0.5263 -0.7801  0.1018
 2285SOL    HW218492   4.697   2.612   6.665 -0.3399  1.6147  0.4720
 2286SOL     OW18493   1.499   4.229   2.041  0.0303  0.4364 -0.2675
 2286SOL    HW118494   1.413   4.186   2.047 -0.4871  1.1496 -2.4832
 2286SOL    HW218495   1.530   4.204   2.128  2.1374  1.7664 -0.6462
 2287SOL     OW18496   0.161   2.206   8.426 -0.2635  0.2682  0.4190
 2287SOL    HW118497   0.227   2.197   8.357  0.0353 -0.0805  0.7533
 2287SOL    HW218498   0.193   2.278   8.480  1.6292 -0.2921  0.0299
 2288SOL     OW18499   2.186   2.390   9.665 -0.3561  0.2299 -0.6815
 2288SOL    HW118500   2.098   2.424   9.650  0.4773  1.5274 -2.7025
 2288SOL    HW218501   2.188   2.305   9.621 -1.0744 -0.1013 -0.0654
 2289SOL     OW18502   1.097   3.941   8.512  0.3297 -0.6948  0.3319
 2289SOL    HW118503   1.011   3.901   8.524 -0.3121  0.6940  0.3623
 2289SOL    HW218504   1.150   3.866   8.539 -0.0505 -0.4268  1.8400
 2290SOL     OW18505   2.552   0.581   2.104  0.4443  0.0264  0.0765
 2290SOL    HW118506   2.544   0.498   2.058  1.0349  0.9827 -1.7562
 2290SOL    HW218507   2.465   0.618   2.089  1.0426  1.8645  1.0597
 2291SOL     OW18508   4.029   0.402   6.893 -0.2276 -0.2620 -0.3355
 2291SOL    HW118509   4.043   0.394   6.987 -0.0616 -1.2734 -0.4388
 2291SOL    HW218510   4.080   0.481   6.880 -1.0630  0.1303 -1.2399
 2292SOL     OW18511   4.725   4.345   1.016  0.0974 -0.1311 -0.2529
 2292SOL    HW118512   4.706   4.351   1.110  0.3663  0.6557 -0.2484
 2292SOL    HW218513   0.080   4.324   1.015 -0.5091 -2.7799 -0.4102
 2293SOL     OW18514   1.061   2.621   5.210 -0.2534 -0.0430  0.3634
 2293SOL    HW118515   1.050   2.693   5.148  2.4305 -0.0928 -0.1407
 2293SOL    HW218516   0.974   2.625   5.250 -0.2483  0.7569  0.2954
 2294SOL     OW18517   2.326   3.300   8.655  0.0338 -0.0436  0.1448
 2294SOL    HW118518   2.339   3.208   8.677 -1.6027 -0.4918 -0.7189
 2294SOL    HW218519   2.232   3.306   8.639 -0.3716 -0.5924  2.3510
 2295SOL     OW18520   0.335   0.027   9.976 -0.6102  0.1337  0.5377
 2295SOL    HW118521   0.240   0.035   9.988 -1.2583 -0.9370 -3.9242
 2295SOL    HW218522   0.344   0.099   9.913  0.0086 -2.0987 -1.9194
 2296SOL     OW18523   2.706   1.091   4.079 -0.0166  0.8975  0.4187
 2296SOL    HW118524   2.768   1.021   4.056 -0.6398  0.0460  1.3427
 2296SOL    HW218525   2.622   1.047   4.093  0.4815 -0.7227 -1.5585
 2297SOL     OW18526   4.235   2.652   0.447 -0.4281 -0.2635 -0.2269
 2297SOL    HW118527   4.256   2.656   0.540  0.6904  2.9126 -0.6235
 2297SOL    HW218528   4.284   2.578   0.410 -0.7067 -1.0491  0.9463
 2298SOL     OW18529   2.348   1.093   6.359  0.6151 -0.3063  0.1840
 2298SOL    HW118530   2.328   1.183   6.334 -2.1845 -1.5521 -1.9961
 2298SOL    HW218531   2.270   1.075   6.411  1.4757 -0.9129  1.2614
 2299SOL     OW18532   4.133   1.703  12.499 -0.1709  0.0988  0.1354
 2299SOL    HW118533   4.218   1.733  12.466  0.4259 -0.3569  1.2433
 2299SOL    HW218534   4.100   1.785  12.536 -1.9044 -1.0637  1.1669
 2300SOL     OW18535   4.304   2.299   3.387  0.1410 -0.1939  0.0799
 2300SOL    HW118536   4.326   2.296   3.480  0.7988 -0.9266 -0.0981
 2300SOL    HW218537   4.211   2.321   3.389  0.5934  1.6090  0.8372
 2301SOL     OW18538   1.764   0.378   9.107 -0.2436  0.2810  0.2048
 2301SOL    HW118539   1.829   0.329   9.157  1.1055  1.0570 -0.7901
 2301SOL    HW218540   1.748   0.312   9.040  3.4522 -0.9595  0.5644
 2302SOL     OW18541   1.321   4.527  12.122  0.3514  0.4476 -0.2228
 2302SOL    HW118542   1.284   4.608  12.156  3.0854  1.7967 -0.4623
 2302SOL    HW218543   1.340   4.560  12.034  0.8237  3.7275  1.1202
 2303SOL     OW18544   3.414   0.737  15.406 -0.2298  0.1225 -0.5702
 2303SOL    HW118545   3.454   0.773  15.485  1.5513 -0.5112 -1.1975
 2303SOL    HW218546   3.460   0.780  15.335  1.7053  1.8957  1.7612
 2304SOL     OW18547   3.266   4.002   4.233  0.3891 -0.1293 -0.4785
 2304SOL    HW118548   3.278   4.097   4.237 -2.8372  0.2170  1.4616
 2304SOL    HW218549   3.189   4.000   4.290  0.7054  0.7854 -0.0151
 2305SOL     OW18550   1.019   2.210   4.838  0.4478  0.0786 -0.2154
 2305SOL    HW118551   0.938   2.181   4.880  1.1607 -1.7514 -0.0829
 2305SOL    HW218552   1.064   2.256   4.908  1.1420 -0.5951 -0.2224
 2306SOL     OW18553   1.416   0.742   4.829  0.2533  0.1026 -0.6840
 2306SOL    HW118554   1.359   0.689   4.885  2.8087  0.0297  1.8865
 2306SOL    HW218555   1.427   0.684   4.754 -3.6520  0.7524 -1.7176
 2307SOL     OW18556   2.612   3.133   7.281  0.3310  0.5211  0.1368
 2307SOL    HW118557   2.555   3.199   7.320  0.0624  0.3035  0.1163
 2307SOL    HW218558   2.646   3.177   7.203  0.1032 -0.0108 -0.2627
 2308SOL     OW18559   0.671   0.091   7.280 -0.0196  0.1467 -0.4611
 2308SOL    HW118560   0.703   0.003   7.258 -0.6003 -0.0405 -0.5498
 2308SOL    HW218561   0.576   0.090   7.271 -0.1612  1.4891  0.8928
 2309SOL     OW18562   4.638   4.718   4.156 -0.6108  0.1552  0.7018
 2309SOL    HW118563   4.691   4.650   4.198 -0.7754 -0.2944  0.1798
 2309SOL    HW218564   4.632   4.687   4.065  0.5430 -0.1714  0.7386
 2310SOL     OW18565   1.269   1.524   2.700  0.3464  0.1444  0.2140
 2310SOL    HW118566   1.258   1.435   2.668  2.3829 -0.4052  1.0822
 2310SOL    HW218567   1.291   1.575   2.622 -0.2733  0.8294  0.4776
 2311SOL     OW18568   0.539   1.879  12.243  0.0645 -0.4316 -0.0059
 2311SOL    HW118569   0.486   1.844  12.171 -1.3323  3.7668 -1.0208
 2311SOL    HW218570   0.612   1.914  12.193 -1.0220 -2.3612 -2.9643
 2312SOL     OW18571   3.686   4.230   5.925 -0.3937  0.0712  0.2252
 2312SOL    HW118572   3.669   4.247   6.018 -0.3839  2.4730 -0.1982
 2312SOL    HW218573   3.708   4.137   5.921  2.4077  0.7874 -1.0913
 2313SOL     OW18574   1.333   0.992   2.919  0.1218  0.0601  0.3172
 2313SOL    HW118575   1.301   1.075   2.953 -0.6145  0.0347 -0.3249
 2313SOL    HW218576   1.264   0.963   2.860  0.5143 -1.6221  0.6947
 2314SOL     OW18577   1.360   3.080  13.420  0.8232 -0.2308 -0.5428
 2314SOL    HW118578   1.280   3.090  13.472  0.2601 -0.0239 -1.4382
 2314SOL    HW218579   1.424   3.088  13.491 -0.5821  0.5164  0.6571
 2315SOL     OW18580   2.121   3.740   3.720 -0.2415  0.1563  0.8626
 2315SOL    HW118581   2.103   3.766   3.810  0.8861 -1.3678  1.5237
 2315SOL    HW218582   2.214   3.720   3.727 -0.9039 -3.3577 -0.2532
 2316SOL     OW18583   3.114   3.488  11.239 -0.8696 -0.4030  0.1646
 2316SOL    HW118584   3.195   3.521  11.198 -0.8587 -0.0596  0.4561
 2316SOL    HW218585   3.094   3.413  11.183 -0.3525 -0.2863 -0.1805
 2317SOL     OW18586   2.503   1.995   5.201  0.4024 -0.5320  0.0636
 2317SOL    HW118587   2.481   2.083   5.230  0.2207 -0.6495  0.2804
 2317SOL    HW218588   2.418   1.950   5.202 -1.2249  2.5134 -0.9356
 2318SOL     OW18589   0.213   1.271   3.629  0.3311  0.4171  0.1871
 2318SOL    HW118590   0.204   1.317   3.546 -0.7497 -1.9162 -0.9891
 2318SOL    HW218591   0.120   1.256   3.646  0.2812 -0.5633 -0.9731
 2319SOL     OW18592   0.273   0.826   1.989  0.0581  0.1975  0.3293
 2319SOL    HW118593   0.324   0.831   2.070  0.0199  0.5657  0.3322
 2319SOL    HW218594   0.195   0.778   2.017  1.8463 -0.9816  3.2247
 2320SOL     OW18595   3.472   0.555   8.647 -0.2356 -0.0911 -0.0028
 2320SOL    HW118596   3.503   0.577   8.559 -1.8261 -0.9299 -0.7789
 2320SOL    HW218597   3.522   0.614   8.704  1.1283  0.3935 -1.6962
 2321SOL     OW18598   2.507   4.153   8.309  0.0793 -0.0436 -0.2051
 2321SOL    HW118599   2.432   4.204   8.341  1.2494  0.9933  0.8887
 2321SOL    HW218600   2.457   4.088   8.259 -1.3889  1.3729 -0.5709
 2322SOL     OW18601   4.476   1.913   7.587 -0.1737  0.5783 -0.1177
 2322SOL    HW118602   4.400   1.861   7.614 -0.0145  0.6035  0.3632
 2322SOL    HW218603   4.535   1.839   7.583  1.5416  1.9457 -0.0591
 2323SOL     OW18604   3.981   1.601  11.521  0.1755 -0.7177  0.3500
 2323SOL    HW118605   3.967   1.664  11.592 -0.2908 -0.1908 -0.2185
 2323SOL    HW218606   4.072   1.575  11.534  0.3056 -2.0255 -3.1856
 2324SOL     OW18607   3.883   1.193   5.689  1.3664 -0.4765  0.0589
 2324SOL    HW118608   3.811   1.245   5.725  2.1805  0.8666 -0.2498
 2324SOL    HW218609   3.865   1.199   5.595 -0.8450 -1.5658  0.4193
 2325SOL     OW18610   2.752   3.191   4.203  0.7960  0.2711 -0.4383
 2325SOL    HW118611   2.716   3.245   4.132  0.6864  3.2562  1.9051
 2325SOL    HW218612   2.822   3.251   4.229  1.1200  0.1532 -1.0255
 2326SOL     OW18613   2.686   1.924  12.207  0.3222  0.0093 -0.0689
 2326SOL    HW118614   2.598   1.896  12.233  1.0997 -1.3307  1.1158
 2326SOL    HW218615   2.688   1.902  12.114 -1.4819  1.6149 -0.4744
 2327SOL     OW18616   4.508   2.949   8.579  0.4764  0.1582 -0.3583
 2327SOL    HW118617   4.588   2.917   8.621  0.0368 -1.8588 -1.0381
 2327SOL    HW218618   4.503   2.881   8.511 -0.5865 -1.6906  1.5615
 2328SOL     OW18619   3.097   4.207   9.274 -0.4272 -0.5886 -0.4491
 2328SOL    HW118620   3.172   4.265   9.263  0.2401 -1.6896 -1.7455
 2328SOL    HW218621   3.054   4.216   9.189 -0.7534  3.3084  0.1392
 2329SOL     OW18622   2.556   4.328  12.271 -0.5578  0.1744  0.2998
 2329SOL    HW118623   2.481   4.375  12.235  1.2235  2.4945 -0.4447
 2329SOL    HW218624   2.586   4.394  12.333 -0.3226 -0.4846  0.8906
 2330SOL     OW18625   2.422   2.010  13.793  0.5891 -0.4390  0.6123
 2330SOL    HW118626   2.459   1.947  13.854 -1.4861 -1.8867  0.3621
 2330SOL    HW218627   2.337   2.032  13.831  1.3166  0.9985  1.4303
 2331SOL     OW18628   1.884   4.679  12.638 -0.2938 -0.3957  0.2429
 2331SOL    HW118629   1.865   0.000  12.565  1.0392  0.3836  0.5057
 2331SOL    HW218630   1.853   4.598  12.599  1.8256 -0.6368 -0.9404
 2332SOL     OW18631   3.133   4.177   1.103 -0.4486 -0.0196 -0.0503
 2332SOL    HW118632   3.219   4.201   1.136 -0.5755 -1.7757  1.5013
 2332SOL    HW218633   3.079   4.175   1.182  1.2729  2.5687  1.1728
 2333SOL     OW18634   0.145   0.658  12.162  0.1633 -0.0734 -0.2892
 2333SOL    HW118635   0.112   0.736  12.119 -0.6085 -0.9005 -1.1894
 2333SOL    HW218636   0.240   0.661  12.154  0.1142  0.5319 -0.6007
 2334SOL     OW18637   0.778   2.292  17.549  0.9871 -0.2224 -0.3553
 2334SOL    HW118638   0.865   2.254  17.540  0.1717 -2.4142  0.8424
 2334SOL    HW218639   0.794   2.374  17.596 -0.4099 -1.1172  1.6766
 2335SOL     OW18640   3.145   2.584  11.867  0.6149 -0.1241 -0.4513
 2335SOL    HW118641   3.146   2.679  11.878 -0.6065  0.1221 -2.5584
 2335SOL    HW218642   3.116   2.586  11.776 -0.2277  2.4736 -0.1363
 2336SOL     OW18643   3.745   4.704  11.501  0.5789  0.0223  0.0470
 2336SOL    HW118644   3.769   0.014  11.421 -1.4350  0.7376 -0.1235
 2336SOL    HW218645   3.744   4.614  11.469 -0.7125  0.1984 -0.3895
 2337SOL     OW18646   0.515   1.933   4.298 -0.0206  0.6690  0.1484
 2337SOL    HW118647   0.462   1.961   4.372 -0.0621 -0.5879  0.5881
 2337SOL    HW218648   0.541   1.851   4.341 -1.0756 -0.1263 -0.7336
 2338SOL     OW18649   4.201   4.498  11.671  0.4073  0.0914 -0.1146
 2338SOL    HW118650   4.117   4.468  11.708 -1.0998  2.3281 -1.6970
 2338SOL    HW218651   4.168   4.576  11.627 -0.9757  0.4166  1.4965
 2339SOL     OW18652   2.518   2.272   3.484  0.0971 -0.1978  0.2991
 2339SOL    HW118653   2.423   2.272   3.472  0.3751  1.5263 -1.8652
 2339SOL    HW218654   2.549   2.246   3.397  0.5335  2.5699 -0.3730
 2340SOL     OW18655   3.341   4.100  10.874  0.0236  0.4124 -0.4077
 2340SOL    HW118656   3.278   4.061  10.814 -0.3746 -0.1431  0.3613
 2340SOL    HW218657   3.421   4.068  10.833  0.1322  0.1126  0.0411
 2341SOL     OW18658   4.337   0.209   7.371  0.0330  0.6830  0.1440
 2341SOL    HW118659   4.375   0.225   7.457 -0.6029 -0.7572  0.6923
 2341SOL    HW218660   4.356   0.296   7.335  2.4984  0.0620 -0.1061
 2342SOL     OW18661   4.692   0.463   8.809 -0.1214  0.0739 -0.3759
 2342SOL    HW118662   4.698   0.514   8.890  0.4415 -1.8987  0.8444
 2342SOL    HW218663   0.011   0.517   8.754  0.8991  0.0263  0.6180
 2343SOL     OW18664   4.497   1.606   5.242 -0.0474 -0.4818 -0.1972
 2343SOL    HW118665   4.468   1.641   5.158 -0.2936  1.3683  0.6740
 2343SOL    HW218666   4.462   1.516   5.242 -2.7094  0.5544  2.2574
 2344SOL     OW18667   3.767   4.577   4.195 -0.0260  0.1014 -0.4548
 2344SOL    HW118668   3.763   4.579   4.291 -2.0032 -0.1437 -0.5364
 2344SOL    HW218669   3.846   4.526   4.174 -1.2857 -2.0772  0.1583
 2345SOL     OW18670   4.408   2.005  10.488 -0.2058 -0.0818  0.1074
 2345SOL    HW118671   4.468   1.958  10.430  1.3966  0.8427  1.0219
 2345SOL    HW218672   4.411   1.944  10.561 -1.5443 -0.6537 -0.3204
 2346SOL     OW18673   3.543   1.190  16.233 -0.1404 -0.3166 -0.3835
 2346SOL    HW118674   3.636   1.205  16.249 -0.2532 -0.3338  0.2848
 2346SOL    HW218675   3.519   1.198  16.325  0.0545  2.6390 -0.5665
 2347SOL     OW18676   0.084   0.482   3.813 -0.2320  0.4583 -0.0511
 2347SOL    HW118677   0.169   0.442   3.827 -0.5082 -0.0664  0.1238
 2347SOL    HW218678   0.110   0.553   3.754 -1.2248  0.1877 -0.8249
 2348SOL     OW18679   4.190   2.807  12.938  1.0043  0.1340  0.6125
 2348SOL    HW118680   4.228   2.800  12.851  0.5433  0.1809  0.4058
 2348SOL    HW218681   4.248   2.751  12.990  1.2454 -0.8228 -0.6986
 2349SOL     OW18682   0.770   1.298   2.883 -0.3827  0.2071  0.5218
 2349SOL    HW118683   0.844   1.254   2.840  0.5433  1.4734  0.8245
 2349SOL    HW218684   0.815   1.375   2.918 -0.2284  0.9000 -1.2089
 2350SOL     OW18685   1.870   4.419   6.596  0.3421  0.3857  0.3116
 2350SOL    HW118686   1.947   4.430   6.652  0.4199 -1.1582  0.4865
 2350SOL    HW218687   1.879   4.503   6.550  2.0468  0.7337  1.2841
 2351SOL     OW18688   4.157   3.907   3.442 -0.2605 -0.5361  0.1276
 2351SOL    HW118689   4.233   3.851   3.459 -0.7777 -0.7153  1.9351
 2351SOL    HW218690   4.180   3.970   3.510 -2.1139  0.0293  0.2195
 2352SOL     OW18691   4.445   4.180  13.506  0.3571 -0.3407  0.4670
 2352SOL    HW118692   4.378   4.179  13.573 -0.5262 -1.8821 -0.4341
 2352SOL    HW218693   4.517   4.204  13.565 -0.3026 -0.4989  1.3184
 2353SOL     OW18694   0.538   0.028   6.035  0.5057 -0.2919  0.0739
 2353SOL    HW118695   0.577   0.083   5.968 -0.0289 -0.1319 -0.1117
 2353SOL    HW218696   0.465   4.726   5.986  2.7571  0.9134 -4.2365
 2354SOL     OW18697   2.599   2.184  10.010  0.6343  0.1759 -0.1319
 2354SOL    HW118698   2.608   2.182   9.915  0.6411  0.1984 -0.1317
 2354SOL    HW218699   2.632   2.097  10.031 -1.1379  0.0739  2.2609
 2355SOL     OW18700   2.462   4.100  10.198 -0.0594 -0.3309 -0.1885
 2355SOL    HW118701   2.455   4.071  10.107 -0.4035 -1.6831  0.2703
 2355SOL    HW218702   2.375   4.078  10.231  1.1696 -2.9434  1.2999
 2356SOL     OW18703   0.401   4.557   7.629 -0.2404 -0.7113  0.1656
 2356SOL    HW118704   0.446   4.640   7.647 -0.4894 -0.3374 -0.9687
 2356SOL    HW218705   0.447   4.497   7.688 -0.4538 -0.8048  0.2370
 2357SOL     OW18706   3.736   0.220   7.539 -0.3074  0.3055 -0.4325
 2357SOL    HW118707   3.731   0.183   7.451 -0.7447 -0.1038 -0.2385
 2357SOL    HW218708   3.830   0.213   7.554 -0.2311 -1.2471 -1.7168
 2358SOL     OW18709   2.632   0.421   9.086  0.0879  0.4563 -0.6350
 2358SOL    HW118710   2.565   0.483   9.113 -1.1963 -2.1908  2.2995
 2358SOL    HW218711   2.645   0.430   8.991 -2.0292 -3.6892 -1.3246
 2359SOL     OW18712   0.188   4.687   5.300  0.1412 -0.4568 -0.2780
 2359SOL    HW118713   0.272   4.734   5.301 -0.4402  0.6377 -2.4348
 2359SOL    HW218714   0.124   0.018   5.319 -1.5964 -1.9127 -0.8598
 2360SOL     OW18715   2.330   3.271   7.009 -0.2625 -0.1220 -0.0783
 2360SOL    HW118716   2.236   3.252   7.015  0.8068 -4.5788  2.9120
 2360SOL    HW218717   2.337   3.359   7.044 -2.6694  0.8761 -2.1107
 2361SOL     OW18718   3.189   0.549   2.795 -0.4018 -0.3576 -0.0416
 2361SOL    HW118719   3.256   0.583   2.854 -0.8130 -2.1664  1.4760
 2361SOL    HW218720   3.112   0.552   2.852 -0.6029 -0.6020 -0.3029
 2362SOL     OW18721   0.566   3.971  13.339 -0.3368 -0.0390  0.4905
 2362SOL    HW118722   0.655   3.937  13.343 -2.1419 -4.7952 -0.2102
 2362SOL    HW218723   0.570   4.056  13.294  0.1214 -0.5204 -0.3615
 2363SOL     OW18724   0.823   1.238   9.136  0.1841  0.1318 -0.0661
 2363SOL    HW118725   0.834   1.162   9.079 -3.0563 -0.4894  0.1599
 2363SOL    HW218726   0.730   1.238   9.157 -0.3165 -1.3980 -2.2883
 2364SOL     OW18727   1.693   0.865   5.703  0.0404  0.6516 -0.2492
 2364SOL    HW118728   1.651   0.951   5.693 -0.3936  0.6280  1.3390
 2364SOL    HW218729   1.711   0.874   5.797 -0.4912  0.2722 -0.1171
 2365SOL     OW18730   2.007   0.679   6.581  0.1494 -0.2253  0.3788
 2365SOL    HW118731   2.030   0.631   6.501  1.7589 -0.1012  0.7640
 2365SOL    HW218732   1.957   0.610   6.623 -0.6274 -0.5631 -1.0780
 2366SOL     OW18733   4.105   4.611   5.507 -0.4040 -0.0673 -0.5709
 2366SOL    HW118734   4.011   4.607   5.524 -0.2869 -0.8620 -0.0701
 2366SOL    HW218735   4.123   4.519   5.529  1.0816 -0.1887 -2.2814
 2367SOL     OW18736   2.547   1.058   3.447 -0.6689 -0.4492  0.9772
 2367SOL    HW118737   2.605   1.075   3.372 -0.9369 -2.3754  0.3358
 2367SOL    HW218738   2.478   1.123   3.431  0.3815  0.6441  0.8481
 2368SOL     OW18739   3.904   3.327   2.156 -0.3769 -0.4237  0.4621
 2368SOL    HW118740   3.821   3.309   2.112 -0.2160  0.0345 -0.0246
 2368SOL    HW218741   3.937   3.239   2.173  0.7937  0.6153  3.6911
 2369SOL     OW18742   1.131   0.615   7.697  0.2794 -0.5948 -0.3790
 2369SOL    HW118743   1.124   0.574   7.611  1.7848 -3.3361  0.8028
 2369SOL    HW218744   1.104   0.539   7.749 -1.6493  0.1664 -0.2554
 2370SOL     OW18745   1.716   3.206   5.083  0.1488 -0.5459  0.5480
 2370SOL    HW118746   1.720   3.291   5.127 -2.0104 -0.2854  0.2439
 2370SOL    HW218747   1.627   3.175   5.098  0.1388 -0.5056  0.5726
 2371SOL     OW18748   0.866   1.839   7.327 -0.1144 -0.4132  0.1822
 2371SOL    HW118749   0.861   1.747   7.304 -1.3125  0.1149 -1.7255
 2371SOL    HW218750   0.773   1.845   7.351 -0.2468  2.9927 -1.1818
 2372SOL     OW18751   3.954   3.504   2.921 -0.1976 -0.0352 -0.0180
 2372SOL    HW118752   4.029   3.458   2.884 -1.1509 -1.4284 -0.2031
 2372SOL    HW218753   3.915   3.541   2.842 -0.4698 -0.1727  0.0547
 2373SOL     OW18754   0.706   1.080   5.147  0.7371 -0.1965  0.5015
 2373SOL    HW118755   0.752   1.113   5.069 -0.6389  0.7464  0.0927
 2373SOL    HW218756   0.775   1.031   5.192  0.1660 -0.3586  1.2056
 2374SOL     OW18757   2.657   1.341   7.792 -0.3941 -0.5805 -0.0279
 2374SOL    HW118758   2.628   1.273   7.853  1.3018 -0.7146  0.6335
 2374SOL    HW218759   2.580   1.395   7.779 -0.4844 -0.6317  0.3045
 2375SOL     OW18760   1.996   0.360  16.777  0.6213 -0.1964 -0.3006
 2375SOL    HW118761   1.902   0.370  16.793  1.0226  2.8093  0.1249
 2375SOL    HW218762   2.010   0.418  16.703 -1.5682  1.7831  0.8526
 2376SOL     OW18763   1.341   4.005  13.615  0.7217  0.2618 -0.5778
 2376SOL    HW118764   1.343   3.948  13.539  1.6228  0.7830 -0.9555
 2376SOL    HW218765   1.353   3.939  13.683  0.0903 -1.7915 -2.4693
 2377SOL     OW18766   4.279   0.444   0.673  0.1342  0.1682  0.6804
 2377SOL    HW118767   4.373   0.430   0.690  0.2747 -0.2815 -0.4604
 2377SOL    HW218768   4.249   0.490   0.751  0.1828  1.5514 -0.1181
 2378SOL     OW18769   3.608   0.598   7.640 -0.0264 -0.3723 -0.0898
 2378SOL    HW118770   3.649   0.617   7.556 -0.7698  0.1001 -0.3503
 2378SOL    HW218771   3.537   0.539   7.613  0.2447  0.3498 -2.3399
 2379SOL     OW18772   1.198   1.617   5.564 -0.1152 -0.1320 -0.2893
 2379SOL    HW118773   1.275   1.605   5.620 -1.2781 -0.0892  1.3293
 2379SOL    HW218774   1.194   1.539   5.508  0.7054 -0.6393  0.3547
 2380SOL     OW18775   3.418   1.730   6.233  0.4248  0.4462  0.4229
 2380SOL    HW118776   3.448   1.819   6.250 -1.5666  1.1313  0.3921
 2380SOL    HW218777   3.472   1.717   6.155  2.0359  0.7096  1.4947
 2381SOL     OW18778   3.480   1.539   8.717 -0.2866  0.4029  0.1164
 2381SOL    HW118779   3.544   1.562   8.784  1.1910  1.0249 -1.4996
 2381SOL    HW218780   3.540   1.527   8.643 -0.2715  0.4116  0.1272
 2382SOL     OW18781   3.369   1.802   7.612 -0.5225 -0.0699 -0.3947
 2382SOL    HW118782   3.426   1.879   7.611  0.3024 -0.6803 -0.5853
 2382SOL    HW218783   3.412   1.746   7.547  1.1825  0.5882  0.1473
 2383SOL     OW18784   2.959   3.115   3.403 -0.1097 -0.0089  0.2456
 2383SOL    HW118785   3.053   3.111   3.385 -0.0187 -4.0559  1.6346
 2383SOL    HW218786   2.938   3.205   3.380 -3.0906 -0.4755  1.1460
 2384SOL     OW18787   3.715   1.423   8.507 -0.0323  0.6945  0.2602
 2384SOL    HW118788   3.705   1.366   8.431  0.1202  0.7009  0.2353
 2384SOL    HW218789   3.810   1.431   8.506 -0.1289  1.8226 -0.5249
 2385SOL     OW18790   0.155   2.100   3.522 -0.3528  0.2668 -0.0653
 2385SOL    HW118791   0.077   2.135   3.479 -1.1324 -1.3605  0.0035
 2385SOL    HW218792   0.130   2.116   3.613  1.9313  1.4776  0.3464
 2386SOL     OW18793   3.710   2.684  13.612  1.0329 -0.2908  0.0593
 2386SOL    HW118794   3.799   2.651  13.629  0.3863 -0.6145  2.8060
 2386SOL    HW218795   3.731   2.774  13.585 -2.1033  0.2854 -0.3671
 2387SOL     OW18796   0.965   1.755   3.758 -0.4094 -0.4017 -0.4191
 2387SOL    HW118797   0.989   1.669   3.725  2.0815  0.1391 -0.0107
 2387SOL    HW218798   0.878   1.734   3.791 -0.5364  1.3201  0.3442
 2388SOL     OW18799   0.128   2.642   8.260 -0.1421 -0.4203  0.4748
 2388SOL    HW118800   0.076   2.562   8.264 -1.4386  0.3626 -0.5633
 2388SOL    HW218801   0.151   2.645   8.352  0.3622 -0.3428  0.3440
 2389SOL     OW18802   3.530   4.216  12.262  0.1086  0.1876 -0.3683
 2389SOL    HW118803   3.538   4.163  12.341  4.0486 -0.1183 -0.9680
 2389SOL    HW218804   3.516   4.154  12.190  2.0381 -1.7529  0.9426
 2390SOL     OW18805   3.097   0.026   1.443  0.1928  0.2110 -0.0335
 2390SOL    HW118806   3.077   4.721   1.526  0.6363 -2.4582 -1.2891
 2390SOL    HW218807   3.111   4.685   1.389  1.7200  1.1275 -0.9621
 2391SOL     OW18808   1.642   0.110   6.488 -0.4422 -0.8758 -0.5100
 2391SOL    HW118809   1.573   0.126   6.552  0.4327  0.1688  0.1759
 2391SOL    HW218810   1.599   0.085   6.406 -1.8656  1.1571 -0.3879
 2392SOL     OW18811   1.047   2.850   0.108 -0.1195 -0.3112 -0.3683
 2392SOL    HW118812   1.089   2.866   0.024 -3.3361 -0.9515 -2.0575
 2392SOL    HW218813   1.040   2.755   0.096  2.1217 -0.3503 -1.4269
 2393SOL     OW18814   1.025   0.034   8.739 -0.2981 -0.1984 -0.0895
 2393SOL    HW118815   0.970   0.051   8.663 -1.5208  3.3712  1.6133
 2393SOL    HW218816   1.095   4.722   8.697 -0.8670 -0.9926 -0.1000
 2394SOL     OW18817   2.036   0.369   2.175  0.4899  0.8316 -0.4395
 2394SOL    HW118818   2.007   0.295   2.123  2.2396 -0.7099  0.7927
 2394SOL    HW218819   1.958   0.379   2.230  0.0960  0.5050 -0.9385
 2395SOL     OW18820   1.073   3.952  10.952  0.0307 -0.1363  0.2155
 2395SOL    HW118821   1.092   3.986  11.040  0.6952  2.0673 -0.7647
 2395SOL    HW218822   1.142   3.886  10.941 -0.6023 -0.8766  0.7183
 2396SOL     OW18823   4.166   3.316  16.791  0.4949  0.0592 -0.3388
 2396SOL    HW118824   4.085   3.366  16.787  0.0829 -0.4345  1.5909
 2396SOL    HW218825   4.141   3.225  16.812  0.6233  0.5077  1.8083
 2397SOL     OW18826   2.280   4.306   6.823 -0.4465  0.4309  0.2931
 2397SOL    HW118827   2.324   4.233   6.867 -1.6521 -0.3740  0.1610
 2397SOL    HW218828   2.213   4.258   6.774 -0.5872 -0.2605  1.1674
 2398SOL     OW18829   1.124   1.893   6.686  0.1890  0.4331 -0.1566
 2398SOL    HW118830   1.190   1.931   6.743 -0.8865  0.2064  1.2232
 2398SOL    HW218831   1.089   1.828   6.747 -0.8581  0.4013 -0.7806
 2399SOL     OW18832   0.314   2.685   5.985  0.0491  0.0208  0.0021
 2399SOL    HW118833   0.332   2.777   5.964 -0.9570  0.1164 -0.4405
 2399SOL    HW218834   0.323   2.691   6.080 -1.5451  0.1405  0.1487
 2400SOL     OW18835   1.597   1.187   6.829 -0.2689 -0.3308  0.2869
 2400SOL    HW118836   1.511   1.227   6.817  0.0516  0.1361 -0.4312
 2400SOL    HW218837   1.633   1.275   6.842  0.2182 -0.4730 -0.1264
 2401SOL     OW18838   3.176   3.345   5.671  0.5595  0.5516 -0.3493
 2401SOL    HW118839   3.268   3.367   5.662  0.9310 -1.1009 -0.4629
 2401SOL    HW218840   3.138   3.433   5.674  1.5643  0.9338  1.4518
 2402SOL     OW18841   2.789   3.186   8.228 -0.1781 -0.5632  0.6522
 2402SOL    HW118842   2.709   3.230   8.258  1.9178  1.3156  3.4875
 2402SOL    HW218843   2.849   3.236   8.283  0.5800 -2.0455  1.1766
 2403SOL     OW18844   1.905   2.404  14.464 -0.0122 -0.2225 -0.4293
 2403SOL    HW118845   1.959   2.353  14.403 -0.4047 -0.9492 -0.1655
 2403SOL    HW218846   1.888   2.486  14.416 -1.0312  0.2423  0.7210
 2404SOL     OW18847   1.460   4.732   4.348 -0.2585  0.3063  0.2181
 2404SOL    HW118848   1.433   0.016   4.437 -0.3541  1.5410 -0.0929
 2404SOL    HW218849   1.386   4.693   4.302 -0.6027  0.3750  0.7150
 2405SOL     OW18850   2.609   4.285  14.432 -0.0973 -0.7168 -0.9228
 2405SOL    HW118851   2.597   4.260  14.340  0.1976 -2.0991 -0.5881
 2405SOL    HW218852   2.655   4.210  14.468  0.9463  1.6923  2.6757
 2406SOL     OW18853   3.964   1.980  11.505 -0.8658 -0.6622  0.8329
 2406SOL    HW118854   4.056   1.969  11.482 -0.8928 -2.1034  1.4083
 2406SOL    HW218855   3.958   1.918  11.577  0.6492 -0.7955  0.8351
 2407SOL     OW18856   0.221   3.231   6.630  0.4355  0.0811 -0.5851
 2407SOL    HW118857   0.188   3.320   6.644 -3.7238 -1.4628 -0.6784
 2407SOL    HW218858   0.164   3.178   6.685  0.6309  1.0121  0.5262
 2408SOL     OW18859   1.215   3.769  17.645  0.1452  0.7457 -0.5696
 2408SOL    HW118860   1.211   3.857  17.606 -2.5278  1.0923  0.4673
 2408SOL    HW218861   1.122   3.745  17.647  0.3531 -0.0354 -0.5929
 2409SOL     OW18862   1.996   1.052   8.272 -0.5499  0.0490  0.4080
 2409SOL    HW118863   2.038   1.067   8.357 -3.6495  0.4657  1.8362
 2409SOL    HW218864   2.035   1.117   8.214 -0.6745 -0.2433 -0.0032
 2410SOL     OW18865   2.275   0.745  13.931 -0.1981  0.8430  0.3095
 2410SOL    HW118866   2.196   0.700  13.900  0.9052  0.4965 -1.9542
 2410SOL    HW218867   2.308   0.685  13.998 -0.6516  0.6893  0.4001
 2411SOL     OW18868   4.020   2.326  15.168 -0.0269  0.3881 -0.7702
 2411SOL    HW118869   3.963   2.253  15.194  1.2701 -0.5125 -0.4521
 2411SOL    HW218870   4.055   2.355  15.252 -0.8218 -2.8710  0.6930
 2412SOL     OW18871   2.668   1.467   8.174 -0.4515 -0.5090 -0.3806
 2412SOL    HW118872   2.694   1.501   8.259  0.7115 -0.9071 -0.5755
 2412SOL    HW218873   2.581   1.505   8.159 -0.3420 -0.2790 -0.4425
 2413SOL     OW18874   1.731   2.404  11.529 -0.2399 -0.0603  0.2761
 2413SOL    HW118875   1.763   2.480  11.481  0.1899  0.5547  1.5269
 2413SOL    HW218876   1.652   2.387  11.477 -0.2491  2.1497 -0.3986
 2414SOL     OW18877   1.763   1.628   3.840 -0.4080  0.4193 -0.1530
 2414SOL    HW118878   1.812   1.697   3.885  1.0572  0.5442 -1.9551
 2414SOL    HW218879   1.836   1.567   3.843 -0.3132  0.5950  1.0236
 2415SOL     OW18880   3.723   3.395  15.864 -0.3112  0.1083  0.0198
 2415SOL    HW118881   3.778   3.455  15.814  1.5164 -2.6207 -1.2549
 2415SOL    HW218882   3.670   3.354  15.796 -1.2111  0.6444  0.3949
 2416SOL     OW18883   3.091   2.946   6.354 -0.2637 -0.0063 -0.9675
 2416SOL    HW118884   3.167   2.957   6.297  0.3749  1.1585  0.1145
 2416SOL    HW218885   3.059   2.860   6.326  0.3118 -0.2961 -0.7474
 2417SOL     OW18886   1.520   0.645   3.865 -0.6214  0.3401 -0.5836
 2417SOL    HW118887   1.614   0.626   3.870 -0.2320  2.4327 -0.0438
 2417SOL    HW218888   1.525   0.702   3.789  2.6684  1.1533  0.2484
 2418SOL     OW18889   3.712   1.139   7.989  0.0275  0.5232 -0.5697
 2418SOL    HW118890   3.790   1.195   7.981  1.2499 -1.1496 -0.4261
 2418SOL    HW218891   3.653   1.186   7.931 -0.3939 -0.1690 -0.6952
 2419SOL     OW18892   4.569   1.426  13.056 -0.7739  0.4166  0.2033
 2419SOL    HW118893   4.581   1.376  13.137 -2.6358 -0.3796  0.0035
 2419SOL    HW218894   4.545   1.513  13.088 -1.3287  1.0551 -1.9483
 2420SOL     OW18895   2.640   0.835   2.181 -0.0574 -0.4083  0.4658
 2420SOL    HW118896   2.606   0.746   2.189  1.3624 -1.1247 -1.5859
 2420SOL    HW218897   2.694   0.832   2.260 -0.8272  1.8958  1.0774
 2421SOL     OW18898   0.560   4.153   8.936 -0.0681  0.1838  0.4452
 2421SOL    HW118899   0.615   4.185   8.864 -0.2481  1.7283  0.9972
 2421SOL    HW218900   0.602   4.069   8.950 -0.1146  0.0025 -0.4617
 2422SOL     OW18901   1.410   3.278   8.760 -0.0106 -0.8886  0.2454
 2422SOL    HW118902   1.404   3.192   8.719 -0.4430 -0.4769 -0.5453
 2422SOL    HW218903   1.336   3.267   8.820 -0.3152  0.8935  0.1938
 2423SOL     OW18904   2.002   0.249  13.043 -0.0659  0.3660  0.0577
 2423SOL    HW118905   2.032   0.252  13.134  2.9278 -0.5308 -0.8803
 2423SOL    HW218906   2.069   0.185  13.017 -0.1684  0.5089 -0.5464
 2424SOL     OW18907   3.937   2.350   3.721  0.0171 -0.0913  0.4430
 2424SOL    HW118908   3.869   2.283   3.735 -1.4805  1.2705 -0.3137
 2424SOL    HW218909   3.891   2.413   3.776 -2.0962 -1.6499  0.4706
 2425SOL     OW18910   1.660   2.359   3.128 -0.2878 -0.4474 -0.7961
 2425SOL    HW118911   1.719   2.434   3.124 -2.1160  1.0593  0.5341
 2425SOL    HW218912   1.579   2.394   3.166  0.5398  1.4100 -0.7529
 2426SOL     OW18913   0.679   3.045  12.346  0.3989  0.5374  0.1932
 2426SOL    HW118914   0.660   2.970  12.401 -1.5321  0.8688 -0.0382
 2426SOL    HW218915   0.598   3.050  12.295 -0.1990  0.5289  1.1516
 2427SOL     OW18916   1.726   1.038   4.139  0.2896  0.1005  0.6171
 2427SOL    HW118917   1.789   0.969   4.159 -0.2670 -0.4629  0.4051
 2427SOL    HW218918   1.754   1.115   4.188  0.3673 -0.9830  2.2847
 2428SOL     OW18919   2.456   0.089   9.273  0.6507 -0.0539  0.1233
 2428SOL    HW118920   2.458   0.050   9.361  1.2861  2.1125  1.0703
 2428SOL    HW218921   2.478   0.013   9.218  0.4298 -0.8039  1.0652
 2429SOL     OW18922   3.398   1.720   4.374 -0.0637  0.4816 -0.2070
 2429SOL    HW118923   3.353   1.675   4.303  0.1582  0.9806 -0.6604
 2429SOL    HW218924   3.474   1.661   4.380  1.4897  2.3751 -1.4654
 2430SOL     OW18925   3.676   4.278   0.400 -0.5225 -0.5988  0.1602
 2430SOL    HW118926   3.704   4.348   0.459  0.9431 -0.5488 -0.5917
 2430SOL    HW218927   3.665   4.329   0.320  1.0671  0.0437  0.3481
 2431SOL     OW18928   3.584   3.649   2.659 -0.1356  0.2254 -0.3368
 2431SOL    HW118929   3.548   3.597   2.731  1.4709 -1.9774 -1.1283
 2431SOL    HW218930   3.529   3.618   2.587  0.0469  0.5765 -0.6294
 2432SOL     OW18931   2.804   2.180   5.239 -0.1027 -0.1640  1.0476
 2432SOL    HW118932   2.848   2.263   5.257 -0.5635  0.4129 -0.5159
 2432SOL    HW218933   2.711   2.201   5.243 -0.7460 -2.3424 -2.2681
 2433SOL     OW18934   3.873   1.779   6.437 -0.1257 -0.5197  0.3526
 2433SOL    HW118935   3.893   1.845   6.372 -2.2945  0.0140  0.2372
 2433SOL    HW218936   3.837   1.825   6.513  1.7206  1.4722  0.0326
 2434SOL     OW18937   2.465   1.901   7.695 -0.1975 -0.2493  0.3743
 2434SOL    HW118938   2.521   1.860   7.761 -0.0817 -1.4509 -0.4604
 2434SOL    HW218939   2.533   1.911   7.628 -1.7739 -1.4963 -1.4325
 2435SOL     OW18940   4.655   3.864   6.560  0.2414  0.3437  0.3849
 2435SOL    HW118941   4.720   3.904   6.501  0.2781 -1.3218 -0.7124
 2435SOL    HW218942   4.575   3.875   6.508  0.9504 -0.5325 -0.8826
 2436SOL     OW18943   3.043   0.595  13.943 -0.4295 -0.3188  0.0221
 2436SOL    HW118944   3.079   0.554  14.022  0.2343  0.1721 -0.0296
 2436SOL    HW218945   3.078   0.535  13.877 -0.0320 -0.3589  0.2678
 2437SOL     OW18946   1.387   3.075   5.575 -0.1136  0.6384  0.2041
 2437SOL    HW118947   1.364   3.162   5.607 -0.2934  0.2857  1.0563
 2437SOL    HW218948   1.404   3.021   5.653 -1.3443 -1.5952 -1.0614
 2438SOL     OW18949   4.191   4.502  16.636 -0.1380  0.2302  0.8188
 2438SOL    HW118950   4.189   4.576  16.575 -1.8685  0.5285  1.2380
 2438SOL    HW218951   4.262   4.520  16.698 -1.4303  1.8403  1.8448
 2439SOL     OW18952   3.706   1.011   9.678 -0.4588 -1.0258  0.0304
 2439SOL    HW118953   3.626   1.056   9.706 -0.2201 -1.0310  0.7251
 2439SOL    HW218954   3.740   0.980   9.762  0.7888 -2.9328 -1.1667
 2440SOL     OW18955   3.234   0.533   4.617  0.0817  0.4014  0.3899
 2440SOL    HW118956   3.146   0.572   4.612 -0.4183 -0.6224  1.2657
 2440SOL    HW218957   3.266   0.583   4.542  2.4790 -1.2610  0.3132
 2441SOL     OW18958   2.425   0.350   8.443  0.1763  0.3792  0.1366
 2441SOL    HW118959   2.515   0.332   8.416 -0.0531 -2.1347  0.9917
 2441SOL    HW218960   2.441   0.395   8.526  1.3701  1.6611 -0.7974
 2442SOL     OW18961   4.621   2.274   7.986  0.1611 -0.6317 -0.3372
 2442SOL    HW118962   4.602   2.343   7.923 -1.6315 -0.7287  0.0851
 2442SOL    HW218963   4.575   2.196   7.954 -3.3897  1.7519 -1.0543
 2443SOL     OW18964   0.156   2.516   6.880 -0.5214  0.1367 -0.3579
 2443SOL    HW118965   0.170   2.579   6.810  1.3533  0.4297  0.3006
 2443SOL    HW218966   0.239   2.471   6.868  0.0577  1.3761 -0.9672
 2444SOL     OW18967   3.217   3.253  15.224 -0.5379 -0.7558 -0.1080
 2444SOL    HW118968   3.310   3.244  15.244 -0.8600 -2.1970  0.7417
 2444SOL    HW218969   3.206   3.254  15.129 -1.3620  1.4863  0.0087
 2445SOL     OW18970   2.431   4.024   6.591 -0.0679  0.1050  0.1670
 2445SOL    HW118971   2.363   4.056   6.650 -0.7866  0.0884 -0.6548
 2445SOL    HW218972   2.375   4.015   6.514  0.0594 -1.0840  0.2248
 2446SOL     OW18973   4.143   1.335  17.594 -0.6919  0.9022  0.1452
 2446SOL    HW118974   4.217   1.307  17.541  0.0727 -0.8058  2.1025
 2446SOL    HW218975   4.072   1.284  17.556 -1.1556  1.8664 -0.2952
 2447SOL     OW18976   0.106   1.343  12.209  0.3235  0.5441  0.3441
 2447SOL    HW118977   0.117   1.425  12.161 -0.2358  0.2532 -0.2761
 2447SOL    HW218978   0.198   1.321  12.222  0.7101  1.2193 -1.2183
 2448SOL     OW18979   2.652   4.423  10.866  0.5715  0.2060  0.6076
 2448SOL    HW118980   2.652   4.439  10.960 -0.8930  0.1636  0.6142
 2448SOL    HW218981   2.717   4.482  10.829  1.2172 -0.7396  0.2353
 2449SOL     OW18982   0.671   2.152   4.224  0.1811  0.6326 -0.0756
 2449SOL    HW118983   0.650   2.156   4.130 -2.1375  2.1139  0.5036
 2449SOL    HW218984   0.627   2.072   4.252 -0.3070  1.3210  1.1244
 2450SOL     OW18985   0.093   3.119   9.340  0.3734 -0.3570 -0.0426
 2450SOL    HW118986   0.124   3.120   9.431  0.8675 -1.0125 -0.1989
 2450SOL    HW218987   0.085   3.212   9.320  3.4100  0.0377  0.6055
 2451SOL     OW18988   4.346   2.032  15.807 -0.6289 -0.0031  0.8556
 2451SOL    HW118989   4.413   2.059  15.869  1.7881 -0.9471 -1.3377
 2451SOL    HW218990   4.265   2.001  15.846  1.0529 -1.8267  2.8923
 2452SOL     OW18991   0.272   0.231   6.221 -0.0879 -0.1607  0.0612
 2452SOL    HW118992   0.319   0.278   6.290 -1.4408 -1.5073  1.8898
 2452SOL    HW218993   0.328   0.160   6.190 -0.9830 -0.2934 -1.2351
 2453SOL     OW18994   2.954   4.181   7.499 -0.0598  0.7969 -0.1879
 2453SOL    HW118995   2.980   4.250   7.559  1.6892  0.0522 -0.0978
 2453SOL    HW218996   2.867   4.152   7.528  0.7463 -0.4892  0.9126
 2454SOL     OW18997   2.169   0.638   5.243 -0.1294  0.2671  0.2499
 2454SOL    HW118998   2.136   0.710   5.297  1.4430  1.3077 -0.1947
 2454SOL    HW218999   2.243   0.610   5.297  0.9523  3.4641  0.4357
 2455SOL     OW19000   0.280   2.174   3.752 -0.1960  0.4744  0.1575
 2455SOL    HW119001   0.216   2.245   3.753  0.9584  1.4944  1.0707
 2455SOL    HW219002   0.355   2.226   3.722 -1.0490  1.7812  0.2899
 2456SOL     OW19003   0.236   3.050  15.517 -0.4897  0.0678  0.1928
 2456SOL    HW119004   0.234   2.986  15.589 -0.3640 -0.5599 -0.3607
 2456SOL    HW219005   0.158   3.103  15.535 -1.6897 -0.9692 -1.9517
 2457SOL     OW19006   0.901   3.537   6.361  0.3999  0.0774 -0.0904
 2457SOL    HW119007   0.840   3.464   6.348  1.9798 -0.9543 -1.7010
 2457SOL    HW219008   0.859   3.590   6.429  0.8654 -0.0350  0.2862
 2458SOL     OW19009   3.984   1.727   3.798  0.4673  0.0807 -0.0935
 2458SOL    HW119010   3.945   1.646   3.766  0.7801  0.5574 -1.6565
 2458SOL    HW219011   4.059   1.687   3.843 -1.4541 -0.6873  2.4281
 2459SOL     OW19012   3.077   1.376   5.129 -0.5976  0.1222  0.2683
 2459SOL    HW119013   3.158   1.421   5.153 -0.7363  0.6514 -0.2673
 2459SOL    HW219014   3.071   1.307   5.195 -1.8835  0.3233  0.3650
 2460SOL     OW19015   2.813   2.634   5.752 -0.3088  0.2162  0.6627
 2460SOL    HW119016   2.757   2.557   5.746  1.8357 -1.4576  1.6503
 2460SOL    HW219017   2.752   2.705   5.737  0.0153 -0.0970 -2.0294
 2461SOL     OW19018   4.381   4.700   5.864 -0.6508 -0.3864  0.2040
 2461SOL    HW119019   4.370   0.051   5.897  1.1026  0.2323 -0.8734
 2461SOL    HW219020   4.331   4.717   5.784  3.1731  1.4392 -1.8390
 2462SOL     OW19021   0.802   0.976   2.126  0.5869 -0.1490 -0.4628
 2462SOL    HW119022   0.770   1.017   2.207  0.4345 -1.0693 -0.0623
 2462SOL    HW219023   0.725   0.986   2.070  0.9541  0.6359 -0.8361
 2463SOL     OW19024   4.416   2.927   4.137  0.1148  0.4315  0.5032
 2463SOL    HW119025   4.468   2.949   4.215  1.8214  1.0786 -0.8131
 2463SOL    HW219026   4.457   2.844   4.110 -0.0933  0.3547  0.4283
 2464SOL     OW19027   1.499   1.608   3.395 -0.5084 -0.3197  0.2725
 2464SOL    HW119028   1.586   1.600   3.433 -0.0013 -1.2266 -1.0832
 2464SOL    HW219029   1.526   1.643   3.310  1.4883 -0.3148  0.9094
 2465SOL     OW19030   0.138   4.193   1.844 -0.4652  0.3927 -0.1565
 2465SOL    HW119031   0.133   4.246   1.924  1.4264 -0.6790  0.6638
 2465SOL    HW219032   0.202   4.128   1.871  0.2399  1.2774  0.3318
 2466SOL     OW19033   1.377   1.928   4.181 -0.0525  0.0727 -0.5115
 2466SOL    HW119034   1.403   1.878   4.104  2.0808  1.2116 -0.5333
 2466SOL    HW219035   1.353   2.017   4.158 -0.8511 -0.2872 -1.0798
 2467SOL     OW19036   1.983   3.832   5.865 -0.0268 -0.4201  0.2575
 2467SOL    HW119037   2.013   3.755   5.912  1.1379  0.7267  1.4009
 2467SOL    HW219038   2.040   3.819   5.790  1.3110  0.9104  1.0372
 2468SOL     OW19039   0.134   1.421   2.547  0.4484  0.4845 -0.1351
 2468SOL    HW119040   0.205   1.357   2.555  2.0929  2.2723 -0.3905
 2468SOL    HW219041   0.102   1.396   2.461 -0.2014 -2.0364  0.8389
 2469SOL     OW19042   1.741   0.262   1.692 -0.8161 -1.0509 -0.3520
 2469SOL    HW119043   1.694   0.181   1.712  0.5302 -1.5677  0.7293
 2469SOL    HW219044   1.669   0.323   1.700  0.1517 -0.0733  0.8943
 2470SOL     OW19045   3.505   4.557   2.367 -0.2639  0.0616 -0.1547
 2470SOL    HW119046   3.452   4.487   2.405  0.8424 -0.3805  0.5568
 2470SOL    HW219047   3.587   4.515   2.343  0.7658  2.6173 -1.2092
 2471SOL     OW19048   0.381   1.954   6.134 -0.1708 -0.1387 -0.2841
 2471SOL    HW119049   0.316   2.016   6.100 -2.1226 -2.3109 -0.5382
 2471SOL    HW219050   0.412   1.924   6.049  2.0786  2.1363 -0.2701
 2472SOL     OW19051   0.810   2.775   2.839  0.2530 -0.0720  0.2991
 2472SOL    HW119052   0.805   2.854   2.787 -0.2004 -1.0716 -1.1786
 2472SOL    HW219053   0.771   2.722   2.770  1.3919 -0.1326 -0.2929
 2473SOL     OW19054   2.144   4.370  13.897 -0.3657 -0.1121  0.2626
 2473SOL    HW119055   2.090   4.290  13.901  0.5477 -0.6010  2.6981
 2473SOL    HW219056   2.178   4.359  13.808  1.9901  0.5058  1.0889
 2474SOL     OW19057   1.469   4.719   2.609  0.0074 -0.2303 -0.1860
 2474SOL    HW119058   1.502   0.068   2.635 -2.2031  0.6590 -0.2798
 2474SOL    HW219059   1.407   0.004   2.539 -0.1714 -0.1552 -0.0056
 2475SOL     OW19060   0.159   3.426   1.099 -0.1412  0.1158 -0.1486
 2475SOL    HW119061   0.223   3.491   1.128  2.0962 -2.2441  0.2232
 2475SOL    HW219062   0.104   3.409   1.176  0.7533  0.4180  0.5536
 2476SOL     OW19063   4.469   4.318   3.546 -0.2968 -0.6583 -0.1526
 2476SOL    HW119064   4.445   4.306   3.638  1.1370  0.3707  0.3496
 2476SOL    HW219065   4.537   4.256   3.521  0.6834 -0.1121  1.1718
 2477SOL     OW19066   3.814   1.302   4.245  0.1549  0.4870 -0.3770
 2477SOL    HW119067   3.852   1.273   4.162  1.9103  0.8559  0.2887
 2477SOL    HW219068   3.742   1.355   4.211 -0.1114  0.4063  0.0675
 2478SOL     OW19069   3.185   3.847   1.890 -0.0008 -0.2322 -0.4221
 2478SOL    HW119070   3.109   3.845   1.832 -0.1732 -0.1828 -0.2013
 2478SOL    HW219071   3.145   3.892   1.965 -2.7177 -2.7454 -0.3751
 2479SOL     OW19072   2.108   0.260  13.291  0.2294  0.2210  0.3706
 2479SOL    HW119073   2.098   0.337  13.347  1.2459 -0.6223  1.7217
 2479SOL    HW219074   2.201   0.236  13.293  0.2639  0.2369 -1.1484
 2480SOL     OW19075   2.413   3.515   7.116 -0.0657 -0.4083 -0.7472
 2480SOL    HW119076   2.419   3.539   7.024  2.4156  1.4618 -0.1006
 2480SOL    HW219077   2.499   3.476   7.133  0.2332 -0.0796 -1.5106
 2481SOL     OW19078   2.574   2.181   9.469 -0.4589  0.1230  0.0876
 2481SOL    HW119079   2.503   2.119   9.452 -0.1814  0.0565 -0.8413
 2481SOL    HW219080   2.525   2.256   9.504 -0.2646 -0.1426  0.9253
 2482SOL     OW19081   2.370   4.326  12.809  0.4115 -0.0233 -0.1512
 2482SOL    HW119082   2.427   4.367  12.873 -1.7997 -0.9578  2.4211
 2482SOL    HW219083   2.287   4.371  12.825  0.6041 -0.0905  0.9943
 2483SOL     OW19084   4.295   4.489  12.074  0.1936  0.2475  0.4779
 2483SOL    HW119085   4.301   4.405  12.028 -0.0258 -0.6832  2.1711
 2483SOL    HW219086   4.261   4.552  12.010  1.3542 -1.3611 -1.7280
 2484SOL     OW19087   3.666   0.107   4.103  0.2043 -0.1496  0.2383
 2484SOL    HW119088   3.715   0.026   4.117 -1.2119 -0.8302  1.1681
 2484SOL    HW219089   3.723   0.169   4.150  2.8524 -2.6103  0.2428
 2485SOL     OW19090   4.729   3.238   8.931 -0.3568 -0.1821 -0.5899
 2485SOL    HW119091   4.676   3.252   9.010 -2.2581  0.4428 -1.9637
 2485SOL    HW219092   4.726   3.329   8.901  0.0470  0.5143  1.4603
 2486SOL     OW19093   0.292   3.985  14.620 -0.1680 -0.5121  0.2328
 2486SOL    HW119094   0.307   4.078  14.637  1.5585 -1.0036  1.3806
 2486SOL    HW219095   0.288   3.953  14.710 -2.2226 -0.3590  0.1846
 2487SOL     OW19096   4.257   2.698   3.987 -0.0137  0.4055 -0.0584
 2487SOL    HW119097   4.219   2.644   3.918  1.6709  0.5122 -1.0777
 2487SOL    HW219098   4.228   2.786   3.961 -2.9084 -0.6804 -0.5373
 2488SOL     OW19099   2.973   3.697  10.099 -0.6080 -0.0599 -0.3611
 2488SOL    HW119100   3.011   3.784  10.114 -1.6221  0.3895 -0.4269
 2488SOL    HW219101   2.884   3.697  10.133 -0.6345 -0.7529 -0.4264
 2489SOL     OW19102   3.622   2.497   3.491  0.2393  0.1591  0.0015
 2489SOL    HW119103   3.586   2.516   3.578 -0.1208 -0.1612 -0.0763
 2489SOL    HW219104   3.713   2.524   3.504 -0.0649  0.7420  0.9454
 2490SOL     OW19105   4.431   2.272   3.616  0.2739 -0.4106 -0.2759
 2490SOL    HW119106   4.360   2.209   3.633  0.0914 -0.8640 -2.6906
 2490SOL    HW219107   4.449   2.307   3.703 -1.0342 -0.4573  0.0174
 2491SOL     OW19108   3.306   2.416  10.014 -0.6894  0.0251 -0.4573
 2491SOL    HW119109   3.375   2.424   9.949 -1.7588  2.6569 -1.3029
 2491SOL    HW219110   3.334   2.329  10.043 -4.5171 -1.0235  0.1463
 2492SOL     OW19111   0.853   2.092   3.874 -0.0745  0.4143  0.1777
 2492SOL    HW119112   0.859   2.009   3.827  1.1733 -0.4808  1.9212
 2492SOL    HW219113   0.841   2.162   3.811  2.4581  0.7442  0.0790
 2493SOL     OW19114   3.700   4.477   7.554  0.6567 -0.1622  0.5419
 2493SOL    HW119115   3.722   4.565   7.523 -2.3827  0.4806  0.1948
 2493SOL    HW219116   3.751   4.472   7.634  1.9897  1.3481 -0.2126
 2494SOL     OW19117   4.276   0.131   3.293  0.1461  0.0761  1.3860
 2494SOL    HW119118   4.330   0.140   3.215 -3.3070  0.2432 -0.9884
 2494SOL    HW219119   4.300   0.044   3.324  0.0474 -1.0375 -1.6389
 2495SOL     OW19120   3.665   0.514  13.804  0.4289  0.5656 -0.0909
 2495SOL    HW119121   3.715   0.575  13.859  0.6238  0.1502  0.1936
 2495SOL    HW219122   3.696   0.430  13.838 -0.0539  1.4851  2.6678
 2496SOL     OW19123   1.461   3.351  11.270  0.3426  0.2601 -0.0528
 2496SOL    HW119124   1.390   3.340  11.207  0.0826 -0.0536  0.2890
 2496SOL    HW219125   1.466   3.264  11.311 -0.4002 -0.3719 -1.3004
 2497SOL     OW19126   4.227   3.970   6.307  0.0902 -0.0205 -0.7936
 2497SOL    HW119127   4.152   3.929   6.265 -0.8111  0.9605 -0.1644
 2497SOL    HW219128   4.180   4.030   6.365  0.7750  1.2303 -1.5352
 2498SOL     OW19129   4.542   2.534   7.259  0.2472 -0.1024  0.1804
 2498SOL    HW119130   4.611   2.545   7.194 -1.1722 -0.1290 -1.3632
 2498SOL    HW219131   4.573   2.596   7.325 -2.2434 -0.6942  1.9437
 2499SOL     OW19132   1.134   2.120   7.544 -0.6953  0.0006 -0.3057
 2499SOL    HW119133   1.044   2.089   7.545 -0.7982  0.3446  1.6803
 2499SOL    HW219134   1.130   2.194   7.604  0.2740  2.3569 -3.1201
 2500SOL     OW19135   4.178   3.611   1.174  0.5712  0.4411 -0.3233
 2500SOL    HW119136   4.180   3.661   1.092  1.2307  1.7650  0.4882
 2500SOL    HW219137   4.086   3.630   1.192  0.5615  1.6830 -1.6896
 2501SOL     OW19138   1.327   2.738   4.853  0.4226 -0.5856  0.1383
 2501SOL    HW119139   1.357   2.756   4.764 -0.2673  1.6920  0.3565
 2501SOL    HW219140   1.320   2.643   4.849  1.3868 -0.6856  0.6801
 2502SOL     OW19141   2.610   3.579  12.699 -0.7306  0.1340  0.1785
 2502SOL    HW119142   2.570   3.538  12.776 -0.5680  0.2453  0.3240
 2502SOL    HW219143   2.540   3.621  12.650  0.8462  0.9791 -1.3498
 2503SOL     OW19144   0.027   1.475   8.539 -0.2514  0.5810  0.3459
 2503SOL    HW119145   0.113   1.460   8.578 -0.8803 -0.4470  1.3403
 2503SOL    HW219146   0.015   1.564   8.573 -0.5338  0.2934  0.9931
 2504SOL     OW19147   4.591   4.515   1.987 -0.7093 -0.3676  0.4209
 2504SOL    HW119148   4.516   4.541   2.040  0.8796 -0.1028  2.5393
 2504SOL    HW219149   4.546   4.466   1.918 -1.9194 -1.2746  1.8498
 2505SOL     OW19150   3.214   3.237  14.956 -0.0809  0.3091  0.1958
 2505SOL    HW119151   3.131   3.194  14.934 -0.4484  1.3107 -0.3950
 2505SOL    HW219152   3.197   3.315  14.903 -0.5772 -0.9735 -1.5364
 2506SOL     OW19153   3.143   2.645   2.274 -0.2688 -0.0377 -0.1956
 2506SOL    HW119154   3.063   2.594   2.288  0.4086 -1.3811 -1.0777
 2506SOL    HW219155   3.208   2.599   2.328 -0.9201 -2.0495 -1.0862
 2507SOL     OW19156   4.596   1.495  15.103 -0.5354  0.0354 -0.4420
 2507SOL    HW119157   4.533   1.469  15.170  2.5382 -1.3372  1.9249
 2507SOL    HW219158   4.682   1.488  15.143 -0.0685  0.1720 -1.4115
 2508SOL     OW19159   1.949   2.163  10.163 -0.5517 -0.1437  0.5145
 2508SOL    HW119160   1.885   2.231  10.141  1.8183  0.7252 -3.7214
 2508SOL    HW219161   1.978   2.205  10.243 -3.9313  1.3579  0.9562
 2509SOL     OW19162   2.216   4.133   6.441  0.3593  0.5942  0.2271
 2509SOL    HW119163   2.217   4.227   6.423  2.2034  0.1242 -2.1862
 2509SOL    HW219164   2.210   4.110   6.348  2.9741  0.6857  0.0111
 2510SOL     OW19165   0.288   3.261   7.920  0.0025  0.1971  0.3681
 2510SOL    HW119166   0.202   3.248   7.961  0.3066 -1.1608  0.5855
 2510SOL    HW219167   0.284   3.354   7.899  0.0964  0.5667  1.9883
 2511SOL     OW19168   3.206   2.400  17.021  0.3154  0.7672  0.3816
 2511SOL    HW119169   3.259   2.320  17.021 -0.1746  0.4420 -0.1551
 2511SOL    HW219170   3.271   2.465  16.994  0.8220  0.6109  1.2281
 2512SOL     OW19171   1.869   0.674  12.211  0.6888 -0.1051 -0.2583
 2512SOL    HW119172   1.794   0.617  12.227  2.0673 -2.2460 -1.5084
 2512SOL    HW219173   1.946   0.628  12.244  0.7221  0.5746  0.6248
 2513SOL     OW19174   2.295   3.413   0.924 -0.3462  0.5092  0.0919
 2513SOL    HW119175   2.379   3.459   0.919 -1.0325  1.9167  2.0455
 2513SOL    HW219176   2.302   3.359   0.844  2.1808  3.0434 -1.3843
 2514SOL     OW19177   0.842   0.911   4.862  0.0033  0.8249  0.6399
 2514SOL    HW119178   0.819   0.842   4.923 -0.2361 -0.1163 -0.5153
 2514SOL    HW219179   0.763   0.938   4.814 -0.8841 -1.6061  0.7177
 2515SOL     OW19180   1.307   2.152  10.050  0.2041  0.0911 -0.1514
 2515SOL    HW119181   1.221   2.136  10.013  0.4260  1.1924 -1.1468
 2515SOL    HW219182   1.305   2.077  10.110  1.5770  0.6467  0.6024
 2516SOL     OW19183   1.295   0.787  16.662  0.6285 -0.4599  0.1603
 2516SOL    HW119184   1.278   0.868  16.710  1.6219 -0.1588  0.0140
 2516SOL    HW219185   1.373   0.819  16.617 -0.4284 -1.0414 -2.0412
 2517SOL     OW19186   0.324   2.341   6.287  0.5034  0.1571 -0.4459
 2517SOL    HW119187   0.259   2.274   6.308  2.3209 -1.5480 -0.1837
 2517SOL    HW219188   0.275   2.423   6.285 -0.2211 -0.3026 -1.4271
 2518SOL     OW19189   4.105   0.368   6.218 -0.8514 -0.1421 -0.7475
 2518SOL    HW119190   4.051   0.325   6.152  0.5076  0.2755 -2.1136
 2518SOL    HW219191   4.174   0.396   6.159  1.3967 -2.2845  0.8487
 2519SOL     OW19192   2.974   1.189   6.123 -0.0975 -0.0836  0.3358
 2519SOL    HW119193   2.991   1.218   6.213  2.0326  0.3674 -0.1977
 2519SOL    HW219194   2.894   1.140   6.141  0.4049 -0.3079  1.9462
 2520SOL     OW19195   2.430   2.396  17.118 -0.2443 -0.1835 -0.3783
 2520SOL    HW119196   2.402   2.317  17.072 -0.5103  0.1118 -0.7158
 2520SOL    HW219197   2.350   2.437  17.151  0.1155  0.2455 -0.0430
 2521SOL     OW19198   0.626   4.273   0.153  0.1613 -0.1298  0.3551
 2521SOL    HW119199   0.541   4.230   0.166 -0.3549  0.8326  0.2129
 2521SOL    HW219200   0.613   4.332   0.228 -2.1682 -0.2360  0.0405
 2522SOL     OW19201   2.620   3.170   0.561 -0.0975  0.0274 -0.0559
 2522SOL    HW119202   2.705   3.213   0.562 -1.4745  2.7870 -0.5701
 2522SOL    HW219203   2.640   3.077   0.569  1.0550  0.0781 -2.4109
 2523SOL     OW19204   0.619   4.593   8.010 -0.1260 -0.3165 -0.0150
 2523SOL    HW119205   0.705   4.553   8.026  0.3015  0.2362 -0.9270
 2523SOL    HW219206   0.637   4.655   7.939  1.8347  0.1622  0.9010
 2524SOL     OW19207   4.065   1.842   2.693  0.6089 -0.1958 -0.9020
 2524SOL    HW119208   4.015   1.765   2.667 -1.4192  1.0597 -0.7482
 2524SOL    HW219209   4.148   1.830   2.648  0.9253  2.3252 -1.0086
 2525SOL     OW19210   0.855   0.917   7.010  0.4239 -0.4735  0.2354
 2525SOL    HW119211   0.797   0.993   7.015  0.3191 -0.5054 -0.4593
 2525SOL    HW219212   0.861   0.882   7.099  1.9421 -0.9442 -0.0460
 2526SOL     OW19213   0.121   0.352   6.484 -0.4333 -0.1640 -0.5673
 2526SOL    HW119214   0.036   0.366   6.524 -0.4944 -0.2142 -0.6812
 2526SOL    HW219215   0.096   0.299   6.409  1.0207  1.0543 -1.9137
 2527SOL     OW19216   0.398   3.484   9.403  0.2453 -0.7697  0.3287
 2527SOL    HW119217   0.320   3.458   9.452 -0.4748 -0.2875 -0.5671
 2527SOL    HW219218   0.454   3.407   9.416 -1.2297 -2.1827 -1.8480
 2528SOL     OW19219   4.146   3.795  14.635  0.1263 -0.1876 -0.0385
 2528SOL    HW119220   4.219   3.774  14.576 -0.7663  0.3110 -1.3248
 2528SOL    HW219221   4.187   3.756  14.712 -0.8863  1.2072  1.2033
 2529SOL     OW19222   4.513   1.875   3.631 -0.1236  0.0670 -0.2696
 2529SOL    HW119223   4.558   1.904   3.710 -0.1611  3.1632 -1.3884
 2529SOL    HW219224   4.447   1.943   3.619  0.3544  0.5834  0.0581
 2530SOL     OW19225   0.104   3.111   5.347 -0.3195 -0.0092  0.3388
 2530SOL    HW119226   0.076   3.059   5.422  0.8016 -0.4058  0.4829
 2530SOL    HW219227   0.136   3.191   5.390  1.9465  0.0222 -1.3599
 2531SOL     OW19228   2.311   1.225   7.660  0.5189 -0.0817  0.2074
 2531SOL    HW119229   2.229   1.268   7.638  1.2500  1.1025 -0.1668
 2531SOL    HW219230   2.278   1.137   7.682 -0.6884 -0.5559 -3.6010
 2532SOL     OW19231   2.218   0.015  13.474  0.3504  0.0804  0.7734
 2532SOL    HW119232   2.265   0.097  13.460  2.2961 -1.3351 -0.9686
 2532SOL    HW219233   2.244   4.700  13.398  2.2287  0.5877  1.0548
 2533SOL     OW19234   1.977   4.065   5.240  0.2153  0.2660 -0.5377
 2533SOL    HW119235   2.007   4.143   5.285  0.7287  0.3724 -1.0667
 2533SOL    HW219236   2.000   4.083   5.149  1.3591 -1.1370 -0.5249
 2534SOL     OW19237   1.980   4.298   8.217 -0.3596  0.5288 -0.6711
 2534SOL    HW119238   2.001   4.210   8.187 -0.1626 -0.1838  1.5669
 2534SOL    HW219239   1.915   4.288   8.286  0.3396 -1.3023 -0.2769
 2535SOL     OW19240   2.648   3.014   1.349 -0.3727 -0.1920  0.3550
 2535SOL    HW119241   2.580   3.073   1.381 -0.4140 -0.5131  0.8516
 2535SOL    HW219242   2.718   3.075   1.323  1.2329 -2.6847 -1.1155
 2536SOL     OW19243   4.132   3.652   7.737 -0.1063 -0.1258 -0.2264
 2536SOL    HW119244   4.060   3.699   7.779  0.2625 -0.4635  0.7798
 2536SOL    HW219245   4.179   3.727   7.699  1.1719 -0.7310  0.1816
 2537SOL     OW19246   1.042   3.530   3.507 -0.7247  0.0382  0.2490
 2537SOL    HW119247   0.958   3.518   3.462 -0.1399  0.5527 -0.9847
 2537SOL    HW219248   1.085   3.447   3.485 -1.4282 -0.9195  2.4682
 2538SOL     OW19249   4.599   2.734   7.421  0.0663  0.5491  0.1037
 2538SOL    HW119250   4.692   2.756   7.424  0.2561 -0.1811 -0.3491
 2538SOL    HW219251   4.549   2.802   7.466 -0.8263 -1.5946  2.3584
 2539SOL     OW19252   4.404   3.908  15.707 -0.1482 -0.5639 -0.4171
 2539SOL    HW119253   4.352   3.880  15.782 -0.4943 -2.1770 -1.2755
 2539SOL    HW219254   4.468   3.935  15.773  0.0258  1.4904 -1.4278
 2540SOL     OW19255   1.289   0.995   9.649 -0.1135  0.4759 -0.0024
 2540SOL    HW119256   1.367   1.025   9.696 -0.1547 -0.2301  0.5161
 2540SOL    HW219257   1.260   0.942   9.723 -1.8181  1.0678 -0.2568
 2541SOL     OW19258   2.091   4.642   3.193  0.3436 -0.6077 -0.2299
 2541SOL    HW119259   2.179   4.679   3.185 -0.1148  0.3829 -0.7063
 2541SOL    HW219260   2.112   4.585   3.267 -2.0545 -0.5776  0.4786
 2542SOL     OW19261   4.264   4.549   7.937  0.1410  0.1969 -0.8214
 2542SOL    HW119262   4.282   4.497   8.015 -0.5918  0.1447 -0.6900
 2542SOL    HW219263   4.305   4.497   7.867  2.0426  2.6403 -1.5358
 2543SOL     OW19264   0.098   4.417   6.756 -0.1685 -0.4712  0.3007
 2543SOL    HW119265   0.058   4.371   6.683  0.1909  3.1465 -2.1996
 2543SOL    HW219266   0.130   4.492   6.705  1.3822 -1.1370  0.3145
 2544SOL     OW19267   2.835   4.411   7.857  0.4727 -0.5792 -0.3570
 2544SOL    HW119268   2.755   4.370   7.825 -0.3481 -0.6285  1.7052
 2544SOL    HW219269   2.820   4.504   7.876 -3.0857 -0.7331 -2.4391
 2545SOL     OW19270   0.897   0.557   7.037 -0.0105  0.0363  0.2401
 2545SOL    HW119271   0.832   0.543   7.106  0.1954  3.3261  1.0918
 2545SOL    HW219272   0.893   0.642   6.993 -2.0358 -1.2731 -2.1449
 2546SOL     OW19273   4.281   4.203   1.976 -0.5286 -0.7421 -0.3822
 2546SOL    HW119274   4.194   4.229   1.946 -0.3358  1.9063  1.4111
 2546SOL    HW219275   4.256   4.171   2.063 -0.5923 -0.1218 -0.1748
 2547SOL     OW19276   3.266   2.007   7.164 -0.3536 -0.6228  0.2733
 2547SOL    HW119277   3.194   1.945   7.166 -1.7645  1.0601  1.7016
 2547SOL    HW219278   3.230   2.093   7.186  0.7257  0.1737 -1.0265
 2548SOL     OW19279   1.350   1.099   9.417  0.3615  0.1912 -0.0772
 2548SOL    HW119280   1.325   1.072   9.506  0.5269  0.6082  0.0964
 2548SOL    HW219281   1.427   1.044   9.404  0.5101  0.6966 -1.3330
 2549SOL     OW19282   0.774   3.832  17.274 -0.6266 -0.3875 -0.6324
 2549SOL    HW119283   0.759   3.898  17.206  0.7681 -1.7137 -2.2214
 2549SOL    HW219284   0.802   3.892  17.344 -4.0039 -2.0138  2.1058
 2550SOL     OW19285   1.638   2.432   8.998 -0.6107 -0.5839 -0.7325
 2550SOL    HW119286   1.651   2.525   8.979 -0.2605 -0.5003 -0.0627
 2550SOL    HW219287   1.549   2.440   9.030 -0.2600 -0.5884  0.2511
 2551SOL     OW19288   2.750   3.264   1.649  0.0895  0.3013  0.5982
 2551SOL    HW119289   2.745   3.176   1.686 -0.8979  0.1465  0.0763
 2551SOL    HW219290   2.800   3.307   1.718 -1.7387 -1.6290  3.1138
 2552SOL     OW19291   0.164   0.231   7.843  0.4740  0.1831 -0.3493
 2552SOL    HW119292   0.073   0.257   7.832  0.0875 -0.3158  1.7851
 2552SOL    HW219293   0.201   0.285   7.913 -2.6084  0.9597  0.6470
 2553SOL     OW19294   2.474   4.043   1.501  0.3538 -0.0795 -0.8479
 2553SOL    HW119295   2.545   4.096   1.465 -0.8520  1.2622 -1.2698
 2553SOL    HW219296   2.415   4.046   1.426 -2.1738  1.8744  1.1892
 2554SOL     OW19297   0.283   2.208   5.841 -0.4930  0.0390  0.5484
 2554SOL    HW119298   0.260   2.294   5.877  1.4752  0.2532  1.3236
 2554SOL    HW219299   0.378   2.218   5.834 -0.4248 -0.4000  0.8509
 2555SOL     OW19300   2.196   2.786   2.251 -0.4703 -0.5616 -0.8578
 2555SOL    HW119301   2.171   2.822   2.166  0.5513 -0.2154 -1.0075
 2555SOL    HW219302   2.203   2.860   2.310  0.0634 -1.6747  0.4579
 2556SOL     OW19303   1.636   0.843   1.805  0.5944  0.0671  0.2827
 2556SOL    HW119304   1.695   0.903   1.850 -0.2330 -0.2465  1.8048
 2556SOL    HW219305   1.551   0.860   1.845 -0.0815  0.2955 -1.2376
 2557SOL     OW19306   0.248   3.995   6.209 -0.0572 -0.0438 -0.2736
 2557SOL    HW119307   0.276   3.913   6.169 -1.0431 -0.3787 -0.2761
 2557SOL    HW219308   0.299   4.061   6.161  1.9512 -3.6059 -3.0602
 2558SOL     OW19309   4.600   1.932   7.886 -0.3012 -0.0313 -0.0458
 2558SOL    HW119310   4.659   1.902   7.817 -1.1083 -0.6588 -0.4590
 2558SOL    HW219311   4.549   2.000   7.842 -1.8301 -0.8179  0.5141
 2559SOL     OW19312   1.914   1.701   6.057  0.0606  0.0870 -0.2446
 2559SOL    HW119313   1.969   1.697   6.135  1.6820  2.2240 -1.2858
 2559SOL    HW219314   1.855   1.630   6.081 -1.1883  0.1862 -2.9564
 2560SOL     OW19315   4.684   1.577  10.354 -0.2258  0.6110 -0.1553
 2560SOL    HW119316   0.007   1.618  10.416  0.6548  0.5749 -0.9934
 2560SOL    HW219317   4.727   1.587  10.269  1.3835  1.6226  0.7774
 2561SOL     OW19318   0.494   0.699   1.828  0.8224  0.2044  0.4022
 2561SOL    HW119319   0.449   0.644   1.764 -0.5174  2.3706 -0.5095
 2561SOL    HW219320   0.427   0.767   1.837  2.6920  1.7418  2.9318
 2562SOL     OW19321   2.379   3.043  17.677 -0.4269  0.1494 -0.3995
 2562SOL    HW119322   2.418   3.027   0.015  0.2470 -3.3738 -1.3715
 2562SOL    HW219323   2.319   2.970  17.662 -0.6203 -0.0301  1.2105
 2563SOL     OW19324   0.276   0.247   6.695 -0.0314  0.1568  0.3651
 2563SOL    HW119325   0.273   0.339   6.722  0.6647  0.0004  0.9538
 2563SOL    HW219326   0.237   0.255   6.608 -0.6069  0.9935  0.7017
 2564SOL     OW19327   0.280   2.999   8.174 -0.4318 -0.3711  0.0436
 2564SOL    HW119328   0.250   3.081   8.212  3.5628  0.8810  0.5069
 2564SOL    HW219329   0.375   3.013   8.172 -0.1009 -2.4142  0.7423
 2565SOL     OW19330   2.845   4.393   9.165  0.1738 -0.3460 -0.2252
 2565SOL    HW119331   2.892   4.341   9.100 -0.0895 -1.1239  0.2109
 2565SOL    HW219332   2.900   4.471   9.166  3.3611 -2.6270 -0.3551
 2566SOL     OW19333   4.529   3.030   7.726 -0.3989  0.5910 -0.0779
 2566SOL    HW119334   4.451   3.003   7.774 -0.2693  0.4835  0.0720
 2566SOL    HW219335   4.483   3.080   7.659 -1.3782  0.0907  0.2258
 2567SOL     OW19336   2.364   0.144  15.704  0.5877  0.1026  0.1976
 2567SOL    HW119337   2.341   0.113  15.792 -0.0470  2.5803  0.9047
 2567SOL    HW219338   2.311   0.224  15.706 -1.0638 -1.0451  2.5794
 2568SOL     OW19339   2.427   0.435   8.107  0.1514 -0.2149  0.3252
 2568SOL    HW119340   2.518   0.452   8.085  0.6527 -3.6238 -0.2424
 2568SOL    HW219341   2.441   0.384   8.187  1.6827  1.0497  0.8668
 2569SOL     OW19342   2.273   2.350  11.147 -0.4670  0.6697  0.0968
 2569SOL    HW119343   2.351   2.358  11.093 -1.4457 -1.4718 -1.6605
 2569SOL    HW219344   2.289   2.264  11.187  0.3266  0.8930  0.2508
 2570SOL     OW19345   1.870   0.768   2.695 -0.4331 -0.0015  0.2264
 2570SOL    HW119346   1.940   0.833   2.709 -0.3563  0.0567 -0.3980
 2570SOL    HW219347   1.802   0.820   2.653  1.5657  2.6795  0.2384
 2571SOL     OW19348   0.732   3.064  12.740  0.2202 -0.0027 -0.3198
 2571SOL    HW119349   0.777   3.005  12.801  1.6443 -0.3153 -1.6742
 2571SOL    HW219350   0.642   3.033  12.731  0.1592  1.2885 -4.3618
 2572SOL     OW19351   2.506   2.281  10.728  0.6349 -0.3622 -0.4797
 2572SOL    HW119352   2.445   2.236  10.670 -0.9933 -0.4357  1.3006
 2572SOL    HW219353   2.492   2.372  10.701  0.3807  0.5446  2.7821
 2573SOL     OW19354   3.225   4.119   2.607 -0.0687 -0.1111 -0.2080
 2573SOL    HW119355   3.240   4.069   2.528 -2.8709  0.0756 -0.8623
 2573SOL    HW219356   3.145   4.077   2.639 -0.6545  1.3178  0.2423
 2574SOL     OW19357   2.799   2.995   2.105 -0.0089  0.0386  0.4225
 2574SOL    HW119358   2.772   3.067   2.048  3.2758  1.4267  0.6040
 2574SOL    HW219359   2.780   2.922   2.046  0.3659 -0.1021  0.4728
 2575SOL     OW19360   2.301   3.868   2.702 -0.3765  0.1744  0.1603
 2575SOL    HW119361   2.264   3.919   2.774 -0.8593 -3.0455  2.2341
 2575SOL    HW219362   2.271   3.782   2.731  2.1656 -1.0375 -0.8088
 2576SOL     OW19363   2.858   0.500   3.923  0.5653  0.7256  0.2596
 2576SOL    HW119364   2.794   0.569   3.906  0.0358 -0.0408 -0.8428
 2576SOL    HW219365   2.843   0.455   3.841  1.8065  0.5623  0.1245
 2577SOL     OW19366   2.253   1.436  11.774  0.0285  0.2221 -0.4255
 2577SOL    HW119367   2.214   1.514  11.736  0.2546  0.7088  0.3431
 2577SOL    HW219368   2.286   1.477  11.854 -0.0548 -0.6167  0.0470
 2578SOL     OW19369   1.999   1.214  15.997  0.1202  0.1212  0.4731
 2578SOL    HW119370   2.077   1.201  16.051  0.5235 -1.6023 -0.5210
 2578SOL    HW219371   2.033   1.295  15.958 -0.1868  0.6438  1.2885
 2579SOL     OW19372   0.263   0.118   7.583  0.4214  0.3511  0.1103
 2579SOL    HW119373   0.176   0.090   7.555 -0.5461 -1.1474  4.5848
 2579SOL    HW219374   0.244   0.158   7.668  4.0398  1.8456  0.2066
 2580SOL     OW19375   3.556   1.840   3.404 -0.2300 -0.5653 -0.1268
 2580SOL    HW119376   3.537   1.879   3.490  2.8772 -2.2366  1.3146
 2580SOL    HW219377   3.635   1.884   3.373  0.5371 -2.5825 -1.0047
 2581SOL     OW19378   3.409   1.536   1.301  0.7482 -0.2798  0.6106
 2581SOL    HW119379   3.379   1.453   1.338 -1.2573  0.4316  0.5736
 2581SOL    HW219380   3.414   1.598   1.374  1.0445 -2.4308  2.4502
 2582SOL     OW19381   4.378   4.161   4.922 -0.0428 -0.1327 -0.8134
 2582SOL    HW119382   4.322   4.120   4.855  0.7411  2.1890 -2.9180
 2582SOL    HW219383   4.324   4.237   4.945  1.1517  1.3653 -2.8674
 2583SOL     OW19384   0.565   3.939   8.579  0.2864  0.2365  0.1281
 2583SOL    HW119385   0.591   3.872   8.516 -1.7215 -1.0862  0.6760
 2583SOL    HW219386   0.484   3.901   8.613  1.1697 -2.6624 -1.0243
 2584SOL     OW19387   2.875   1.561   4.868  0.2449 -0.3012 -0.2151
 2584SOL    HW119388   2.835   1.644   4.896 -1.5504 -1.1937 -0.1684
 2584SOL    HW219389   2.963   1.597   4.856  0.2711 -0.1114  0.5536
 2585SOL     OW19390   1.572   3.377   2.872  0.0618 -0.2177  0.1185
 2585SOL    HW119391   1.541   3.464   2.848 -1.7212 -0.3461  2.0067
 2585SOL    HW219392   1.666   3.375   2.852  0.4745  2.2883  1.8617
 2586SOL     OW19393   3.981   3.257   3.590  0.1044 -0.3171  0.1848
 2586SOL    HW119394   3.921   3.236   3.519  1.8081  1.5953 -1.7734
 2586SOL    HW219395   4.071   3.253   3.557 -0.5223 -3.6752 -1.1698
 2587SOL     OW19396   2.831   0.830   6.795  0.1116  0.0073 -0.2214
 2587SOL    HW119397   2.810   0.900   6.857  1.4246 -0.3802  0.6636
 2587SOL    HW219398   2.897   0.880   6.748  0.8143 -1.6518 -1.0007
 2588SOL     OW19399   0.179   0.056   3.940 -0.3251  0.4732 -0.4292
 2588SOL    HW119400   0.093   0.050   3.899 -0.8155  3.1678  0.2020
 2588SOL    HW219401   0.182   0.150   3.957  0.9516  0.4238 -0.3378
 2589SOL     OW19402   2.804   4.255  14.700  0.3149  0.3542  0.7588
 2589SOL    HW119403   2.712   4.233  14.688  0.3940  0.0558  0.7081
 2589SOL    HW219404   2.805   4.351  14.699 -1.1028  0.3665  1.0626
 2590SOL     OW19405   3.309   1.657  11.914  0.1342  0.0480  0.2169
 2590SOL    HW119406   3.389   1.707  11.898 -0.6881  1.6989  1.2939
 2590SOL    HW219407   3.294   1.595  11.843  1.6020 -0.4047  0.2828
 2591SOL     OW19408   2.962   0.369   1.821  0.2982 -0.3743 -0.7096
 2591SOL    HW119409   3.046   0.398   1.787  0.5695 -0.8261 -0.4230
 2591SOL    HW219410   2.978   0.383   1.915  2.4623  1.2495 -1.3223
 2592SOL     OW19411   3.178   3.161   4.562  0.3790  0.1807  0.2833
 2592SOL    HW119412   3.258   3.164   4.614  1.1754  0.1558 -0.9560
 2592SOL    HW219413   3.171   3.256   4.557 -3.0208 -0.0790 -0.3109
 2593SOL     OW19414   1.228   0.141   5.325  0.1473  0.3846  0.0213
 2593SOL    HW119415   1.231   0.059   5.276 -1.7499 -0.4992  1.3407
 2593SOL    HW219416   1.298   0.184   5.277 -0.2611  0.2031 -0.7368
 2594SOL     OW19417   2.159   3.292   8.977  0.2891 -0.5822 -0.4074
 2594SOL    HW119418   2.244   3.333   8.963 -0.8379  1.4111 -1.5144
 2594SOL    HW219419   2.094   3.363   8.977  1.1573  0.2088 -0.8619
 2595SOL     OW19420   0.278   3.440   6.995  0.3083  0.0693 -0.3865
 2595SOL    HW119421   0.361   3.484   6.977  0.6911 -0.0747  1.0223
 2595SOL    HW219422   0.255   3.459   7.086  0.9749 -1.8113  0.1632
 2596SOL     OW19423   2.493   1.889   3.560 -0.3688  0.2119 -0.2321
 2596SOL    HW119424   2.410   1.933   3.575 -0.9506 -0.4419 -1.5026
 2596SOL    HW219425   2.547   1.923   3.632 -0.4400  1.6754 -0.8651
 2597SOL     OW19426   0.639   2.831   6.264  0.1369  0.4660 -0.2415
 2597SOL    HW119427   0.640   2.864   6.174 -2.9463 -1.8125 -1.1288
 2597SOL    HW219428   0.734   2.827   6.274  0.2040  0.0034 -0.9738
 2598SOL     OW19429   2.541   4.111   4.864 -0.1953  0.0429 -0.0730
 2598SOL    HW119430   2.472   4.152   4.917  0.7848  2.6382 -0.8270
 2598SOL    HW219431   2.520   4.147   4.778 -0.7345  1.2977  0.5865
 2599SOL     OW19432   2.472   3.857   4.360  0.2162  0.0865 -0.4638
 2599SOL    HW119433   2.541   3.865   4.294 -1.1382 -1.2801 -2.0574
 2599SOL    HW219434   2.396   3.856   4.302  1.2600  0.3213 -1.8352
 2600SOL     OW19435   1.123   1.448   7.919 -0.2614 -0.4416  0.0472
 2600SOL    HW119436   1.076   1.375   7.878  0.3806  0.4484 -2.2625
 2600SOL    HW219437   1.189   1.457   7.851  0.3870  3.4139  1.1984
 2601SOL     OW19438   3.983   1.802   8.503 -0.2270  0.0726  0.6053
 2601SOL    HW119439   4.035   1.882   8.514  2.0673 -1.4215  0.6781
 2601SOL    HW219440   4.058   1.746   8.483  0.1968  0.8754 -0.0931
 2602SOL     OW19441   1.263   3.639  10.378  0.2168  0.1343 -0.1668
 2602SOL    HW119442   1.310   3.647  10.295  1.6251 -1.9631  0.4441
 2602SOL    HW219443   1.293   3.552  10.402 -2.0793 -0.5352  0.2697
 2603SOL     OW19444   3.198   1.383   3.862 -0.1294 -0.0719  0.1881
 2603SOL    HW119445   3.229   1.375   3.952 -0.5375 -2.3939  0.1328
 2603SOL    HW219446   3.201   1.478   3.859 -0.5169 -0.0979 -0.9496
 2604SOL     OW19447   0.391   3.381   7.515  0.2162 -0.0256 -0.3044
 2604SOL    HW119448   0.349   3.457   7.554  2.9592  0.9772  0.6543
 2604SOL    HW219449   0.471   3.365   7.565 -0.3357  0.7620  0.8206
 2605SOL     OW19450   1.197   2.139   6.107  0.1306  0.2901  0.5896
 2605SOL    HW119451   1.247   2.058   6.106 -1.4496 -0.7086  2.4138
 2605SOL    HW219452   1.263   2.202   6.078 -0.1159  1.1314  1.8815
 2606SOL     OW19453   2.928   3.262   8.448 -0.6874  0.4454 -0.1237
 2606SOL    HW119454   2.913   3.347   8.490 -0.2749 -0.6542  2.2357
 2606SOL    HW219455   2.935   3.201   8.521 -2.6916  0.0384 -0.2937
 2607SOL     OW19456   3.409   1.719   3.192  0.4193  0.2676  0.1482
 2607SOL    HW119457   3.402   1.634   3.236 -0.6331 -0.0942 -0.7262
 2607SOL    HW219458   3.454   1.767   3.262  0.2206 -0.0073  0.4644
 2608SOL     OW19459   3.976   1.261   7.981 -0.0268 -0.2179  0.1152
 2608SOL    HW119460   3.974   1.311   7.899  0.0156 -1.3639 -0.5827
 2608SOL    HW219461   4.045   1.314   8.021  0.4243 -0.1919 -0.6977
 2609SOL     OW19462   2.815   1.464   9.012 -0.4468  0.3904 -0.6256
 2609SOL    HW119463   2.873   1.540   9.022 -0.7769  0.8089 -1.8781
 2609SOL    HW219464   2.831   1.431   9.100 -0.2523  1.1445 -0.3714
 2610SOL     OW19465   0.132   0.203   8.217  0.2071  0.0588 -0.1597
 2610SOL    HW119466   0.201   0.139   8.201 -0.4967 -0.8415  0.3626
 2610SOL    HW219467   0.155   0.272   8.154  0.4346  1.6141  1.6432
 2611SOL     OW19468   1.206   2.734   8.382 -0.0983 -0.3779 -0.0723
 2611SOL    HW119469   1.180   2.739   8.474  0.0658  0.5150 -0.0813
 2611SOL    HW219470   1.301   2.747   8.389  0.1204 -0.5626 -2.5822
 2612SOL     OW19471   3.775   2.619   5.064 -0.1968  0.4859 -0.0662
 2612SOL    HW119472   3.747   2.537   5.106  0.8183  0.7011  1.0170
 2612SOL    HW219473   3.844   2.583   5.009 -0.7004 -0.7830  0.1160
 2613SOL     OW19474   3.061   1.510  15.590  0.3033  0.2320 -0.0719
 2613SOL    HW119475   3.050   1.544  15.501  0.6340 -0.8239 -0.5111
 2613SOL    HW219476   3.027   1.421  15.586  3.8965 -1.2409  2.7500
 2614SOL     OW19477   4.448   3.297   8.749 -0.0956  0.1843  0.0411
 2614SOL    HW119478   4.359   3.333   8.753 -0.2246 -0.0385 -0.8702
 2614SOL    HW219479   4.485   3.349   8.820  0.8807 -1.1813  0.5424
 2615SOL     OW19480   1.722   1.659   7.609 -0.0707  0.1119  0.4605
 2615SOL    HW119481   1.746   1.750   7.626  0.5149 -0.1637  1.0750
 2615SOL    HW219482   1.779   1.618   7.674 -0.1139 -0.3572  0.2000
 2616SOL     OW19483   1.550   2.825   1.289  0.9495  0.1245 -0.5550
 2616SOL    HW119484   1.483   2.775   1.242 -0.4227  0.0685  1.4601
 2616SOL    HW219485   1.510   2.910   1.305 -0.9427 -0.9865  0.7550
 2617SOL     OW19486   1.062   0.028  13.568  0.6424 -0.7207  0.2502
 2617SOL    HW119487   0.970   0.008  13.550 -0.2869  0.4150  3.7231
 2617SOL    HW219488   1.087   4.692  13.626  0.7347 -1.7195 -1.0460
 2618SOL     OW19489   0.567   1.990   3.163  0.1274  0.4395  0.0667
 2618SOL    HW119490   0.479   2.008   3.130 -0.3974 -0.4008  0.9990
 2618SOL    HW219491   0.572   1.901   3.129 -2.9069 -0.4376  1.8827
 2619SOL     OW19492   3.988   3.068   2.180  0.2276 -0.0333  0.2658
 2619SOL    HW119493   4.061   3.008   2.162 -1.8959 -2.9353  1.3689
 2619SOL    HW219494   3.912   3.018   2.151 -0.1531  0.1425  0.9651
 2620SOL     OW19495   3.515   2.872  11.588 -0.0695 -0.5772  0.2575
 2620SOL    HW119496   3.538   2.786  11.553  1.1374  0.0049 -0.3871
 2620SOL    HW219497   3.475   2.846  11.671 -2.1270 -0.1292 -0.5860
 2621SOL     OW19498   1.382   1.053   0.912  0.2418  0.0072  0.2972
 2621SOL    HW119499   1.358   0.979   0.968  1.9934  1.1816  2.5973
 2621SOL    HW219500   1.476   1.038   0.912  0.3513  0.6973  0.1353
 2622SOL     OW19501   1.194   0.615  17.747 -0.0809 -0.7036 -0.1558
 2622SOL    HW119502   1.101   0.637  17.737 -0.3346 -0.8771  1.7635
 2622SOL    HW219503   1.199   0.551   0.070  0.1463 -0.7138 -0.1801
 2623SOL     OW19504   1.030   0.806   9.733  0.1719  0.2378 -0.1638
 2623SOL    HW119505   0.990   0.731   9.777 -0.8041  0.5114 -0.5772
 2623SOL    HW219506   1.073   0.769   9.656  3.3854  2.4976  0.5719
 2624SOL     OW19507   2.687   4.187   3.111 -0.2526 -0.7185  0.2749
 2624SOL    HW119508   2.745   4.240   3.057  2.0389 -2.9669  0.5619
 2624SOL    HW219509   2.603   4.211   3.072 -0.5091 -0.3824  1.0194
 2625SOL     OW19510   2.141   2.004   5.501  0.1300  0.6644  0.0473
 2625SOL    HW119511   2.190   2.077   5.461 -1.7374  1.5638 -0.5772
 2625SOL    HW219512   2.171   2.004   5.592  1.0409 -4.7194 -0.2662
 2626SOL     OW19513   3.629   2.828   4.954  0.5328  0.1725  0.1621
 2626SOL    HW119514   3.590   2.826   4.867  3.0877  2.0319 -1.0336
 2626SOL    HW219515   3.669   2.742   4.964 -1.6237 -1.0185 -1.6389
 2627SOL     OW19516   2.112   3.601   0.770 -0.2589  0.0561  0.0775
 2627SOL    HW119517   2.128   3.515   0.808  0.5826 -0.9695 -2.6118
 2627SOL    HW219518   2.089   3.643   0.852  1.7478 -1.3892  1.3946
 2628SOL     OW19519   2.690   0.675   5.912  0.1017  0.1777 -0.2852
 2628SOL    HW119520   2.779   0.654   5.939 -0.2087 -0.6782  0.0747
 2628SOL    HW219521   2.697   0.755   5.861 -0.7301 -0.1749 -0.9562
 2629SOL     OW19522   3.717   3.121   6.838  1.0147  0.5990 -0.2634
 2629SOL    HW119523   3.768   3.049   6.875 -2.0086 -1.3795  0.0763
 2629SOL    HW219524   3.788   3.175   6.805  0.9188  0.4070 -0.7886
 2630SOL     OW19525   3.421   4.018   1.912  0.0025  0.0447 -0.3648
 2630SOL    HW119526   3.430   3.999   2.005  0.2860 -0.6291 -0.5311
 2630SOL    HW219527   3.366   3.945   1.884 -0.3465  0.7658 -1.5657
 2631SOL     OW19528   2.264   3.739  10.344 -0.1031 -0.2418 -0.2456
 2631SOL    HW119529   2.247   3.808  10.279 -0.9134  1.5231  1.8430
 2631SOL    HW219530   2.223   3.787  10.415 -1.5315  0.1464 -1.3366
 2632SOL     OW19531   1.023   3.231   5.157 -0.1876  0.4112  0.2364
 2632SOL    HW119532   0.958   3.164   5.178  0.7513 -0.3665  0.6971
 2632SOL    HW219533   1.041   3.212   5.065  0.1015  1.2887  0.1079
 2633SOL     OW19534   4.633   4.406   4.769  0.0510 -0.1405  0.0561
 2633SOL    HW119535   4.634   4.324   4.817  0.6209 -1.3545 -2.0423
 2633SOL    HW219536   4.684   4.372   4.696  0.8017  0.8133  0.1424
 2634SOL     OW19537   3.887   1.628   4.215 -0.3011  0.1353 -0.3538
 2634SOL    HW119538   3.812   1.650   4.159 -2.0166 -0.0840  1.8159
 2634SOL    HW219539   3.939   1.589   4.146 -1.0784 -0.2035 -0.7521
 2635SOL     OW19540   1.526   2.880   3.296  0.1972 -0.6180 -0.1738
 2635SOL    HW119541   1.432   2.871   3.312 -0.0710  0.4559 -1.1121
 2635SOL    HW219542   1.562   2.844   3.376  0.3207 -1.6383 -0.6920
 2636SOL     OW19543   3.304   1.621  15.571  0.2382  0.0720 -0.6603
 2636SOL    HW119544   3.227   1.568  15.595  0.3391  0.7276  1.1219
 2636SOL    HW219545   3.257   1.687  15.521  0.4964  1.8176  1.3903
 2637SOL     OW19546   4.260   3.599  15.206  0.0976  0.4951 -0.0468
 2637SOL    HW119547   4.281   3.617  15.297 -0.8781 -2.5880  0.7863
 2637SOL    HW219548   4.313   3.667  15.163 -0.9446  3.2861  3.0503
 2638SOL     OW19549   4.646   1.126  13.984 -0.1914  0.2275  0.0380
 2638SOL    HW119550   4.600   1.159  14.061 -1.1822 -0.9481 -0.0449
 2638SOL    HW219551   4.570   1.106  13.928 -1.3942 -0.3829  1.8647
 2639SOL     OW19552   1.157   3.333  13.294  0.3196 -0.6246 -0.0392
 2639SOL    HW119553   1.174   3.254  13.346 -1.3739 -0.9364  0.0598
 2639SOL    HW219554   1.246   3.365  13.290  0.2178 -0.3935 -0.5103
 2640SOL     OW19555   3.173   3.679   2.524 -0.0344 -0.5334 -0.2298
 2640SOL    HW119556   3.230   3.641   2.590 -0.8980  0.1363  0.9031
 2640SOL    HW219557   3.114   3.607   2.501  1.9329 -1.6294 -1.8469
 2641SOL     OW19558   2.171   0.803   6.837 -0.2035  0.1648 -0.0607
 2641SOL    HW119559   2.121   0.798   6.756 -0.9031  1.9150  0.2650
 2641SOL    HW219560   2.143   0.725   6.886  0.4139  2.0294  3.2896
 2642SOL     OW19561   2.496   2.614  10.231  0.1200  0.0965 -0.0542
 2642SOL    HW119562   2.587   2.631  10.210 -0.2240  0.7900 -0.9898
 2642SOL    HW219563   2.453   2.642  10.150 -0.5562  1.1362  0.6658
 2643SOL     OW19564   0.443   0.352  12.218 -0.6249 -0.1889 -0.1615
 2643SOL    HW119565   0.430   0.313  12.132 -3.3561 -3.0234  1.5482
 2643SOL    HW219566   0.508   0.288  12.245  0.1164 -0.0236 -1.5132
 2644SOL     OW19567   2.833   3.471  16.810 -0.3603 -0.3303  0.2443
 2644SOL    HW119568   2.854   3.555  16.850  0.4622 -1.2219  1.6684
 2644SOL    HW219569   2.807   3.414  16.881 -1.5231 -0.5241 -0.3437
 2645SOL     OW19570   3.640   2.439   0.719 -0.2334  0.2228 -0.5180
 2645SOL    HW119571   3.628   2.523   0.763 -0.5928  0.4573 -1.0579
 2645SOL    HW219572   3.566   2.400   0.764  0.8754 -1.5268 -0.2009
 2646SOL     OW19573   4.295   3.986   8.875 -0.4461  0.2293  0.4048
 2646SOL    HW119574   4.320   4.076   8.896 -1.8926  0.8178 -0.4101
 2646SOL    HW219575   4.206   3.982   8.909 -0.1244 -1.5116  1.0239
 2647SOL     OW19576   3.895   1.805  16.409  0.6252 -0.3910 -0.2760
 2647SOL    HW119577   3.846   1.800  16.327 -0.6150  0.4955  0.4137
 2647SOL    HW219578   3.876   1.718  16.444 -1.4567  0.3499  0.3928
 2648SOL     OW19579   0.629   1.326   7.931 -0.2190 -0.1701  0.1867
 2648SOL    HW119580   0.543   1.317   7.890 -0.8598 -0.6600  1.6337
 2648SOL    HW219581   0.685   1.332   7.853 -0.7548  0.9583 -0.1063
 2649SOL     OW19582   0.268   3.180  17.498  0.1056  0.1860  0.1607
 2649SOL    HW119583   0.181   3.186  17.459 -0.2996  0.4086  1.1019
 2649SOL    HW219584   0.244   3.129  17.576 -0.8804  0.5942  0.1226
 2650SOL     OW19585   3.524   2.771  16.565 -0.6462 -0.3099  0.6671
 2650SOL    HW119586   3.446   2.825  16.578 -1.2940 -1.0918  0.0560
 2650SOL    HW219587   3.557   2.773  16.654 -1.9242 -2.5521  1.2102
 2651SOL     OW19588   4.441   1.722  15.869  0.5188  0.3337  0.9734
 2651SOL    HW119589   4.494   1.778  15.813 -1.3299  0.0391 -1.0505
 2651SOL    HW219590   4.496   1.724  15.947  2.1990  0.7752 -0.2365
 2652SOL     OW19591   0.813   3.711   7.684  0.6229 -0.1516  0.5719
 2652SOL    HW119592   0.873   3.660   7.738  0.3120 -0.4089  0.6743
 2652SOL    HW219593   0.817   3.672   7.597  2.1014  2.3194 -0.4818
 2653SOL     OW19594   2.316   2.760   3.220  0.0222 -0.1060  0.3446
 2653SOL    HW119595   2.401   2.795   3.193  0.4582 -0.8075  0.8164
 2653SOL    HW219596   2.261   2.839   3.223  0.4588  0.2441 -0.9451
 2654SOL     OW19597   0.336   0.231   9.814 -0.0153 -0.2729  0.0764
 2654SOL    HW119598   0.366   0.251   9.725  3.3727 -0.9538  1.0507
 2654SOL    HW219599   0.308   0.320   9.835 -1.1423 -0.4324 -0.7612
 2655SOL     OW19600   4.070   3.400  15.854  0.2632 -0.1504 -0.3493
 2655SOL    HW119601   4.077   3.304  15.857  1.0810 -0.1372 -2.4288
 2655SOL    HW219602   4.049   3.420  15.763  0.7184  1.4011 -0.1034
 2656SOL     OW19603   3.514   1.515  16.198  0.0265  0.3419 -0.5656
 2656SOL    HW119604   3.603   1.507  16.163 -0.9353 -0.1252 -2.9350
 2656SOL    HW219605   3.487   1.603  16.171  0.2914  0.4881 -0.3606
 2657SOL     OW19606   2.629   1.546   2.860  0.0141 -0.0286  0.1519
 2657SOL    HW119607   2.664   1.559   2.948  1.2282 -2.8134  0.0933
 2657SOL    HW219608   2.618   1.451   2.862 -3.2415  0.3011 -2.2412
 2658SOL     OW19609   2.709   0.135   2.056 -0.0773 -0.0471  0.3942
 2658SOL    HW119610   2.803   0.119   2.050 -0.3756 -1.4284 -0.7281
 2658SOL    HW219611   2.703   0.219   2.102  0.8328  0.9071 -1.2222
 2659SOL     OW19612   0.288   3.766   5.037  0.2253  0.0369  0.2701
 2659SOL    HW119613   0.275   3.834   5.103 -1.1440  0.7090 -0.6762
 2659SOL    HW219614   0.355   3.812   4.987  0.0290  0.7547  0.6745
 2660SOL     OW19615   1.143   0.892   7.429  0.0107  0.1832 -0.0361
 2660SOL    HW119616   1.230   0.871   7.461 -0.0598 -1.9623 -1.2240
 2660SOL    HW219617   1.157   0.984   7.407  1.8941 -0.0193  0.2916
 2661SOL     OW19618   1.459   1.689   7.446  0.5409  0.1902 -0.2325
 2661SOL    HW119619   1.439   1.782   7.459 -3.4040 -0.3168 -2.5129
 2661SOL    HW219620   1.517   1.682   7.521 -0.8097  2.8594  1.0642
 2662SOL     OW19621   3.408   2.096   4.972  0.2682 -0.3903 -0.2098
 2662SOL    HW119622   3.501   2.108   4.989  0.2795  0.6221 -0.9896
 2662SOL    HW219623   3.392   2.185   4.942 -3.3467 -0.8348  0.3175
 2663SOL     OW19624   3.330   3.893  13.180 -0.0026 -0.1157  0.1083
 2663SOL    HW119625   3.417   3.878  13.140  0.1805 -1.2634  0.9332
 2663SOL    HW219626   3.335   3.979  13.221 -1.6189  0.4978 -1.0017
 2664SOL     OW19627   3.079   4.120   6.690 -0.1611 -0.6337 -0.2960
 2664SOL    HW119628   3.119   4.083   6.770  0.7880  1.8711  0.3701
 2664SOL    HW219629   3.136   4.192   6.668 -0.8792 -0.2370 -0.8494
 2665SOL     OW19630   4.297   0.696   2.416  0.2908  0.2567 -0.4834
 2665SOL    HW119631   4.272   0.636   2.486 -0.8829  0.9514 -0.3015
 2665SOL    HW219632   4.237   0.650   2.356 -1.1808  0.7830  0.5776
 2666SOL     OW19633   3.063   3.945   2.138 -0.3763 -0.3203 -0.4557
 2666SOL    HW119634   2.975   3.913   2.156  0.1708 -0.7530  1.4900
 2666SOL    HW219635   3.060   4.031   2.181  0.9459 -0.8314  0.6788
 2667SOL     OW19636   0.861   2.565   8.452 -0.0241 -0.4381 -0.5393
 2667SOL    HW119637   0.780   2.611   8.428 -0.2686  0.2508  1.5658
 2667SOL    HW219638   0.919   2.577   8.377  0.9319 -1.7970 -0.0027
 2668SOL     OW19639   1.239   0.986   2.170 -0.1555  0.0394 -0.4857
 2668SOL    HW119640   1.213   1.077   2.186  2.0703  0.5335  0.3817
 2668SOL    HW219641   1.160   0.934   2.156 -0.6168  0.3926  0.7764
 2669SOL     OW19642   0.054   0.299   4.324 -0.0599 -0.0667 -0.5993
 2669SOL    HW119643   0.088   0.276   4.411 -0.2954  0.7910 -0.2760
 2669SOL    HW219644   0.131   0.332   4.278 -0.0939 -0.9213 -1.2546
 2670SOL     OW19645   1.122   4.229   7.910  0.7519 -0.0209 -0.0262
 2670SOL    HW119646   1.078   4.146   7.894  2.6343 -0.8192 -0.9866
 2670SOL    HW219647   1.192   4.204   7.970  0.4980  1.4223  0.8777
 2671SOL     OW19648   0.693   2.650   8.830 -0.3779 -0.2721 -0.2309
 2671SOL    HW119649   0.737   2.638   8.914 -2.2492 -0.8311  0.6672
 2671SOL    HW219650   0.605   2.656   8.869  0.8637  1.0504  2.3644
 2672SOL     OW19651   0.891   2.445   8.705  0.1790  0.3020  0.4537
 2672SOL    HW119652   0.858   2.528   8.740 -0.6768 -0.4989  1.5402
 2672SOL    HW219653   0.915   2.462   8.614  0.2506  1.0033  0.6018
 2673SOL     OW19654   2.297   1.258  16.044 -0.6064  0.0357  0.3588
 2673SOL    HW119655   2.314   1.268  15.950 -0.0585  1.0271  0.5722
 2673SOL    HW219656   2.317   1.343  16.082  1.5818 -0.1110 -0.5061
 2674SOL     OW19657   4.710   2.769  12.233 -0.0972  0.7509  0.1012
 2674SOL    HW119658   4.701   2.864  12.223 -0.3909  0.6046 -0.9703
 2674SOL    HW219659   4.647   2.755  12.304 -0.7690  0.8207 -0.4818
 2675SOL     OW19660   0.673   2.980   6.016  0.2017  0.3907 -0.1668
 2675SOL    HW119661   0.739   2.951   5.953  1.8121 -1.6908  2.4676
 2675SOL    HW219662   0.693   3.073   6.029  0.8066  0.1398  0.6865
 2676SOL     OW19663   2.966   2.009   8.931 -0.6411  0.4000 -0.1675
 2676SOL    HW119664   2.948   1.928   8.883 -2.8331  0.6248  0.2550
 2676SOL    HW219665   3.048   1.980   8.970  0.5973 -0.4564 -3.4309
 2677SOL     OW19666   3.091   2.161  15.576 -0.1607  0.1942  0.1177
 2677SOL    HW119667   3.099   2.256  15.587  0.7028  0.1106  0.1809
 2677SOL    HW219668   3.117   2.157  15.484  0.0077 -0.6834  0.2051
 2678SOL     OW19669   2.316   4.243   7.327 -0.2767  0.2098  0.0262
 2678SOL    HW119670   2.281   4.212   7.243 -1.0569 -1.2945  0.9024
 2678SOL    HW219671   2.242   4.302   7.337 -2.7529 -3.1042  1.0128
 2679SOL     OW19672   1.729   3.026  13.968 -0.4730 -0.5424 -0.0233
 2679SOL    HW119673   1.646   2.996  13.931  0.0546  1.4516 -2.8144
 2679SOL    HW219674   1.738   2.948  14.023 -0.3826 -0.6299 -0.1636
 2680SOL     OW19675   3.888   2.427   6.110 -0.2100  0.2805  0.3542
 2680SOL    HW119676   3.941   2.481   6.051 -0.4820 -1.7846 -1.7669
 2680SOL    HW219677   3.902   2.474   6.193  3.4152 -2.1769  1.1770
 2681SOL     OW19678   1.707   0.205   7.534  0.0999 -0.3273  0.5406
 2681SOL    HW119679   1.740   0.202   7.444 -1.1068  1.1703  0.0532
 2681SOL    HW219680   1.622   0.242   7.511 -0.0883 -0.8017  0.4835
 2682SOL     OW19681   0.691   3.686   4.207  0.2226 -0.8378  0.1096
 2682SOL    HW119682   0.689   3.688   4.303  1.0316 -3.3807  0.1679
 2682SOL    HW219683   0.667   3.778   4.192  0.9023 -0.3877  1.7377
 2683SOL     OW19684   1.063   1.810   7.149 -0.1913 -0.2295 -0.1943
 2683SOL    HW119685   0.994   1.833   7.210  0.9517  2.6230  0.0264
 2683SOL    HW219686   1.130   1.878   7.161  1.6817 -2.0146 -0.5869
 2684SOL     OW19687   1.175   2.543   4.457 -1.3558 -0.8072  0.1459
 2684SOL    HW119688   1.104   2.591   4.500 -1.9975  0.3032 -2.1879
 2684SOL    HW219689   1.146   2.453   4.470  0.7756 -1.1249  2.9245
 2685SOL     OW19690   0.124   4.454  15.515  0.0125 -0.5511  0.1702
 2685SOL    HW119691   0.048   4.464  15.573 -0.3018 -1.7441 -0.0444
 2685SOL    HW219692   0.079   4.439  15.432 -0.5469  0.1084  0.3598
 2686SOL     OW19693   1.499   1.306   5.869 -0.3472  0.2337 -0.2695
 2686SOL    HW119694   1.464   1.274   5.952 -0.4827  0.3383 -0.2870
 2686SOL    HW219695   1.536   1.390   5.896 -1.3092 -0.3764  2.9458
 2687SOL     OW19696   0.542   4.480   8.677 -0.2167  0.6453 -0.3605
 2687SOL    HW119697   0.460   4.457   8.634  0.1179  2.0131 -1.7144
 2687SOL    HW219698   0.570   4.393   8.708 -0.6524  0.5504 -0.2252
 2688SOL     OW19699   4.635   3.113   8.253 -0.5910  0.4155  0.3409
 2688SOL    HW119700   4.652   3.120   8.347  1.5075  4.0329 -0.3245
 2688SOL    HW219701   4.596   3.026   8.242  2.1115 -0.4864 -2.0168
 2689SOL     OW19702   2.332   0.916  13.094  0.3566  0.2293 -0.6446
 2689SOL    HW119703   2.369   0.938  13.179  2.5050  1.8829 -2.0013
 2689SOL    HW219704   2.384   0.840  13.067 -1.2111 -0.7158 -1.0204
 2690SOL     OW19705   1.814   4.566   8.321 -0.1503  0.3852 -0.0011
 2690SOL    HW119706   1.900   4.601   8.296  1.0922 -1.0817  2.1703
 2690SOL    HW219707   1.768   4.648   8.337 -0.2881  0.6262 -1.6363
 2691SOL     OW19708   0.248   0.399   5.316  0.3685 -0.5880 -0.0981
 2691SOL    HW119709   0.209   0.434   5.396  1.0389 -1.3810  0.5643
 2691SOL    HW219710   0.239   0.474   5.256  1.2127 -0.1683  0.2961
 2692SOL     OW19711   3.918   1.250  13.707  0.3536 -0.1705  0.8571
 2692SOL    HW119712   3.868   1.329  13.727  0.6887  0.3901 -0.5510
 2692SOL    HW219713   4.008   1.263  13.736  0.8758  1.3377 -1.4500
 2693SOL     OW19714   3.049   0.765   0.334  0.5788 -0.2365  0.1599
 2693SOL    HW119715   3.112   0.737   0.400  1.0759  0.4576 -0.0197
 2693SOL    HW219716   2.968   0.758   0.384  0.8613 -0.1139  0.6323
 2694SOL     OW19717   2.798   1.304  11.408 -0.5666  0.0997 -0.5790
 2694SOL    HW119718   2.733   1.257  11.459 -0.8306 -0.4206 -1.3997
 2694SOL    HW219719   2.805   1.252  11.328 -3.0640 -0.5289 -0.3723
 2695SOL     OW19720   2.910   3.930   4.762 -0.1261  0.6561  0.1718
 2695SOL    HW119721   2.997   3.969   4.772 -0.4130  1.4021 -0.2795
 2695SOL    HW219722   2.881   3.986   4.691 -0.9782  0.6362  0.5029
 2696SOL     OW19723   3.098   1.504   2.212 -0.0684 -0.0759 -0.0600
 2696SOL    HW119724   3.064   1.575   2.265  2.1687  1.8990 -1.2520
 2696SOL    HW219725   3.019   1.465   2.175 -1.9027  1.7563  1.9657
 2697SOL     OW19726   2.067   2.326   7.904  0.1525  0.2084  0.1327
 2697SOL    HW119727   2.157   2.311   7.934 -0.0383  1.0006  1.0725
 2697SOL    HW219728   2.022   2.328   7.988  0.3985 -0.2826  0.2787
 2698SOL     OW19729   3.320   1.618   9.954 -0.8623 -0.0800 -0.5976
 2698SOL    HW119730   3.388   1.676   9.918  1.3100 -2.8530 -0.9319
 2698SOL    HW219731   3.235   1.648   9.920 -0.4722  2.5639  0.7832
 2699SOL     OW19732   4.298   4.484   3.058 -0.0205  0.3484 -0.0758
 2699SOL    HW119733   4.358   4.524   2.995  0.8538 -0.3909  0.2748
 2699SOL    HW219734   4.351   4.497   3.138  0.4778 -1.5642 -0.1103
 2700SOL     OW19735   0.912   4.205   7.324 -0.8530  0.0763  0.3502
 2700SOL    HW119736   0.940   4.113   7.316  1.7970  0.8289  0.9346
 2700SOL    HW219737   0.849   4.197   7.252 -0.3635  0.6445 -0.1357
 2701SOL     OW19738   2.798   1.949   0.469 -0.6421  0.1424  0.0181
 2701SOL    HW119739   2.796   2.044   0.472  0.4010  0.0792  2.1581
 2701SOL    HW219740   2.862   1.927   0.536  1.6957 -1.2605 -2.6812
 2702SOL     OW19741   4.427   4.405   9.360 -0.3665 -0.0715  0.3347
 2702SOL    HW119742   4.470   4.451   9.432 -1.8135 -1.1024  1.8710
 2702SOL    HW219743   4.346   4.456   9.356 -1.4723 -1.8664 -0.1265
 2703SOL     OW19744   0.026   0.477   0.816 -0.3782 -0.0733 -0.2633
 2703SOL    HW119745   0.042   0.528   0.736 -1.0969  0.6816  0.0715
 2703SOL    HW219746   0.089   0.405   0.810  2.3203  2.2830 -0.3671
 2704SOL     OW19747   3.695   4.247  10.542 -0.8040 -0.1764 -0.1333
 2704SOL    HW119748   3.709   4.155  10.519 -0.3029 -0.0545 -0.3225
 2704SOL    HW219749   3.783   4.281  10.558 -1.1332  1.8216 -2.5909
 2705SOL     OW19750   3.361   2.157  12.581  0.3680 -0.0891  0.4479
 2705SOL    HW119751   3.380   2.195  12.667  0.6947 -1.3480  0.9328
 2705SOL    HW219752   3.447   2.175  12.544 -0.2319  0.3960 -0.7096
 2706SOL     OW19753   0.893   3.433   6.014  0.7953 -0.1313  0.3521
 2706SOL    HW119754   0.934   3.393   5.937  0.7836 -0.5447  0.5571
 2706SOL    HW219755   0.907   3.527   6.005  0.4955  0.0885  2.0898
 2707SOL     OW19756   2.685   4.000   1.256  0.0326  0.2446 -0.4020
 2707SOL    HW119757   2.770   3.977   1.220  0.7534 -0.9970  2.0384
 2707SOL    HW219758   2.705   4.092   1.272  1.2851 -0.0071 -0.5162
 2708SOL     OW19759   4.172   4.231   3.055 -0.0212  0.0257  0.0196
 2708SOL    HW119760   4.232   4.174   3.103 -0.5614 -0.5926 -0.0529
 2708SOL    HW219761   4.230   4.308   3.051  2.5174 -1.8296  0.8446
 2709SOL     OW19762   4.481   2.202   8.270  0.1298  0.0964  0.5714
 2709SOL    HW119763   4.528   2.225   8.351  2.1919 -0.5434 -0.4546
 2709SOL    HW219764   4.555   2.152   8.235 -0.6574 -0.5469 -0.1468
 2710SOL     OW19765   3.689   1.800   2.413 -0.0186  0.1027 -0.0042
 2710SOL    HW119766   3.752   1.772   2.347  0.5513 -0.0665  0.6135
 2710SOL    HW219767   3.655   1.710   2.423 -0.8789  0.3976 -0.2351
 2711SOL     OW19768   4.139   3.585   0.784  0.4274  0.1944  0.4921
 2711SOL    HW119769   4.130   3.636   0.704  1.2202  1.2832  1.1121
 2711SOL    HW219770   4.072   3.623   0.841 -0.5071  0.0376 -0.4760
 2712SOL     OW19771   2.786   0.099   9.601 -0.0582 -0.2486  0.9753
 2712SOL    HW119772   2.799   0.004   9.593 -1.1291 -0.2449 -0.7318
 2712SOL    HW219773   2.710   0.114   9.545  0.8743  0.6238 -0.0493
 2713SOL     OW19774   4.268   1.913   5.629  0.4616  0.3787  0.0718
 2713SOL    HW119775   4.242   1.894   5.539 -0.1005 -0.7385  0.4769
 2713SOL    HW219776   4.182   1.941   5.661 -0.0585 -0.2558 -0.7616
 2714SOL     OW19777   0.995   1.751   8.800 -0.2056 -0.4200 -0.1848
 2714SOL    HW119778   1.014   1.658   8.809  2.0895  0.2148  1.5663
 2714SOL    HW219779   1.049   1.782   8.728  0.9161  1.9749  1.7079
 2715SOL     OW19780   3.729   2.446  15.245 -0.3468  0.4334  0.3282
 2715SOL    HW119781   3.762   2.508  15.310  0.3665  1.0599 -0.6305
 2715SOL    HW219782   3.761   2.478  15.160 -0.0391  0.9430  0.6401
 2716SOL     OW19783   1.886   1.240   1.750 -0.3529 -0.4328  0.4083
 2716SOL    HW119784   1.856   1.313   1.696  0.5201 -0.3141  0.0890
 2716SOL    HW219785   1.930   1.177   1.693 -0.0513  0.9583 -0.8912
 2717SOL     OW19786   0.616   0.643  13.101  0.0540  0.1212 -0.0872
 2717SOL    HW119787   0.615   0.610  13.011 -0.9674  2.3940 -0.8978
 2717SOL    HW219788   0.633   0.559  13.145  0.1165 -0.0738 -0.4847
 2718SOL     OW19789   1.787   0.585   3.037 -0.3105 -0.4188 -0.0592
 2718SOL    HW119790   1.846   0.647   2.995  1.0309 -1.4249  0.3131
 2718SOL    HW219791   1.851   0.517   3.060 -2.0595 -2.5194 -1.4790
 2719SOL     OW19792   0.195   3.357  14.726 -0.1644  0.2023  0.6453
 2719SOL    HW119793   0.180   3.302  14.649  0.8275  3.6649 -2.0694
 2719SOL    HW219794   0.155   3.307  14.796  3.0610 -0.7990  1.7747
 2720SOL     OW19795   3.430   3.004   7.047 -0.2442 -0.3705  0.0641
 2720SOL    HW119796   3.346   2.960   7.055  0.4011 -1.8614 -1.0879
 2720SOL    HW219797   3.426   3.025   6.953  1.4899  1.2715  0.3481
 2721SOL     OW19798   2.309   0.392  15.312  0.0036  0.1981  0.2678
 2721SOL    HW119799   2.336   0.405  15.403 -1.1844  0.7304  0.5368
 2721SOL    HW219800   2.383   0.346  15.273  0.9774  2.2533 -0.3002
 2722SOL     OW19801   0.732   3.184  13.124  0.0329  0.1274  0.2376
 2722SOL    HW119802   0.794   3.255  13.140 -0.9426  0.7666  1.1414
 2722SOL    HW219803   0.722   3.142  13.209  3.0181 -1.8944 -0.3839
 2723SOL     OW19804   0.239   3.035   4.567  0.5143  0.0434  0.2804
 2723SOL    HW119805   0.160   3.073   4.604 -0.4049 -0.5676 -1.0740
 2723SOL    HW219806   0.199   2.972   4.508  0.1993 -1.2533  1.8828
 2724SOL     OW19807   0.973   1.973   5.465 -0.0976  0.4560  0.2546
 2724SOL    HW119808   1.062   1.945   5.487  0.0281  1.2048  0.6959
 2724SOL    HW219809   0.982   2.068   5.463  1.8720  0.3237  2.2813
 2725SOL     OW19810   3.445   0.422  15.180  0.0715  0.1672 -0.3801
 2725SOL    HW119811   3.518   0.362  15.195  2.1542  2.8192  0.0969
 2725SOL    HW219812   3.393   0.366  15.123 -1.4733  2.7956 -1.5654
 2726SOL     OW19813   1.482   2.339  16.103 -0.2472  0.3191  0.4755
 2726SOL    HW119814   1.482   2.277  16.030 -0.8272 -0.6647  1.3089
 2726SOL    HW219815   1.426   2.404  16.060  0.1101  0.7951  0.7270
 2727SOL     OW19816   0.442   4.166   2.241 -0.4335  0.1601 -0.2130
 2727SOL    HW119817   0.370   4.201   2.190  0.5181  1.6667 -0.5164
 2727SOL    HW219818   0.467   4.225   2.312 -1.3736 -1.3986  1.4399
 2728SOL     OW19819   1.488   2.134   7.772 -0.4523  0.1015  0.0471
 2728SOL    HW119820   1.539   2.181   7.838  1.1488 -1.4885 -0.0585
 2728SOL    HW219821   1.409   2.119   7.824  1.6615 -2.2243  2.5837
 2729SOL     OW19822   2.444   3.714   9.681 -0.3969  0.2468  0.0658
 2729SOL    HW119823   2.426   3.624   9.653  1.1032 -0.8915  2.7493
 2729SOL    HW219824   2.478   3.702   9.770 -1.6436 -0.9156  0.4024
 2730SOL     OW19825   0.328   0.263   7.095  0.3415 -0.2171 -0.1815
 2730SOL    HW119826   0.337   0.329   7.163 -1.3590  0.4828 -0.6314
 2730SOL    HW219827   0.387   0.196   7.128  1.0631  2.0144  2.9998
 2731SOL     OW19828   3.947   4.540   0.519 -0.4426  0.5362  0.4004
 2731SOL    HW119829   3.853   4.535   0.534 -0.6639  0.7196 -0.9095
 2731SOL    HW219830   3.982   4.462   0.562  0.5067 -0.4146 -2.0645
 2732SOL     OW19831   2.539   1.759  13.890  0.5398 -0.3495  0.2659
 2732SOL    HW119832   2.528   1.677  13.938 -0.8860  0.6511  1.6449
 2732SOL    HW219833   2.509   1.720  13.808 -0.7190 -0.9490  1.0108
 2733SOL     OW19834   4.448   0.468   7.283 -0.2801 -0.6233 -0.2960
 2733SOL    HW119835   4.420   0.509   7.364  0.9837 -0.7071  0.1820
 2733SOL    HW219836   4.491   0.542   7.241  1.8326 -1.3985  0.5089
 2734SOL     OW19837   0.111   3.994   6.432 -0.0105  0.1286  0.1539
 2734SOL    HW119838   0.156   3.997   6.348  0.1940 -2.0389  0.1776
 2734SOL    HW219839   0.086   4.086   6.438 -0.1567  0.1537 -0.8792
 2735SOL     OW19840   3.358   3.022  13.173 -0.1163  0.6701  0.2427
 2735SOL    HW119841   3.449   3.043  13.149 -0.3948 -0.0970 -1.4539
 2735SOL    HW219842   3.372   3.010  13.267 -1.8845  0.4070  0.4694
 2736SOL     OW19843   3.673   2.496  14.558  0.3346  0.9447  0.1044
 2736SOL    HW119844   3.761   2.460  14.561 -0.2194 -0.6789 -2.7374
 2736SOL    HW219845   3.616   2.420  14.550 -0.3779  1.6793 -1.7658
 2737SOL     OW19846   2.155   4.684  13.729  0.1646  0.2951 -0.5678
 2737SOL    HW119847   2.074   4.633  13.731  2.1605 -2.7782  1.0979
 2737SOL    HW219848   2.152   4.723  13.641 -0.7352 -0.7048 -0.9901
 2738SOL     OW19849   4.040   1.072   4.293 -0.4475  0.2654 -0.1805
 2738SOL    HW119850   4.052   1.133   4.366  1.0277  1.5162 -1.4346
 2738SOL    HW219851   4.103   1.110   4.231 -0.1726 -0.0773 -0.1066
 2739SOL     OW19852   2.204   2.636   6.165 -0.0455  0.0753 -0.8179
 2739SOL    HW119853   2.121   2.664   6.128 -0.1263 -0.4586 -1.0416
 2739SOL    HW219854   2.206   2.689   6.245 -2.1987 -2.9509  1.2759
 2740SOL     OW19855   3.960   2.844   8.283 -0.4318  0.2676  0.4837
 2740SOL    HW119856   3.893   2.810   8.343  0.9945 -1.2467  1.2119
 2740SOL    HW219857   3.931   2.795   8.205  1.0852  0.8751 -0.4636
 2741SOL     OW19858   3.786   2.145  14.159  0.1508  0.2523 -0.3158
 2741SOL    HW119859   3.785   2.106  14.072  2.1438 -2.4467  0.8709
 2741SOL    HW219860   3.872   2.129  14.198 -1.2355 -0.3313  2.4628
 2742SOL     OW19861   2.903   1.626   6.547 -0.5770 -0.2798 -0.5236
 2742SOL    HW119862   2.924   1.564   6.477 -0.5388  1.1066 -1.7566
 2742SOL    HW219863   2.911   1.584   6.632 -0.5822  1.6242  0.4176
 2743SOL     OW19864   2.295   2.207   6.829 -0.0629 -0.2839 -0.1377
 2743SOL    HW119865   2.316   2.243   6.915 -0.3116 -0.2896 -0.0742
 2743SOL    HW219866   2.230   2.143   6.858 -0.3654  0.0673 -0.0382
 2744SOL     OW19867   2.850   3.679   1.228  0.2500  0.1811  0.5816
 2744SOL    HW119868   2.871   3.588   1.210 -1.2344 -0.6243  2.9273
 2744SOL    HW219869   2.755   3.668   1.238 -0.0231  0.7186 -1.5374
 2745SOL     OW19870   2.512   2.180   9.172  0.5737  0.0212  0.0860
 2745SOL    HW119871   2.434   2.132   9.199 -0.4597  1.4772 -0.2897
 2745SOL    HW219872   2.574   2.182   9.244 -1.8910  0.5111  2.1820
 2746SOL     OW19873   1.241   0.014   4.186 -0.1335 -0.1758  0.6962
 2746SOL    HW119874   1.251   4.707   4.101 -1.0858 -1.1062  1.0752
 2746SOL    HW219875   1.199   4.685   4.241  0.8748 -0.1568  1.5070
 2747SOL     OW19876   0.143   2.451   7.275  0.2833 -0.7497 -0.6799
 2747SOL    HW119877   0.107   2.478   7.191  0.6310  2.6886  0.2799
 2747SOL    HW219878   0.061   2.422   7.315  0.0307 -0.3858 -0.9269
 2748SOL     OW19879   2.648   3.815   5.846 -0.1194 -0.0050 -0.4792
 2748SOL    HW119880   2.739   3.808   5.818 -0.3419 -1.0075 -0.9771
 2748SOL    HW219881   2.638   3.738   5.903 -2.2688  1.6875  1.3841
 2749SOL     OW19882   2.810   2.678   8.809 -0.0786  0.0632  0.2021
 2749SOL    HW119883   2.894   2.667   8.855  0.6571  1.2152 -0.8755
 2749SOL    HW219884   2.750   2.637   8.871 -1.7010  2.4736  0.1936
 2750SOL     OW19885   2.623   4.413   3.899 -0.1732 -0.5768  0.4158
 2750SOL    HW119886   2.575   4.331   3.885 -0.3673 -0.6654  1.5743
 2750SOL    HW219887   2.707   4.393   3.858  0.3414  1.0142  0.6780
 2751SOL     OW19888   1.675   3.882   2.671 -0.4464  0.4333  0.1199
 2751SOL    HW119889   1.749   3.923   2.627 -0.9485  0.2173 -0.9307
 2751SOL    HW219890   1.725   3.832   2.735 -0.9972 -1.3433 -0.8373
 2752SOL     OW19891   0.601   2.252   4.643  0.0085  0.8619 -0.4794
 2752SOL    HW119892   0.681   2.299   4.619  0.5565 -0.5011 -1.3500
 2752SOL    HW219893   0.535   2.284   4.582 -1.7700 -1.0986  0.4225
 2753SOL     OW19894   2.878   3.832   8.376  0.0478  0.3830 -0.0859
 2753SOL    HW119895   2.971   3.813   8.363 -0.3897 -0.2072 -2.3101
 2753SOL    HW219896   2.838   3.747   8.358 -0.2568  0.5981 -0.4208
 2754SOL     OW19897   4.713   2.856   8.742  0.2715 -0.0240  0.3337
 2754SOL    HW119898   0.030   2.934   8.733 -0.7405  0.6291 -0.1197
 2754SOL    HW219899   4.706   2.858   8.838 -0.5820  1.4235  0.2452
 2755SOL     OW19900   0.100   0.482  15.071  0.1193 -0.0153 -0.0776
 2755SOL    HW119901   0.173   0.425  15.092  0.7487  1.0227  0.5743
 2755SOL    HW219902   0.130   0.565  15.109 -0.6864  0.1371  0.2475
 2756SOL     OW19903   3.075   3.569   1.647 -0.1370  0.0320  0.0954
 2756SOL    HW119904   3.055   3.617   1.566 -2.9959 -3.1990 -1.1076
 2756SOL    HW219905   3.169   3.556   1.654 -0.1986 -1.3166 -1.5896
 2757SOL     OW19906   4.305   1.356   1.845 -0.2320 -0.4629 -0.3845
 2757SOL    HW119907   4.321   1.349   1.751 -0.3592  0.0651 -0.4439
 2757SOL    HW219908   4.254   1.436   1.842  1.5382  0.7142  0.8038
 2758SOL     OW19909   2.876   1.947   9.695 -0.4527  0.3572 -0.2415
 2758SOL    HW119910   2.787   1.944   9.730 -0.0522 -3.2940  0.4363
 2758SOL    HW219911   2.914   1.988   9.772 -1.0069  0.0498  0.1970
 2759SOL     OW19912   0.187   0.321   1.622 -0.2718 -0.2318 -0.5116
 2759SOL    HW119913   0.167   0.227   1.615 -3.2108  0.3783 -0.3383
 2759SOL    HW219914   0.121   0.353   1.560  0.5116 -0.0866 -1.2745
 2760SOL     OW19915   2.552   3.642   0.937 -0.2640 -0.7060  0.6704
 2760SOL    HW119916   2.571   3.733   0.958  2.0267 -0.9207 -0.3403
 2760SOL    HW219917   2.595   3.590   1.005  0.8720 -0.9607 -0.2325
 2761SOL     OW19918   4.064   0.361   4.872  0.3597 -0.5226 -0.0829
 2761SOL    HW119919   4.044   0.338   4.781 -0.7797  0.5699 -0.1128
 2761SOL    HW219920   4.157   0.339   4.871  0.4038 -0.3406 -0.2948
 2762SOL     OW19921   4.469   0.702  16.528 -0.5697 -0.2117 -0.4997
 2762SOL    HW119922   4.440   0.619  16.489 -1.9914  0.2725 -0.4645
 2762SOL    HW219923   4.384   0.745  16.534 -0.2184  0.7402 -2.4965
 2763SOL     OW19924   0.064   3.310   6.356  0.0240  0.0684 -0.1570
 2763SOL    HW119925   0.097   3.391   6.394 -0.3044 -0.0376  0.3556
 2763SOL    HW219926   0.071   3.254   6.433  0.7732  2.8763  1.8039
 2764SOL     OW19927   0.406   1.203   7.075 -0.1442  0.1456  0.5768
 2764SOL    HW119928   0.374   1.292   7.067  1.6629  0.7041 -0.4597
 2764SOL    HW219929   0.380   1.164   6.992  0.7723 -0.1046  0.3997
 2765SOL     OW19930   2.982   1.907  14.232  0.3401  0.5084 -0.0375
 2765SOL    HW119931   2.986   1.933  14.140 -0.2890 -1.5477 -0.6426
 2765SOL    HW219932   2.905   1.953  14.264  0.9475  0.9134  0.8373
 2766SOL     OW19933   3.094   2.313   8.876  0.5607  0.1213 -0.4088
 2766SOL    HW119934   3.046   2.248   8.826 -0.4718  1.3679 -1.0495
 2766SOL    HW219935   3.173   2.261   8.890  0.0855 -0.0202  1.6234
 2767SOL     OW19936   0.868   0.102   8.019  0.5546 -0.7360  0.4397
 2767SOL    HW119937   0.815   0.068   7.947  1.3276  0.2437 -0.5846
 2767SOL    HW219938   0.804   0.158   8.063 -1.2010 -2.1110 -0.3332
 2768SOL     OW19939   2.148   3.007   8.155  0.2752  0.2391  0.0179
 2768SOL    HW119940   2.121   3.092   8.190 -0.9127 -0.3398  0.4692
 2768SOL    HW219941   2.155   3.024   8.061 -0.9403  0.7026  0.0140
 2769SOL     OW19942   1.952   2.533   3.836 -0.0251  0.1567 -0.5618
 2769SOL    HW119943   1.964   2.441   3.858 -0.1241  0.8247  2.2485
 2769SOL    HW219944   2.026   2.547   3.777 -1.0263  2.6808 -1.2408
 2770SOL     OW19945   3.029   4.140   1.574 -0.3409  0.7918 -0.0979
 2770SOL    HW119946   3.078   4.068   1.534  0.1974  0.7247  0.6802
 2770SOL    HW219947   3.078   4.175   1.648  2.0982 -0.1045 -1.2724
 2771SOL     OW19948   1.549   0.638   2.709 -0.0467  0.3148  0.3346
 2771SOL    HW119949   1.454   0.627   2.706 -0.3076  3.2906 -1.5559
 2771SOL    HW219950   1.563   0.691   2.631 -2.5779  0.1000 -0.2598
 2772SOL     OW19951   3.243   4.472  10.440 -0.1754  0.1415 -0.1122
 2772SOL    HW119952   3.244   4.563  10.468 -1.3918  0.6952 -1.8583
 2772SOL    HW219953   3.290   4.435  10.514  1.9947  2.3119 -0.4112
 2773SOL     OW19954   4.019   2.020   0.810 -0.0081  0.5085 -0.3413
 2773SOL    HW119955   3.941   2.075   0.803 -2.0867 -2.7488 -2.6107
 2773SOL    HW219956   4.003   1.953   0.878 -0.7659 -1.2127 -2.2257
 2774SOL     OW19957   3.379   2.674   6.977  0.0232 -0.5758  0.4181
 2774SOL    HW119958   3.288   2.655   6.953 -0.3364  0.2098  1.1492
 2774SOL    HW219959   3.366   2.750   7.034 -1.7842 -1.3109  0.9789
 2775SOL     OW19960   3.487   2.196  10.070 -0.2543 -0.2279  0.3150
 2775SOL    HW119961   3.526   2.256  10.134 -0.2991  0.6613 -0.4974
 2775SOL    HW219962   3.553   2.128  10.066  1.4400  1.5020 -1.4505
 2776SOL     OW19963   1.038   3.259   2.153 -0.2929 -0.1859 -0.2079
 2776SOL    HW119964   1.088   3.178   2.161  1.9286  1.3467  1.6431
 2776SOL    HW219965   1.071   3.287   2.068  0.8473 -0.9394 -0.0155
 2777SOL     OW19966   4.290   4.275   8.691  0.3675 -0.0920  0.0320
 2777SOL    HW119967   4.287   4.367   8.717 -2.0217  0.0026 -0.5599
 2777SOL    HW219968   4.237   4.238   8.762 -0.3726 -0.3545 -0.6535
 2778SOL     OW19969   1.413   0.581   6.628 -0.4206  0.0458 -0.1092
 2778SOL    HW119970   1.472   0.611   6.697  1.6066  1.2105 -2.3600
 2778SOL    HW219971   1.461   0.507   6.592 -0.5622 -1.2372  2.3117
 2779SOL     OW19972   1.021   2.217   0.083 -0.1193  0.0446  0.2418
 2779SOL    HW119973   1.109   2.243   0.110 -0.7035 -1.3481  3.5514
 2779SOL    HW219974   0.953   2.279   0.111 -0.0506  0.1058  0.2741
 2780SOL     OW19975   3.155   1.245  10.558  0.2445 -0.6323  0.7446
 2780SOL    HW119976   3.127   1.268  10.469 -1.2138  0.7117  1.5581
 2780SOL    HW219977   3.138   1.328  10.602  0.0355 -0.8730  1.1119
 2781SOL     OW19978   0.851   0.373   6.352  0.0628 -0.2096  0.1702
 2781SOL    HW119979   0.860   0.399   6.260 -0.1539  0.3875  0.3191
 2781SOL    HW219980   0.818   0.453   6.391  1.0138 -0.0276  0.6014
 2782SOL     OW19981   3.619   2.454   8.885 -0.1645 -0.1456 -0.1975
 2782SOL    HW119982   3.609   2.535   8.835  0.7564  0.5602  0.7403
 2782SOL    HW219983   3.601   2.386   8.822 -2.5376  0.2963  0.0208
 2783SOL     OW19984   2.925   2.371  13.274  0.9787 -0.4446  0.3359
 2783SOL    HW119985   2.951   2.347  13.185  0.8067 -1.8169  0.6625
 2783SOL    HW219986   2.956   2.462  13.273 -2.0304  0.5865 -1.7007
 2784SOL     OW19987   3.214   1.135   4.041  0.1485  0.0689 -0.2320
 2784SOL    HW119988   3.181   1.057   4.085 -3.0859 -1.1843 -4.7764
 2784SOL    HW219989   3.271   1.105   3.969  1.4104 -1.0592  1.2465
 2785SOL     OW19990   1.083   4.544  14.553 -0.6412  0.4632 -0.3208
 2785SOL    HW119991   1.065   4.595  14.632 -0.4764  0.2460 -0.1428
 2785SOL    HW219992   0.990   4.536  14.534 -0.2018 -2.8494 -1.0932
 2786SOL     OW19993   2.460   1.701   5.667  0.6362 -0.1163  0.0807
 2786SOL    HW119994   2.506   1.783   5.650 -0.0382  0.3664  0.5585
 2786SOL    HW219995   2.476   1.692   5.761  0.1238  0.1175  0.1949
 2787SOL     OW19996   0.825   1.909   3.477  0.3694 -0.4254  0.1614
 2787SOL    HW119997   0.916   1.909   3.508 -0.1367  1.2416  1.6081
 2787SOL    HW219998   0.790   1.995   3.498  3.2828  1.3246 -2.1165
 2788SOL     OW19999   1.165   4.221  17.206 -0.1220  0.3927 -0.2070
 2788SOL    HW120000   1.112   4.284  17.256  0.3586  2.0786 -1.8249
 2788SOL    HW220001   1.133   4.235  17.117  1.9823 -1.8210 -1.3136
 2789SOL     OW20002   0.646   3.566   9.536 -0.4504  0.0196 -0.0071
 2789SOL    HW120003   0.559   3.576   9.576 -1.3468  0.1641 -1.9836
 2789SOL    HW220004   0.637   3.479   9.498  1.5577 -0.5957  0.9515
 2790SOL     OW20005   2.738   2.838   9.713 -0.0503 -0.4476 -0.3260
 2790SOL    HW120006   2.731   2.933   9.712  0.4976 -0.3863  2.2407
 2790SOL    HW220007   2.792   2.819   9.790  2.1993  1.3258 -1.4580
 2791SOL     OW20008   3.750   3.644  13.133 -0.3938 -0.2237 -0.7608
 2791SOL    HW120009   3.683   3.698  13.175 -1.2371 -0.8026 -1.3331
 2791SOL    HW220010   3.701   3.563  13.114 -1.3108  0.4240 -1.1602
 2792SOL     OW20011   4.168   3.157  17.235 -0.5664 -0.5093 -0.1836
 2792SOL    HW120012   4.185   3.064  17.247 -0.4723 -0.3652  0.7510
 2792SOL    HW220013   4.123   3.181  17.316 -0.2212 -0.7518  0.0779
 2793SOL     OW20014   4.383   4.095  16.554 -0.1013  0.1198 -0.2268
 2793SOL    HW120015   4.322   4.071  16.484  0.2510  0.6540 -0.7231
 2793SOL    HW220016   4.457   4.066  16.500 -2.0364 -1.6878 -1.9120
 2794SOL     OW20017   0.167   1.792   6.629  0.0121 -0.8589  0.2062
 2794SOL    HW120018   0.213   1.775   6.711  3.1422 -1.5405 -1.6963
 2794SOL    HW220019   0.194   1.883   6.618 -1.6806 -0.1868  1.5193
 2795SOL     OW20020   4.057   0.226  16.898 -0.2486 -0.2104 -0.5313
 2795SOL    HW120021   3.963   0.209  16.893 -0.0563 -1.9879  1.9221
 2795SOL    HW220022   4.102   0.168  16.837 -1.0595 -0.7219 -0.6423
 2796SOL     OW20023   3.845   3.343   4.202 -0.3815 -0.1285 -0.2817
 2796SOL    HW120024   3.803   3.427   4.180 -0.4636 -0.3909 -1.1289
 2796SOL    HW220025   3.824   3.326   4.294  3.6936 -1.4464  0.3876
 2797SOL     OW20026   2.308   1.808   2.029 -0.4472  0.3043 -0.1669
 2797SOL    HW120027   2.365   1.824   1.954 -1.2914  0.0018 -0.8677
 2797SOL    HW220028   2.262   1.729   2.000 -1.9033  1.0654  0.0489
 2798SOL     OW20029   3.357   2.804   4.395  0.2663  0.2021 -0.2375
 2798SOL    HW120030   3.335   2.861   4.469  0.5462  1.1026 -0.8492
 2798SOL    HW220031   3.450   2.824   4.383 -0.1282  1.5073 -1.1277
 2799SOL     OW20032   1.001   0.798   5.687  0.2102  0.4342  0.0114
 2799SOL    HW120033   1.035   0.738   5.752  1.6416  2.8417  1.4709
 2799SOL    HW220034   1.003   0.882   5.733 -1.0311  1.0550 -1.0357
 2800SOL     OW20035   2.845   3.211   1.401 -0.4251  0.4338 -0.0575
 2800SOL    HW120036   2.918   3.149   1.412 -1.1504 -0.2917  0.5903
 2800SOL    HW220037   2.805   3.221   1.487  2.4636  2.4027  1.0546
 2801SOL     OW20038   2.487   3.796   6.756  0.5309  0.0326  0.5468
 2801SOL    HW120039   2.535   3.842   6.825 -0.8785 -0.4494  1.8509
 2801SOL    HW220040   2.482   3.864   6.689  0.0366 -0.7406 -0.2051
 2802SOL     OW20041   1.987   2.930  12.570 -0.3285  0.2264 -0.7625
 2802SOL    HW120042   2.037   2.852  12.594  0.6180  0.9840 -0.2838
 2802SOL    HW220043   1.948   2.899  12.488  1.1295  0.1912 -1.4428
 2803SOL     OW20044   3.271   2.616   3.891 -0.5805 -0.1294 -0.0742
 2803SOL    HW120045   3.327   2.668   3.949 -0.9799  0.4083 -0.1640
 2803SOL    HW220046   3.187   2.623   3.938 -1.6303 -0.8179 -1.8690
 2804SOL     OW20047   1.125   3.477  12.766 -0.6675  0.1397  0.6159
 2804SOL    HW120048   1.043   3.438  12.737 -0.5757 -1.5034  2.5692
 2804SOL    HW220049   1.153   3.406  12.823  1.3531  2.5991  2.6817
 2805SOL     OW20050   2.861   3.023   8.987  0.3437 -0.1724 -0.0041
 2805SOL    HW120051   2.887   2.970   9.062 -0.7020  1.8151  1.7518
 2805SOL    HW220052   2.938   3.079   8.984 -0.5261  0.9709 -0.6969
 2806SOL     OW20053   4.478   3.851   4.800  0.2667 -0.2221  0.2917
 2806SOL    HW120054   4.497   3.823   4.710 -4.1696 -2.1189 -0.0417
 2806SOL    HW220055   4.403   3.909   4.788 -0.6730 -1.8858 -1.9156
 2807SOL     OW20056   3.216   3.028   6.852  0.1291  0.6337 -0.4330
 2807SOL    HW120057   3.306   3.028   6.819 -0.0449 -1.0561 -0.9305
 2807SOL    HW220058   3.180   2.978   6.778 -0.9598 -2.4516  2.1636
 2808SOL     OW20059   0.710   3.419   9.118  0.2093  0.0813  0.3221
 2808SOL    HW120060   0.722   3.343   9.060  0.4153  0.0765  0.3705
 2808SOL    HW220061   0.764   3.401   9.195 -0.8236  0.1152  1.0465
 2809SOL     OW20062   0.195   3.235  14.215 -0.7489  0.2812 -0.0458
 2809SOL    HW120063   0.149   3.281  14.145  1.7231 -2.0849 -3.2750
 2809SOL    HW220064   0.288   3.252  14.199 -0.6094 -0.5120 -0.1064
 2810SOL     OW20065   3.487   1.297   0.568  0.6261 -0.2305  0.5200
 2810SOL    HW120066   3.459   1.333   0.484  1.8986  1.2024  0.7188
 2810SOL    HW220067   3.521   1.382   0.596  1.7370 -0.1047 -1.2205
 2811SOL     OW20068   1.351   2.608   3.957 -0.8942  0.0638  0.1779
 2811SOL    HW120069   1.281   2.565   3.907 -2.9376  1.3126  1.9692
 2811SOL    HW220070   1.330   2.568   4.041 -1.3294 -0.2101 -0.0566
 2812SOL     OW20071   0.370   0.434  16.598  0.5816 -0.1061  0.3563
 2812SOL    HW120072   0.429   0.472  16.533 -0.0629 -0.2933 -0.3466
 2812SOL    HW220073   0.425   0.413  16.673  2.7877 -0.2154 -1.2755
 2813SOL     OW20074   0.122   1.596  11.487 -0.3026 -0.6277 -0.0803
 2813SOL    HW120075   0.197   1.616  11.543 -1.2622 -0.1130  1.0129
 2813SOL    HW220076   0.078   1.532  11.543  0.1954 -1.4528 -0.6194
 2814SOL     OW20077   2.708   1.296   9.464  0.6636  0.3445 -0.0737
 2814SOL    HW120078   2.658   1.215   9.470  0.4937  0.5858  1.7456
 2814SOL    HW220079   2.721   1.315   9.557  0.3801 -2.7943  0.5943
 2815SOL     OW20080   4.582   2.704   5.823  0.0366  0.4540  0.5985
 2815SOL    HW120081   4.549   2.652   5.897  0.7551  1.1765  1.4276
 2815SOL    HW220082   4.617   2.630   5.773 -1.3642  0.2348 -0.0685
 2816SOL     OW20083   1.204   3.543  11.171  0.0452  0.2898 -0.3864
 2816SOL    HW120084   1.276   3.577  11.118  0.7914  0.6902  0.8977
 2816SOL    HW220085   1.157   3.624  11.190  1.5054  0.6554  1.6424
 2817SOL     OW20086   4.660   2.168   9.105 -0.5381 -0.3481 -0.3161
 2817SOL    HW120087   0.014   2.171   9.135 -0.5054  3.9708 -0.9295
 2817SOL    HW220088   4.617   2.240   9.150  2.0009  0.9926 -0.0187
 2818SOL     OW20089   3.716   1.459   5.041 -0.4534 -0.3409  0.6052
 2818SOL    HW120090   3.732   1.416   5.125 -0.2239 -1.5568 -0.0614
 2818SOL    HW220091   3.626   1.436   5.017 -0.6617  0.5564  0.5165
 2819SOL     OW20092   1.118   3.050   4.641 -0.0935 -0.1377  0.2809
 2819SOL    HW120093   1.038   3.003   4.617 -0.8883  0.4596  1.7815
 2819SOL    HW220094   1.110   3.132   4.593  2.2184 -0.9076 -1.4351
 2820SOL     OW20095   0.563   4.506  17.695  0.4283  0.6332  0.3587
 2820SOL    HW120096   0.521   4.591  17.681 -0.6463  0.0269 -0.0237
 2820SOL    HW220097   0.499   4.457  17.746 -0.2778  0.5317 -0.6259
 2821SOL     OW20098   1.975   0.544   3.574 -0.1853 -0.1811 -0.2251
 2821SOL    HW120099   2.021   0.471   3.531 -0.0260 -0.5441  0.5561
 2821SOL    HW220100   1.885   0.522   3.549 -0.2270  0.0680 -0.2949
 2822SOL     OW20101   4.669   3.251   6.671  0.1166  0.2887  0.2907
 2822SOL    HW120102   4.637   3.188   6.606  0.2112 -0.5259  1.0389
 2822SOL    HW220103   4.642   3.216   6.756  2.8702  0.2833  1.1662
 2823SOL     OW20104   2.059   1.263   8.026 -0.0042  0.4072 -0.4027
 2823SOL    HW120105   2.063   1.330   8.094  0.2131  1.4578 -1.4476
 2823SOL    HW220106   2.138   1.217   8.053 -0.9186  0.3843  2.2815
 2824SOL     OW20107   0.285   1.516   3.819  0.0309 -0.9437 -0.2162
 2824SOL    HW120108   0.334   1.463   3.882  0.1677 -0.6719 -0.0981
 2824SOL    HW220109   0.262   1.448   3.756  1.0559 -0.6495 -0.8946
 2825SOL     OW20110   0.780   4.283   9.985  0.1239 -0.2729  0.4701
 2825SOL    HW120111   0.866   4.245   9.965  1.3192  2.8478 -0.3398
 2825SOL    HW220112   0.765   4.254  10.075 -1.9744  0.9540  0.5183
 2826SOL     OW20113   2.834   2.294   9.516  0.0032  0.2660 -0.7757
 2826SOL    HW120114   2.761   2.238   9.490 -0.1675  0.6352 -1.0971
 2826SOL    HW220115   2.893   2.285   9.440 -1.5975  1.8749 -2.1883
 2827SOL     OW20116   2.006   3.861   8.743  0.1582 -0.0883 -0.0472
 2827SOL    HW120117   1.990   3.866   8.837  0.6746 -2.3489  0.1552
 2827SOL    HW220118   1.917   3.868   8.708 -0.0975  1.9998  1.0605
 2828SOL     OW20119   2.614   2.074  16.337  0.0950 -0.0384  0.1589
 2828SOL    HW120120   2.536   2.123  16.312  0.4032  0.4231  0.1129
 2828SOL    HW220121   2.590   2.054  16.427  1.9782  0.4264  0.7627
 2829SOL     OW20122   3.812   3.664   4.366 -0.5671  0.3316 -0.3140
 2829SOL    HW120123   3.778   3.637   4.281  2.6564 -1.4393 -1.0590
 2829SOL    HW220124   3.756   3.612   4.424  0.1401 -1.4393 -1.1960
 2830SOL     OW20125   4.296   2.549  11.062  0.6888 -0.7171 -0.2188
 2830SOL    HW120126   4.335   2.536  11.149 -0.6501 -1.1703  0.3092
 2830SOL    HW220127   4.307   2.459  11.032  1.8727 -0.0156 -1.8807
 2831SOL     OW20128   2.307   0.065  16.770  0.5110 -0.0799  0.3676
 2831SOL    HW120129   2.401   0.065  16.787  0.5342 -2.9105  0.1315
 2831SOL    HW220130   2.301   0.046  16.677  0.8015 -4.1114  1.1686
 2832SOL     OW20131   3.104   3.252   3.662 -0.1194 -0.0988 -0.6455
 2832SOL    HW120132   3.189   3.213   3.682 -0.3918 -1.0316 -1.3155
 2832SOL    HW220133   3.129   3.340   3.634 -0.4764  0.4950  0.9155
 2833SOL     OW20134   3.637   3.022  15.568  0.0792 -0.1259 -0.0324
 2833SOL    HW120135   3.562   3.056  15.615 -0.5480 -0.5370 -0.7391
 2833SOL    HW220136   3.670   2.956  15.629  2.0277 -0.2260 -1.1673
 2834SOL     OW20137   1.748   4.358   8.962  0.0762  0.3680  0.1139
 2834SOL    HW120138   1.826   4.371   9.015 -0.5740  3.1788  0.3888
 2834SOL    HW220139   1.676   4.383   9.020  1.7664  0.1345  2.3241
 2835SOL     OW20140   0.476   3.208   7.043  0.6692  0.3419  0.0571
 2835SOL    HW120141   0.424   3.280   7.008 -0.4095 -0.2922  0.3519
 2835SOL    HW220142   0.460   3.230   7.135  0.2740  2.6943 -0.5977
 2836SOL     OW20143   4.036   4.435   2.183  0.3410  0.2061  0.4153
 2836SOL    HW120144   3.954   4.484   2.191  1.1687  1.7506 -0.4938
 2836SOL    HW220145   4.004   4.349   2.210  1.6332 -1.2351 -2.6635
 2837SOL     OW20146   0.918   0.645   3.645 -0.3996  0.4855 -0.0814
 2837SOL    HW120147   0.922   0.604   3.559 -0.1428 -0.4342  0.3775
 2837SOL    HW220148   0.839   0.610   3.686 -0.1109  1.4948  1.3745
 2838SOL     OW20149   1.641   0.569   0.788  0.2638  0.6705 -0.3828
 2838SOL    HW120150   1.679   0.534   0.869  0.4414  0.1816 -0.6832
 2838SOL    HW220151   1.713   0.549   0.729  2.2171 -2.7612  3.1615
 2839SOL     OW20152   2.099   4.607   9.340  0.8537 -0.1950 -0.0201
 2839SOL    HW120153   2.181   4.601   9.391 -0.6716  3.7085  2.9083
 2839SOL    HW220154   2.124   4.677   9.280 -0.0197 -2.0304 -2.4825
 2840SOL     OW20155   3.659   3.122   7.693  0.1635 -0.8099  0.4069
 2840SOL    HW120156   3.667   3.216   7.676  1.6225 -0.5505  2.4419
 2840SOL    HW220157   3.614   3.093   7.614 -2.3364  1.6496  0.9375
 2841SOL     OW20158   0.513   3.847   3.568 -0.5375  0.7883 -0.1720
 2841SOL    HW120159   0.591   3.871   3.618 -1.8293  0.2488  2.0616
 2841SOL    HW220160   0.467   3.783   3.621  2.0128 -0.6675  0.3020
 2842SOL     OW20161   0.193   2.858   7.563  0.0037 -0.0832  0.0883
 2842SOL    HW120162   0.228   2.793   7.501  0.0844  0.5032 -0.4857
 2842SOL    HW220163   0.112   2.820   7.596 -0.4968  0.6276 -0.3316
 2843SOL     OW20164   1.562   3.350   6.790 -0.9575  0.3403  0.4182
 2843SOL    HW120165   1.479   3.345   6.743  0.1730  1.6456 -1.6884
 2843SOL    HW220166   1.586   3.258   6.798 -0.6478  0.6273  2.8144
 2844SOL     OW20167   3.771   3.600   7.704 -0.0218  0.3484  0.0964
 2844SOL    HW120168   3.839   3.652   7.660 -0.8486  0.9771 -0.4403
 2844SOL    HW220169   3.795   3.619   7.795 -2.1019 -0.3021  0.7740
 2845SOL     OW20170   4.611   3.154   6.922 -0.0613 -0.5034  0.3095
 2845SOL    HW120171   4.542   3.196   6.973 -2.5658 -0.5728 -3.0652
 2845SOL    HW220172   4.688   3.173   6.976  1.0165 -0.2704 -1.3164
 2846SOL     OW20173   0.394   3.190   3.763  0.1482  0.0680 -0.3228
 2846SOL    HW120174   0.369   3.257   3.827  0.9951  0.2736 -0.2085
 2846SOL    HW220175   0.436   3.131   3.826  2.5469  1.6891 -0.4308
 2847SOL     OW20176   2.094   1.277   8.852 -0.0023 -0.2575  0.2307
 2847SOL    HW120177   2.147   1.249   8.927  0.9135  1.4770  0.2364
 2847SOL    HW220178   2.033   1.205   8.839 -0.5308 -0.1290  1.9656
 2848SOL     OW20179   1.081   2.388  10.966  0.4556  0.5264  0.2378
 2848SOL    HW120180   1.156   2.344  11.007 -0.2534 -0.8629  0.0682
 2848SOL    HW220181   1.048   2.311  10.919  0.5254  0.4202  0.3605
 2849SOL     OW20182   4.137   3.498  14.904 -0.3041  1.0051  0.3842
 2849SOL    HW120183   4.217   3.543  14.879  0.1691  0.3168  0.6546
 2849SOL    HW220184   4.069   3.556  14.870 -0.6248  0.6716  0.4468
 2850SOL     OW20185   0.662   1.804   6.007  0.0813 -0.0775 -0.1240
 2850SOL    HW120186   0.657   1.783   5.914 -1.4175 -1.2419  0.2228
 2850SOL    HW220187   0.616   1.725   6.035 -2.7464  1.2475 -1.0839
 2851SOL     OW20188   4.731   0.766   2.838 -0.9141  0.8128  0.1910
 2851SOL    HW120189   0.061   0.833   2.849 -0.4081  0.3442 -0.0448
 2851SOL    HW220190   0.015   0.706   2.910  0.4657  2.3845  1.0988
 2852SOL     OW20191   2.627   1.853   3.805 -0.4338 -0.0485  0.2216
 2852SOL    HW120192   2.677   1.786   3.758 -0.8503 -0.0772 -0.1738
 2852SOL    HW220193   2.569   1.797   3.856 -0.2944 -1.0412 -0.7129
 2853SOL     OW20194   0.396   0.421   4.103  0.2659  0.1618 -0.0533
 2853SOL    HW120195   0.377   0.476   4.027 -0.1991  2.1633  1.5152
 2853SOL    HW220196   0.345   0.470   4.168 -1.5848 -0.0021 -1.3806
 2854SOL     OW20197   0.637   2.406  17.326  0.3324 -0.3576 -0.2137
 2854SOL    HW120198   0.696   2.364  17.389 -0.7905 -3.4176 -1.2030
 2854SOL    HW220199   0.614   2.484  17.376 -2.6204 -0.7739 -0.9357
 2855SOL     OW20200   0.833   1.143   5.430 -0.0880  0.0231 -0.5714
 2855SOL    HW120201   0.792   1.215   5.381  2.2629  1.6205 -0.1591
 2855SOL    HW220202   0.860   1.192   5.507 -0.5331  0.7569 -0.8741
 2856SOL     OW20203   3.381   3.136   7.786  0.4531  0.0550 -0.1452
 2856SOL    HW120204   3.398   3.217   7.835  0.9656  1.1311 -2.1233
 2856SOL    HW220205   3.466   3.099   7.763  0.1365  0.2383 -1.6152
 2857SOL     OW20206   0.896   0.705  11.574  0.6278 -0.1636  0.0674
 2857SOL    HW120207   0.869   0.795  11.559 -0.0063 -0.3897 -0.1559
 2857SOL    HW220208   0.943   0.731  11.654  0.9127 -1.6914  0.4047
 2858SOL     OW20209   2.418   0.407   4.163 -0.2450  0.2810 -0.0857
 2858SOL    HW120210   2.421   0.498   4.133  0.6829  0.8941  1.8664
 2858SOL    HW220211   2.366   0.365   4.095 -0.5833 -0.0187  0.3552
 2859SOL     OW20212   1.303   2.425   4.804 -0.1669 -0.0952 -0.2465
 2859SOL    HW120213   1.291   2.396   4.895 -0.2707  3.1684  0.7667
 2859SOL    HW220214   1.297   2.342   4.756 -0.7409  0.5237 -1.2318
 2860SOL     OW20215   2.512   2.026   2.378  0.6117  0.1792  0.6932
 2860SOL    HW120216   2.487   2.098   2.435 -0.7677  1.1549 -1.1324
 2860SOL    HW220217   2.426   2.009   2.338  0.3875 -2.6644  2.3825
 2861SOL     OW20218   3.597   1.147  16.734  0.1260 -0.1851 -0.3099
 2861SOL    HW120219   3.666   1.198  16.690 -0.0066 -0.9121 -1.3565
 2861SOL    HW220220   3.651   1.082  16.778 -0.8251 -1.3975 -0.9534
 2862SOL     OW20221   0.008   1.947  15.495  0.5994  0.1122 -0.2875
 2862SOL    HW120222   0.055   1.988  15.423  1.8237  0.6181  0.7880
 2862SOL    HW220223   4.735   2.019  15.558  0.0048 -1.1406  1.0645
 2863SOL     OW20224   4.582   1.013   6.475  0.2870 -0.1293  0.2775
 2863SOL    HW120225   4.580   1.109   6.477 -1.0384 -0.1430 -0.1613
 2863SOL    HW220226   4.623   0.990   6.392 -1.1664  2.2869 -1.0966
 2864SOL     OW20227   3.902   2.122  14.947  1.2063 -0.0520 -0.5292
 2864SOL    HW120228   3.989   2.091  14.925  0.5138 -2.1048 -0.4195
 2864SOL    HW220229   3.913   2.128  15.042 -2.6423  0.0074 -0.0926
 2865SOL     OW20230   4.372   4.551   2.140  0.1415 -0.1172  0.1051
 2865SOL    HW120231   4.326   4.483   2.189 -0.5726  1.2208  1.3140
 2865SOL    HW220232   4.349   4.627   2.194  0.2176  0.2388 -0.3613
 2866SOL     OW20233   4.224   4.157  12.091 -0.3444 -0.4527  0.6857
 2866SOL    HW120234   4.145   4.208  12.108 -1.9453 -1.8208 -2.7400
 2866SOL    HW220235   4.242   4.189  12.003  0.2113  0.7153  1.2194
 2867SOL     OW20236   3.802   2.967  14.594 -0.0727  0.2222 -0.1409
 2867SOL    HW120237   3.759   2.974  14.679  0.1547 -0.1727  0.0032
 2867SOL    HW220238   3.794   3.057  14.562 -2.3916  0.7629  1.8907
 2868SOL     OW20239   4.707   3.063  17.692  0.1002 -0.5602 -0.4164
 2868SOL    HW120240   4.693   3.119   0.021  0.3604 -0.7931 -0.1952
 2868SOL    HW220241   4.660   3.122  17.633  2.0338  0.5104 -0.8847
 2869SOL     OW20242   0.660   1.543   8.106  0.1405  0.0617  0.0420
 2869SOL    HW120243   0.638   1.489   8.031  0.0872 -1.0143  0.8336
 2869SOL    HW220244   0.756   1.540   8.106  0.1344 -0.0302  1.4507
 2870SOL     OW20245   1.647   1.798   5.510  0.5205  0.2756  0.4435
 2870SOL    HW120246   1.742   1.808   5.517  0.3191  1.7502  0.9708
 2870SOL    HW220247   1.641   1.748   5.428  1.8877  1.7463 -0.5564
 2871SOL     OW20248   3.879   2.794   0.078  0.0741  0.1901 -0.0788
 2871SOL    HW120249   3.826   2.813   0.001 -0.3606  0.1016  0.1999
 2871SOL    HW220250   3.968   2.777   0.047 -0.4974 -0.9896 -1.0600
 2872SOL     OW20251   3.698   4.305   6.849  0.3819 -0.2459  0.6288
 2872SOL    HW120252   3.638   4.376   6.871  0.3332  0.0331 -0.3776
 2872SOL    HW220253   3.641   4.230   6.869 -0.8099  0.9037  1.5011
 2873SOL     OW20254   0.909   0.265  13.626  0.3583  0.4256 -0.3723
 2873SOL    HW120255   0.882   0.244  13.716 -1.0619  0.6157 -0.7682
 2873SOL    HW220256   0.994   0.222  13.636  0.4638  0.8024  0.3749
 2874SOL     OW20257   3.853   0.912  17.378 -0.1595 -0.3472 -0.6934
 2874SOL    HW120258   3.819   0.823  17.369  3.8713 -1.7697 -1.8884
 2874SOL    HW220259   3.931   0.903  17.322  1.0921 -1.1959  1.1838
 2875SOL     OW20260   2.234   3.022   3.324  0.4116  0.1963 -0.0585
 2875SOL    HW120261   2.203   3.082   3.392 -1.0777  1.5862 -1.9620
 2875SOL    HW220262   2.319   2.998   3.361  0.7461 -1.9164 -2.1999
 2876SOL     OW20263   2.607   3.698   9.895  0.8452 -0.2557 -0.2298
 2876SOL    HW120264   2.673   3.678   9.828  1.7284  1.1796  0.2256
 2876SOL    HW220265   2.644   3.674   9.980  0.3117 -0.6741 -0.1131
 2877SOL     OW20266   2.262   3.576   4.017 -0.7200  0.7915 -0.1282
 2877SOL    HW120267   2.232   3.609   4.102  0.6601  2.2944 -0.2042
 2877SOL    HW220268   2.197   3.610   3.956 -0.9812  0.3228 -0.1093
 2878SOL     OW20269   2.683   0.370   7.853 -0.1670 -0.0653  0.0772
 2878SOL    HW120270   2.631   0.291   7.862  1.1919 -0.8873  0.7050
 2878SOL    HW220271   2.653   0.397   7.766 -0.4913 -1.3591 -0.2005
 2879SOL     OW20272   1.970   3.818  10.248  0.3146  0.5805  0.7461
 2879SOL    HW120273   1.880   3.849  10.238  0.7224  0.8271 -2.1602
 2879SOL    HW220274   1.965   3.726  10.272 -0.3256 -0.0003 -1.6023
 2880SOL     OW20275   4.292   0.968   3.121  0.0872 -0.4736  0.4156
 2880SOL    HW120276   4.293   1.028   3.047 -0.1098 -1.6799 -0.5741
 2880SOL    HW220277   4.373   0.924   3.096 -0.4119 -1.0132 -0.2521
 2881SOL     OW20278   4.316   2.462   7.592  0.1946  0.0819 -0.6659
 2881SOL    HW120279   4.319   2.527   7.521 -2.7650  0.2545 -0.6619
 2881SOL    HW220280   4.389   2.403   7.574  0.2675  0.2234 -0.8278
 2882SOL     OW20281   3.558   2.840   2.484 -0.0368  0.0361  0.1056
 2882SOL    HW120282   3.597   2.818   2.568  1.6733 -0.0242 -0.7107
 2882SOL    HW220283   3.616   2.793   2.424 -2.0706 -1.4932 -0.6546
 2883SOL     OW20284   2.492   1.447   3.552 -0.0900 -0.1934  0.0901
 2883SOL    HW120285   2.435   1.382   3.511  1.1412 -0.5849 -1.0019
 2883SOL    HW220286   2.565   1.385   3.561 -2.2758 -2.6001  1.3337
 2884SOL     OW20287   2.464   0.986   9.835  0.0983 -0.3561 -0.9039
 2884SOL    HW120288   2.491   1.070   9.797 -0.9475  0.9851  1.3571
 2884SOL    HW220289   2.552   0.960   9.864 -0.9019 -0.4126  2.0710
 2885SOL     OW20290   0.858   3.012   5.212  0.0397 -0.0870  0.4674
 2885SOL    HW120291   0.821   2.983   5.128  0.2636  0.5540  0.1442
 2885SOL    HW220292   0.839   2.943   5.274 -1.8897 -1.6333 -1.8666
 2886SOL     OW20293   3.690   4.651   2.986 -0.2748  0.0450 -0.0567
 2886SOL    HW120294   3.672   4.591   2.913  3.2526  0.8251 -1.5729
 2886SOL    HW220295   3.771   4.692   2.955 -1.5948  2.8756  0.2405
 2887SOL     OW20296   3.510   1.755   7.314  0.2546  0.4790  0.4064
 2887SOL    HW120297   3.592   1.732   7.271 -0.3312  1.2640 -1.0922
 2887SOL    HW220298   3.454   1.681   7.291  1.1593 -0.6459  1.7635
 2888SOL     OW20299   0.744   0.566   4.814  0.1094 -0.5266  0.2867
 2888SOL    HW120300   0.833   0.570   4.778  0.5217 -1.0903  1.2534
 2888SOL    HW220301   0.760   0.490   4.870  1.0076 -0.9302 -0.5272
 2889SOL     OW20302   4.459   3.701  17.619  0.1250 -0.6647  0.1510
 2889SOL    HW120303   4.470   3.736  17.530 -1.9635  3.9595  1.7091
 2889SOL    HW220304   4.550   3.675  17.635  0.4553 -0.9701 -2.2349
 2890SOL     OW20305   2.468   3.955   8.964 -0.3902 -0.9703  0.7000
 2890SOL    HW120306   2.404   3.942   9.034 -0.9348 -0.0114  0.3776
 2890SOL    HW220307   2.491   3.865   8.941  2.8261 -0.0657  0.3811
 2891SOL     OW20308   0.691   2.257   6.616  0.3423 -0.1895 -0.3358
 2891SOL    HW120309   0.697   2.173   6.571 -0.2053 -0.7181  0.5973
 2891SOL    HW220310   0.718   2.242   6.706 -0.8782 -0.6697 -0.0497
 2892SOL     OW20311   3.872   4.428   5.966 -0.2155 -0.0898 -0.3756
 2892SOL    HW120312   3.846   4.433   6.058  1.3864  1.0816  0.0016
 2892SOL    HW220313   3.815   4.358   5.934 -0.1930 -1.4630  2.4944
 2893SOL     OW20314   2.343   0.405   7.836 -0.5150  0.5420 -0.0334
 2893SOL    HW120315   2.267   0.351   7.818  0.9893 -1.5478 -0.1230
 2893SOL    HW220316   2.359   0.384   7.928  1.0397  1.5304 -0.0801
 2894SOL     OW20317   4.540   1.759   4.696 -0.0248 -0.0020  0.3300
 2894SOL    HW120318   4.616   1.716   4.655  2.4401  3.0844  1.6635
 2894SOL    HW220319   4.512   1.678   4.740  1.3924  0.3111  1.8161
 2895SOL     OW20320   0.924   2.923  11.790 -0.0532 -0.6495 -0.0032
 2895SOL    HW120321   0.867   2.997  11.813  0.8492  0.2090 -0.5388
 2895SOL    HW220322   1.002   2.975  11.770 -2.3331  2.1941 -1.4128
 2896SOL     OW20323   3.944   1.828   0.996 -0.3642  0.3490  0.0312
 2896SOL    HW120324   3.904   1.805   1.080 -1.0423  0.4519 -0.2692
 2896SOL    HW220325   4.031   1.800   1.025 -0.8327 -0.3177  0.8080
 2897SOL     OW20326   0.062   2.983   2.778 -0.6612 -0.7396  0.3564
 2897SOL    HW120327   4.706   3.002   2.772 -0.8334 -1.7725 -0.2749
 2897SOL    HW220328   0.082   2.975   2.684  1.1386 -1.3820  0.7950
 2898SOL     OW20329   0.174   4.039  10.092  0.2484 -0.4456 -0.5121
 2898SOL    HW120330   0.128   3.972  10.042  0.6079 -0.9977 -0.1026
 2898SOL    HW220331   0.238   4.077  10.032  0.0853  1.3073  0.4390
 2899SOL     OW20332   2.564   2.639   4.902 -0.5778  0.2763 -0.6948
 2899SOL    HW120333   2.582   2.550   4.872 -3.7666 -0.3835 -0.6905
 2899SOL    HW220334   2.593   2.696   4.831 -2.7855 -1.5722 -3.1154
 2900SOL     OW20335   1.181   4.340  14.713 -0.4670  0.7158  0.3059
 2900SOL    HW120336   1.241   4.284  14.663 -0.7653 -0.4705  1.2876
 2900SOL    HW220337   1.141   4.386  14.639  1.8305 -0.2889 -1.5984
 2901SOL     OW20338   1.582   1.271   7.684  0.3277  0.4465 -0.2548
 2901SOL    HW120339   1.510   1.209   7.673 -0.6070  1.4880  0.0141
 2901SOL    HW220340   1.605   1.253   7.775 -0.2576  0.1750 -0.1624
 2902SOL     OW20341   0.615   4.380  15.594 -0.2053 -0.2169 -0.3196
 2902SOL    HW120342   0.540   4.321  15.592  1.0985 -1.8529 -1.5796
 2902SOL    HW220343   0.603   4.437  15.518 -2.7878 -0.1106  0.1696
 2903SOL     OW20344   2.719   2.766  14.021  0.2986 -0.1153 -0.7155
 2903SOL    HW120345   2.709   2.750  14.114 -0.8768  1.2406 -0.6210
 2903SOL    HW220346   2.807   2.803  14.025  0.1772 -0.0263  0.9271
 2904SOL     OW20347   1.226   1.782  11.293  0.0660 -0.0016 -0.1573
 2904SOL    HW120348   1.320   1.797  11.301 -0.1353  1.2560 -0.2313
 2904SOL    HW220349   1.221   1.686  11.297 -0.7285  0.1162  1.9386
 2905SOL     OW20350   0.536   1.420  11.486 -0.1592  0.2887  0.6025
 2905SOL    HW120351   0.454   1.372  11.503  0.5791 -1.6455 -1.3175
 2905SOL    HW220352   0.592   1.365  11.540 -2.0335 -2.5324 -0.2877
 2906SOL     OW20353   3.048   3.585   5.756 -0.5672  0.4421 -0.8579
 2906SOL    HW120354   3.104   3.658   5.781  2.1114 -1.4742 -1.2060
 2906SOL    HW220355   3.033   3.541   5.840  3.0413 -0.8972 -0.9259
 2907SOL     OW20356   4.037   2.327  15.471  0.5108  0.1383  0.2100
 2907SOL    HW120357   4.094   2.314  15.547  0.2029  1.9548  0.7411
 2907SOL    HW220358   3.998   2.241  15.457  2.6100 -0.4749 -1.8836
 2908SOL     OW20359   2.027   1.237   2.783  0.3854  0.2460  0.0764
 2908SOL    HW120360   2.111   1.278   2.765  0.5383 -0.6472 -1.2427
 2908SOL    HW220361   2.014   1.274   2.871  1.6491 -0.6866  0.6463
 2909SOL     OW20362   4.246   1.809   4.535 -0.2246  0.0177  0.4791
 2909SOL    HW120363   4.169   1.753   4.542 -1.7711  1.9086 -1.8019
 2909SOL    HW220364   4.319   1.750   4.554  0.5441  0.8407  0.0644
 2910SOL     OW20365   4.696   1.222   3.677 -0.4320  0.0670  0.2894
 2910SOL    HW120366   4.681   1.159   3.747  0.5862 -0.8006 -0.2727
 2910SOL    HW220367   4.622   1.281   3.687  0.4214  1.0985  0.5207
 2911SOL     OW20368   2.757   2.790  15.798 -0.4550  0.0083  0.9970
 2911SOL    HW120369   2.767   2.799  15.703  0.1823 -0.7256  0.9984
 2911SOL    HW220370   2.802   2.707  15.808 -1.6517 -0.5762  1.5682
 2912SOL     OW20371   1.521   1.081   7.256  0.0003 -0.0903 -0.2967
 2912SOL    HW120372   1.581   1.080   7.181 -0.7612 -0.6566 -0.8947
 2912SOL    HW220373   1.439   1.052   7.216  0.1464 -0.7069 -0.1572
 2913SOL     OW20374   2.816   2.998   2.375  0.5064  0.3530  0.7231
 2913SOL    HW120375   2.834   2.961   2.289 -0.5133 -0.4119  0.8354
 2913SOL    HW220376   2.839   2.927   2.435  1.9804 -0.8656 -1.3163
 2914SOL     OW20377   3.172   0.264   6.680  0.2615  0.1937  0.1261
 2914SOL    HW120378   3.161   0.337   6.619  2.4530  0.5162  0.1229
 2914SOL    HW220379   3.122   0.298   6.755  1.6076  0.1455  1.0553
 2915SOL     OW20380   4.133   3.900   3.172  0.2660 -0.5295  0.2217
 2915SOL    HW120381   4.161   3.884   3.262 -0.9047 -2.2263  0.2905
 2915SOL    HW220382   4.214   3.893   3.121 -0.5771 -0.2214 -1.1674
 2916SOL     OW20383   2.017   2.578   7.855  0.1703  0.4365  1.0511
 2916SOL    HW120384   2.026   2.486   7.880  0.5126  0.1362 -0.1725
 2916SOL    HW220385   2.097   2.591   7.804  0.7469 -1.1476  1.5484
 2917SOL     OW20386   2.296   1.341   8.527  0.0131 -0.2228 -0.0357
 2917SOL    HW120387   2.368   1.297   8.571 -0.8202 -1.3260  0.2282
 2917SOL    HW220388   2.295   1.291   8.445 -1.9608  0.6676 -0.5552
 2918SOL     OW20389   2.424   3.021   4.524  0.4509  0.2839 -0.4718
 2918SOL    HW120390   2.394   2.962   4.454  1.3481 -1.9726  1.0540
 2918SOL    HW220391   2.490   2.971   4.571 -1.0607 -1.0149  0.2971
 2919SOL     OW20392   3.100   3.610   8.123 -0.0695 -0.2875  0.0489
 2919SOL    HW120393   3.027   3.571   8.075  0.4654 -1.3338  0.0675
 2919SOL    HW220394   3.097   3.701   8.095  0.9575 -0.1548  0.3704
 2920SOL     OW20395   2.368   3.807   3.449 -0.2109 -0.7977  0.2854
 2920SOL    HW120396   2.274   3.788   3.442 -0.1709 -1.5349  1.7922
 2920SOL    HW220397   2.382   3.765   3.534 -3.3551 -0.2377  1.1079
 2921SOL     OW20398   2.301   4.398   6.374  0.8096 -0.5093  0.2649
 2921SOL    HW120399   2.392   4.371   6.367  1.4120  1.2621  1.2573
 2921SOL    HW220400   2.293   4.440   6.288  1.2978 -1.1296 -0.0809
 2922SOL     OW20401   3.739   0.856   5.996 -0.1626  0.1148  0.6026
 2922SOL    HW120402   3.813   0.796   5.985 -0.2525  0.2460 -0.7576
 2922SOL    HW220403   3.795   0.932   6.009  0.8804 -0.6447  0.5660
 2923SOL     OW20404   0.783   0.512   1.064  0.6676  0.1030  0.2406
 2923SOL    HW120405   0.837   0.467   1.130  0.7383  1.0612  0.8421
 2923SOL    HW220406   0.728   0.442   1.030  0.2160  0.3383  0.4863
 2924SOL     OW20407   3.218   2.814  12.974  0.2541  0.4993  0.4022
 2924SOL    HW120408   3.236   2.873  12.900 -0.4925 -0.6180 -0.6899
 2924SOL    HW220409   3.245   2.866  13.049  0.3274  1.5168 -0.3272
 2925SOL     OW20410   3.264   1.642   2.658  0.1668 -0.0230  0.2981
 2925SOL    HW120411   3.328   1.713   2.667  0.1839 -0.1519  1.2369
 2925SOL    HW220412   3.322   1.571   2.629  0.3941  0.4587 -0.4358
 2926SOL     OW20413   2.952   3.757   5.540 -0.0441 -0.0395  0.2594
 2926SOL    HW120414   2.965   3.684   5.601  2.2545  0.5382  0.4683
 2926SOL    HW220415   2.906   3.727   5.462 -1.6658  0.4486  1.0245
 2927SOL     OW20416   2.273   1.470   1.833 -0.4178  0.8220 -0.3667
 2927SOL    HW120417   2.255   1.377   1.843  1.1003  0.4087 -1.4455
 2927SOL    HW220418   2.369   1.474   1.838 -0.4462  1.1162 -0.0199
 2928SOL     OW20419   0.708   4.443   3.363 -0.5089  0.1390  0.1297
 2928SOL    HW120420   0.714   4.520   3.306 -0.7014 -0.0227 -0.1148
 2928SOL    HW220421   0.685   4.490   3.443 -1.0711 -1.6123  0.9964
 2929SOL     OW20422   2.752   3.899   9.301 -0.1483 -0.0274  0.0125
 2929SOL    HW120423   2.797   3.875   9.220  1.6655  0.2599  0.9340
 2929SOL    HW220424   2.820   3.955   9.339 -0.1427 -0.0800  0.0789
 2930SOL     OW20425   1.729   1.106   7.064  0.0429  0.1247 -0.4010
 2930SOL    HW120426   1.781   1.187   7.059 -1.0044  0.8891  1.0674
 2930SOL    HW220427   1.710   1.106   6.970 -0.2359 -1.0212 -0.3348
 2931SOL     OW20428   1.360   0.628   4.525 -0.2726  0.1543 -0.4375
 2931SOL    HW120429   1.415   0.697   4.487  0.2075 -1.3152 -2.4028
 2931SOL    HW220430   1.277   0.656   4.487  0.1659  0.1754 -1.3724
 2932SOL     OW20431   3.681   0.553   6.811  0.1853 -0.5293  0.3080
 2932SOL    HW120432   3.774   0.546   6.789  0.2028  0.7013 -0.0224
 2932SOL    HW220433   3.671   0.528   6.903  0.5338  1.3622  0.8562
 2933SOL     OW20434   2.243   0.717  11.945 -0.0632 -0.2967 -0.2026
 2933SOL    HW120435   2.242   0.670  12.028 -1.3968 -1.5554 -0.9306
 2933SOL    HW220436   2.161   0.765  11.958  0.9097  1.3249 -0.1326
 2934SOL     OW20437   0.866   1.319   2.296  0.2265  0.2644 -0.1186
 2934SOL    HW120438   0.778   1.283   2.300  0.7952 -0.7578  3.0158
 2934SOL    HW220439   0.910   1.247   2.340 -0.6466  0.5987  1.3054
 2935SOL     OW20440   1.785   3.378   8.655  0.2973  0.3245  0.0843
 2935SOL    HW120441   1.711   3.388   8.594 -0.9727 -0.7759  1.4493
 2935SOL    HW220442   1.752   3.442   8.717  0.7129  1.6765 -1.0865
 2936SOL     OW20443   3.005   3.876  16.000 -0.1743  0.0936 -0.4296
 2936SOL    HW120444   2.917   3.864  16.035  0.3356 -1.2396  0.3810
 2936SOL    HW220445   3.003   3.972  16.005  0.9439 -0.0864  3.0835
 2937SOL     OW20446   2.944   2.310   7.980 -0.1461 -0.2018 -0.0598
 2937SOL    HW120447   2.977   2.337   8.065  0.4997  0.4393 -0.5156
 2937SOL    HW220448   3.017   2.324   7.920  0.1094  0.7585  0.4827
 2938SOL     OW20449   2.159   1.878   9.016 -0.1818  0.0665  0.1443
 2938SOL    HW120450   2.165   1.855   9.108  0.4743 -2.2368 -0.4624
 2938SOL    HW220451   2.116   1.963   9.016  0.7185  0.5293 -1.1984
 2939SOL     OW20452   1.152   3.517   0.143 -0.4362  0.3179  0.3052
 2939SOL    HW120453   1.123   3.467   0.066  3.0474 -2.4706  0.8152
 2939SOL    HW220454   1.093   3.477   0.207  2.4184 -0.6397  2.3015
 2940SOL     OW20455   0.841   3.758  15.354 -0.5074 -0.0679  0.0058
 2940SOL    HW120456   0.838   3.764  15.259  0.3461  0.9563  0.0485
 2940SOL    HW220457   0.883   3.839  15.382  0.3854 -0.2163 -0.9101
 2941SOL     OW20458   1.312   0.841  14.205  0.0632 -0.3530 -0.2406
 2941SOL    HW120459   1.400   0.841  14.243 -0.5190  2.2583  1.1523
 2941SOL    HW220460   1.295   0.747  14.199  1.6079 -0.6035 -0.8643
 2942SOL     OW20461   0.139   3.121   2.047  0.1802  0.6466  0.0005
 2942SOL    HW120462   0.153   3.054   2.114 -0.5217  1.4836  0.9950
 2942SOL    HW220463   0.228   3.151   2.029  1.2351 -1.7832  1.0751
 2943SOL     OW20464   0.207   3.841   1.491  0.1995 -0.1046 -0.2872
 2943SOL    HW120465   0.260   3.915   1.461 -1.4302  0.6571 -1.2777
 2943SOL    HW220466   0.265   3.796   1.552  2.2921  0.0973 -2.1303
 2944SOL     OW20467   0.390   1.770  11.383 -0.1043  0.2231 -0.1530
 2944SOL    HW120468   0.428   1.842  11.332  1.6420  0.8191  1.9696
 2944SOL    HW220469   0.333   1.821  11.440 -0.5482 -1.3798  0.8397
 2945SOL     OW20470   2.155   3.592   5.860  0.1325 -0.4865 -0.1845
 2945SOL    HW120471   2.231   3.553   5.903 -1.1344 -4.1129 -1.2588
 2945SOL    HW220472   2.176   3.570   5.770 -1.1307  2.1147 -1.1169
 2946SOL     OW20473   0.370   3.026   3.154 -0.2356  0.0056 -0.1687
 2946SOL    HW120474   0.390   2.997   3.065 -2.2511 -0.6044 -0.4117
 2946SOL    HW220475   0.374   3.121   3.148 -3.3497  0.2624  2.0804
 2947SOL     OW20476   2.281   1.975   2.228 -0.0805  0.1854 -0.1909
 2947SOL    HW120477   2.213   2.036   2.201  2.8337  4.1970  1.5034
 2947SOL    HW220478   2.287   1.910   2.158  0.0770  1.1510 -1.0697
 2948SOL     OW20479   2.573   4.328   6.340 -0.0399 -0.2727  0.6852
 2948SOL    HW120480   2.565   4.289   6.253  2.0731 -0.4489  0.5764
 2948SOL    HW220481   2.650   4.279   6.370  1.0050  1.4605  0.8341
 2949SOL     OW20482   2.683   0.834  13.776  0.7327  0.6295  0.1099
 2949SOL    HW120483   2.684   0.926  13.751 -0.6126  0.0564 -2.0619
 2949SOL    HW220484   2.627   0.837  13.853 -0.6013 -1.4108 -0.7888
 2950SOL     OW20485   0.825   2.155  11.348  0.1202 -0.2958 -0.2916
 2950SOL    HW120486   0.871   2.223  11.299 -1.1093  2.3150  2.1060
 2950SOL    HW220487   0.733   2.183  11.347 -0.0246 -0.7585  0.4944
 2951SOL     OW20488   3.010   0.599   7.961 -0.0610  0.1319  0.3810
 2951SOL    HW120489   3.072   0.648   7.906  1.1686  0.7322  2.2951
 2951SOL    HW220490   3.025   0.516   7.915  0.9678  0.1804  0.6377
 2952SOL     OW20491   2.419   0.600   9.198  0.0130  0.3810 -0.6345
 2952SOL    HW120492   2.345   0.659   9.211 -1.2278 -1.8204  2.2795
 2952SOL    HW220493   2.451   0.586   9.287  0.0700  0.7155 -0.6047
 2953SOL     OW20494   1.085   0.614   5.075 -0.0467 -0.1591 -0.2158
 2953SOL    HW120495   1.009   0.655   5.115 -1.4037 -2.9987  0.1126
 2953SOL    HW220496   1.129   0.694   5.046  0.5358 -0.4947 -0.2734
 2954SOL     OW20497   3.430   1.541   3.612 -0.0683  0.1461 -0.0236
 2954SOL    HW120498   3.439   1.461   3.561 -1.0667  2.2357 -3.5610
 2954SOL    HW220499   3.347   1.563   3.568 -0.3376 -0.9529 -0.0605
 2955SOL     OW20500   4.496   1.763   2.938 -1.0993 -0.0846 -0.2398
 2955SOL    HW120501   4.557   1.808   2.996 -2.4621  3.2424 -1.3972
 2955SOL    HW220502   4.435   1.837   2.940  1.0597  1.6738  0.0340
 2956SOL     OW20503   0.495   0.679   8.236 -0.4916 -0.4748 -0.2560
 2956SOL    HW120504   0.453   0.626   8.303  0.9601 -1.5633 -0.2242
 2956SOL    HW220505   0.520   0.758   8.283  0.7638 -1.7451  1.1619
 2957SOL     OW20506   1.500   2.919   5.829 -0.2530 -0.0545  0.0236
 2957SOL    HW120507   1.422   2.918   5.884 -1.5515 -0.3835 -1.8203
 2957SOL    HW220508   1.534   2.832   5.846  0.2335 -0.1867 -1.6451
 2958SOL     OW20509   1.759   2.230   7.934  0.0706 -0.0736 -0.2674
 2958SOL    HW120510   1.784   2.189   8.017 -1.2164  2.3191  1.3146
 2958SOL    HW220511   1.730   2.312   7.976 -2.2943 -0.9914 -0.1015
 2959SOL     OW20512   2.540   0.030   5.313 -0.2695 -0.2319  0.0171
 2959SOL    HW120513   2.577   0.024   5.400  3.3570 -0.3039 -1.5346
 2959SOL    HW220514   2.446   0.014   5.323 -0.5701  1.3291 -0.3259
 2960SOL     OW20515   3.097   2.882   1.272 -0.2429 -0.0569  0.4014
 2960SOL    HW120516   3.028   2.822   1.300 -0.3944 -0.1493 -0.1866
 2960SOL    HW220517   3.163   2.818   1.246  1.3702  1.2707  1.2155
 2961SOL     OW20518   2.309   3.984   4.554  0.1033 -0.1004  0.3489
 2961SOL    HW120519   2.357   3.937   4.486 -0.7730  1.9972 -1.6967
 2961SOL    HW220520   2.358   4.065   4.568 -0.1802  0.1456 -0.0836
 2962SOL     OW20521   3.634   0.831   0.668  0.8113  0.1946  0.0689
 2962SOL    HW120522   3.553   0.878   0.649  0.3213 -0.4257  0.6201
 2962SOL    HW220523   3.664   0.867   0.752 -0.5511  2.8546 -0.5754
 2963SOL     OW20524   3.746   2.425  17.647  0.2704  0.8508 -0.0864
 2963SOL    HW120525   3.715   2.436  17.736 -0.8727  0.1679 -0.3951
 2963SOL    HW220526   3.731   2.517  17.626 -1.7028  0.7932  1.0831
 2964SOL     OW20527   1.004   1.092   2.352 -0.3770 -0.2546 -0.0280
 2964SOL    HW120528   1.059   1.054   2.421  0.0138  1.7857  0.7608
 2964SOL    HW220529   0.991   1.013   2.300 -0.3292  0.3603 -0.9589
 2965SOL     OW20530   2.670   3.460   1.475  0.9827  0.2365  0.0694
 2965SOL    HW120531   2.740   3.525   1.485  2.1048 -0.6627 -1.8903
 2965SOL    HW220532   2.687   3.402   1.549 -0.3844  0.7769  0.8118
 2966SOL     OW20533   4.035   0.818   5.422  0.2280  0.2671  0.2882
 2966SOL    HW120534   3.940   0.816   5.406  0.3792 -3.4281 -0.1645
 2966SOL    HW220535   4.063   0.879   5.354  1.2301  1.0299  1.3863
 2967SOL     OW20536   2.383   3.946   3.996  0.1215  0.2768  0.0005
 2967SOL    HW120537   2.425   3.861   3.987  0.9894  0.8864 -1.5586
 2967SOL    HW220538   2.296   3.921   4.027  0.6800 -0.3139  1.0849
 2968SOL     OW20539   2.334   3.439  17.532  0.2939 -0.4126  0.2675
 2968SOL    HW120540   2.364   3.353  17.500  0.3634 -0.1019 -0.5153
 2968SOL    HW220541   2.373   3.430  17.619  0.3277 -3.2448 -0.0467
 2969SOL     OW20542   4.596   2.868   2.524 -0.3421  0.0261 -0.2971
 2969SOL    HW120543   4.543   2.821   2.460  0.6106  0.0735 -1.1122
 2969SOL    HW220544   4.682   2.837   2.496  0.6820  1.6759  1.0118
 2970SOL     OW20545   0.019   1.614  16.538 -0.7086 -0.4585  0.5397
 2970SOL    HW120546   0.103   1.567  16.545 -0.0648  0.6139 -0.0000
 2970SOL    HW220547   4.698   1.540  16.520 -0.5157 -0.4181 -0.2459
 2971SOL     OW20548   3.428   3.908   4.005 -0.0881 -0.2632  0.2400
 2971SOL    HW120549   3.375   3.923   4.083  1.1858  2.1311  0.6345
 2971SOL    HW220550   3.367   3.947   3.942  0.6654 -1.3000 -1.1547
 2972SOL     OW20551   3.311   1.262   7.532  0.1074 -0.3596 -0.8330
 2972SOL    HW120552   3.218   1.237   7.528  0.1643 -1.1316  2.5171
 2972SOL    HW220553   3.352   1.176   7.539  0.5083 -0.0795  0.1892
 2973SOL     OW20554   4.579   1.675   7.687 -0.2222 -0.0466 -0.3367
 2973SOL    HW120555   4.494   1.643   7.717  0.6004  1.3771  3.4644
 2973SOL    HW220556   4.635   1.656   7.762 -0.5295 -1.0947 -0.3677
 2974SOL     OW20557   1.580   4.232   3.947 -0.3763  0.6889  0.2809
 2974SOL    HW120558   1.563   4.275   4.031  1.0924 -0.0163  0.9216
 2974SOL    HW220559   1.524   4.154   3.951 -1.3007  1.3943  1.3422
 2975SOL     OW20560   3.386   2.310  12.819 -0.0430 -0.0223  0.0276
 2975SOL    HW120561   3.420   2.267  12.897 -2.2487 -2.3280 -0.2926
 2975SOL    HW220562   3.368   2.398  12.853 -2.4345 -0.5792  0.1810
 2976SOL     OW20563   3.568   1.373   3.830  0.2003 -0.3582 -0.0266
 2976SOL    HW120564   3.586   1.424   3.751  0.1070  2.1587  1.5609
 2976SOL    HW220565   3.500   1.313   3.800  0.2219 -0.9140  1.0268
 2977SOL     OW20566   1.266   0.758   5.413  0.2399  0.9290 -0.5213
 2977SOL    HW120567   1.173   0.758   5.438 -0.1124  0.0927 -1.8362
 2977SOL    HW220568   1.256   0.800   5.327  1.0557  2.5298  0.1626
 2978SOL     OW20569   2.197   1.212   1.854 -0.2876  0.8360  0.3507
 2978SOL    HW120570   2.172   1.123   1.831  1.8112  0.2868  0.1570
 2978SOL    HW220571   2.116   1.243   1.894 -1.2514 -0.2213 -0.8152
 2979SOL     OW20572   3.279   2.368  12.002 -0.7291 -0.0118 -0.2854
 2979SOL    HW120573   3.311   2.306  11.936 -1.3713 -0.3885 -0.2415
 2979SOL    HW220574   3.263   2.447  11.951  1.6225  1.9487  2.0711
 2980SOL     OW20575   0.984   2.357   8.231 -0.0796  0.1752 -0.5949
 2980SOL    HW120576   0.980   2.268   8.196  1.2853  0.3042 -1.0942
 2980SOL    HW220577   1.078   2.374   8.241 -0.1387  1.2932 -1.8582
 2981SOL     OW20578   2.308   0.375  14.615  0.4687 -0.0283  0.2502
 2981SOL    HW120579   2.296   0.359  14.522  0.1742 -0.0732  0.2950
 2981SOL    HW220580   2.215   0.369  14.636  0.2313  1.0980 -0.4994
 2982SOL     OW20581   0.301   2.465  15.995 -0.4004 -0.2638  0.4278
 2982SOL    HW120582   0.366   2.510  16.049  1.6017 -1.0053 -1.3740
 2982SOL    HW220583   0.324   2.372  16.007 -0.2504 -0.3471 -0.5165
 2983SOL     OW20584   0.735   0.348  11.910 -0.1973  0.0629 -0.3286
 2983SOL    HW120585   0.705   0.327  11.822 -1.2437  1.5546 -0.3377
 2983SOL    HW220586   0.830   0.350  11.900 -0.1579 -0.3593  0.0056
 2984SOL     OW20587   2.658   2.869   3.683 -0.3166 -0.7887 -0.7154
 2984SOL    HW120588   2.744   2.901   3.659 -0.9280  0.3372 -1.4128
 2984SOL    HW220589   2.662   2.773   3.688  0.2773 -0.6864  0.6000
 2985SOL     OW20590   1.768   2.336  14.182  0.4463 -0.1300  0.4425
 2985SOL    HW120591   1.800   2.426  14.185 -1.6354  0.5625  1.4773
 2985SOL    HW220592   1.822   2.292  14.115 -1.6490  0.4528 -1.6028
 2986SOL     OW20593   2.658   1.499   5.628  0.6255  0.4718  0.6830
 2986SOL    HW120594   2.581   1.555   5.635 -0.2608 -0.3866 -2.2400
 2986SOL    HW220595   2.698   1.536   5.550 -0.3249  1.4685  0.6580
 2987SOL     OW20596   3.222   4.217  10.109 -0.3158 -0.7845 -0.2313
 2987SOL    HW120597   3.175   4.300  10.102  0.3800 -0.4814 -1.3014
 2987SOL    HW220598   3.303   4.262  10.136  0.0619 -1.2587 -0.5987
 2988SOL     OW20599   4.305   3.507   8.492 -0.5908  0.2374 -0.4230
 2988SOL    HW120600   4.271   3.589   8.457 -1.5639  0.2363  0.5162
 2988SOL    HW220601   4.389   3.510   8.446 -1.0142  0.7460 -1.1687
 2989SOL     OW20602   3.712   2.842  15.760  0.5899 -0.3292 -0.7873
 2989SOL    HW120603   3.687   2.927  15.796  0.4984  0.3284 -2.4212
 2989SOL    HW220604   3.740   2.796  15.840  1.8982 -0.5078 -1.3436
 2990SOL     OW20605   2.447   1.506   2.256  0.3233  0.1029 -0.2528
 2990SOL    HW120606   2.519   1.494   2.318  1.2737  2.0755 -0.9679
 2990SOL    HW220607   2.396   1.572   2.304 -0.2299 -2.7110  3.0085
 2991SOL     OW20608   0.942   2.223   6.233  0.3469  0.1453  0.1020
 2991SOL    HW120609   0.882   2.214   6.307 -0.3183  0.8450 -0.3380
 2991SOL    HW220610   0.907   2.162   6.168 -0.8034 -1.6132  2.3626
 2992SOL     OW20611   3.154   3.961   7.150  0.4398  0.2153  0.2625
 2992SOL    HW120612   3.162   3.867   7.131  1.7525  0.0105  1.7891
 2992SOL    HW220613   3.098   3.965   7.228  0.2776 -1.7975  0.2595
 2993SOL     OW20614   1.509   3.561  10.562  0.3944 -0.3280 -0.3555
 2993SOL    HW120615   1.574   3.508  10.516  1.3211  0.9469 -0.5232
 2993SOL    HW220616   1.428   3.515  10.542  0.6137 -1.0228  0.3380
 2994SOL     OW20617   2.599   3.905   5.197 -0.1419 -0.3680  0.2593
 2994SOL    HW120618   2.667   3.971   5.181  0.7006 -1.2962  0.0138
 2994SOL    HW220619   2.645   3.832   5.156  2.0077  1.0958  0.0448
 2995SOL     OW20620   0.065   3.595   9.428  0.1879  0.5021 -0.2460
 2995SOL    HW120621   0.096   3.566   9.514  1.2286 -0.2009 -0.8636
 2995SOL    HW220622   0.004   3.662   9.460 -0.6362  0.4280 -1.6457
 2996SOL     OW20623   3.009   1.248   0.612 -0.7920  0.3061  0.0907
 2996SOL    HW120624   3.064   1.288   0.545 -1.7182 -2.5647 -2.3817
 2996SOL    HW220625   3.026   1.298   0.691 -0.7370  2.1264 -1.0764
 2997SOL     OW20626   2.580   1.697   5.920 -0.1111  0.1745  0.0720
 2997SOL    HW120627   2.578   1.771   5.981 -1.4051  0.9571 -0.9187
 2997SOL    HW220628   2.575   1.625   5.984  0.3716 -0.8310 -1.0288
 2998SOL     OW20629   2.475   2.756   0.409  0.0155 -0.1149 -0.5204
 2998SOL    HW120630   2.402   2.801   0.365  0.3806 -0.6074 -1.6274
 2998SOL    HW220631   2.442   2.768   0.498  0.4006  0.5351 -0.4642
 2999SOL     OW20632   0.174   4.113   7.375 -0.7829 -0.1643  0.0562
 2999SOL    HW120633   0.193   4.176   7.306  1.6430 -0.6149  0.3084
 2999SOL    HW220634   0.080   4.096   7.363 -0.9198  0.1437  0.7013
 3000SOL     OW20635   2.476   2.091   0.613 -0.0383  0.1930 -0.5368
 3000SOL    HW120636   2.462   2.177   0.654 -0.3452  0.2962 -0.8654
 3000SOL    HW220637   2.466   2.041   0.694  0.2905  1.0995  0.0763
 3001SOL     OW20638   2.120   3.629   2.207 -0.6806  0.5284  0.2505
 3001SOL    HW120639   2.213   3.652   2.217 -0.9104  1.4743  0.2891
 3001SOL    HW220640   2.134   3.548   2.157  1.3153 -1.3902  3.9286
 3002SOL     OW20641   0.041   2.981   9.089 -0.1010 -0.6262 -0.3404
 3002SOL    HW120642   0.050   3.052   9.025  3.1405  0.3856  1.2216
 3002SOL    HW220643   0.050   3.034   9.168 -0.1323  0.6368 -1.1657
 3003SOL     OW20644   0.118   0.642   7.666  0.0912 -0.0757  0.4350
 3003SOL    HW120645   0.214   0.649   7.661  0.1007  0.0859  0.8555
 3003SOL    HW220646   0.111   0.737   7.651 -0.4902  0.1484  2.1788
 3004SOL     OW20647   4.592   2.106   9.932  0.4893  0.1298  0.0180
 3004SOL    HW120648   4.674   2.148   9.906  0.2792 -0.2755 -1.2757
 3004SOL    HW220649   4.542   2.114   9.851  1.2241 -1.3816 -0.5893
 3005SOL     OW20650   2.249   2.711  15.121 -0.3847  0.4255 -0.3532
 3005SOL    HW120651   2.171   2.741  15.075 -1.0754 -2.7814 -1.2636
 3005SOL    HW220652   2.232   2.749  15.208 -0.8159  1.9695 -1.1135
 3006SOL     OW20653   1.782   3.115   4.789 -0.4486  0.2763 -0.3194
 3006SOL    HW120654   1.747   3.113   4.878  4.4832  3.5431  1.7057
 3006SOL    HW220655   1.864   3.067   4.797 -0.4980  0.0683 -1.0458
 3007SOL     OW20656   2.647   1.017  14.149 -0.1776  0.0804  0.0403
 3007SOL    HW120657   2.704   1.044  14.077  0.9411 -1.9266  0.1726
 3007SOL    HW220658   2.562   1.000  14.108  0.9024 -1.1274 -1.7225
 3008SOL     OW20659   3.043   2.740   6.579 -0.1168 -0.3053 -0.0071
 3008SOL    HW120660   3.128   2.780   6.561  0.5084 -1.4023  0.4870
 3008SOL    HW220661   3.012   2.737   6.488  0.1692  0.5388 -0.1263
 3009SOL     OW20662   3.135   3.429  14.772  0.0805 -0.4466 -0.2599
 3009SOL    HW120663   3.163   3.513  14.807 -0.9282  0.0602 -0.6688
 3009SOL    HW220664   3.044   3.453  14.752 -0.3894 -0.2897  2.0215
 3010SOL     OW20665   2.964   1.137  13.596 -0.3384  0.0323  0.1168
 3010SOL    HW120666   2.952   1.044  13.577  1.9254 -0.0533 -0.9407
 3010SOL    HW220667   3.021   1.133  13.673 -1.6013 -1.9573  0.9583
 3011SOL     OW20668   3.728   1.645   5.548 -0.4404  0.1474  0.2604
 3011SOL    HW120669   3.667   1.717   5.565  0.1737  0.6019  0.5342
 3011SOL    HW220670   3.690   1.570   5.595 -2.4526  1.7772  1.2339
 3012SOL     OW20671   4.079   2.088  14.028  0.2346  0.4863  0.5743
 3012SOL    HW120672   4.145   2.157  14.024  0.6133  0.0295 -1.2338
 3012SOL    HW220673   4.049   2.089  14.119  1.9757 -1.2701  1.1643
 3013SOL     OW20674   0.336   0.466   4.571 -0.1575 -0.4697 -0.0216
 3013SOL    HW120675   0.396   0.464   4.646  1.3726 -0.4420 -1.2400
 3013SOL    HW220676   0.292   0.382   4.587  1.3535 -1.0673  1.0220
 3014SOL     OW20677   3.121   3.474   9.438 -0.1422  0.0143 -0.2634
 3014SOL    HW120678   3.097   3.451   9.527 -0.5724  1.4488 -0.0165
 3014SOL    HW220679   3.080   3.560   9.434  1.5040  0.8742  1.1562
 3015SOL     OW20680   0.369   1.507   1.638 -0.6325  0.1296 -0.4179
 3015SOL    HW120681   0.297   1.570   1.643 -0.2798  0.6217 -1.4973
 3015SOL    HW220682   0.436   1.556   1.590  0.9603 -1.3824  0.2592
 3016SOL     OW20683   4.618   3.052   6.177 -0.1316 -0.1523  0.0872
 3016SOL    HW120684   4.662   3.083   6.098 -1.1993  2.5065  0.5211
 3016SOL    HW220685   4.692   3.003   6.215  0.2222 -0.1789 -0.6390
 3017SOL     OW20686   2.991   0.885   9.513  0.4132 -1.1515 -0.2811
 3017SOL    HW120687   2.927   0.814   9.520  0.3630 -1.2049 -1.3462
 3017SOL    HW220688   3.006   0.894   9.419  2.2368 -2.1635 -0.0977
 3018SOL     OW20689   4.534   3.190   3.621  0.5335  0.2917 -0.4009
 3018SOL    HW120690   4.449   3.233   3.623 -0.5661 -1.8747 -0.0459
 3018SOL    HW220691   4.560   3.211   3.711 -1.4865 -2.4128  0.8284
 3019SOL     OW20692   0.343   1.721  15.020  0.2833 -0.3190  0.1338
 3019SOL    HW120693   0.312   1.707  15.110 -1.8257  0.2624 -0.4966
 3019SOL    HW220694   0.407   1.791  15.017  1.1881 -1.2769 -2.6267
 3020SOL     OW20695   3.358   1.910   8.639  0.1049 -0.0222 -0.3477
 3020SOL    HW120696   3.348   1.890   8.732 -2.5480  0.8477 -0.4473
 3020SOL    HW220697   3.271   1.890   8.606  0.1451 -2.1386  0.8316
 3021SOL     OW20698   2.237   0.715   7.508 -0.6810 -0.2020 -0.8458
 3021SOL    HW120699   2.214   0.683   7.596 -1.2393  2.1376 -0.1487
 3021SOL    HW220700   2.332   0.714   7.511 -0.7893 -1.6797  1.8517
 3022SOL     OW20701   0.151   4.051   8.689  0.4323 -0.0496  0.3385
 3022SOL    HW120702   0.208   4.063   8.613 -3.3970 -0.3881 -2.5995
 3022SOL    HW220703   0.196   3.989   8.747 -0.5845  0.1058  1.2880
 3023SOL     OW20704   1.277   2.226  11.079  0.1247  0.0783  0.2738
 3023SOL    HW120705   1.320   2.141  11.091  0.4727  0.1237 -0.7382
 3023SOL    HW220706   1.265   2.248  11.172  1.3281  0.2664  0.3756
 3024SOL     OW20707   1.274   4.697   5.655  0.2900 -0.0888  0.1765
 3024SOL    HW120708   1.201   4.702   5.593  1.0802 -2.1944 -0.9121
 3024SOL    HW220709   1.332   0.024   5.616  0.2658 -0.1807 -0.0099
 3025SOL     OW20710   0.413   0.122   1.386  0.0946  0.0584  0.2114
 3025SOL    HW120711   0.406   0.152   1.477  0.6897  1.4678 -0.2124
 3025SOL    HW220712   0.357   0.045   1.380 -1.5765  0.8934  5.2666
 3026SOL     OW20713   0.145   1.031   7.939 -0.2367 -0.1781  0.1746
 3026SOL    HW120714   0.200   1.079   7.878  2.0513 -0.9540  1.5782
 3026SOL    HW220715   0.069   1.002   7.890 -1.1488 -0.4996  1.7932
 3027SOL     OW20716   2.799   3.757   1.534 -0.0810 -0.1942 -0.1195
 3027SOL    HW120717   2.876   3.742   1.479 -0.0955  0.7576 -0.4019
 3027SOL    HW220718   2.757   3.835   1.497  0.9848  0.4536  0.0456
 3028SOL     OW20719   2.548   0.330   7.456 -0.4811  0.2585 -0.1804
 3028SOL    HW120720   2.462   0.359   7.425 -1.5628 -1.1164  1.5663
 3028SOL    HW220721   2.571   0.404   7.512 -0.9542 -0.1187  0.5147
 3029SOL     OW20722   3.178   3.582   4.462 -0.7281 -0.3236  0.0844
 3029SOL    HW120723   3.117   3.519   4.502 -1.9579 -0.2025 -1.5628
 3029SOL    HW220724   3.112   3.651   4.470 -0.7736 -0.0258 -2.9677
 3030SOL     OW20725   0.965   0.280   4.643  0.1295 -0.3845 -0.2347
 3030SOL    HW120726   0.967   0.191   4.610  1.2120 -0.4358 -0.0376
 3030SOL    HW220727   0.933   0.328   4.567  1.2825 -0.3480 -0.6978
 3031SOL     OW20728   3.230   1.936  12.691 -0.3652  0.4404  0.3912
 3031SOL    HW120729   3.266   2.019  12.660  1.8119 -0.0205  1.7434
 3031SOL    HW220730   3.306   1.882  12.668 -0.6983  0.0656  0.1590
 3032SOL     OW20731   1.997   2.343   0.608  0.1432 -0.0016  0.0135
 3032SOL    HW120732   1.922   2.306   0.656 -0.3631 -0.5353 -1.1963
 3032SOL    HW220733   1.955   2.409   0.553 -1.5517  0.4469  1.8185
 3033SOL     OW20734   1.893   2.511   3.391 -0.3536 -0.6843 -0.2013
 3033SOL    HW120735   1.919   2.584   3.446 -1.8701  0.5303 -1.0972
 3033SOL    HW220736   1.870   2.564   3.314 -0.6264 -1.4268 -0.6371
 3034SOL     OW20737   1.536   2.533   3.441 -0.0465  0.1489 -0.1887
 3034SOL    HW120738   1.544   2.563   3.531 -1.1551  1.7695 -0.6337
 3034SOL    HW220739   1.619   2.486   3.433  0.2386  0.6677 -0.2756
 3035SOL     OW20740   2.238   0.052   3.812  0.5991 -0.5949 -0.2653
 3035SOL    HW120741   2.279   4.711   3.850  2.2598  0.2717 -0.2501
 3035SOL    HW220742   2.303   0.055   3.742 -1.3179 -0.2114 -2.0270
 3036SOL     OW20743   2.833   1.055  15.226  0.1822  0.4954 -0.2138
 3036SOL    HW120744   2.765   1.060  15.158 -0.9740  0.2890  0.9423
 3036SOL    HW220745   2.821   0.968  15.265 -0.8443 -0.6024 -2.9795
 3037SOL     OW20746   2.365   1.354   4.264 -0.2431 -0.0733 -0.4800
 3037SOL    HW120747   2.314   1.315   4.335 -0.4264  2.7615  0.9692
 3037SOL    HW220748   2.352   1.444   4.293 -0.5914 -0.1744 -0.3203
 3038SOL     OW20749   1.527   3.842   6.124  0.0821  0.2406  0.1243
 3038SOL    HW120750   1.499   3.848   6.216  0.9761  2.8394  0.2378
 3038SOL    HW220751   1.482   3.761   6.104  0.5724 -0.5945  2.4002
 3039SOL     OW20752   3.160   1.106   2.615  0.2548  0.4170  0.2103
 3039SOL    HW120753   3.224   1.176   2.601 -1.2144  1.4165 -1.6119
 3039SOL    HW220754   3.185   1.025   2.571  1.3791  0.4032  0.8944
 3040SOL     OW20755   2.175   0.078   8.604 -0.4038  0.1360  0.0544
 3040SOL    HW120756   2.244   0.055   8.666 -1.0365  1.1588  1.1450
 3040SOL    HW220757   2.124   4.734   8.608 -2.0353  1.1637  0.1288
 3041SOL     OW20758   0.007   3.983   9.397  0.0164 -0.4558  0.5676
 3041SOL    HW120759   4.713   4.055   9.452 -1.4805 -1.1852  0.6609
 3041SOL    HW220760   4.693   3.995   9.317  1.7618  1.8372 -0.2182
 3042SOL     OW20761   2.424   2.002   1.096 -0.3213 -0.0695 -0.1163
 3042SOL    HW120762   2.463   1.952   1.023 -0.8303  1.3776 -1.3834
 3042SOL    HW220763   2.352   2.039   1.045 -1.3565 -4.5545 -1.9534
 3043SOL     OW20764   4.722   0.938   8.427  0.2279 -0.1670  0.1886
 3043SOL    HW120765   0.054   0.920   8.490  1.7668  0.4035 -1.3688
 3043SOL    HW220766   0.020   0.948   8.339  0.2359  1.4595  0.3866
 3044SOL     OW20767   1.258   2.769   4.303  0.3135 -0.4494 -0.3615
 3044SOL    HW120768   1.299   2.702   4.248 -0.1751 -0.6359 -0.5027
 3044SOL    HW220769   1.187   2.717   4.341 -1.1513  2.3778  0.7884
 3045SOL     OW20770   0.006   4.212   9.592  0.3196 -0.1436 -0.2267
 3045SOL    HW120771   0.057   4.156   9.649 -1.2396  1.4256  2.6870
 3045SOL    HW220772   0.057   4.293   9.600  1.4394 -0.9538  0.8007
 3046SOL     OW20773   2.263   0.535   6.495  0.8000 -0.0718 -0.0417
 3046SOL    HW120774   2.199   0.465   6.489  0.5206  0.0945  1.1159
 3046SOL    HW220775   2.347   0.492   6.477  0.3961 -0.9094  0.0899
 3047SOL     OW20776   4.499   4.024   1.186  0.0149 -0.0816  0.2428
 3047SOL    HW120777   4.424   4.035   1.127  1.1882  1.4060 -0.9640
 3047SOL    HW220778   4.554   3.957   1.146  0.0990  1.2406 -1.9167
 3048SOL     OW20779   2.316   3.034   3.939 -0.1515 -0.0308 -0.0809
 3048SOL    HW120780   2.254   2.970   3.903  0.2907 -0.5711  0.1209
 3048SOL    HW220781   2.254   3.095   3.981  0.1736 -0.7565  1.4595
 3049SOL     OW20782   2.960   1.214   4.162 -0.4742 -0.0398 -0.5279
 3049SOL    HW120783   2.975   1.193   4.069  0.2503 -1.0290 -0.1907
 3049SOL    HW220784   2.873   1.254   4.156 -0.3142  0.6019  1.5599
 3050SOL     OW20785   4.574   3.011   4.346 -0.0309 -0.5284  0.4561
 3050SOL    HW120786   4.650   2.952   4.343  1.7293  1.6609  1.8474
 3050SOL    HW220787   4.613   3.099   4.339  1.8510 -1.3992 -0.0718
 3051SOL     OW20788   2.908   2.201   7.709 -0.0358 -0.5202 -0.2478
 3051SOL    HW120789   2.936   2.261   7.641  4.0931 -1.0798  0.9677
 3051SOL    HW220790   2.893   2.260   7.783 -1.4220 -0.6099 -0.4655
 3052SOL     OW20791   0.942   1.056   8.477  0.2822  0.0410  0.8731
 3052SOL    HW120792   0.964   1.023   8.563 -0.3713 -2.4115  0.0920
 3052SOL    HW220793   1.027   1.087   8.446 -2.1856  3.1305 -2.9406
 3053SOL     OW20794   2.829   4.351   4.199  0.3245 -0.3566  0.2159
 3053SOL    HW120795   2.887   4.332   4.126 -0.0366 -2.2823  0.4488
 3053SOL    HW220796   2.779   4.424   4.162  3.0745  0.7832 -1.2694
 3054SOL     OW20797   2.477   1.139  14.538 -0.2112 -0.0841 -0.3011
 3054SOL    HW120798   2.523   1.116  14.618  0.1713  0.5975 -0.3209
 3054SOL    HW220799   2.488   1.060  14.485  0.2790  0.4758 -1.0310
 3055SOL     OW20800   3.709   2.289   1.653  0.6906 -0.0072  0.5716
 3055SOL    HW120801   3.751   2.368   1.619  1.7139 -0.5447  0.5793
 3055SOL    HW220802   3.759   2.272   1.732  0.7301  0.3856  0.6284
 3056SOL     OW20803   1.690   3.704   9.427  0.6031  0.0450 -0.2704
 3056SOL    HW120804   1.766   3.672   9.477  0.5640  1.5723  0.7774
 3056SOL    HW220805   1.664   3.623   9.384  1.1025 -0.3389  0.1418
 3057SOL     OW20806   1.456   0.551   7.149  0.0132  0.5984  0.9026
 3057SOL    HW120807   1.369   0.566   7.114  0.1362  1.3657  0.9309
 3057SOL    HW220808   1.502   0.616   7.096  1.7616 -0.8125  0.6452
 3058SOL     OW20809   3.381   2.569  15.489 -0.0685 -0.1173 -0.3598
 3058SOL    HW120810   3.468   2.606  15.506 -1.0323  1.5873  0.8872
 3058SOL    HW220811   3.386   2.543  15.397 -3.0025  0.4798 -0.6695
 3059SOL     OW20812   2.400   0.600  14.126  0.3622  0.0851  0.3510
 3059SOL    HW120813   2.463   0.651  14.176  2.2929 -2.5032  0.6069
 3059SOL    HW220814   2.411   0.517  14.173 -1.2809 -0.9686 -1.1234
 3060SOL     OW20815   3.560   0.516   7.067  0.3501  0.0298 -0.1408
 3060SOL    HW120816   3.507   0.520   7.147  0.3512 -0.3751 -0.1212
 3060SOL    HW220817   3.516   0.444   7.022  1.0944  0.0300 -0.8726
 3061SOL     OW20818   0.073   4.510   0.585  0.0653  0.3119 -0.1572
 3061SOL    HW120819   0.022   4.445   0.633  0.2866  0.4367  0.2400
 3061SOL    HW220820   0.102   4.458   0.510  2.1506  1.1284  0.0813
 3062SOL     OW20821   2.987   2.758   4.590  0.4681  0.2686 -0.5141
 3062SOL    HW120822   2.955   2.848   4.598 -2.7136 -0.7665 -1.3799
 3062SOL    HW220823   3.080   2.781   4.592  1.0633 -2.2581  0.7010
 3063SOL     OW20824   0.944   2.609  11.107 -0.2388  0.5424 -0.4136
 3063SOL    HW120825   0.858   2.647  11.088  0.9292  2.6592 -1.5607
 3063SOL    HW220826   0.967   2.576  11.020 -0.6095  3.8147 -1.7613
 3064SOL     OW20827   2.908   4.248   5.381 -0.2425  0.5304  0.0485
 3064SOL    HW120828   2.963   4.252   5.459  2.0029  0.0207 -1.4912
 3064SOL    HW220829   2.922   4.335   5.343  0.1736  0.3686 -0.1707
 3065SOL     OW20830   0.639   2.635   1.641  0.1300 -0.4874  0.2141
 3065SOL    HW120831   0.623   2.695   1.713  0.2656 -0.9984  0.6723
 3065SOL    HW220832   0.569   2.654   1.578  2.0307  4.5802 -0.3636
 3066SOL     OW20833   3.600   1.709  12.818 -0.4467 -0.5792 -0.4947
 3066SOL    HW120834   3.531   1.755  12.866  0.6732 -0.4154  0.9735
 3066SOL    HW220835   3.676   1.712  12.876 -0.0440  3.6388 -1.1946
 3067SOL     OW20836   2.692   2.808   4.733 -0.2584  0.1795  0.2508
 3067SOL    HW120837   2.709   2.900   4.713  0.4952 -0.8360 -3.8194
 3067SOL    HW220838   2.656   2.776   4.651 -0.0937 -0.9999  0.6299
 3068SOL     OW20839   2.175   1.363   5.897  0.5935  0.1222  0.1942
 3068SOL    HW120840   2.230   1.362   5.820 -0.5915  2.2977 -0.6972
 3068SOL    HW220841   2.099   1.417   5.874  0.4873 -0.6083 -1.1354
 3069SOL     OW20842   1.778   2.775  12.803 -0.0284  0.1294  0.1558
 3069SOL    HW120843   1.745   2.855  12.761  2.0447 -0.0237 -1.7841
 3069SOL    HW220844   1.869   2.803  12.806 -0.1044  0.4906 -0.7592
 3070SOL     OW20845   4.112   3.664   3.739  0.2277  0.4746  0.3644
 3070SOL    HW120846   4.172   3.658   3.664  2.6709 -0.5589  2.3768
 3070SOL    HW220847   4.051   3.737   3.724  2.3031  2.4439  1.4115
 3071SOL     OW20848   4.564   2.718   6.268  0.1618  0.3144  0.0465
 3071SOL    HW120849   4.620   2.796   6.264 -1.4861  1.4874 -0.0928
 3071SOL    HW220850   4.555   2.689   6.177 -1.6252  2.3596 -0.4254
 3072SOL     OW20851   3.422   1.257   8.578  0.9641  0.3042 -0.2211
 3072SOL    HW120852   3.488   1.236   8.512 -0.0866 -0.8900 -0.9165
 3072SOL    HW220853   3.342   1.211   8.550 -0.6409  2.9508  0.0674
 3073SOL     OW20854   0.227   2.925   6.906  0.5097  0.1790 -0.1608
 3073SOL    HW120855   0.210   2.999   6.965  1.3872  0.1046  0.1892
 3073SOL    HW220856   0.135   2.906   6.886  0.3659  0.6617  0.0366
 3074SOL     OW20857   0.903   2.903   3.738  0.0603 -0.3232 -0.2918
 3074SOL    HW120858   0.950   2.822   3.717  1.9816  0.6491  0.2967
 3074SOL    HW220859   0.956   2.968   3.693  0.4035  0.3357  1.1002
 3075SOL     OW20860   0.357   0.169   8.722  0.3288 -0.0032  0.3311
 3075SOL    HW120861   0.292   0.099   8.719  0.2980  0.0191  0.4875
 3075SOL    HW220862   0.332   0.209   8.638 -0.9430  1.6326  1.4680
 3076SOL     OW20863   0.698   2.718   7.798 -0.3054 -0.0274  0.2897
 3076SOL    HW120864   0.692   2.647   7.734  2.1257  0.6795 -0.7420
 3076SOL    HW220865   0.700   2.794   7.740  1.7257 -0.8814 -0.7651
 3077SOL     OW20866   2.501   2.359   1.698 -0.1730 -0.2049 -0.0071
 3077SOL    HW120867   2.579   2.340   1.644  1.3050 -0.0066  2.0556
 3077SOL    HW220868   2.488   2.281   1.752 -1.1158 -0.5839 -0.7936
 3078SOL     OW20869   2.693   3.046   5.849  0.1667  0.3590  0.2631
 3078SOL    HW120870   2.723   3.019   5.936  0.3776 -0.4570 -0.0584
 3078SOL    HW220871   2.758   3.110   5.820  0.8110 -0.9336 -1.1213
 3079SOL     OW20872   3.271   3.470   3.599  0.0431  0.1377 -0.7034
 3079SOL    HW120873   3.304   3.551   3.638  1.8440 -0.3085 -1.2512
 3079SOL    HW220874   3.355   3.423   3.597  1.7328  3.0972  1.0185
 3080SOL     OW20875   1.193   2.831  14.553  1.0500 -0.2636 -0.1161
 3080SOL    HW120876   1.262   2.792  14.607  1.7168 -1.7801 -2.0428
 3080SOL    HW220877   1.154   2.883  14.623 -0.7859  0.6000 -1.7991
 3081SOL     OW20878   0.248   0.640  14.716  0.6431  0.1620  0.2596
 3081SOL    HW120879   0.269   0.562  14.768 -1.2706  0.9703  2.2213
 3081SOL    HW220880   0.284   0.613  14.631  2.1358  1.3533  0.5153
 3082SOL     OW20881   4.220   0.417  16.819  0.0148 -0.0813 -0.6350
 3082SOL    HW120882   4.285   0.356  16.783  0.5717 -0.2100  0.6047
 3082SOL    HW220883   4.146   0.362  16.847  0.3306 -0.0796  0.1900
 3083SOL     OW20884   1.102   2.423   7.257 -0.8042 -0.0962 -0.8100
 3083SOL    HW120885   1.112   2.403   7.164  1.9194  0.0075 -0.5640
 3083SOL    HW220886   1.163   2.363   7.302 -4.4214 -1.5871  2.1229
 3084SOL     OW20887   3.879   2.188   6.490 -0.0086 -0.2634  0.1453
 3084SOL    HW120888   3.840   2.188   6.402  0.3323  0.1511 -0.0060
 3084SOL    HW220889   3.833   2.116   6.534 -0.5724  1.0966  1.7611
 3085SOL     OW20890   2.646   4.460   4.918 -0.4074  0.0838  0.2105
 3085SOL    HW120891   2.698   4.528   4.875  0.3252 -0.6713 -0.0969
 3085SOL    HW220892   2.614   4.500   4.999 -2.3434 -2.4890  0.7270
 3086SOL     OW20893   1.600   1.067   8.279 -0.2292 -0.4154 -0.4008
 3086SOL    HW120894   1.645   0.986   8.304  0.1798  0.4931  1.7648
 3086SOL    HW220895   1.681   1.116   8.265 -0.3555 -0.3437 -0.8775
 3087SOL     OW20896   3.945   2.681   8.791  0.2368 -0.5149  0.4059
 3087SOL    HW120897   3.870   2.705   8.846  0.9609  1.8682  0.3108
 3087SOL    HW220898   3.953   2.752   8.728  0.2853  0.3194  1.3604
 3088SOL     OW20899   0.685   0.977   5.696 -0.1230  0.1318  0.0342
 3088SOL    HW120900   0.746   1.043   5.729 -1.3287  0.5173  1.5233
 3088SOL    HW220901   0.623   1.037   5.655 -0.9039  0.8892  2.3266
 3089SOL     OW20902   1.576   1.966   7.266  0.0064  0.3727  0.3007
 3089SOL    HW120903   1.603   2.009   7.347  1.1462 -0.1847  0.2234
 3089SOL    HW220904   1.591   1.872   7.278  2.0196  0.2925 -2.5344
 3090SOL     OW20905   2.776   1.920   2.873 -0.2934 -0.1108  0.4764
 3090SOL    HW120906   2.706   1.901   2.935 -0.5960  1.9467  0.7656
 3090SOL    HW220907   2.761   2.012   2.850  2.1118 -0.1430 -1.2176
 3091SOL     OW20908   4.121   4.095   2.543  0.6071 -0.4951  0.6182
 3091SOL    HW120909   4.214   4.111   2.531 -0.1518  3.4878 -0.1292
 3091SOL    HW220910   4.114   4.024   2.606  1.4805 -0.9862  0.1536
 3092SOL     OW20911   2.719   4.179  16.482 -0.1924  0.5493 -0.0255
 3092SOL    HW120912   2.763   4.253  16.524 -1.4908  0.3326  1.7015
 3092SOL    HW220913   2.644   4.233  16.456  0.3451  1.0710 -0.4614
 3093SOL     OW20914   2.503   3.299  10.277 -0.1892 -1.0293 -0.0654
 3093SOL    HW120915   2.547   3.317  10.194 -3.2115  1.3574 -1.1433
 3093SOL    HW220916   2.455   3.218  10.263 -0.4806 -1.9083  6.1580
 3094SOL     OW20917   0.170   1.274   3.967  0.0085  0.6013  0.2431
 3094SOL    HW120918   0.263   1.290   3.982 -0.1779  0.5080  1.4876
 3094SOL    HW220919   0.174   1.197   3.910  0.9913  0.0769  1.0293
 3095SOL     OW20920   2.712   2.018   7.916  0.8265  0.2432 -0.2056
 3095SOL    HW120921   2.665   2.092   7.877  1.2030  2.2474  3.1312
 3095SOL    HW220922   2.800   2.030   7.882  0.5668 -0.7339 -1.2561
 3096SOL     OW20923   1.014   1.192   2.817  0.4820 -0.2773  0.2857
 3096SOL    HW120924   1.057   1.181   2.902  0.9891 -0.4660  0.0031
 3096SOL    HW220925   1.088   1.228   2.768  2.1952 -1.9035  1.6941
 3097SOL     OW20926   3.245   3.171   5.922 -0.3883 -0.4407 -0.1805
 3097SOL    HW120927   3.220   3.244   5.867  3.0500 -1.2240 -2.7569
 3097SOL    HW220928   3.331   3.147   5.888  0.3419  0.9175  0.7086
 3098SOL     OW20929   1.126   2.195   5.824 -0.7620 -0.4081 -0.8925
 3098SOL    HW120930   1.178   2.114   5.828  1.0945  0.7648 -0.9223
 3098SOL    HW220931   1.113   2.215   5.917  2.9846  1.0752 -0.6904
 3099SOL     OW20932   0.160   1.944   5.017 -0.2310 -0.6286 -0.5915
 3099SOL    HW120933   0.120   1.880   4.959 -3.6759  0.4766  0.5648
 3099SOL    HW220934   0.081   1.983   5.055  0.9375  1.5690 -0.3989
 3100SOL     OW20935   1.984   1.486  15.975 -0.3323 -0.0861 -0.0046
 3100SOL    HW120936   1.984   1.516  16.065 -0.1829 -2.4829  0.7788
 3100SOL    HW220937   1.889   1.476  15.964 -0.2423 -1.5187  0.5087
 3101SOL     OW20938   1.845   2.642   5.904 -0.7255  0.2514  0.8599
 3101SOL    HW120939   1.884   2.714   5.954 -1.8458  1.7572 -0.4359
 3101SOL    HW220940   1.861   2.572   5.967 -1.2955 -0.7886 -0.1722
 3102SOL     OW20941   2.952   2.335   4.530 -0.0658  0.2284  0.0886
 3102SOL    HW120942   2.894   2.261   4.512 -0.1997 -0.1453  2.0705
 3102SOL    HW220943   2.886   2.400   4.554 -1.2769 -1.3131  0.9241
 3103SOL     OW20944   0.783   0.145   3.238 -0.7813  0.2541 -0.6016
 3103SOL    HW120945   0.852   0.170   3.300 -2.4981 -0.7784  1.7231
 3103SOL    HW220946   0.721   0.218   3.240  0.9634  1.7525 -1.1111
 3104SOL     OW20947   1.001   3.269  12.510 -0.0402 -0.3219 -0.0130
 3104SOL    HW120948   0.954   3.207  12.455  1.3340 -0.4699 -1.0249
 3104SOL    HW220949   0.986   3.238  12.599 -1.5319  0.7511  0.1069
 3105SOL     OW20950   2.849   0.179   1.665 -0.1646 -0.0539  0.7530
 3105SOL    HW120951   2.769   0.190   1.717  0.2120 -0.0273  1.3258
 3105SOL    HW220952   2.911   0.235   1.711  1.3665 -1.4905  0.4394
 3106SOL     OW20953   0.885   1.040   3.099 -0.3820  0.2922 -0.5647
 3106SOL    HW120954   0.917   0.977   3.035 -3.0678 -0.1544 -1.4715
 3106SOL    HW220955   0.796   1.048   3.067 -1.3762 -0.8739  1.8980
 3107SOL     OW20956   4.025   1.639   7.063  0.5304 -0.0250 -0.1992
 3107SOL    HW120957   4.022   1.647   6.967  1.1212  0.6363 -0.1645
 3107SOL    HW220958   4.013   1.731   7.083  2.4557  0.5573 -1.7374
 3108SOL     OW20959   2.330   0.810   8.274  0.6544  0.0317 -0.2818
 3108SOL    HW120960   2.271   0.827   8.347 -0.1569 -1.3769 -0.6027
 3108SOL    HW220961   2.391   0.745   8.309 -1.0603 -0.6318  1.4663
 3109SOL     OW20962   0.525   1.615  16.509  0.4220  0.5965  0.4028
 3109SOL    HW120963   0.576   1.554  16.455  3.6543  2.5538  1.2110
 3109SOL    HW220964   0.601   1.655  16.552  0.1814  1.3906  0.0682
 3110SOL     OW20965   1.673   0.962   7.423  0.2905  0.2693 -0.7167
 3110SOL    HW120966   1.636   1.031   7.369  1.9375  1.7798  0.0587
 3110SOL    HW220967   1.739   1.006   7.476  0.7247  0.9301 -1.8095
 3111SOL     OW20968   2.828   1.340   5.009 -0.0664  0.2175 -0.6917
 3111SOL    HW120969   2.820   1.425   4.966 -1.2734 -0.5202 -1.9477
 3111SOL    HW220970   2.916   1.356   5.043 -1.7070  1.1317  3.1397
 3112SOL     OW20971   4.077   4.703  15.116 -0.2719  0.0364 -0.4098
 3112SOL    HW120972   4.121   4.671  15.195 -0.5725 -1.3354 -0.7958
 3112SOL    HW220973   4.051   4.628  15.064 -2.3781  0.1127  0.5122
 3113SOL     OW20974   1.015   4.430   6.676  0.1963 -0.4811  0.5323
 3113SOL    HW120975   0.943   4.404   6.734  0.1676 -0.6714  0.4103
 3113SOL    HW220976   0.990   4.514   6.638  2.5140  0.3725  0.9388
 3114SOL     OW20977   2.691   0.554   8.095 -0.2828  1.6972 -0.0003
 3114SOL    HW120978   2.697   0.523   8.004  0.7471  1.1400  0.2538
 3114SOL    HW220979   2.783   0.569   8.117 -0.5056  1.1898  1.3054
 3115SOL     OW20980   0.138   0.443   5.569  0.2351 -0.3911 -0.0045
 3115SOL    HW120981   0.043   0.434   5.565  0.3205 -1.4029  0.3640
 3115SOL    HW220982   0.151   0.420   5.661 -2.4543 -1.7522  0.0118
 3116SOL     OW20983   2.094   3.869  10.812 -0.1166 -0.6891  0.1523
 3116SOL    HW120984   2.156   3.854  10.742  2.2667 -0.9445  2.3154
 3116SOL    HW220985   2.062   3.958  10.795  0.7594  0.0668  2.4013
 3117SOL     OW20986   1.860   2.573   8.835  0.1611 -0.0431  0.0729
 3117SOL    HW120987   1.852   2.668   8.827  3.9986  0.2908  0.6309
 3117SOL    HW220988   1.864   2.558   8.929  0.0621 -0.3419  0.0310
 3118SOL     OW20989   2.225   4.473   5.851 -0.0676  0.1839  0.6931
 3118SOL    HW120990   2.313   4.476   5.812 -0.1570  0.4632  0.5171
 3118SOL    HW220991   2.203   4.380   5.848  0.6405  0.0561 -0.8654
 3119SOL     OW20992   0.064   3.175   8.054  0.4813  0.2418  0.0919
 3119SOL    HW120993   0.037   3.083   8.058  0.5493  0.2112 -0.1166
 3119SOL    HW220994   0.025   3.220   8.128 -0.1604 -2.3632  1.3513
 3120SOL     OW20995   4.722   1.150  12.081 -0.5327  0.2963  0.1891
 3120SOL    HW120996   0.034   1.212  12.135 -0.4971  1.4384 -1.1345
 3120SOL    HW220997   0.058   1.106  12.038 -0.0424 -0.2679  1.6070
 3121SOL     OW20998   2.416   3.218   4.674 -0.1418  0.2581  0.0369
 3121SOL    HW120999   2.404   3.140   4.620  1.0229  0.2111 -0.1640
 3121SOL    HW221000   2.330   3.260   4.676  0.4256  1.4976 -2.0308
 3122SOL     OW21001   3.420   2.091   7.924  0.2423  0.0970 -0.3267
 3122SOL    HW121002   3.475   2.047   7.859  1.8575  1.1663  0.3294
 3122SOL    HW221003   3.482   2.101   7.996 -0.7245  2.4135  0.1809
 3123SOL     OW21004   2.634   2.540  13.714 -0.3243 -0.2272 -0.3110
 3123SOL    HW121005   2.655   2.549  13.807 -1.0554 -0.5194 -0.1154
 3123SOL    HW221006   2.699   2.479  13.679  0.0870 -0.2212  0.4396
 3124SOL     OW21007   2.173   4.293   4.613 -0.2100 -0.7646  0.1649
 3124SOL    HW121008   2.121   4.371   4.595 -1.3630 -1.7938 -0.8956
 3124SOL    HW221009   2.244   4.322   4.670  1.2598 -1.8657 -1.1253
 3125SOL     OW21010   0.399   0.675   3.935  0.0645 -0.5365 -0.0686
 3125SOL    HW121011   0.356   0.653   3.852  1.1027  0.7383 -0.9567
 3125SOL    HW221012   0.350   0.747   3.975  0.8810 -0.0244  0.0178
 3126SOL     OW21013   2.975   1.736   1.994 -0.0373  0.0518  0.3340
 3126SOL    HW121014   2.887   1.730   2.032  0.1953  1.7693  1.1642
 3126SOL    HW221015   3.011   1.654   2.028  0.5688  0.3103  0.3085
 3127SOL     OW21016   0.391   0.549   8.477  0.4443 -0.3079  0.4924
 3127SOL    HW121017   0.377   0.548   8.572 -0.8455 -0.5661  0.2995
 3127SOL    HW221018   0.304   0.576   8.449  0.8230  1.6404  1.1964
 3128SOL     OW21019   0.401   3.152   7.696 -0.2158  0.2667  0.5669
 3128SOL    HW121020   0.362   3.206   7.765 -1.2539  0.6731 -0.3330
 3128SOL    HW221021   0.369   3.196   7.618  1.2095  0.6607  0.1966
 3129SOL     OW21022   1.729   1.459   8.038  0.2360  0.3328 -0.6081
 3129SOL    HW121023   1.814   1.434   8.076  1.1367  0.4773 -2.5176
 3129SOL    HW221024   1.683   1.376   8.036  2.6840 -0.9617 -2.5841
 3130SOL     OW21025   1.983   0.966  16.356  0.1581  0.5908  0.7220
 3130SOL    HW121026   1.907   1.025  16.361 -0.6479 -0.2036 -2.1412
 3130SOL    HW221027   2.046   1.038  16.353  1.8504 -0.8814  1.0429
 3131SOL     OW21028   2.510   0.713  10.707 -0.5230 -0.2776  0.0843
 3131SOL    HW121029   2.500   0.807  10.722  2.5247 -0.0451  0.6224
 3131SOL    HW221030   2.512   0.674  10.794 -0.9230  1.4756  0.8830
 3132SOL     OW21031   2.796   1.736   1.426  0.1848  0.0364  0.3276
 3132SOL    HW121032   2.718   1.778   1.461 -0.9453 -2.0676  0.3665
 3132SOL    HW221033   2.834   1.687   1.499  0.2225  0.9263  0.9042
 3133SOL     OW21034   1.744   0.640   2.124 -0.0411 -0.0417  0.3031
 3133SOL    HW121035   1.702   0.560   2.091 -0.9420  0.5869 -0.0679
 3133SOL    HW221036   1.823   0.628   2.070  1.7001  0.3165  2.7751
 3134SOL     OW21037   3.225   1.571   9.189 -0.0149  0.3029  0.2710
 3134SOL    HW121038   3.194   1.645   9.240 -4.2905 -2.7655  2.0582
 3134SOL    HW221039   3.212   1.597   9.098  2.1490 -1.8915 -0.6726
 3135SOL     OW21040   3.915   3.847   7.828  0.4494 -0.0996 -0.2915
 3135SOL    HW121041   3.981   3.874   7.765  0.8276  1.6995  0.8674
 3135SOL    HW221042   3.950   3.863   7.916  1.1778  0.9666 -0.7830
 3136SOL     OW21043   3.066   1.830   7.093 -0.4849 -0.0240  0.2327
 3136SOL    HW121044   3.056   1.740   7.124  1.3978 -0.1544  0.4605
 3136SOL    HW221045   3.047   1.794   7.006 -0.0748  2.8971 -1.0424
 3137SOL     OW21046   0.826   3.408   7.521 -0.2602 -0.2740  0.0196
 3137SOL    HW121047   0.915   3.398   7.554 -0.6717 -0.9950  0.9019
 3137SOL    HW221048   0.774   3.376   7.595 -0.3969  1.3444  0.6247
 3138SOL     OW21049   4.396   2.650   3.537  0.2557 -0.7365 -0.3447
 3138SOL    HW121050   4.399   2.745   3.542  1.0122 -0.7114 -1.4332
 3138SOL    HW221051   4.432   2.631   3.624  0.8250 -1.8960 -0.8355
 3139SOL     OW21052   3.732   1.061   1.983  0.2265 -0.3119  0.0731
 3139SOL    HW121053   3.779   1.083   2.063  3.3506  0.0528 -1.8376
 3139SOL    HW221054   3.739   0.965   1.988 -0.1401 -0.3285  0.2043
 3140SOL     OW21055   0.925   4.419   7.469  0.1580 -0.0981 -0.2681
 3140SOL    HW121056   0.950   4.375   7.550 -2.0637 -1.3882 -0.2683
 3140SOL    HW221057   0.891   4.339   7.429  4.1192 -0.8383 -2.1093
 3141SOL     OW21058   3.716   1.240   8.313 -0.3663 -0.2667 -0.4854
 3141SOL    HW121059   3.697   1.242   8.219  0.6153  0.4809 -0.6648
 3141SOL    HW221060   3.808   1.223   8.291 -0.1227  0.2097  0.1514
 3142SOL     OW21061   4.313   0.952  15.876 -0.1323  0.0214 -0.1697
 3142SOL    HW121062   4.248   0.983  15.814 -1.7814 -2.8055  0.1472
 3142SOL    HW221063   4.363   0.887  15.826  0.3318  0.0478  0.2571
 3143SOL     OW21064   0.609   1.750   5.133  0.0131 -0.0579 -0.1128
 3143SOL    HW121065   0.542   1.753   5.202 -0.2385  3.2860 -0.5115
 3143SOL    HW221066   0.691   1.763   5.182 -0.5513 -0.2897  0.8915
 3144SOL     OW21067   3.781   1.407   6.906 -0.1950  0.1713 -0.1754
 3144SOL    HW121068   3.784   1.312   6.907  0.6700  0.2040  2.0831
 3144SOL    HW221069   3.871   1.425   6.881 -1.2865  1.4970 -3.1491
 3145SOL     OW21070   3.386   1.359  15.114  0.2027  0.4684 -0.6714
 3145SOL    HW121071   3.313   1.334  15.056  1.1326  1.1573 -2.1348
 3145SOL    HW221072   3.347   1.387  15.196 -0.4159 -1.6444 -0.2425
 3146SOL     OW21073   3.286   2.107   5.801  0.1531  0.3687  0.8003
 3146SOL    HW121074   3.292   2.041   5.870  1.2531 -0.4976 -0.1392
 3146SOL    HW221075   3.222   2.170   5.834 -1.3574 -0.6537 -0.2052
 3147SOL     OW21076   2.073   4.736   2.775  0.1850  0.0306  0.9457
 3147SOL    HW121077   2.041   4.647   2.788 -4.4144  1.0684 -3.0913
 3147SOL    HW221078   2.097   4.730   2.682 -0.4270  1.8510  0.6656
 3148SOL     OW21079   1.812   0.508   8.652  0.1313 -0.5493 -0.2824
 3148SOL    HW121080   1.833   0.414   8.658  0.4571 -0.4682 -0.1602
 3148SOL    HW221081   1.819   0.533   8.744 -1.4696 -0.3416 -0.2292
 3149SOL     OW21082   1.043   1.480   8.777  0.3912  0.2682  0.2261
 3149SOL    HW121083   1.087   1.445   8.854 -0.4603  1.4952  1.2803
 3149SOL    HW221084   0.991   1.408   8.742  2.3710 -1.0550  0.0068
 3150SOL     OW21085   1.971   0.227  10.243  0.3097 -0.1186  0.1228
 3150SOL    HW121086   2.053   0.265  10.213  0.9499 -1.1670  0.5399
 3150SOL    HW221087   2.006   0.151  10.290  0.3513  0.6181  1.2790
 3151SOL     OW21088   1.352   1.087   7.682  0.8218  0.0230  0.3984
 3151SOL    HW121089   1.301   1.090   7.763  0.2115  0.7566 -0.0062
 3151SOL    HW221090   1.369   0.993   7.682  1.3798  0.1274 -0.9891
 3152SOL     OW21091   3.058   4.416   8.803 -0.0333  0.4823  0.1247
 3152SOL    HW121092   3.107   4.371   8.734 -0.6283  2.0761 -1.3551
 3152SOL    HW221093   3.116   4.492   8.809 -1.0034  1.2946 -0.8389
 3153SOL     OW21094   3.444   0.803   3.979  0.1456  0.3734 -0.2493
 3153SOL    HW121095   3.478   0.734   3.922 -0.7417  0.2517 -0.6199
 3153SOL    HW221096   3.506   0.814   4.052  0.9359  0.5520 -0.9461
 3154SOL     OW21097   3.072   2.243   2.844 -0.4952 -0.0569 -0.1228
 3154SOL    HW121098   2.987   2.286   2.854  0.2703  1.5192 -0.4566
 3154SOL    HW221099   3.131   2.305   2.887 -1.6790  0.2479  1.0457
 3155SOL     OW21100   2.394   2.921   5.645 -0.2887  0.2947  0.1410
 3155SOL    HW121101   2.339   2.940   5.569  1.6327  1.4764 -0.9540
 3155SOL    HW221102   2.397   3.006   5.688  1.6793 -0.5532  1.6998
 3156SOL     OW21103   3.792   4.369   6.229  0.3129 -0.2680 -0.1796
 3156SOL    HW121104   3.842   4.397   6.305 -0.4465  0.2863  0.1272
 3156SOL    HW221105   3.716   4.318   6.257  0.0883  1.0878  1.7373
 3157SOL     OW21106   2.740   1.912   2.461  0.0461  0.2882 -0.0807
 3157SOL    HW121107   2.773   1.992   2.501 -0.4567  0.2772  0.3642
 3157SOL    HW221108   2.653   1.939   2.431 -0.4273 -0.0723  0.9348
 3158SOL     OW21109   1.239   1.267   1.084 -0.4986 -0.1430  0.0425
 3158SOL    HW121110   1.329   1.236   1.095  0.1195  1.5031 -0.5186
 3158SOL    HW221111   1.236   1.323   1.162  3.3674 -0.8981  0.7038
 3159SOL     OW21112   0.596   2.405   3.091  0.4223 -0.1433 -0.2064
 3159SOL    HW121113   0.645   2.344   3.147  0.3603 -0.4583 -0.4942
 3159SOL    HW221114   0.508   2.385   3.121  1.4506 -1.3467  2.0681
 3160SOL     OW21115   0.331   2.357   2.670 -0.0908  0.4851  0.5867
 3160SOL    HW121116   0.397   2.308   2.719  0.1805  0.4089  0.1379
 3160SOL    HW221117   0.299   2.293   2.606 -0.2108  0.2667  0.8646
 3161SOL     OW21118   0.581   2.161   8.998  0.0977  0.5531 -0.0863
 3161SOL    HW121119   0.622   2.172   8.912  1.4960 -1.3707  0.3318
 3161SOL    HW221120   0.559   2.252   9.017 -1.2815  0.1962  0.0456
 3162SOL     OW21121   2.127   2.335   8.583  0.1638 -0.0961 -0.1141
 3162SOL    HW121122   2.192   2.358   8.516  0.2160  1.8450  0.6278
 3162SOL    HW221123   2.125   2.409   8.643  0.8838 -2.2874  2.5829
 3163SOL     OW21124   0.961   1.880   4.993  0.3460 -0.2512 -0.2336
 3163SOL    HW121125   1.014   1.826   5.052 -1.3071 -0.2036  1.3247
 3163SOL    HW221126   0.981   1.839   4.909 -0.3679 -1.5281  0.2086
 3164SOL     OW21127   0.696   3.479   1.867  0.4864 -0.1697 -0.0482
 3164SOL    HW121128   0.635   3.439   1.929 -1.4439 -0.8800 -2.4349
 3164SOL    HW221129   0.773   3.423   1.868 -0.2146 -1.1310 -0.0015
 3165SOL     OW21130   1.178   1.133   3.464 -0.0568  0.3668 -0.3494
 3165SOL    HW121131   1.225   1.216   3.457  2.3413 -0.9220  0.3009
 3165SOL    HW221132   1.209   1.085   3.387  2.3307 -1.3249  1.6415
 3166SOL     OW21133   4.450   4.651   2.914 -0.5648  0.0660  0.3586
 3166SOL    HW121134   4.424   4.723   2.972 -0.5440 -0.2365  0.7431
 3166SOL    HW221135   4.480   4.702   2.839  0.8048  0.4117  1.1521
 3167SOL     OW21136   3.182   1.634   1.191  0.4466 -0.1643  0.0684
 3167SOL    HW121137   3.250   1.602   1.250 -1.3601 -3.1595  0.5071
 3167SOL    HW221138   3.223   1.711   1.152 -0.1300  0.5938  0.9681
 3168SOL     OW21139   1.709   1.497   9.717 -0.0558  0.5107  0.8157
 3168SOL    HW121140   1.688   1.507   9.810  1.9434 -0.0130  1.3270
 3168SOL    HW221141   1.672   1.412   9.693 -0.8783  0.9415  0.5707
 3169SOL     OW21142   2.439   2.626   1.110  0.2312 -0.2540  0.1642
 3169SOL    HW121143   2.354   2.669   1.095 -1.1125 -2.1350  2.4160
 3169SOL    HW221144   2.469   2.665   1.192 -0.2892  3.2833 -1.3040
 3170SOL     OW21145   3.691   4.102   2.224 -0.1983  0.4122 -0.4783
 3170SOL    HW121146   3.701   4.086   2.130 -1.2401 -0.4983 -0.4325
 3170SOL    HW221147   3.694   4.012   2.257 -0.7237  0.3972 -0.4650
 3171SOL     OW21148   3.658   0.009   0.387 -0.1212 -0.3951 -0.0925
 3171SOL    HW121149   3.640   0.083   0.446 -1.0623  0.3625 -1.3506
 3171SOL    HW221150   3.747   0.035   0.362  0.4075 -1.6136  0.5302
 3172SOL     OW21151   0.732   2.900   3.946  0.7348  0.1584 -0.0037
 3172SOL    HW121152   0.785   2.917   3.868  0.9667  3.3762  0.8664
 3172SOL    HW221153   0.803   2.876   4.005  0.6597  0.8493  0.3624
 3173SOL     OW21154   4.125   3.953   1.741  0.5514 -0.2150 -0.0602
 3173SOL    HW121155   4.030   3.962   1.755  0.2697 -0.4611 -1.9131
 3173SOL    HW221156   4.149   4.001   1.662 -0.0456  3.0378  1.7473
 3174SOL     OW21157   1.222   2.804   0.334  0.2039  0.1992 -0.2309
 3174SOL    HW121158   1.168   2.738   0.292 -0.2022 -2.1576  3.9642
 3174SOL    HW221159   1.187   2.884   0.293  0.6266 -0.1895 -1.3180
 3175SOL     OW21160   3.735   1.976  11.727  0.5953 -0.2143  0.3880
 3175SOL    HW121161   3.727   2.071  11.723  2.5071 -0.0811 -0.3363
 3175SOL    HW221162   3.698   1.954  11.641  0.8652 -0.8146  0.4213
 3176SOL     OW21163   4.536   0.566   4.360  0.0815 -0.1281 -0.1285
 3176SOL    HW121164   4.472   0.543   4.293 -1.7406 -1.2247  1.9817
 3176SOL    HW221165   4.484   0.593   4.436  0.9090 -2.4567  1.2576
 3177SOL     OW21166   0.193   4.457   3.497 -0.0593 -0.2685  0.5044
 3177SOL    HW121167   0.250   4.381   3.486  0.3949  0.4960 -2.4392
 3177SOL    HW221168   0.110   4.418   3.524  0.1204 -1.1369 -0.1884
 3178SOL     OW21169   3.037   3.992   6.460 -0.2127  0.5745  0.4813
 3178SOL    HW121170   3.047   4.020   6.551  1.0234  0.2117  0.4549
 3178SOL    HW221171   3.031   4.077   6.417  0.9607 -0.4038 -1.6536
 3179SOL     OW21172   1.483   3.649  12.307  0.7065 -0.0796  0.0821
 3179SOL    HW121173   1.552   3.693  12.357  0.3009  1.3520 -0.6270
 3179SOL    HW221174   1.412   3.712  12.315  0.0848 -0.8519  0.5683
 3180SOL     OW21175   0.613   4.653   6.683  0.7289 -0.3070 -0.4153
 3180SOL    HW121176   0.622   4.622   6.592  0.4332  1.1102 -0.9296
 3180SOL    HW221177   0.587   0.006   6.667 -0.3798 -0.5769 -0.1082
 3181SOL     OW21178   0.225   2.727  15.946 -0.6296  0.1296 -0.1049
 3181SOL    HW121179   0.257   2.637  15.946  0.4628  0.5204 -0.9398
 3181SOL    HW221180   0.237   2.757  16.036 -1.7854  0.1030  0.0529
 3182SOL     OW21181   2.201   3.905   4.261  0.7065 -0.6913  0.2522
 3182SOL    HW121182   2.139   3.900   4.188  0.9156  1.7606 -0.0829
 3182SOL    HW221183   2.160   3.978   4.307  1.0989 -0.4112  0.1524
 3183SOL     OW21184   2.515   2.290   5.229 -0.1470 -0.5972 -0.7759
 3183SOL    HW121185   2.434   2.262   5.273  1.4081 -3.7049  0.1093
 3183SOL    HW221186   2.502   2.384   5.216  3.5579  0.1543  1.1078
 3184SOL     OW21187   3.716   4.497   7.151  0.7065  0.0906 -0.1851
 3184SOL    HW121188   3.733   4.403   7.162  1.4763  0.0952 -1.3424
 3184SOL    HW221189   3.799   4.535   7.181 -0.9900  2.4499  1.4632
 3185SOL     OW21190   1.975   4.201  10.232 -0.2394 -0.5439 -0.0983
 3185SOL    HW121191   1.931   4.162  10.308 -0.4843  0.8601  0.4770
 3185SOL    HW221192   2.048   4.139  10.238 -0.9286 -1.4678 -1.4066
 3186SOL     OW21193   4.261   2.565   4.890  0.0406  1.0253  0.1961
 3186SOL    HW121194   4.298   2.574   4.802  1.6726  1.6381  0.9390
 3186SOL    HW221195   4.259   2.470   4.901  1.1849  1.0113  0.3436
 3187SOL     OW21196   1.928   2.878   0.577 -0.3571 -0.5086  0.0906
 3187SOL    HW121197   1.896   2.808   0.632 -1.4207  0.1845  0.3506
 3187SOL    HW221198   1.998   2.914   0.632 -0.1913  1.7457 -1.5685
 3188SOL     OW21199   3.163   4.317   5.025 -0.4275 -0.2796 -0.1155
 3188SOL    HW121200   3.163   4.243   5.086  0.6477  0.0111  0.2349
 3188SOL    HW221201   3.189   4.389   5.082 -0.3128 -0.3246 -0.1122
 3189SOL     OW21202   1.274   3.772   9.749  0.7287 -0.1214  0.1477
 3189SOL    HW121203   1.252   3.837   9.682  1.1116  1.0103  1.1381
 3189SOL    HW221204   1.364   3.746   9.729  0.7291 -0.8216  1.0696
 3190SOL     OW21205   4.312   0.541  10.939 -0.2026 -0.3852 -0.1120
 3190SOL    HW121206   4.283   0.451  10.950 -0.0395 -0.4653 -0.3373
 3190SOL    HW221207   4.240   0.572  10.883  1.4670  1.2665 -1.3413
 3191SOL     OW21208   4.694   1.839   5.989  0.3946 -0.0707  0.1565
 3191SOL    HW121209   4.622   1.810   6.045  0.3948  2.6631  1.5661
 3191SOL    HW221210   4.652   1.874   5.911  0.6493 -1.2390 -0.4953
 3192SOL     OW21211   0.055   0.333   7.005 -0.0568  0.0825  0.9307
 3192SOL    HW121212   0.026   0.279   6.931  0.5565  1.0228 -0.0162
 3192SOL    HW221213   0.136   0.293   7.035  0.2378 -0.1273 -0.1180
 3193SOL     OW21214   0.880   3.007   3.249  0.2952 -0.0942 -0.4129
 3193SOL    HW121215   0.842   2.970   3.169  0.3364 -2.1924  0.5470
 3193SOL    HW221216   0.879   2.925   3.298  1.4270 -0.9286 -1.7772
 3194SOL     OW21217   0.646   1.903  10.669  0.2958 -0.0465  0.1869
 3194SOL    HW121218   0.665   1.992  10.641 -2.5305  0.2375 -0.8022
 3194SOL    HW221219   0.668   1.859  10.587 -2.3325  0.7101 -0.9056
 3195SOL     OW21220   3.150   0.423   4.331  0.4822 -0.4103  0.5383
 3195SOL    HW121221   3.114   0.422   4.419  2.9411  0.6351  1.5584
 3195SOL    HW221222   3.075   0.437   4.273  0.4147 -0.7707  0.5366
 3196SOL     OW21223   1.154   0.983  17.675  0.1858  0.2814 -0.1870
 3196SOL    HW121224   1.115   0.972   0.013  1.5019 -1.1211  0.2318
 3196SOL    HW221225   1.145   1.078  17.672  0.4155  0.3406  1.1489
 3197SOL     OW21226   4.382   1.625   5.878 -0.3768  0.1853 -0.1048
 3197SOL    HW121227   4.326   1.613   5.801 -0.9977  3.2925 -0.1310
 3197SOL    HW221228   4.470   1.626   5.841  0.0485  4.3944  0.9530
 3198SOL     OW21229   0.360   1.984   0.408 -0.2176  0.4537  1.1229
 3198SOL    HW121230   0.388   2.039   0.481  1.3555 -0.1918  1.0074
 3198SOL    HW221231   0.312   2.043   0.350  0.8515 -0.0835 -0.3269
 3199SOL     OW21232   1.221   4.706   6.443  0.0828 -0.1729 -0.1323
 3199SOL    HW121233   1.158   4.735   6.376 -0.2545  0.0891  0.3012
 3199SOL    HW221234   1.200   0.032   6.512  1.0267  0.1911 -0.1830
 3200SOL     OW21235   0.512   0.121   2.465 -0.5316  0.0381  0.0856
 3200SOL    HW121236   0.523   0.100   2.372  1.6602  1.6908 -0.0125
 3200SOL    HW221237   0.419   0.109   2.485 -0.3952  0.8034  1.2158
 3201SOL     OW21238   4.552   1.271   5.455 -0.6115  0.1736  0.4387
 3201SOL    HW121239   4.612   1.276   5.380 -0.2665 -1.9633  0.5668
 3201SOL    HW221240   4.509   1.190   5.428 -2.8156  1.6350 -0.4784
 3202SOL     OW21241   1.344   4.287   3.077 -0.0635 -0.0032 -0.0542
 3202SOL    HW121242   1.259   4.324   3.054  0.1156  0.6986  0.4170
 3202SOL    HW221243   1.332   4.223   3.007 -1.8481  0.3461 -0.0498
 3203SOL     OW21244   3.725   1.704   1.523  0.6604  0.7861  0.4326
 3203SOL    HW121245   3.725   1.791   1.562  1.9083  1.6398 -1.4998
 3203SOL    HW221246   3.749   1.651   1.599  0.9190  1.9602  1.1545
 3204SOL     OW21247   4.612   0.007  14.971 -0.4094  0.1292  0.5298
 3204SOL    HW121248   4.579   4.705  14.891 -1.4425  1.7695  0.1525
 3204SOL    HW221249   4.531   0.030  15.016  0.1589 -1.4548  2.3674
 3205SOL     OW21250   2.154   0.324  15.600  0.0348  0.3956 -0.5859
 3205SOL    HW121251   2.206   0.370  15.666 -0.9540 -1.2960  1.3838
 3205SOL    HW221252   2.066   0.314  15.639  0.1048 -2.0640 -1.0518
 3206SOL     OW21253   2.710   2.184   2.250  0.0705  0.1314 -0.0560
 3206SOL    HW121254   2.677   2.209   2.164  1.4699 -1.8867 -1.1531
 3206SOL    HW221255   2.643   2.125   2.285  0.3915 -0.7162 -0.8920
 3207SOL     OW21256   4.474   2.990   7.420  0.0037  0.4917 -0.1900
 3207SOL    HW121257   4.419   3.061   7.452  1.2527  0.8125  1.2074
 3207SOL    HW221258   4.527   3.056   7.375  0.0380  0.4212 -0.2539
 3208SOL     OW21259   2.654   3.107   4.714 -0.0787 -0.1967  0.2925
 3208SOL    HW121260   2.693   3.138   4.631  1.9293 -3.6966 -0.0898
 3208SOL    HW221261   2.571   3.154   4.718  0.9561  1.5619  1.0725
 3209SOL     OW21262   0.767   2.887   5.624 -0.4434 -0.7312 -0.2183
 3209SOL    HW121263   0.692   2.847   5.669 -0.8029  1.8323  1.4870
 3209SOL    HW221264   0.725   2.913   5.543  1.1635  0.2886 -0.7182
 3210SOL     OW21265   0.721   2.593   7.528 -0.0384  0.0058 -0.3150
 3210SOL    HW121266   0.633   2.557   7.518 -0.0012 -0.4450  0.9605
 3210SOL    HW221267   0.773   2.545   7.463 -0.1299 -0.1094 -0.3023
 3211SOL     OW21268   2.900   3.592  10.752  0.8486  0.2841 -0.4590
 3211SOL    HW121269   2.930   3.609  10.842 -0.6302  3.3043 -0.5576
 3211SOL    HW221270   2.951   3.514  10.730 -4.2290 -3.4265  1.0714
 3212SOL     OW21271   3.043   1.213  14.097 -0.1958  0.1385 -0.4118
 3212SOL    HW121272   3.017   1.129  14.060 -0.6692  0.0200  0.1906
 3212SOL    HW221273   2.984   1.223  14.171 -0.7295 -1.3056 -0.6472
 3213SOL     OW21274   4.649   2.214   3.445 -0.2590  0.5848 -0.2318
 3213SOL    HW121275   4.564   2.259   3.440  0.1637  1.3543 -0.5914
 3213SOL    HW221276   4.620   2.135   3.400 -0.1579  0.5404 -0.2195
 3214SOL     OW21277   0.240   1.168   1.762  0.1789  0.6311 -0.0058
 3214SOL    HW121278   0.158   1.217   1.767 -0.5501 -0.7331  1.4815
 3214SOL    HW221279   0.265   1.163   1.855 -1.6284 -0.9174  0.4193
 3215SOL     OW21280   1.405   3.884  12.474 -0.3461 -0.1945 -0.1836
 3215SOL    HW121281   1.426   3.941  12.400  0.5744  0.8851  0.9077
 3215SOL    HW221282   1.322   3.841  12.451  0.2665 -1.6993  0.4262
 3216SOL     OW21283   3.612   4.206  16.447 -0.3941 -0.1670 -0.1507
 3216SOL    HW121284   3.688   4.148  16.438  1.0346  1.5771  0.8110
 3216SOL    HW221285   3.553   4.147  16.494 -2.7234  0.5638 -2.1457
 3217SOL     OW21286   2.050   3.468   1.380  0.2145  0.1692  0.2645
 3217SOL    HW121287   2.126   3.491   1.327  0.5503 -0.5016  0.4629
 3217SOL    HW221288   2.001   3.548   1.362  1.4697  0.9880  0.5039
 3218SOL     OW21289   1.813   2.538  10.352  0.2621  0.2521  0.6265
 3218SOL    HW121290   1.761   2.491  10.417 -1.7138  2.1534  0.4271
 3218SOL    HW221291   1.892   2.569  10.395 -0.7339  1.2733  1.7458
 3219SOL     OW21292   3.300   0.861   4.197  0.6121  0.0666 -0.4211
 3219SOL    HW121293   3.207   0.872   4.178  0.1843 -0.5968  1.2426
 3219SOL    HW221294   3.330   0.842   4.108 -0.8208  0.7347 -1.0411
 3220SOL     OW21295   1.775   3.969   9.514 -0.1065  0.1797 -0.1647
 3220SOL    HW121296   1.865   3.936   9.518  0.1712  1.0717  1.1001
 3220SOL    HW221297   1.731   3.915   9.449  0.7517  1.5947 -1.9210
 3221SOL     OW21298   1.391   0.014   8.003  0.0143 -0.2710  0.1141
 3221SOL    HW121299   1.304   0.044   7.978 -0.7584 -1.2357  1.6550
 3221SOL    HW221300   1.435   0.005   7.918  1.3011 -1.6257  0.9275
 3222SOL     OW21301   3.010   3.192   9.841 -0.1443  0.5543  0.1238
 3222SOL    HW121302   3.001   3.155   9.929 -0.9858  0.4380 -0.0130
 3222SOL    HW221303   2.934   3.250   9.839 -0.7903 -0.3467 -1.0617
 3223SOL     OW21304   3.213   3.520   0.384  0.4915  0.0265 -0.3276
 3223SOL    HW121305   3.182   3.563   0.464  1.8619  0.4523 -0.0204
 3223SOL    HW221306   3.261   3.445   0.421  0.8596 -0.5762 -2.0305
 3224SOL     OW21307   1.036   3.462  10.282  0.0468 -0.2041  0.2739
 3224SOL    HW121308   1.104   3.529  10.293 -0.1576  0.0475  0.0256
 3224SOL    HW221309   0.974   3.474  10.354  1.3370  0.1861  1.2974
 3225SOL     OW21310   3.179   1.782   9.591 -0.2679 -0.0550 -0.1382
 3225SOL    HW121311   3.176   1.877   9.582 -1.1204  0.1953  2.6801
 3225SOL    HW221312   3.161   1.777   9.685  0.8282  0.1892  0.0931
 3226SOL     OW21313   2.751   3.698   7.881 -0.9216  0.4377 -0.1560
 3226SOL    HW121314   2.774   3.666   7.794 -0.3936  0.4804 -0.0343
 3226SOL    HW221315   2.659   3.714   7.861 -0.5028  1.9005 -0.9141
 3227SOL     OW21316   1.213   4.511   2.310 -0.5930 -0.0387  0.2175
 3227SOL    HW121317   1.189   4.423   2.281 -3.4393  1.5454 -2.1664
 3227SOL    HW221318   1.135   4.551   2.349  1.1198  1.6065  1.9356
 3228SOL     OW21319   2.351   0.735   1.973 -0.4634  0.2408 -0.8088
 3228SOL    HW121320   2.294   0.659   1.979  0.6355 -0.3529  2.0579
 3228SOL    HW221321   2.384   0.740   1.883  1.5090  2.1773  0.0253
 3229SOL     OW21322   3.407   2.754   4.105  0.1708 -0.0009 -0.3365
 3229SOL    HW121323   3.442   2.794   4.184  1.2853 -1.6484 -0.0035
 3229SOL    HW221324   3.478   2.774   4.045  1.8020 -2.3272  0.8490
 3230SOL     OW21325   3.004   3.215  13.685 -0.7047  0.1573 -0.5040
 3230SOL    HW121326   3.007   3.291  13.627  2.9799  0.2183 -0.2582
 3230SOL    HW221327   3.071   3.239  13.749  0.8036  0.8472 -2.3332
 3231SOL     OW21328   4.183   3.573  16.037 -0.4057 -0.6427  0.4695
 3231SOL    HW121329   4.138   3.507  15.984  0.1861 -0.1146 -0.6829
 3231SOL    HW221330   4.104   3.605  16.082 -0.9010 -1.4667  0.1924
 3232SOL     OW21331   2.197   1.126  10.480 -0.2569  0.1767 -0.1065
 3232SOL    HW121332   2.199   1.062  10.551  0.2473 -1.2622 -1.4368
 3232SOL    HW221333   2.272   1.178  10.512 -0.3001  0.5643 -0.6431
 3233SOL     OW21334   3.160   3.425   6.590 -0.1466 -0.2891  0.1895
 3233SOL    HW121335   3.094   3.383   6.646 -1.6091 -1.3636 -2.3569
 3233SOL    HW221336   3.127   3.514   6.598 -0.1047 -0.0622 -2.3759
 3234SOL     OW21337   3.818   1.785   5.165  0.1341  0.1641 -0.2679
 3234SOL    HW121338   3.890   1.801   5.104  0.4278  0.0887  0.0584
 3234SOL    HW221339   3.742   1.796   5.109  0.3646 -1.4541 -0.9186
 3235SOL     OW21340   4.210   3.965   9.417  0.5313 -0.2310 -0.4661
 3235SOL    HW121341   4.169   3.885   9.383  1.3948 -0.0524 -1.9199
 3235SOL    HW221342   4.265   3.917   9.479 -0.3571  0.6538  0.9951
 3236SOL     OW21343   1.232   1.649   9.124  0.6046  0.0119  0.1002
 3236SOL    HW121344   1.267   1.722   9.073 -2.4336  0.9786 -0.5937
 3236SOL    HW221345   1.244   1.680   9.214  2.2394 -0.6315  0.1094
 3237SOL     OW21346   2.622   1.701   5.173 -0.1852 -0.1781 -0.6367
 3237SOL    HW121347   2.538   1.732   5.208  1.3674  0.6317  2.3671
 3237SOL    HW221348   2.656   1.684   5.261  1.3828  0.7236 -1.0654
 3238SOL     OW21349   3.870   1.688   0.404  0.3158 -0.4221  0.5280
 3238SOL    HW121350   3.923   1.694   0.325 -1.8586 -2.6510 -1.1014
 3238SOL    HW221351   3.919   1.748   0.460  3.5348 -2.1550 -0.4368
 3239SOL     OW21352   0.508   2.928  16.502  0.6144  0.1076 -0.1318
 3239SOL    HW121353   0.528   2.843  16.461 -0.2596 -1.6262  3.0557
 3239SOL    HW221354   0.504   2.990  16.429  0.1937  1.2167  0.8541
 3240SOL     OW21355   1.344   2.287   2.081 -0.5217  0.1399  0.2173
 3240SOL    HW121356   1.389   2.330   2.154  1.9020 -1.6469 -0.2345
 3240SOL    HW221357   1.295   2.214   2.118 -1.7204  1.3834  1.0631
 3241SOL     OW21358   2.642   2.800   4.207 -0.3159  0.2554  0.1810
 3241SOL    HW121359   2.606   2.796   4.119  0.8372 -1.3846 -0.2226
 3241SOL    HW221360   2.712   2.865   4.202  1.8826 -2.0043  1.2394
 3242SOL     OW21361   0.139   0.538   8.395 -0.0529  0.2326  0.3772
 3242SOL    HW121362   0.137   0.571   8.484  3.2292 -0.7650  0.8333
 3242SOL    HW221363   0.071   0.472   8.413  0.9179 -1.1530 -1.0086
 3243SOL     OW21364   0.232   3.854   0.318  0.4353 -0.2082 -0.3594
 3243SOL    HW121365   0.277   3.813   0.245 -1.4380 -0.5513 -1.3280
 3243SOL    HW221366   0.243   3.793   0.391  0.3934  1.2083  0.8259
 3244SOL     OW21367   1.565   0.517   0.073  0.5296 -0.1415 -0.2773
 3244SOL    HW121368   1.609   0.438   0.105  1.2647  0.1887 -0.4755
 3244SOL    HW221369   1.547   0.480  17.734 -4.0431  1.4814  0.0068
 3245SOL     OW21370   0.667   0.657   3.795  0.1158 -0.0546  0.7986
 3245SOL    HW121371   0.606   0.591   3.826 -0.3841  0.1356  0.2149
 3245SOL    HW221372   0.612   0.722   3.752 -0.3523 -1.7712 -1.2100
 3246SOL     OW21373   2.849   2.829   0.835 -0.7846  0.0664 -0.1055
 3246SOL    HW121374   2.806   2.908   0.869 -0.2503  1.4558 -2.6762
 3246SOL    HW221375   2.812   2.753   0.880  1.1873  0.4126  2.1460
 3247SOL     OW21376   0.410   4.154  10.027 -0.0726  0.5784  0.0703
 3247SOL    HW121377   0.400   4.241  10.066  1.0610  0.4932  0.5597
 3247SOL    HW221378   0.446   4.120  10.110  2.6473 -0.8486 -1.6998
 3248SOL     OW21379   2.172   0.282   1.399 -0.4381  0.0680  0.1520
 3248SOL    HW121380   2.137   0.361   1.359 -0.2536  0.9093  1.6231
 3248SOL    HW221381   2.207   0.236   1.323 -0.6508  0.7225 -0.3326
 3249SOL     OW21382   3.372   3.712   3.657  0.0711  0.0541 -0.1994
 3249SOL    HW121383   3.407   3.716   3.568 -3.0946  0.4961 -1.4206
 3249SOL    HW221384   3.366   3.807   3.668  1.5155  0.2887 -1.4300
 3250SOL     OW21385   4.152   2.626   4.221  0.3598  0.5870 -0.7846
 3250SOL    HW121386   4.187   2.646   4.134 -0.4108 -2.5337 -1.8250
 3250SOL    HW221387   4.215   2.668   4.279  0.7862 -3.4953  1.6766
 3251SOL     OW21388   1.537   2.813   0.458  0.1707 -0.3893  0.5203
 3251SOL    HW121389   1.564   2.847   0.543 -1.5939 -0.1264  0.9804
 3251SOL    HW221390   1.480   2.875   0.412  0.5651 -0.2181  0.2613
 3252SOL     OW21391   1.505   1.899   8.266  0.3714  0.5490  0.3187
 3252SOL    HW121392   1.447   1.884   8.191  0.9256 -0.4877  0.0908
 3252SOL    HW221393   1.482   1.990   8.287  2.2384  1.4181 -1.3752
 3253SOL     OW21394   4.565   0.599  11.966  0.1151  0.0925  0.3500
 3253SOL    HW121395   4.636   0.553  12.012  0.4220 -0.7287 -0.9357
 3253SOL    HW221396   4.501   0.530  11.952 -0.4585  0.5864  0.5537
 3254SOL     OW21397   2.052   0.791   3.449  0.1502 -0.0510  0.1911
 3254SOL    HW121398   2.115   0.764   3.384  0.1518  0.8615 -0.1911
 3254SOL    HW221399   2.031   0.709   3.494 -4.7548  1.2813  0.3477
 3255SOL     OW21400   3.461   0.248   4.445  0.5140 -0.2603  0.2224
 3255SOL    HW121401   3.435   0.275   4.533  1.4341 -1.6444  0.9316
 3255SOL    HW221402   3.556   0.258   4.445  0.2743  2.0250 -1.5465
 3256SOL     OW21403   2.785   1.264   6.913  0.0242 -0.7011 -0.1220
 3256SOL    HW121404   2.764   1.227   6.827  1.7801 -1.4083 -0.2557
 3256SOL    HW221405   2.737   1.345   6.902 -0.9055 -1.3980 -1.1885
 3257SOL     OW21406   2.126   4.013  16.242 -0.2401  0.4289 -0.1888
 3257SOL    HW121407   2.110   3.922  16.265 -2.3522  0.7124 -0.5936
 3257SOL    HW221408   2.221   4.018  16.227 -0.5672  0.3218 -2.3443
 3258SOL     OW21409   0.180   2.822   0.311 -0.9591  0.8886 -0.4750
 3258SOL    HW121410   0.087   2.812   0.329 -0.3472 -2.0164  1.1739
 3258SOL    HW221411   0.194   2.896   0.369 -0.9090  0.2492  0.3356
 3259SOL     OW21412   0.780   1.201  15.301  0.4679 -0.0889  0.0440
 3259SOL    HW121413   0.747   1.164  15.219 -2.2241  0.4449  0.8997
 3259SOL    HW221414   0.842   1.131  15.322 -0.0973 -0.4091  0.6441
 3260SOL     OW21415   3.852   4.706   6.084  0.0919  0.3982 -0.7849
 3260SOL    HW121416   3.937   4.705   6.040 -0.1845 -0.0074 -1.2984
 3260SOL    HW221417   3.864   0.005   6.172  2.1538 -1.4512 -0.3053
 3261SOL     OW21418   3.780   0.550   2.866  0.5597  0.1428  0.3719
 3261SOL    HW121419   3.741   0.575   2.950 -1.2319 -1.8056  0.1307
 3261SOL    HW221420   3.724   0.477   2.841 -0.9229  1.0775  0.9451
 3262SOL     OW21421   3.212   4.603   2.532  0.0570  0.0812  0.0700
 3262SOL    HW121422   3.189   4.573   2.444 -0.7132 -0.1680  0.3624
 3262SOL    HW221423   3.133   4.653   2.553 -1.9608 -1.6246 -3.4522
 3263SOL     OW21424   0.848   1.005   9.004 -0.3510  0.1198  0.5506
 3263SOL    HW121425   0.782   0.963   8.948 -1.0006  1.3995  0.3660
 3263SOL    HW221426   0.892   0.920   9.015 -0.1772  0.2403  0.7762
 3264SOL     OW21427   3.676   1.036   4.635 -0.4464  0.2231 -0.4381
 3264SOL    HW121428   3.730   1.083   4.571  1.5190  0.0795  1.1119
 3264SOL    HW221429   3.726   0.955   4.642 -1.1236 -0.1642 -0.0800
 3265SOL     OW21430   3.448   2.019   7.407  0.4484  0.2509 -0.2026
 3265SOL    HW121431   3.377   2.044   7.467 -0.8710  0.6576 -1.9310
 3265SOL    HW221432   3.417   1.941   7.361 -1.2920  2.2355 -2.3753
 3266SOL     OW21433   0.421   1.378   4.007 -0.8354  0.3687  0.2048
 3266SOL    HW121434   0.450   1.463   4.040  1.5556 -0.0765 -0.7347
 3266SOL    HW221435   0.489   1.325   4.048 -0.7140  0.4824  0.1506
 3267SOL     OW21436   2.441   3.137   2.587 -0.2591 -0.6526  0.2095
 3267SOL    HW121437   2.434   3.100   2.675 -0.0504 -1.2943 -0.0436
 3267SOL    HW221438   2.535   3.146   2.578 -0.1779 -0.6004  1.0887
 3268SOL     OW21439   4.137   1.952   8.243 -0.3197 -0.2339 -0.5983
 3268SOL    HW121440   4.177   1.953   8.330  0.9969 -1.4217 -1.1985
 3268SOL    HW221441   4.072   2.023   8.249 -0.4208 -0.3095 -0.7839
 3269SOL     OW21442   0.114   1.831   8.173 -0.7192  0.2362 -0.0891
 3269SOL    HW121443   0.170   1.824   8.097  0.4570  0.7996  0.7314
 3269SOL    HW221444   0.121   1.923   8.198  0.1800  0.0850  0.1951
 3270SOL     OW21445   3.224   1.360  13.965 -0.1244 -0.8471 -0.3193
 3270SOL    HW121446   3.163   1.295  13.999 -0.9224  0.5236  0.8707
 3270SOL    HW221447   3.244   1.317  13.882  0.5350 -2.2654  0.5852
 3271SOL     OW21448   4.085   3.420   6.221  0.2293 -0.4672  0.3881
 3271SOL    HW121449   4.051   3.356   6.283 -0.5383  0.5518  1.0328
 3271SOL    HW221450   4.033   3.405   6.142  0.4096 -1.6264  0.5014
 3272SOL     OW21451   0.020   3.050   4.073  0.3510 -0.3545  0.1936
 3272SOL    HW121452   0.028   2.982   4.140 -1.8860 -2.3164 -1.5215
 3272SOL    HW221453   0.050   3.016   3.989  1.4935 -2.8242  1.6134
 3273SOL     OW21454   2.802   0.070   6.166  0.2335 -0.2652 -0.2670
 3273SOL    HW121455   2.829   4.727   6.210  1.1788 -0.7883 -1.8289
 3273SOL    HW221456   2.707   0.068   6.180  0.4830  2.2219  1.9983
 3274SOL     OW21457   1.639   1.996   3.941  0.0842 -0.1234 -0.4031
 3274SOL    HW121458   1.585   1.919   3.958  0.4151 -0.4429 -0.7875
 3274SOL    HW221459   1.583   2.051   3.887 -1.1883 -1.5694 -0.5667
 3275SOL     OW21460   4.623   1.918  10.740 -0.5707 -0.0668 -0.2250
 3275SOL    HW121461   4.624   1.854  10.811  0.0488 -0.0067 -0.1797
 3275SOL    HW221462   4.624   1.864  10.661 -1.9540 -0.8356  0.2957
 3276SOL     OW21463   2.468   2.842   2.136  0.2983 -0.5130 -0.0319
 3276SOL    HW121464   2.383   2.846   2.179  0.8577  1.3073  0.8826
 3276SOL    HW221465   2.471   2.912   2.071  0.3783 -0.3621  0.1367
 3277SOL     OW21466   1.659   3.589   5.686 -0.7267 -0.1578 -0.1734
 3277SOL    HW121467   1.669   3.678   5.721  0.7077 -0.1317 -0.6361
 3277SOL    HW221468   1.577   3.562   5.727 -0.2358 -0.5082  0.5904
 3278SOL     OW21469   2.263   0.013   4.400  0.3387 -0.0949  0.0230
 3278SOL    HW121470   2.182   4.723   4.357 -0.3440 -0.1231  1.3434
 3278SOL    HW221471   2.227   4.729   4.486  0.5786 -0.6628 -0.0168
 3279SOL     OW21472   2.124   0.888   5.374 -0.0475  0.0497 -0.0393
 3279SOL    HW121473   2.186   0.954   5.405 -2.4405  2.4096 -0.2179
 3279SOL    HW221474   2.051   0.937   5.336 -1.8711 -2.3245  0.3726
 3280SOL     OW21475   2.543   2.138   5.905 -0.8501 -0.1434 -0.6070
 3280SOL    HW121476   2.461   2.106   5.942 -0.8713  0.9126  0.2436
 3280SOL    HW221477   2.532   2.115   5.813  0.8322 -0.2012 -0.8077
 3281SOL     OW21478   1.625   0.145   3.206 -0.1844  0.0913  0.5975
 3281SOL    HW121479   1.610   0.236   3.231 -1.3557 -0.0366  0.3547
 3281SOL    HW221480   1.636   0.093   3.286 -1.6452 -1.6624 -0.3596
 3282SOL     OW21481   4.687   0.764   5.176  0.1569  0.5981  0.4872
 3282SOL    HW121482   4.651   0.835   5.228 -1.2021 -0.3390  0.8033
 3282SOL    HW221483   0.010   0.805   5.113 -1.6591  1.3033 -0.7918
 3283SOL     OW21484   3.592   0.451   1.554  0.5151  0.2065 -0.4141
 3283SOL    HW121485   3.535   0.386   1.514  0.6207 -1.1667  1.6280
 3283SOL    HW221486   3.630   0.385   1.613  0.9746 -0.3359 -1.3215
 3284SOL     OW21487   2.509   3.188   8.297 -0.1589 -0.3633 -0.2380
 3284SOL    HW121488   2.471   3.109   8.258 -0.8020  0.1696 -0.6847
 3284SOL    HW221489   2.522   3.153   8.386  0.0739 -1.6644 -0.7784
 3285SOL     OW21490   3.491   3.412  11.052  0.1387  0.4839 -0.1692
 3285SOL    HW121491   3.545   3.397  11.130  0.4077  0.5327 -0.3454
 3285SOL    HW221492   3.502   3.334  10.998  0.7995  1.3224 -1.2490
 3286SOL     OW21493   1.329   2.424   6.718 -0.3631 -0.2202  0.1645
 3286SOL    HW121494   1.365   2.481   6.651 -1.5336  2.1106  1.5093
 3286SOL    HW221495   1.238   2.412   6.690 -0.7349  1.0692  0.7875
 3287SOL     OW21496   1.579   2.032   2.700  0.0585  0.2763 -0.3859
 3287SOL    HW121497   1.498   2.016   2.747 -0.4902 -0.0025 -1.4277
 3287SOL    HW221498   1.604   2.117   2.735 -1.1187  0.2055  0.6049
 3288SOL     OW21499   1.050   1.453   2.166 -0.3195 -0.5940  0.0749
 3288SOL    HW121500   1.036   1.545   2.187 -0.7580 -0.1467 -2.2033
 3288SOL    HW221501   0.978   1.410   2.212  0.4545  0.2667  2.0760
 3289SOL     OW21502   2.789   4.223   4.978 -0.2895 -0.8415 -0.1998
 3289SOL    HW121503   2.763   4.311   4.948 -0.9000 -0.7517  0.6154
 3289SOL    HW221504   2.708   4.177   4.958  0.4394 -1.9138 -0.6991
 3290SOL     OW21505   1.649   3.874   3.721  0.1197  0.6936  0.0869
 3290SOL    HW121506   1.606   3.951   3.684 -0.3771  0.6903  0.6512
 3290SOL    HW221507   1.683   3.833   3.642  0.9092  1.6281 -0.0660
 3291SOL     OW21508   2.087   2.238   7.059  0.2453  0.3290 -0.0025
 3291SOL    HW121509   2.006   2.243   7.110  0.3800 -0.8267  0.3319
 3291SOL    HW221510   2.052   2.275   6.978  0.8323 -0.1468 -0.4764
 3292SOL     OW21511   0.201   2.472   8.517 -0.2305  0.1533  0.5456
 3292SOL    HW121512   0.244   2.448   8.599  0.6535  0.0736  0.0602
 3292SOL    HW221513   0.176   2.562   8.540 -0.6496  0.2275 -0.2176
 3293SOL     OW21514   2.621   1.628   3.129  0.2109 -0.1610 -0.0808
 3293SOL    HW121515   2.691   1.566   3.148  0.5098 -0.2498 -1.4839
 3293SOL    HW221516   2.574   1.640   3.212  0.0380 -1.5056  0.0150
 3294SOL     OW21517   2.478   3.479   2.537  0.4437 -1.0049 -0.0225
 3294SOL    HW121518   2.485   3.575   2.537 -1.6426 -0.8700 -2.9408
 3294SOL    HW221519   2.568   3.457   2.513 -0.5589 -1.0555 -3.7251
 3295SOL     OW21520   0.987   0.961  12.600 -0.0635  0.3251 -0.2640
 3295SOL    HW121521   0.973   0.911  12.520 -0.8767  0.9646 -0.5239
 3295SOL    HW221522   1.072   0.930  12.631  0.0468  1.4056  0.5357
 3296SOL     OW21523   3.153   2.450  15.584 -0.5626  0.3136 -0.0586
 3296SOL    HW121524   3.227   2.506  15.560 -0.7510 -0.0079 -1.4066
 3296SOL    HW221525   3.155   2.455  15.680 -4.4855 -2.0872  0.1885
 3297SOL     OW21526   3.002   3.397   4.593  0.2071  0.2900  0.4950
 3297SOL    HW121527   3.039   3.399   4.681  1.4158 -0.3455  0.0080
 3297SOL    HW221528   2.909   3.415   4.607 -0.2241 -2.2654  0.9128
 3298SOL     OW21529   0.406   4.631   3.981  0.1757  0.1136  0.0614
 3298SOL    HW121530   0.365   4.631   4.067  2.3503  0.5644  1.1020
 3298SOL    HW221531   0.339   4.692   3.952 -0.6606 -0.6459  0.4001
 3299SOL     OW21532   1.378   0.660   8.266 -0.1127  0.0755 -0.2730
 3299SOL    HW121533   1.473   0.662   8.254 -0.4275  0.5590 -2.7444
 3299SOL    HW221534   1.358   0.586   8.208  0.1471 -2.3981  2.8378
 3300SOL     OW21535   0.731   0.747  13.549  0.3102 -0.1868 -0.6640
 3300SOL    HW121536   0.669   0.689  13.593  0.0501  0.4265 -0.2080
 3300SOL    HW221537   0.684   0.767  13.468 -0.0822  1.9690  0.0996
 3301SOL     OW21538   0.879   1.558   7.361 -0.0232 -0.2502 -0.0286
 3301SOL    HW121539   0.856   1.478   7.407 -0.6710 -0.0371  0.0158
 3301SOL    HW221540   0.957   1.577   7.414  0.6363  0.5074 -1.2475
 3302SOL     OW21541   1.489   1.765   3.960 -0.3525  0.0007  0.0682
 3302SOL    HW121542   1.470   1.779   3.868  0.2606  0.3472 -0.0037
 3302SOL    HW221543   1.571   1.716   3.953 -1.8628 -2.9601  2.9608
 3303SOL     OW21544   3.034   0.965   4.220  0.4129  0.2670  0.2355
 3303SOL    HW121545   3.009   1.057   4.220 -1.3400 -0.2048  1.5182
 3303SOL    HW221546   3.012   0.951   4.312  3.2005 -0.5938  0.7941
 3304SOL     OW21547   4.061   0.393  12.029 -0.4318 -0.4873  0.0507
 3304SOL    HW121548   3.993   0.426  12.088  2.0177  0.2337  2.5359
 3304SOL    HW221549   4.057   0.463  11.964  0.7752  1.7302  2.3205
 3305SOL     OW21550   4.536   2.181  11.738 -0.2074 -0.0148  0.1526
 3305SOL    HW121551   4.506   2.105  11.687 -0.7397  1.7159 -2.1045
 3305SOL    HW221552   4.498   2.157  11.822 -1.5901 -0.1322 -0.5164
 3306SOL     OW21553   0.976   2.599   7.660  0.4131 -0.4943 -0.6287
 3306SOL    HW121554   0.885   2.617   7.637  0.0348 -1.1530  0.3446
 3306SOL    HW221555   1.024   2.610   7.578  0.5128 -1.8166 -0.7495
 3307SOL     OW21556   2.451   1.004   4.764  0.3030  0.2878 -0.0168
 3307SOL    HW121557   2.405   0.933   4.810 -0.3953  1.9669  1.8911
 3307SOL    HW221558   2.542   0.973   4.763  0.0343 -0.4258 -1.6850
 3308SOL     OW21559   4.533   3.838  15.957  0.1040  0.2100 -0.2879
 3308SOL    HW121560   4.508   3.747  15.939  0.4096  0.5297 -2.3313
 3308SOL    HW221561   4.483   3.852  16.038 -1.2316  0.1074 -1.0958
 3309SOL     OW21562   1.372   4.596  11.844 -0.4896  0.2230  0.6124
 3309SOL    HW121563   1.339   4.672  11.795 -0.6115  0.2042  0.6639
 3309SOL    HW221564   1.458   4.573  11.808  0.0126  4.9643 -1.1721
 3310SOL     OW21565   1.606   0.274  14.359  0.2377 -0.1917 -0.0550
 3310SOL    HW121566   1.576   0.309  14.275 -0.1432  0.4270  0.3283
 3310SOL    HW221567   1.635   0.185  14.341  0.6382 -0.1881  0.5667
 3311SOL     OW21568   3.650   3.496  16.141 -0.1191 -0.0158  0.0674
 3311SOL    HW121569   3.657   3.433  16.070  0.6312  0.4037 -0.2331
 3311SOL    HW221570   3.559   3.525  16.149 -0.3087 -1.0907  1.8553
 3312SOL     OW21571   2.136   1.016  10.229  0.1267  0.3108 -0.0594
 3312SOL    HW121572   2.102   0.927  10.241 -1.0362  0.7313 -0.2444
 3312SOL    HW221573   2.171   1.045  10.313  0.3617 -2.2156  0.7263
 3313SOL     OW21574   0.894   2.707   4.045  0.2132  0.3796 -0.5949
 3313SOL    HW121575   0.903   2.699   4.140 -1.1778 -0.3012 -0.5309
 3313SOL    HW221576   0.887   2.616   4.016 -1.2194  0.3614 -0.1884
 3314SOL     OW21577   1.179   2.378   7.009 -0.0543  0.5225 -0.9490
 3314SOL    HW121578   1.098   2.388   6.959 -0.8279 -0.0929  0.2087
 3314SOL    HW221579   1.217   2.306   6.959 -0.7615 -0.4735 -0.0312
 3315SOL     OW21580   0.753   0.990   8.279 -0.2053  0.1603  0.2172
 3315SOL    HW121581   0.668   0.986   8.323 -0.6072 -1.1742 -0.6779
 3315SOL    HW221582   0.814   1.015   8.349 -1.6483  3.3207  0.3670
 3316SOL     OW21583   1.931   1.917   3.708  0.3535 -0.0925 -0.0766
 3316SOL    HW121584   1.955   1.881   3.794 -0.0039  0.4051  0.2299
 3316SOL    HW221585   1.985   1.863   3.650 -2.6558 -2.9305 -0.2251
 3317SOL     OW21586   2.728   0.551   8.809 -0.6962 -0.0791 -0.0137
 3317SOL    HW121587   2.804   0.492   8.805 -0.8121 -0.1059 -1.7574
 3317SOL    HW221588   2.754   0.642   8.821 -1.1214 -0.0033  0.3254
 3318SOL     OW21589   4.344   2.723  15.960 -0.4956  0.2845 -0.3675
 3318SOL    HW121590   4.328   2.634  15.992 -0.7119 -0.3902 -2.3546
 3318SOL    HW221591   4.330   2.717  15.865  1.8433  0.4928 -0.7270
 3319SOL     OW21592   1.046   2.071  14.847 -0.2318 -0.4165  0.5363
 3319SOL    HW121593   1.119   2.107  14.898 -0.7513  0.5911  0.5616
 3319SOL    HW221594   1.078   1.981  14.834  0.2205 -0.0612 -0.7645
 3320SOL     OW21595   3.266   2.150   9.258  0.1630 -0.2784 -1.0907
 3320SOL    HW121596   3.264   2.076   9.198 -0.1088 -0.6196 -0.6575
 3320SOL    HW221597   3.333   2.202   9.213 -0.3003  0.5481 -0.8283
 3321SOL     OW21598   3.240   4.175  12.048 -0.6145 -0.1957 -1.0260
 3321SOL    HW121599   3.257   4.148  11.958  1.1615 -0.5625 -0.5926
 3321SOL    HW221600   3.260   4.096  12.100 -1.5293 -0.5550 -1.2289
 3322SOL     OW21601   1.652   1.829   8.484  0.1295  0.0387 -0.5403
 3322SOL    HW121602   1.723   1.894   8.481  0.8523 -0.7058  0.2678
 3322SOL    HW221603   1.616   1.839   8.396 -1.0672 -0.2523 -0.0743
 3323SOL     OW21604   4.063   3.976   3.851 -0.3788 -0.6935 -0.1957
 3323SOL    HW121605   4.027   3.887   3.859 -1.5449 -0.2287 -0.3280
 3323SOL    HW221606   4.098   3.982   3.940 -1.8166 -0.2787  0.3292
 3324SOL     OW21607   1.479   1.613   5.655  0.0175 -0.1525  0.6781
 3324SOL    HW121608   1.545   1.674   5.620 -1.3722  1.4524  0.8392
 3324SOL    HW221609   1.510   1.538   5.604  1.1654  1.4986 -1.0759
 3325SOL     OW21610   1.768   3.665   8.359  0.8805  0.2713  0.4739
 3325SOL    HW121611   1.703   3.687   8.292  0.1532 -2.0648  0.3961
 3325SOL    HW221612   1.832   3.731   8.334 -0.0757  1.2738  0.7017
 3326SOL     OW21613   2.261   0.865   4.012 -0.1268  0.2951 -1.0564
 3326SOL    HW121614   2.252   0.876   3.917 -1.4592  0.4218 -0.9107
 3326SOL    HW221615   2.209   0.786   4.023  1.2710 -0.4667  0.1190
 3327SOL     OW21616   3.156   4.527   4.421 -0.5492 -0.1571  0.0679
 3327SOL    HW121617   3.204   4.514   4.339 -1.6801  3.0337 -1.0807
 3327SOL    HW221618   3.208   4.587   4.473  1.2741 -1.2544 -0.4847
 3328SOL     OW21619   0.473   1.004   7.991  0.1441  0.1056 -0.0525
 3328SOL    HW121620   0.410   0.934   7.979  2.7453 -2.0927 -0.9500
 3328SOL    HW221621   0.534   0.977   7.922 -1.1973 -0.5797 -0.9769
 3329SOL     OW21622   0.653   2.077  14.848 -0.3747  0.1745  0.3556
 3329SOL    HW121623   0.743   2.045  14.856 -0.6354 -0.5439  0.3636
 3329SOL    HW221624   0.658   2.169  14.823  0.1330 -0.5486 -2.1627
 3330SOL     OW21625   2.427   3.180   5.834  0.4700  0.2178 -0.2506
 3330SOL    HW121626   2.446   3.273   5.840 -0.9841  0.5425 -0.5740
 3330SOL    HW221627   2.514   3.141   5.842  0.8090  1.3170  1.3815
 3331SOL     OW21628   2.224   3.503  10.190 -0.0179  0.1081  0.1241
 3331SOL    HW121629   2.228   3.451  10.271  1.2087  0.2058  0.1212
 3331SOL    HW221630   2.201   3.590  10.223 -0.6711 -0.1113  0.2506
 3332SOL     OW21631   0.074   4.200  17.493  0.2196  0.0586  0.1789
 3332SOL    HW121632   4.733   4.166  17.536 -0.3366  2.8008  1.3632
 3332SOL    HW221633   0.087   4.133  17.426 -1.0199  0.9231 -0.9092
 3333SOL     OW21634   2.045   1.088   2.124  0.1445  0.3439  0.4877
 3333SOL    HW121635   2.046   1.178   2.158 -0.7231 -0.1866  1.9520
 3333SOL    HW221636   2.057   1.042   2.207 -1.0452  0.1135  0.5334
 3334SOL     OW21637   1.236   3.577   4.691 -0.1273  0.0906 -0.2088
 3334SOL    HW121638   1.151   3.561   4.651 -0.9891  2.1710  0.7888
 3334SOL    HW221639   1.226   3.671   4.699  1.2217  0.1886  0.4748
 3335SOL     OW21640   3.984   0.909   6.281  0.5934  0.2411  0.1687
 3335SOL    HW121641   3.985   0.944   6.192  0.4982 -0.7951 -0.2299
 3335SOL    HW221642   4.060   0.851   6.280  0.1052 -0.4322  2.0220
 3336SOL     OW21643   1.405   3.567  10.159 -0.0068  0.1063  0.5219
 3336SOL    HW121644   1.463   3.618  10.216 -1.1236 -0.0564  1.8139
 3336SOL    HW221645   1.372   3.637  10.102 -0.1990 -0.4344 -0.0311
 3337SOL     OW21646   1.121   1.723   3.335  0.2175  0.0891  0.1484
 3337SOL    HW121647   1.131   1.817   3.352  0.6625  0.1183 -0.2719
 3337SOL    HW221648   1.036   1.727   3.293  0.6105 -0.8071 -0.7256
 3338SOL     OW21649   1.251   0.567  14.972 -0.4729  0.5924  0.5643
 3338SOL    HW121650   1.233   0.617  15.052 -0.5823 -0.3467  1.1406
 3338SOL    HW221651   1.214   0.482  14.999  3.3520 -1.1645  0.2513
 3339SOL     OW21652   4.292   1.400   7.730 -0.0730 -0.1736 -0.3711
 3339SOL    HW121653   4.355   1.343   7.776  0.6557  1.8873  1.1436
 3339SOL    HW221654   4.340   1.482   7.738 -2.0251  0.9656 -0.4612
 3340SOL     OW21655   0.594   3.524  10.754  0.1335  0.2042  0.3782
 3340SOL    HW121656   0.678   3.558  10.786  0.9712 -0.5172 -1.0955
 3340SOL    HW221657   0.558   3.484  10.833 -0.3214 -0.1697 -0.0184
 3341SOL     OW21658   3.124   4.260  14.026  0.0687  0.3374  0.2306
 3341SOL    HW121659   3.048   4.202  14.014  1.0375 -0.8024 -0.3927
 3341SOL    HW221660   3.145   4.255  14.119  1.5828 -0.1947 -0.1328
 3342SOL     OW21661   2.884   2.800   2.548  0.5769 -0.4239  0.1201
 3342SOL    HW121662   2.923   2.720   2.583  0.8116 -0.9306 -1.3182
 3342SOL    HW221663   2.794   2.786   2.578 -0.0429 -1.1160 -2.0347
 3343SOL     OW21664   0.660   3.891   8.982  0.1741 -0.1058  0.2310
 3343SOL    HW121665   0.751   3.884   9.010  0.7858 -0.4983 -1.8793
 3343SOL    HW221666   0.650   3.807   8.937  2.3564  1.0228 -2.3263
 3344SOL     OW21667   1.848   0.390   2.376  0.0536  0.0153  0.3840
 3344SOL    HW121668   1.884   0.422   2.459  1.1061 -1.5194  0.5067
 3344SOL    HW221669   1.754   0.407   2.387  0.1265 -1.1455  2.8557
 3345SOL     OW21670   0.320   4.642   9.615 -0.9097  0.0184  0.4248
 3345SOL    HW121671   0.279   4.728   9.606  2.3522  1.4907 -0.3652
 3345SOL    HW221672   0.318   4.618   9.522  0.0769 -0.4116  0.5154
 3346SOL     OW21673   0.215   1.748  15.362  0.1882 -0.0782  0.5241
 3346SOL    HW121674   0.152   1.806  15.405  0.3045  0.9730 -0.7223
 3346SOL    HW221675   0.279   1.815  15.340  0.9477 -0.4364  1.6424
 3347SOL     OW21676   0.412   0.774   2.802  0.4556 -0.1704 -0.1435
 3347SOL    HW121677   0.383   0.693   2.845 -0.4320  1.5437  2.5046
 3347SOL    HW221678   0.484   0.797   2.862  1.0235 -2.2285 -0.0222
 3348SOL     OW21679   2.635   1.611   7.136  0.4184 -0.3637 -0.2986
 3348SOL    HW121680   2.577   1.547   7.095 -2.5781  1.4857  1.0892
 3348SOL    HW221681   2.667   1.564   7.213  0.5552 -1.9533 -1.3167
 3349SOL     OW21682   1.545   4.141  14.356  0.1821 -0.0532 -0.0890
 3349SOL    HW121683   1.607   4.068  14.355 -0.7412 -0.8318  0.0241
 3349SOL    HW221684   1.593   4.210  14.402  0.7116 -0.8713  0.5721
 3350SOL     OW21685   3.481   2.796   3.574  0.1889  0.0560 -0.2657
 3350SOL    HW121686   3.475   2.891   3.572  3.6416  0.2452 -1.1540
 3350SOL    HW221687   3.566   2.780   3.613 -0.4102  0.1166  1.0560
 3351SOL     OW21688   0.397   2.148  10.739 -0.0070 -0.4748  0.3206
 3351SOL    HW121689   0.311   2.113  10.763 -0.1579 -1.0492 -1.0206
 3351SOL    HW221690   0.451   2.126  10.815 -1.1193 -2.0104  0.6539
 3352SOL     OW21691   1.260   3.394  10.500 -0.5418  0.0289  0.1710
 3352SOL    HW121692   1.165   3.391  10.509 -0.2886 -2.2018  2.2348
 3352SOL    HW221693   1.287   3.343  10.576  2.0655  0.4543 -0.4452
 3353SOL     OW21694   0.962   3.064   9.449 -0.4878 -0.2827 -0.0461
 3353SOL    HW121695   1.050   3.035   9.472 -0.0333  0.2060 -1.1340
 3353SOL    HW221696   0.953   3.151   9.488 -2.6406 -0.2921 -0.5158
 3354SOL     OW21697   3.640   0.571   0.552 -0.0303  0.0978 -0.0101
 3354SOL    HW121698   3.733   0.552   0.562 -0.3721 -2.1226 -1.2057
 3354SOL    HW221699   3.630   0.660   0.586  0.9135  1.0279 -2.1716
 3355SOL     OW21700   1.383   2.133   8.706 -0.9025  0.8183 -0.0677
 3355SOL    HW121701   1.339   2.218   8.702 -2.4442 -0.0043 -0.5280
 3355SOL    HW221702   1.462   2.163   8.751  0.5133 -1.1506 -1.2001
 3356SOL     OW21703   3.800   4.084   8.146 -0.2597 -0.0515  0.6873
 3356SOL    HW121704   3.789   4.090   8.051  0.1405  0.1921  0.6571
 3356SOL    HW221705   3.882   4.132   8.160  0.2284 -0.4702 -0.7392
 3357SOL     OW21706   3.078   2.773  17.013 -0.0950 -0.3513  0.1965
 3357SOL    HW121707   3.003   2.714  17.004 -0.8266  0.4365  1.1235
 3357SOL    HW221708   3.043   2.833  17.079 -0.6508 -0.6695  0.1879
 3358SOL     OW21709   4.691   3.991   3.224 -0.3381  0.3835 -0.0338
 3358SOL    HW121710   4.673   4.084   3.237 -2.2840  0.0103 -0.0822
 3358SOL    HW221711   4.733   3.985   3.139 -3.2471  1.2373 -1.5142
 3359SOL     OW21712   2.797   3.377   4.939  0.4667  0.0674  0.4801
 3359SOL    HW121713   2.734   3.325   4.990  2.6024 -1.1431  1.8457
 3359SOL    HW221714   2.880   3.352   4.978 -0.3162  0.1991  2.2407
 3360SOL     OW21715   2.793   1.941   6.620  0.1659  0.2868 -0.0105
 3360SOL    HW121716   2.873   1.947   6.672 -0.6018 -1.6545  1.3963
 3360SOL    HW221717   2.730   1.949   6.691  0.9911  2.5296  0.4642
 3361SOL     OW21718   0.413   0.569   8.765  0.3451  0.1526 -0.4587
 3361SOL    HW121719   0.453   0.654   8.780  1.3025 -0.2087 -0.9898
 3361SOL    HW221720   0.483   0.513   8.798  0.4268  0.1673 -0.6091
 3362SOL     OW21721   0.181   2.371   8.987  0.5070 -0.0748  0.6325
 3362SOL    HW121722   0.247   2.391   9.053  3.7222 -3.2061 -1.6851
 3362SOL    HW221723   0.224   2.317   8.921  1.6366  0.9460  0.5272
 3363SOL     OW21724   2.906   3.359   3.347 -0.1055 -0.6020  0.3491
 3363SOL    HW121725   2.955   3.406   3.415 -0.2082 -1.8190  1.2648
 3363SOL    HW221726   2.817   3.395   3.351  0.8353  1.8533 -1.0919
 3364SOL     OW21727   1.998   1.523   8.819 -0.2956 -0.0187 -0.3289
 3364SOL    HW121728   2.084   1.564   8.823 -0.3497  0.1227 -0.5985
 3364SOL    HW221729   2.032   1.437   8.841 -1.1065 -0.5633 -1.2026
 3365SOL     OW21730   3.841   0.281   8.646  0.3437  0.2576 -0.5389
 3365SOL    HW121731   3.819   0.284   8.553  1.4975 -2.2522 -0.8741
 3365SOL    HW221732   3.816   0.368   8.680 -1.4937 -0.7343  0.6407
 3366SOL     OW21733   1.900   1.145   5.335  0.0475  0.3301  0.2720
 3366SOL    HW121734   1.870   1.064   5.294 -1.0932  1.8151 -1.8716
 3366SOL    HW221735   1.871   1.199   5.261  0.1981  1.3218  0.9503
 3367SOL     OW21736   0.519   4.497   7.178  0.0173 -0.1524 -0.2226
 3367SOL    HW121737   0.529   4.584   7.141  1.1164 -0.2581 -0.1833
 3367SOL    HW221738   0.426   4.477   7.181  0.0319 -0.0522  0.8450
 3368SOL     OW21739   0.171   2.094   1.475  0.0149  0.0233  0.6438
 3368SOL    HW121740   0.178   2.084   1.380 -2.8625 -3.1652  0.7640
 3368SOL    HW221741   0.076   2.100   1.487 -0.0844  3.2048 -1.9315
 3369SOL     OW21742   1.065   0.683  12.022  0.2117 -1.1100  0.6773
 3369SOL    HW121743   1.047   0.594  11.992 -3.5472 -0.2725  0.4487
 3369SOL    HW221744   1.123   0.661  12.095  1.3641  0.4944  0.2412
 3370SOL     OW21745   1.121   0.710  16.986  0.2821 -0.0511 -0.3343
 3370SOL    HW121746   1.211   0.739  16.973 -0.2320  0.9694 -1.5935
 3370SOL    HW221747   1.122   0.626  16.940  2.0800 -1.0007  1.3815
 3371SOL     OW21748   0.488   0.326   7.594  0.5009  0.2231  0.3572
 3371SOL    HW121749   0.400   0.290   7.604  0.5383  0.3008  0.9513
 3371SOL    HW221750   0.469   0.409   7.550  0.5584  0.2672  0.4158
 3372SOL     OW21751   2.361   0.971   1.486 -0.4734  0.5574  0.0488
 3372SOL    HW121752   2.454   0.994   1.490 -0.4586  0.2526  1.3731
 3372SOL    HW221753   2.321   1.045   1.532  0.8114  1.0032  0.4361
 3373SOL     OW21754   1.206   4.346   9.690 -0.2069  0.6018 -0.1115
 3373SOL    HW121755   1.238   4.428   9.653 -1.3436  1.1941  0.2293
 3373SOL    HW221756   1.176   4.301   9.611 -0.2598  0.2777  0.0929
 3374SOL     OW21757   1.341   2.413   9.475 -0.0222 -0.2720  0.1363
 3374SOL    HW121758   1.263   2.357   9.477  0.5636 -1.0692  0.2051
 3374SOL    HW221759   1.414   2.352   9.473 -1.7249 -2.3570  2.1276
 3375SOL     OW21760   1.442   4.596   5.203 -0.0245 -0.1418 -0.3872
 3375SOL    HW121761   1.477   4.513   5.170  0.5682 -1.4543  3.6390
 3375SOL    HW221762   1.454   4.646   5.122 -0.6342  1.6475  0.6233
 3376SOL     OW21763   2.390   0.563   1.229 -0.3307  0.2216  0.1954
 3376SOL    HW121764   2.313   0.550   1.284 -0.8618 -2.1363 -1.1382
 3376SOL    HW221765   2.349   0.571   1.143  0.6317  1.9782 -0.1010
 3377SOL     OW21766   0.028   1.264   8.345  0.3202 -0.2328 -0.0985
 3377SOL    HW121767   0.005   1.337   8.402 -0.2351 -0.6392  0.1976
 3377SOL    HW221768   0.122   1.279   8.335  0.0007  1.2832 -0.7563
 3378SOL     OW21769   1.594   4.146   6.033 -0.2422 -0.3176  0.1161
 3378SOL    HW121770   1.541   4.125   6.109  0.1744 -1.3972  0.1109
 3378SOL    HW221771   1.683   4.134   6.068  0.0118  4.1568  0.9636
 3379SOL     OW21772   2.944   4.368   4.461  0.7081 -0.4898  0.0764
 3379SOL    HW121773   2.897   4.364   4.379 -0.4307 -2.7322  0.8441
 3379SOL    HW221774   3.011   4.432   4.435 -0.5637  0.1877 -1.4739
 3380SOL     OW21775   1.675   1.021   1.065  0.1945 -0.0779 -0.0921
 3380SOL    HW121776   1.679   0.953   0.998  3.7163  0.2049 -0.1594
 3380SOL    HW221777   1.606   0.988   1.123  0.3528  1.1763  0.8139
 3381SOL     OW21778   0.626   3.793   4.445  0.5307  0.4568 -0.0900
 3381SOL    HW121779   0.563   3.863   4.462  0.1774 -0.1563  1.1279
 3381SOL    HW221780   0.707   3.842   4.456  0.1035  0.9404  0.9243
 3382SOL     OW21781   4.354   1.186   7.507  0.0549 -0.1626  0.0254
 3382SOL    HW121782   4.407   1.130   7.564 -0.8602  1.1565  2.1838
 3382SOL    HW221783   4.320   1.250   7.570 -1.0799 -2.4248  1.7240
 3383SOL     OW21784   2.175   3.426   3.325  0.5756 -0.3068 -0.3455
 3383SOL    HW121785   2.160   3.341   3.365  2.2664  0.5753  2.2329
 3383SOL    HW221786   2.096   3.478   3.340  1.0532 -0.1707  1.7576
 3384SOL     OW21787   0.017   3.453   3.342  0.0544 -0.4215 -0.0824
 3384SOL    HW121788   4.703   3.517   3.293  0.8577  0.1719 -0.1583
 3384SOL    HW221789   0.011   3.489   3.430  0.7194 -1.4650  0.3862
 3385SOL     OW21790   3.495   1.031   2.255 -0.0686  0.1600 -0.2197
 3385SOL    HW121791   3.530   1.074   2.333 -1.3117  1.0800 -0.1537
 3385SOL    HW221792   3.522   0.939   2.262  1.5808  0.9603  3.7163
 3386SOL     OW21793   1.118   3.218  15.937  0.1251 -0.1322  0.2488
 3386SOL    HW121794   1.114   3.237  16.031  0.4551  0.0279  0.2331
 3386SOL    HW221795   1.212   3.201  15.933 -0.2235 -1.8238 -0.4436
 3387SOL     OW21796   1.060   0.486   3.013  0.4065 -0.2680  0.6110
 3387SOL    HW121797   0.996   0.447   2.954 -0.9198 -1.0147  2.5527
 3387SOL    HW221798   1.143   0.454   2.976 -0.2256 -0.5775 -0.5213
 3388SOL     OW21799   3.061   1.740   3.195  0.1754  0.4032 -0.0526
 3388SOL    HW121800   3.058   1.815   3.135  2.7132 -0.4526 -1.2416
 3388SOL    HW221801   3.127   1.681   3.159 -0.4248  0.4872 -1.2911
 3389SOL     OW21802   2.768   0.799   3.027  0.4086 -0.5942 -0.3752
 3389SOL    HW121803   2.863   0.805   3.029  0.3897 -1.2680  2.1767
 3389SOL    HW221804   2.758   0.750   3.109 -0.4817  0.3239  0.0676
 3390SOL     OW21805   4.367   3.155   4.016  0.2934  0.1857 -0.2731
 3390SOL    HW121806   4.302   3.188   4.079 -0.5562 -1.2737 -0.3866
 3390SOL    HW221807   4.387   3.071   4.058 -0.6185 -0.1633 -0.5316
 3391SOL     OW21808   3.401   2.255   4.071  0.1285 -0.1034 -0.0320
 3391SOL    HW121809   3.402   2.342   4.113 -1.0822  0.6553 -1.5694
 3391SOL    HW221810   3.313   2.224   4.091 -0.3007  0.5746 -0.8256
 3392SOL     OW21811   4.480   0.053   8.793  0.5217  0.4410  0.8250
 3392SOL    HW121812   4.497   0.145   8.812  1.7522  0.5178 -0.6455
 3392SOL    HW221813   4.445   0.056   8.704 -0.4723  1.2877  1.2493
 3393SOL     OW21814   1.560   4.273   9.925 -0.1177 -0.0030  0.0360
 3393SOL    HW121815   1.500   4.238   9.991  1.6435  0.5029  1.9044
 3393SOL    HW221816   1.568   4.197   9.867  1.2542 -0.6451  1.0429
 3394SOL     OW21817   1.305   4.721   9.744 -0.1542 -0.3539  0.6098
 3394SOL    HW121818   1.271   4.681   9.823 -0.6227 -0.9221  0.1150
 3394SOL    HW221819   1.262   4.670   9.675  1.9928 -1.3461  0.0062
 3395SOL     OW21820   3.265   2.125  14.587  0.2648 -0.7897 -0.3551
 3395SOL    HW121821   3.222   2.043  14.610  1.3436 -1.6800 -1.5292
 3395SOL    HW221822   3.263   2.109  14.492  0.6444  2.1329 -0.8640
 3396SOL     OW21823   0.158   1.128   2.031  0.0754 -0.1397 -0.0713
 3396SOL    HW121824   0.130   1.042   2.063  1.2733 -0.7163 -0.5941
 3396SOL    HW221825   0.076   1.169   2.003 -0.2942  0.3695  1.7219
 3397SOL     OW21826   1.544   1.928  10.179  0.0684 -0.2760  0.1475
 3397SOL    HW121827   1.568   1.847  10.133  1.5344  0.0384  0.3773
 3397SOL    HW221828   1.450   1.928  10.160  0.4593  1.0489 -1.7928
 3398SOL     OW21829   2.805   0.881   4.582  0.1845  0.1263 -0.3759
 3398SOL    HW121830   2.782   0.939   4.510  0.2296 -0.0966 -0.5736
 3398SOL    HW221831   2.840   0.939   4.649  0.5354  0.1506 -0.5800
 3399SOL     OW21832   4.449   2.930   6.662 -0.6009  0.0600 -0.2914
 3399SOL    HW121833   4.368   2.930   6.713 -0.7212  1.8648 -0.4576
 3399SOL    HW221834   4.478   2.839   6.658  0.3685  0.3794 -0.5296
 3400SOL     OW21835   2.091   2.443   5.753 -0.0745  0.0811 -0.2845
 3400SOL    HW121836   2.068   2.528   5.789  2.0851  0.7278 -0.4244
 3400SOL    HW221837   2.186   2.440   5.760 -0.3969  0.7786  4.7293
 3401SOL     OW21838   3.425   0.025   4.229 -0.1655 -0.2422 -0.0411
 3401SOL    HW121839   3.367   0.097   4.204 -0.0251 -1.1270 -2.9881
 3401SOL    HW221840   3.511   0.047   4.194  0.5008 -1.4089  0.8540
 3402SOL     OW21841   4.417   2.583   5.571 -0.0669 -0.5374 -0.0965
 3402SOL    HW121842   4.460   2.637   5.504 -0.5677  0.5260  0.4400
 3402SOL    HW221843   4.488   2.525   5.597  0.3761  0.6656  1.3565
 3403SOL     OW21844   2.774   0.848  10.239  0.2239  0.2043  0.0317
 3403SOL    HW121845   2.724   0.910  10.292  0.1318  0.8542 -0.8149
 3403SOL    HW221846   2.857   0.894  10.231  0.1932  0.2733  0.1110
 3404SOL     OW21847   1.425   2.376   9.170 -0.4004 -0.6969  0.1318
 3404SOL    HW121848   1.446   2.294   9.217  1.3826  0.2439  0.9677
 3404SOL    HW221849   1.364   2.351   9.101  0.1952  0.3311 -0.7485
 3405SOL     OW21850   1.725   3.162   3.686  0.5382  0.1409 -0.2775
 3405SOL    HW121851   1.736   3.222   3.759  0.9786 -1.5262  1.0421
 3405SOL    HW221852   1.677   3.218   3.625 -1.6635 -1.4375 -0.0022
 3406SOL     OW21853   1.257   3.990   5.179 -0.5311 -0.2915 -0.2857
 3406SOL    HW121854   1.217   3.906   5.159 -0.6692 -0.5020  0.8583
 3406SOL    HW221855   1.307   3.969   5.258 -0.9234 -1.4692 -0.3571
 3407SOL     OW21856   4.496   3.516  17.211 -0.2035  0.0877  0.2071
 3407SOL    HW121857   4.476   3.588  17.152 -1.4378  0.8082  1.5146
 3407SOL    HW221858   4.410   3.476  17.198  0.2601 -0.1236 -2.2047
 3408SOL     OW21859   4.152   4.513   3.693  0.7054  0.2456  0.1618
 3408SOL    HW121860   4.123   4.590   3.645 -1.3821 -0.7255 -0.1329
 3408SOL    HW221861   4.069   4.472   3.721 -0.4396  1.1048 -1.9866
 3409SOL     OW21862   4.520   4.709  16.546 -0.0557 -0.0554  0.7674
 3409SOL    HW121863   4.603   0.017  16.531 -0.8290  1.2057  0.3216
 3409SOL    HW221864   4.519   4.633  16.488  1.7538  1.2876 -1.0330
 3410SOL     OW21865   1.915   0.043   4.063 -0.3653 -0.6701  0.5312
 3410SOL    HW121866   2.006   0.048   4.095 -0.0650 -0.3583 -0.3808
 3410SOL    HW221867   1.873   0.093   4.133 -1.1341 -0.9251  0.2507
 3411SOL     OW21868   0.251   4.040   3.310 -0.4360 -0.6824  0.3951
 3411SOL    HW121869   0.186   3.999   3.254 -1.7221  3.9549 -1.5324
 3411SOL    HW221870   0.314   3.970   3.330  0.1405  0.0952  1.3327
 3412SOL     OW21871   4.723   3.368   2.877 -1.0279 -0.3700  0.3630
 3412SOL    HW121872   0.042   3.317   2.935 -0.0261  0.3416  0.0121
 3412SOL    HW221873   0.001   3.333   2.790 -0.4316  0.4863  0.1257
 3413SOL     OW21874   2.664   2.151  14.796 -0.1490 -0.1156 -0.5708
 3413SOL    HW121875   2.618   2.213  14.852  1.1506 -2.1565  2.8052
 3413SOL    HW221876   2.592   2.089  14.780 -0.8365  0.6092 -0.2863
 3414SOL     OW21877   3.255   2.160   8.546  0.2795  0.0664  0.6620
 3414SOL    HW121878   3.300   2.243   8.534 -0.7598  0.5150 -0.1508
 3414SOL    HW221879   3.323   2.099   8.574  0.9271  0.5676  0.1553
 3415SOL     OW21880   1.077   0.961  17.413  0.1047 -0.3499 -0.4622
 3415SOL    HW121881   1.102   0.946  17.504  0.2889  1.2500 -0.2476
 3415SOL    HW221882   0.993   0.915  17.404  0.4435 -1.2029  0.8205
 3416SOL     OW21883   4.682   1.923   5.619 -0.4925  0.0891  0.2134
 3416SOL    HW121884   4.682   1.849   5.558 -0.7026 -2.6257  3.5819
 3416SOL    HW221885   4.600   1.912   5.667  1.2128 -3.2574  2.2791
 3417SOL     OW21886   1.367   4.503   6.092  0.1939  0.1529  0.2934
 3417SOL    HW121887   1.363   4.456   6.008 -0.2406  0.4281  0.1663
 3417SOL    HW221888   1.297   4.474   6.149 -0.7471 -2.1463 -2.0154
 3418SOL     OW21889   3.572   0.754   8.790  0.1318 -0.5777  0.0040
 3418SOL    HW121890   3.659   0.793   8.779 -0.7108  0.8913 -1.3391
 3418SOL    HW221891   3.539   0.825   8.844 -1.7653 -2.0697  0.7903
 3419SOL     OW21892   2.959   4.211   1.990  0.1843 -0.2832 -0.1485
 3419SOL    HW121893   3.037   4.210   1.935 -0.4640  0.3403 -1.0666
 3419SOL    HW221894   2.884   4.194   1.933 -0.3146  1.2035  0.0572
 3420SOL     OW21895   0.764   0.698  15.134  0.8695 -0.4427 -0.0970
 3420SOL    HW121896   0.807   0.613  15.147  2.3129  0.3472  0.2267
 3420SOL    HW221897   0.746   0.698  15.040 -0.1761 -0.4252  0.1029
 3421SOL     OW21898   0.404   4.133   6.984  0.6686  0.2649 -0.3904
 3421SOL    HW121899   0.397   4.180   6.902  0.5212 -0.3061 -0.7045
 3421SOL    HW221900   0.335   4.171   7.039  1.4043  0.0280  0.7143
 3422SOL     OW21901   1.847   4.193   4.267  0.3545  0.2221 -0.1470
 3422SOL    HW121902   1.785   4.122   4.283  1.4662 -1.1477 -2.0795
 3422SOL    HW221903   1.906   4.175   4.340  0.1699  0.2455  0.0110
 3423SOL     OW21904   3.043   4.619   6.744  0.4389 -0.1129 -0.1349
 3423SOL    HW121905   3.122   4.603   6.796 -0.6151 -1.3044  1.1252
 3423SOL    HW221906   2.981   4.653   6.810  0.7910 -1.3530  0.8410
 3424SOL     OW21907   3.520   0.485   2.571 -0.2963  0.0601 -0.5770
 3424SOL    HW121908   3.483   0.572   2.585 -1.2403 -0.2841 -0.9320
 3424SOL    HW221909   3.525   0.468   2.665  0.6178 -0.7243 -0.7570
 3425SOL     OW21910   3.655   2.167   5.253 -0.2574 -0.1183 -0.2588
 3425SOL    HW121911   3.648   2.142   5.161 -1.5690  1.8918 -0.7076
 3425SOL    HW221912   3.663   2.261   5.235 -1.0904 -0.2217 -1.1511
 3426SOL     OW21913   0.082   3.319  10.043 -0.0741 -0.1502 -0.2168
 3426SOL    HW121914   0.160   3.295  10.094  0.5053  0.0930 -0.9704
 3426SOL    HW221915   0.088   3.265   9.964  1.1371 -0.5573  0.1490
 3427SOL     OW21916   3.370   0.975   4.970 -0.2259 -0.0542  0.4415
 3427SOL    HW121917   3.437   0.985   4.902 -0.1685 -1.5708  0.2710
 3427SOL    HW221918   3.418   0.916   5.028 -0.5774 -0.2578  0.5204
 3428SOL     OW21919   2.211   2.685   6.988  0.6924 -0.6369  1.2502
 3428SOL    HW121920   2.285   2.697   7.047  3.5851 -0.2992 -2.4637
 3428SOL    HW221921   2.241   2.611   6.935 -0.2465 -0.3807  0.3548
 3429SOL     OW21922   2.728   4.302   9.830  0.1760  0.1758  0.1522
 3429SOL    HW121923   2.677   4.310   9.910 -0.6571 -0.9831 -0.2593
 3429SOL    HW221924   2.794   4.370   9.845 -1.3400  2.4224 -3.4516
 3430SOL     OW21925   0.327   1.242   5.457 -0.1366 -0.1243 -0.1679
 3430SOL    HW121926   0.277   1.170   5.418  1.0337 -0.3977 -1.1447
 3430SOL    HW221927   0.339   1.298   5.380  1.5093 -1.0890 -0.6113
 3431SOL     OW21928   1.613   2.811   3.546 -0.2784 -0.2526  0.3836
 3431SOL    HW121929   1.708   2.812   3.538 -0.3498  1.1252 -0.3162
 3431SOL    HW221930   1.581   2.901   3.553  2.7526  0.9700 -1.7926
 3432SOL     OW21931   1.303   0.741  13.766  0.2349 -0.2158  0.2245
 3432SOL    HW121932   1.329   0.675  13.701  0.4187  0.8170 -0.7522
 3432SOL    HW221933   1.326   0.819  13.716  2.1870 -0.6973  0.3621
 3433SOL     OW21934   3.603   2.072   9.226 -0.0302 -0.0857 -0.4945
 3433SOL    HW121935   3.538   2.138   9.201  0.2952  0.6681  0.6544
 3433SOL    HW221936   3.624   2.032   9.142  1.8314 -0.6707  0.2659
 3434SOL     OW21937   2.186   2.119  13.374  0.6200  0.3658  0.1349
 3434SOL    HW121938   2.202   2.202  13.329  0.3060  0.3968  0.0792
 3434SOL    HW221939   2.225   2.144  13.458  1.3207  1.0854 -0.4047
 3435SOL     OW21940   1.071   3.345   2.441  0.0166  0.0156  0.3837
 3435SOL    HW121941   1.096   3.326   2.350  1.0515 -0.1283  0.6994
 3435SOL    HW221942   1.159   3.358   2.475  0.2595  3.4693 -1.5279
 3436SOL     OW21943   0.680   2.055   7.745  0.4625 -0.7706  0.4365
 3436SOL    HW121944   0.743   2.042   7.674  0.1220 -2.2607  0.3997
 3436SOL    HW221945   0.632   2.133   7.717 -2.1679 -2.0738  1.2973
 3437SOL     OW21946   1.871   3.826   3.255  0.0649 -0.1122 -0.0872
 3437SOL    HW121947   1.805   3.893   3.235  0.2570 -0.3336 -1.4380
 3437SOL    HW221948   1.808   3.765   3.294 -1.4457  0.9902 -0.8237
 3438SOL     OW21949   2.641   3.862   3.386 -0.3855 -0.1984  0.6208
 3438SOL    HW121950   2.663   3.824   3.301 -2.9574 -0.8661  0.2436
 3438SOL    HW221951   2.548   3.841   3.395 -0.8914  1.8307  0.1846
 3439SOL     OW21952   3.737   4.469  14.862  0.3829 -0.2747 -0.6304
 3439SOL    HW121953   3.687   4.419  14.797  1.2235 -3.1006  0.8794
 3439SOL    HW221954   3.687   4.453  14.942  1.5574 -0.3060  0.0956
 3440SOL     OW21955   0.253   1.876   7.330 -0.2789 -0.0187  0.1566
 3440SOL    HW121956   0.250   1.858   7.424  0.6164  0.7053  0.3189
 3440SOL    HW221957   0.176   1.930   7.314 -0.5564 -0.0754  1.2940
 3441SOL     OW21958   4.069   0.575   3.620 -0.1141 -0.6485 -0.4355
 3441SOL    HW121959   4.100   0.564   3.710 -0.6306 -3.1953 -0.5672
 3441SOL    HW221960   4.037   0.665   3.615  0.1909 -0.5571 -0.7109
 3442SOL     OW21961   3.965   3.776  11.406  0.5708  0.6051  0.4548
 3442SOL    HW121962   4.022   3.763  11.330  2.0057  2.3693  1.2398
 3442SOL    HW221963   3.942   3.866  11.382  0.1487  0.3048 -0.2694
 3443SOL     OW21964   2.457   0.972   8.794 -0.9636  0.0699 -0.4693
 3443SOL    HW121965   2.487   0.923   8.871 -0.2431  0.8465 -0.2566
 3443SOL    HW221966   2.372   0.929   8.782 -0.1594 -0.5188 -3.9571
 3444SOL     OW21967   4.637   4.395   2.534  0.2291  0.4286  0.1303
 3444SOL    HW121968   4.566   4.455   2.557 -1.0492 -0.2357 -2.0644
 3444SOL    HW221969   4.598   4.344   2.463 -3.0356  1.3517  1.2622
 3445SOL     OW21970   0.612   2.366  17.059  0.6847  0.1247  0.3146
 3445SOL    HW121971   0.608   2.394  17.150  0.0794 -0.9690  0.6195
 3445SOL    HW221972   0.703   2.343  17.040  0.0629 -0.5891 -1.8371
 3446SOL     OW21973   4.056   2.650   3.369 -0.0188 -0.1057 -0.0618
 3446SOL    HW121974   4.053   2.566   3.414 -1.1763 -0.2494 -0.4209
 3446SOL    HW221975   3.970   2.679   3.400  0.3736  0.2038  0.7521
 3447SOL     OW21976   1.414   3.703   4.034 -0.6390  0.0133  0.2131
 3447SOL    HW121977   1.427   3.742   4.121  0.9964 -3.1357  1.3906
 3447SOL    HW221978   1.320   3.717   4.025 -0.8349 -1.3839 -0.0250
 3448SOL     OW21979   4.279   1.346   0.656 -0.1178  0.8450  0.0680
 3448SOL    HW121980   4.339   1.272   0.652  0.2621  1.0567  1.8674
 3448SOL    HW221981   4.269   1.362   0.563 -0.6602 -2.1328 -0.3713
 3449SOL     OW21982   4.463   3.772   2.788  0.3058  0.0688  0.1463
 3449SOL    HW121983   4.529   3.841   2.780  3.1703 -2.5705  1.3147
 3449SOL    HW221984   4.505   3.693   2.755  0.4606 -0.0382  0.6056
 3450SOL     OW21985   1.153   3.098   1.641  0.0426 -0.5769  0.1718
 3450SOL    HW121986   1.241   3.111   1.676 -0.1023  0.2724  0.2115
 3450SOL    HW221987   1.140   3.005   1.662 -0.0886 -1.0577 -2.0639
 3451SOL     OW21988   1.713   3.206   5.479 -0.4369 -0.7961  0.1420
 3451SOL    HW121989   1.790   3.153   5.459  1.8337  2.5335  0.0009
 3451SOL    HW221990   1.684   3.185   5.568  1.4564  0.0420  0.9629
 3452SOL     OW21991   3.064   0.906  17.674 -0.0490  0.5022 -0.3114
 3452SOL    HW121992   3.096   0.888  17.586  0.4682  1.0753 -0.2373
 3452SOL    HW221993   2.974   0.937  17.668 -0.7190 -1.0916  1.3077
 3453SOL     OW21994   1.283   3.807   9.308  0.7022  0.2901  0.3562
 3453SOL    HW121995   1.231   3.728   9.320  1.3681 -0.2034 -0.0088
 3453SOL    HW221996   1.255   3.825   9.218  1.2961 -1.0208 -0.0862
 3454SOL     OW21997   4.004   4.348   7.796 -0.0479 -0.0741 -0.3237
 3454SOL    HW121998   4.063   4.290   7.845  0.2746  0.1072 -0.5009
 3454SOL    HW221999   3.920   4.304   7.813 -0.7297  0.7544 -1.6246
 3455SOL     OW22000   4.451   4.150   6.556 -0.1594  0.1086 -0.1738
 3455SOL    HW122001   4.441   4.070   6.505  1.8793  0.7356 -1.5454
 3455SOL    HW222002   4.392   4.128   6.629  1.7665 -1.6099  0.8474
 3456SOL     OW22003   1.711   0.437   2.783  0.4575  0.0266  0.0970
 3456SOL    HW122004   1.681   0.455   2.871 -2.7233 -0.0956 -0.9650
 3456SOL    HW222005   1.678   0.515   2.739 -1.1514 -0.2274  0.8950
 3457SOL     OW22006   2.691   2.633   0.496  0.7142  0.1917  0.0423
 3457SOL    HW122007   2.618   2.674   0.450  1.1733  1.1287  0.1403
 3457SOL    HW222008   2.658   2.544   0.496  1.3890 -0.0628 -1.2055
 3458SOL     OW22009   2.548   3.923   5.603 -0.1336 -0.4350 -0.3835
 3458SOL    HW122010   2.601   3.970   5.539 -1.7591  1.7882 -0.1091
 3458SOL    HW222011   2.619   3.892   5.658  1.0294  2.3853 -0.2818
 3459SOL     OW22012   0.721   2.723   6.885 -0.0362  0.9933  0.3546
 3459SOL    HW122013   0.678   2.779   6.950 -1.8495 -0.4371  0.3832
 3459SOL    HW222014   0.667   2.736   6.807  0.3063  0.5325  0.0393
 3460SOL     OW22015   1.494   0.334  13.124 -0.0752 -0.0072 -0.0599
 3460SOL    HW122016   1.425   0.268  13.117  1.7058 -1.8662 -0.0844
 3460SOL    HW222017   1.561   0.313  13.058  0.8825  0.7277  0.6743
 3461SOL     OW22018   4.179   3.282   8.850 -0.1203  0.2600 -0.2451
 3461SOL    HW122019   4.221   3.208   8.808 -0.2032 -1.7656  3.2142
 3461SOL    HW222020   4.118   3.316   8.785 -0.2481  0.8178  0.1598
 3462SOL     OW22021   3.823   3.138   9.217  0.0992 -0.0412  0.2440
 3462SOL    HW122022   3.802   3.145   9.124 -2.0434 -0.9532  0.6788
 3462SOL    HW222023   3.750   3.183   9.259  1.0641  0.6050  1.2467
 3463SOL     OW22024   0.145   1.633   2.960 -0.3460  0.4849 -0.3777
 3463SOL    HW122025   0.172   1.584   3.038  2.6264  0.3162 -1.5296
 3463SOL    HW222026   0.054   1.602   2.954 -0.1739 -0.3342  1.3126
 3464SOL     OW22027   0.244   3.018   5.790  0.1486  0.1287 -0.2227
 3464SOL    HW122028   0.316   3.014   5.853  0.8906  0.4638 -1.0467
 3464SOL    HW222029   0.170   2.997   5.847  3.3626 -4.0577  2.4381
 3465SOL     OW22030   4.364   0.408  11.972  0.4485  0.6842 -0.4308
 3465SOL    HW122031   4.383   0.315  11.977 -0.8533  0.5994  2.5472
 3465SOL    HW222032   4.273   0.407  12.001  0.4392 -1.3626 -0.5598
 3466SOL     OW22033   3.907   4.419   6.487  0.3479 -0.5158 -0.2343
 3466SOL    HW122034   3.954   4.450   6.564  1.4992 -0.1072 -1.0973
 3466SOL    HW222035   3.866   4.342   6.526 -1.1649 -0.0847 -0.9514
 3467SOL     OW22036   2.762   1.849  15.420  0.9170 -0.2851 -0.0450
 3467SOL    HW122037   2.691   1.893  15.465  0.3702 -0.5889 -0.6098
 3467SOL    HW222038   2.817   1.825  15.495  2.7538  0.5336 -1.1226
 3468SOL     OW22039   0.792   2.543   5.725  0.1209 -0.0596  0.5840
 3468SOL    HW122040   0.809   2.449   5.734  0.8384  0.0326  0.1064
 3468SOL    HW222041   0.696   2.544   5.734  0.1989  0.5490  1.3174
 3469SOL     OW22042   0.600   1.348   2.677  0.7356 -0.1336  0.0244
 3469SOL    HW122043   0.637   1.343   2.765 -1.3962  0.8282  0.9691
 3469SOL    HW222044   0.663   1.292   2.631  2.0837 -0.2994  2.0508
 3470SOL     OW22045   0.972   2.732   0.550 -0.0249  0.6083  0.0585
 3470SOL    HW122046   0.928   2.800   0.600  1.7341  1.9788 -0.2444
 3470SOL    HW222047   1.062   2.735   0.582 -0.4457 -1.2753  1.4214
 3471SOL     OW22048   3.986   0.985   6.003 -0.3192  0.0559  0.1199
 3471SOL    HW122049   4.021   0.937   5.928  1.6251 -0.1491  1.1518
 3471SOL    HW222050   4.018   1.076   6.004  1.4916 -0.5653 -0.8394
 3472SOL     OW22051   4.221   3.672  17.299  0.1968 -0.4754  0.5870
 3472SOL    HW122052   4.285   3.735  17.266 -1.1582  0.8158  0.4208
 3472SOL    HW222053   4.252   3.598  17.246 -1.6911 -2.7139  2.6307
 3473SOL     OW22054   1.180   1.407   9.000  0.3961 -0.4219  0.0422
 3473SOL    HW122055   1.238   1.481   9.018  1.2142 -1.3065  1.0325
 3473SOL    HW222056   1.227   1.346   8.944 -1.2588 -0.5453 -1.2186
 3474SOL     OW22057   0.197   2.836  15.716 -0.6818 -0.2235  0.4983
 3474SOL    HW122058   0.212   2.806  15.806 -3.1891 -3.3969 -0.1203
 3474SOL    HW222059   0.103   2.853  15.719 -0.5076  0.9088 -0.2755
 3475SOL     OW22060   2.302   4.022   2.456  0.2189  0.6896  0.0487
 3475SOL    HW122061   2.314   3.987   2.544  1.0199  0.9077  0.0246
 3475SOL    HW222062   2.221   3.978   2.428  0.3773  1.6597 -1.9974
 3476SOL     OW22063   2.436   4.098   6.923  0.0376  0.5417  0.0207
 3476SOL    HW122064   2.482   4.181   6.924  0.4704  0.3251 -2.7291
 3476SOL    HW222065   2.508   4.039   6.947 -2.6552 -3.4505 -1.7594
 3477SOL     OW22066   4.037   2.410   8.854  0.3558 -0.0006  0.1025
 3477SOL    HW122067   4.020   2.501   8.830 -1.3159 -0.1139  0.8404
 3477SOL    HW222068   4.130   2.391   8.843  0.6333  0.6276  1.2482
 3478SOL     OW22069   2.144   2.555   1.315  0.3618 -0.0305 -0.2651
 3478SOL    HW122070   2.179   2.466   1.306 -0.7734 -0.4344 -0.6576
 3478SOL    HW222071   2.140   2.576   1.221  0.0436  0.0494 -0.2337
 3479SOL     OW22072   1.386   0.502   5.384 -0.2091  0.1363  0.3763
 3479SOL    HW122073   1.407   0.473   5.473 -0.7789 -0.3874  0.3384
 3479SOL    HW222074   1.358   0.592   5.400  0.3570  0.3384  0.2481
 3480SOL     OW22075   1.835   3.973  15.583 -0.0964  0.3185 -0.1194
 3480SOL    HW122076   1.834   4.063  15.616 -0.1996  0.4575 -0.5011
 3480SOL    HW222077   1.742   3.952  15.589 -0.2411  1.6680  2.1843
 3481SOL     OW22078   3.641   3.974  15.281 -0.2363 -0.3624 -0.0219
 3481SOL    HW122079   3.699   3.981  15.357  2.4618  1.3825 -2.2429
 3481SOL    HW222080   3.568   4.035  15.292  0.8566  0.7729  0.8923
 3482SOL     OW22081   0.176   4.240  13.519  0.2445 -0.0047 -0.0970
 3482SOL    HW122082   0.172   4.326  13.478 -2.2401  0.4568  1.0939
 3482SOL    HW222083   0.271   4.234  13.527  0.4062 -2.6393 -4.1057
 3483SOL     OW22084   0.886   1.268   8.725 -0.1431  0.2326  0.0404
 3483SOL    HW122085   0.812   1.284   8.783  1.5432  4.1516  1.0762
 3483SOL    HW222086   0.914   1.181   8.752 -1.3649 -0.4217 -0.7893
 3484SOL     OW22087   4.197   1.652   3.944 -0.1971 -0.5081 -0.2868
 3484SOL    HW122088   4.278   1.603   3.930  0.4825  0.5580 -0.0330
 3484SOL    HW222089   4.228   1.702   4.019 -2.9154 -0.5408  0.8510
 3485SOL     OW22090   1.732   3.554   7.837 -0.1232 -0.1133 -0.3653
 3485SOL    HW122091   1.674   3.615   7.884  2.0397  1.1384  0.6862
 3485SOL    HW222092   1.820   3.585   7.861  0.0211  0.4344 -1.6265
 3486SOL     OW22093   4.595   1.066   3.881 -0.7759  0.1923 -0.6557
 3486SOL    HW122094   4.502   1.043   3.885 -0.7479  0.2586  0.3807
 3486SOL    HW222095   4.638   1.026   3.957  1.7893 -0.5484 -2.4916
 3487SOL     OW22096   3.607   1.895  11.135 -0.5389  0.0736  0.4107
 3487SOL    HW122097   3.571   1.810  11.111  0.1648  0.8874 -3.3952
 3487SOL    HW222098   3.578   1.900  11.226  1.7494 -1.3890  1.2382
 3488SOL     OW22099   2.497   4.133   7.882  0.1955  0.0609 -0.1781
 3488SOL    HW122100   2.576   4.079   7.891  0.4268  0.8285  2.4261
 3488SOL    HW222101   2.528   4.202   7.824 -3.1416  1.1165 -0.7254
 3489SOL     OW22102   3.914   0.433   5.796  0.0664  0.4517  0.0711
 3489SOL    HW122103   3.872   0.436   5.710 -0.8667  1.4579  0.5632
 3489SOL    HW222104   4.007   0.425   5.774 -0.0652  0.9094 -0.6746
 3490SOL     OW22105   2.963   2.052   2.273  0.2859  0.3529  0.1718
 3490SOL    HW122106   2.883   2.091   2.238 -1.1928 -1.0026  2.0048
 3490SOL    HW222107   3.028   2.101   2.224 -0.6782  1.1965 -0.2566
 3491SOL     OW22108   4.065   0.919   8.440  0.0145  0.2717  0.0939
 3491SOL    HW122109   4.153   0.955   8.436  0.5864 -0.5916  5.1649
 3491SOL    HW222110   4.034   0.974   8.511 -0.4093  1.6689 -1.1682
 3492SOL     OW22111   3.468   2.629   7.353 -0.1068 -0.4304 -0.3416
 3492SOL    HW122112   3.374   2.627   7.339 -0.5414  2.1493  2.1198
 3492SOL    HW222113   3.495   2.719   7.336 -1.0196 -0.0267  0.3117
 3493SOL     OW22114   1.260   3.299  12.332 -0.4265  0.5514 -0.1888
 3493SOL    HW122115   1.326   3.256  12.278 -0.7047 -1.2142  0.8970
 3493SOL    HW222116   1.311   3.352  12.393  0.2882  0.8498 -1.0435
 3494SOL     OW22117   3.144   4.452  12.113  0.1372  0.0379  0.0918
 3494SOL    HW122118   3.167   4.366  12.078  1.0201  0.2403  0.1804
 3494SOL    HW222119   3.222   4.469  12.167 -1.6289 -0.5922  2.8624
 3495SOL     OW22120   0.696   4.168   9.299 -0.3283 -0.2949 -0.0546
 3495SOL    HW122121   0.621   4.165   9.240 -0.7598  0.6695  0.4425
 3495SOL    HW222122   0.669   4.244   9.351  0.9210 -0.0094  0.1721
 3496SOL     OW22123   2.265   4.219   8.374 -0.2213  0.4189 -0.0127
 3496SOL    HW122124   2.226   4.302   8.346  2.3044  1.6461  0.1193
 3496SOL    HW222125   2.230   4.224   8.463 -0.1250 -0.3677  0.0688
 3497SOL     OW22126   2.488   0.781   7.182 -0.4441 -0.3995 -0.1115
 3497SOL    HW122127   2.480   0.685   7.181  0.9968 -0.5153  0.0961
 3497SOL    HW222128   2.397   0.802   7.162 -0.5355  0.3080  1.0678
 3498SOL     OW22129   2.836   2.992   8.034  0.8183 -0.0136 -0.1757
 3498SOL    HW122130   2.842   3.061   8.100  0.1179 -1.5100  1.4526
 3498SOL    HW222131   2.924   2.988   7.997  0.9605 -0.3996  0.2057
 3499SOL     OW22132   2.477   4.600  16.314  0.1302  0.0341  0.5382
 3499SOL    HW122133   2.447   4.603  16.405 -0.3719 -4.8977  0.5495
 3499SOL    HW222134   2.404   4.648  16.275 -1.1218 -1.4963  0.9705
 3500SOL     OW22135   2.829   3.240  13.362 -0.1279  0.4139 -0.2610
 3500SOL    HW122136   2.810   3.172  13.298 -0.7497 -1.1153  1.5367
 3500SOL    HW222137   2.863   3.193  13.438 -2.4905 -0.7347  0.1011
 3501SOL     OW22138   3.071   1.505  14.788 -0.4125  0.0488 -0.1493
 3501SOL    HW122139   3.057   1.563  14.714  2.3772 -0.6046 -1.1870
 3501SOL    HW222140   3.129   1.441  14.748 -3.0629 -1.2662 -1.8613
 3502SOL     OW22141   1.731   0.826   3.299 -0.0485  0.0409 -0.4092
 3502SOL    HW122142   1.760   0.757   3.358 -0.0478 -0.4338 -0.9745
 3502SOL    HW222143   1.644   0.794   3.274  0.7235 -0.7596 -2.0540
 3503SOL     OW22144   1.661   3.325   3.281  0.1993  0.0695 -0.7285
 3503SOL    HW122145   1.718   3.256   3.247 -0.2716 -0.5789 -0.2053
 3503SOL    HW222146   1.588   3.317   3.220 -1.4722  0.7087  1.1985
 3504SOL     OW22147   3.732   2.073   8.332  0.2072  0.1485  0.6365
 3504SOL    HW122148   3.704   2.058   8.422 -0.5657  2.9634  0.8810
 3504SOL    HW222149   3.720   1.987   8.292  1.2969  0.0327  0.5435
 3505SOL     OW22150   1.238   2.198   4.206  0.2599 -0.3025  0.1268
 3505SOL    HW122151   1.242   2.212   4.301  2.5044  3.1166 -0.4700
 3505SOL    HW222152   1.158   2.149   4.188 -0.1408  0.3574  0.1477
 3506SOL     OW22153   4.164   3.581   0.339 -0.2345  0.8606 -0.2984
 3506SOL    HW122154   4.167   3.656   0.399  2.2216  0.7605 -0.2935
 3506SOL    HW222155   4.138   3.625   0.259  0.2933  1.1448 -0.3146
 3507SOL     OW22156   2.014   2.825   6.042  0.0291 -0.2843 -0.1943
 3507SOL    HW122157   2.086   2.828   5.979  1.1691  0.1942  1.1473
 3507SOL    HW222158   2.025   2.909   6.087  0.0153 -0.4542  0.1240
 3508SOL     OW22159   0.899   3.918   6.188  0.7182  0.2118 -0.2627
 3508SOL    HW122160   0.910   3.978   6.113 -0.9328  1.1555  0.2545
 3508SOL    HW222161   0.879   3.968   6.267 -0.6226  1.0166 -1.1067
 3509SOL     OW22162   0.921   1.409  11.565  0.7441  0.3598  0.1378
 3509SOL    HW122163   0.998   1.452  11.604  0.2292  1.8659 -0.5193
 3509SOL    HW222164   0.872   1.485  11.535  1.4359  1.5305  1.9619
 3510SOL     OW22165   1.055   4.563   1.487 -0.4157  0.3649 -0.0622
 3510SOL    HW122166   0.973   4.575   1.534  0.1099  0.3474  0.8771
 3510SOL    HW222167   1.118   4.575   1.559 -1.3506 -2.0549  1.1596
 3511SOL     OW22168   2.109   2.364   3.306 -0.7259 -0.5733  0.3118
 3511SOL    HW122169   2.128   2.326   3.392  1.7852 -0.4178 -0.1585
 3511SOL    HW222170   2.027   2.407   3.332 -2.4525 -3.4595 -0.4273
 3512SOL     OW22171   2.748   2.488   5.167  0.5060  0.0758  0.0778
 3512SOL    HW122172   2.815   2.467   5.232  0.6680 -3.3428 -1.2374
 3512SOL    HW222173   2.798   2.466   5.088  0.4662 -0.5754  0.2370
 3513SOL     OW22174   3.870   1.320   9.154 -0.2318  0.3916  0.0016
 3513SOL    HW122175   3.936   1.383   9.183 -0.4925  1.9141 -2.6741
 3513SOL    HW222176   3.797   1.351   9.207  0.2313  0.1230  0.7986
 3514SOL     OW22177   4.555   4.534   9.548  0.4618 -0.4728 -0.5940
 3514SOL    HW122178   4.644   4.513   9.576 -0.0405 -1.3057  0.3793
 3514SOL    HW222179   4.546   4.621   9.587 -3.3223 -0.2365 -1.9764
 3515SOL     OW22180   4.098   2.279   5.292  0.8511 -0.1648  0.0989
 3515SOL    HW122181   4.117   2.372   5.307  0.2005  0.4345 -2.8214
 3515SOL    HW222182   4.183   2.237   5.295  0.6507 -0.4320  2.2993
 3516SOL     OW22183   1.721   1.768   2.013  0.0581 -0.3059 -0.5758
 3516SOL    HW122184   1.668   1.691   1.992 -0.3484 -0.1628 -0.0822
 3516SOL    HW222185   1.656   1.817   2.064 -0.7588 -1.3268 -0.6460
 3517SOL     OW22186   3.534   1.222  11.827 -0.2170 -0.2862  0.0289
 3517SOL    HW122187   3.569   1.137  11.799 -1.1038 -0.6070 -0.0888
 3517SOL    HW222188   3.444   1.214  11.797 -1.0829  2.0231  2.0195
 3518SOL     OW22189   2.459   0.979   2.044  0.1069  0.2149  0.0660
 3518SOL    HW122190   2.524   0.916   2.072 -0.9699 -1.1753 -0.5481
 3518SOL    HW222191   2.393   0.925   1.999 -0.7668  1.6208 -0.3612
 3519SOL     OW22192   3.625   0.743   0.033  0.2570 -0.1320 -0.5005
 3519SOL    HW122193   3.615   0.730   0.127  1.3114  1.6353 -0.1341
 3519SOL    HW222194   3.715   0.770   0.012  0.0309  0.2961 -0.9184
 3520SOL     OW22195   1.782   1.044   4.512 -0.1036 -0.7518  0.4865
 3520SOL    HW122196   1.787   1.127   4.466 -1.3476 -0.8208  0.2191
 3520SOL    HW222197   1.756   0.994   4.435  0.7677 -0.1288 -0.2029
 3521SOL     OW22198   1.288   2.257   7.361  0.2665  0.2134 -0.3386
 3521SOL    HW122199   1.355   2.274   7.428 -1.2809  3.0669  0.5117
 3521SOL    HW222200   1.227   2.201   7.408  2.1458 -0.2725  1.5556
 3522SOL     OW22201   4.496   2.882   5.550 -0.3960  0.0653 -0.3116
 3522SOL    HW122202   4.584   2.910   5.528 -0.3654  0.9865  0.9770
 3522SOL    HW222203   4.466   2.927   5.630  2.8400  1.1435  0.2900
 3523SOL     OW22204   2.322   3.369   8.336 -0.3952 -0.1206 -0.9126
 3523SOL    HW122205   2.395   3.312   8.310 -0.0225 -0.1307  0.1791
 3523SOL    HW222206   2.325   3.376   8.431  1.6223 -0.8021 -0.9276
 3524SOL     OW22207   1.459   3.956   8.755 -0.1601 -0.8719  0.1095
 3524SOL    HW122208   1.451   3.868   8.718  0.5705 -0.0529 -2.0031
 3524SOL    HW222209   1.379   3.964   8.808  0.6102 -0.1284  1.1670
 3525SOL     OW22210   2.613   1.283  13.892  0.2034 -0.4580  0.1752
 3525SOL    HW122211   2.623   1.213  13.827 -0.8596 -0.9971  0.5899
 3525SOL    HW222212   2.707   1.295  13.910  0.1591  0.1449  0.0046
 3526SOL     OW22213   1.293   0.913   1.433  0.2705  0.2235 -0.6050
 3526SOL    HW122214   1.200   0.888   1.429  0.5820 -1.4031  2.8240
 3526SOL    HW222215   1.283   1.001   1.469  2.4654 -1.1273  3.2909
 3527SOL     OW22216   3.203   0.936   4.521  0.0061  0.2073 -0.4467
 3527SOL    HW122217   3.146   1.005   4.556  1.1032  0.2653  1.2202
 3527SOL    HW222218   3.286   0.985   4.521  0.5398 -0.7147  0.1874
 3528SOL     OW22219   1.330   1.655  13.337 -0.4238  0.0841  0.2816
 3528SOL    HW122220   1.312   1.738  13.293  0.0310  0.9975  1.8355
 3528SOL    HW222221   1.270   1.679  13.407  1.1969 -0.2690  1.7970
 3529SOL     OW22222   1.439   3.386   5.870  0.1457 -0.0595 -0.2245
 3529SOL    HW122223   1.425   3.473   5.834 -0.6677  0.6943  1.8741
 3529SOL    HW222224   1.402   3.329   5.803  2.5142 -1.2982 -0.4711
 3530SOL     OW22225   2.494   2.521  14.015 -0.0946 -0.9720 -0.2871
 3530SOL    HW122226   2.432   2.448  14.005  0.4748 -1.4412 -0.4481
 3530SOL    HW222227   2.576   2.482  13.985 -2.2845 -3.4005 -3.1088
 3531SOL     OW22228   3.965   2.653  13.659 -0.4173 -0.0100 -0.6467
 3531SOL    HW122229   4.036   2.589  13.649 -0.4447 -0.4203  1.7793
 3531SOL    HW222230   4.017   2.731  13.680  0.5714 -1.3175  1.8176
 3532SOL     OW22231   4.730   3.900   9.943  0.0657 -0.0461  0.9192
 3532SOL    HW122232   0.032   3.817   9.917  0.5139  0.9351 -1.4337
 3532SOL    HW222233   4.643   3.878   9.978 -1.7180  2.5350 -1.8648
 3533SOL     OW22234   2.063   1.616   5.107  0.3106 -0.0459 -0.3017
 3533SOL    HW122235   2.090   1.621   5.016 -0.4756 -0.9970 -0.5906
 3533SOL    HW222236   2.071   1.521   5.119 -2.3157  0.0939  2.7536
 3534SOL     OW22237   3.783   1.485   6.214  0.1741  0.0991 -0.4013
 3534SOL    HW122238   3.859   1.529   6.177 -0.6441  1.2179 -0.7222
 3534SOL    HW222239   3.723   1.559   6.206  2.1172  1.6509 -0.6206
 3535SOL     OW22240   4.104   3.673   4.909 -0.7962 -0.2716  0.6090
 3535SOL    HW122241   4.148   3.620   4.975 -0.1230 -1.2630 -0.6561
 3535SOL    HW222242   4.123   3.758   4.950 -0.5717  0.4267 -0.9429
 3536SOL     OW22243   2.431   0.038   6.833 -0.5491  0.0065 -0.1465
 3536SOL    HW122244   2.522   0.009   6.828 -0.1532  1.1451  0.4330
 3536SOL    HW222245   2.388   4.692   6.850 -0.5601 -0.1325 -0.8291
 3537SOL     OW22246   0.520   4.662  15.446  0.3524 -0.1251 -0.1851
 3537SOL    HW122247   0.436   4.669  15.401  1.4170 -0.3601 -2.2187
 3537SOL    HW222248   0.573   4.681  15.369 -0.1262  0.4604 -0.3684
 3538SOL     OW22249   0.457   2.351   8.691  0.0924  0.5202  0.4797
 3538SOL    HW122250   0.535   2.295   8.690 -0.0740  0.2846  1.7169
 3538SOL    HW222251   0.476   2.413   8.620 -0.3768 -0.3102 -0.3871
 3539SOL     OW22252   1.016   1.392   5.810 -1.0364  0.0278  0.2085
 3539SOL    HW122253   0.965   1.442   5.873  0.8343  0.4193  1.4300
 3539SOL    HW222254   1.050   1.461   5.753 -0.3647 -1.9493 -1.8152
 3540SOL     OW22255   0.315   3.672   4.082  0.1302 -0.1135  0.2287
 3540SOL    HW122256   0.221   3.656   4.076  0.1205  0.3163 -0.7500
 3540SOL    HW222257   0.335   3.736   4.013 -0.7091  0.1778  0.2647
 3541SOL     OW22258   0.581   0.135  16.501 -0.1478 -0.1072 -0.6839
 3541SOL    HW122259   0.665   0.152  16.544 -0.0908 -2.7560  0.2748
 3541SOL    HW222260   0.548   0.078  16.570  1.0622 -0.2114 -0.1797
 3542SOL     OW22261   3.795   4.385   8.736  0.1022 -0.1405  0.0353
 3542SOL    HW122262   3.715   4.437   8.731 -0.5772 -1.0404  1.7337
 3542SOL    HW222263   3.759   4.297   8.748 -0.8469  0.1191 -0.9162
 3543SOL     OW22264   1.217   3.493   7.366 -0.0503  0.0661  0.2015
 3543SOL    HW122265   1.149   3.558   7.381  0.8046  0.7780  0.9554
 3543SOL    HW222266   1.271   3.534   7.299  0.1240 -0.3012  0.1169
 3544SOL     OW22267   1.778   0.751   7.300  0.0333 -0.5573 -0.7673
 3544SOL    HW122268   1.850   0.761   7.362  0.0746 -1.3783 -0.6838
 3544SOL    HW222269   1.741   0.836   7.323 -3.5808 -3.1643  3.0629
 3545SOL     OW22270   3.771   0.214  16.878 -0.1568  0.5160  0.2666
 3545SOL    HW122271   3.726   0.286  16.922  0.1577 -0.0992  1.5979
 3545SOL    HW222272   3.754   0.233  16.786 -0.3204  1.1674  0.4297
 3546SOL     OW22273   3.813   0.342   6.311  0.1318 -0.2775 -0.0540
 3546SOL    HW122274   3.741   0.377   6.259 -0.9620 -0.6140  1.2299
 3546SOL    HW222275   3.893   0.372   6.269  0.5868  0.0530  1.0264
 3547SOL     OW22276   3.389   3.741   6.445  0.1257  0.1710 -0.1289
 3547SOL    HW122277   3.412   3.651   6.425  0.1782 -0.3248  2.1467
 3547SOL    HW222278   3.312   3.758   6.390  1.6465  2.1554 -1.6499
 3548SOL     OW22279   0.815   4.587   7.216 -0.7309 -0.4530  0.3727
 3548SOL    HW122280   0.834   4.533   7.138 -0.3427  0.1439  0.0559
 3548SOL    HW222281   0.839   4.523   7.283 -0.9776 -0.6306  0.2916
 3549SOL     OW22282   2.970   0.020   7.306 -0.4609  0.6196 -0.4285
 3549SOL    HW122283   3.017   0.085   7.359 -1.4160  1.1524 -0.2298
 3549SOL    HW222284   2.946   0.078   7.234  1.8645  2.1220  0.0129
 3550SOL     OW22285   0.012   1.728   8.633  0.4678 -0.3323 -0.1088
 3550SOL    HW122286   0.011   1.759   8.724  1.2155 -2.9154  0.7902
 3550SOL    HW222287   0.030   1.813   8.593  2.1793 -0.2796  0.7869
 3551SOL     OW22288   2.254   0.415   1.729 -0.7960 -0.4592 -0.5410
 3551SOL    HW122289   2.311   0.435   1.654  1.6086 -0.2123  1.3722
 3551SOL    HW222290   2.170   0.442   1.693 -0.0901  0.3136 -1.6167
 3552SOL     OW22291   1.356   3.449   6.595 -0.5595  0.7378  0.3588
 3552SOL    HW122292   1.345   3.443   6.500  1.2093 -0.2523  0.1975
 3552SOL    HW222293   1.348   3.541   6.617 -0.4442  0.5319  1.2547
 3553SOL     OW22294   0.393   3.651   2.192 -0.0775 -0.0545  0.3459
 3553SOL    HW122295   0.483   3.645   2.224  0.2623  3.1110 -0.0591
 3553SOL    HW222296   0.403   3.659   2.098 -1.6690  2.2073  0.3720
 3554SOL     OW22297   2.715   3.534   3.742 -0.5591  0.4179  0.4901
 3554SOL    HW122298   2.712   3.451   3.790  0.2657  1.0563  1.6612
 3554SOL    HW222299   2.727   3.595   3.815  0.0782  1.6534 -0.6398
 3555SOL     OW22300   2.394   4.316   3.488  0.1430  0.3891 -0.1397
 3555SOL    HW122301   2.326   4.257   3.456 -0.4770  1.3490 -0.5758
 3555SOL    HW222302   2.471   4.261   3.474  0.1669  0.1640  0.9299
 3556SOL     OW22303   3.983   0.097   5.849  0.2455  0.0112 -0.0540
 3556SOL    HW122304   4.069   0.070   5.882  0.0627 -0.8622 -0.2762
 3556SOL    HW222305   3.956   0.151   5.923  2.0724  0.1946  0.4590
 3557SOL     OW22306   1.635   0.747   5.205 -0.0614  0.1862 -0.0150
 3557SOL    HW122307   1.631   0.654   5.185  0.5358 -0.1922  1.6389
 3557SOL    HW222308   1.542   0.762   5.218 -0.0676 -0.2144  0.3897
 3558SOL     OW22309   1.980   1.704  11.949 -0.3130  0.4654 -0.4321
 3558SOL    HW122310   1.905   1.647  11.933  0.2370  0.3070 -2.4230
 3558SOL    HW222311   2.035   1.689  11.873 -2.7819 -1.9571 -1.7227
 3559SOL     OW22312   0.209   0.031   6.398 -0.2440 -0.0741 -0.1465
 3559SOL    HW122313   0.214   4.692   6.340  2.5320  0.7944 -1.0147
 3559SOL    HW222314   0.209   0.103   6.336 -2.0897 -0.4841 -0.6355
 3560SOL     OW22315   3.557   0.926   7.387 -0.2925 -0.5332  0.0176
 3560SOL    HW122316   3.531   1.004   7.338  0.0398  0.1172  0.8842
 3560SOL    HW222317   3.638   0.950   7.431 -0.4575 -0.5048  0.3128
 3561SOL     OW22318   4.485   1.821   4.244  0.2310  0.5973 -0.9656
 3561SOL    HW122319   4.568   1.795   4.205  0.7868  1.1506 -0.1508
 3561SOL    HW222320   4.528   1.850   4.325 -2.6700 -0.9810  1.1397
 3562SOL     OW22321   4.520   0.621   1.175 -0.0782 -0.2800  0.1954
 3562SOL    HW122322   4.609   0.597   1.148 -0.1216 -0.8994  0.5944
 3562SOL    HW222323   4.526   0.717   1.174  0.2783 -0.3221 -1.6689
 3563SOL     OW22324   2.202   3.747  15.815  0.2662 -1.1376  0.4699
 3563SOL    HW122325   2.282   3.799  15.816  0.4872 -1.3819 -3.0010
 3563SOL    HW222326   2.158   3.786  15.740 -0.2286 -1.7530  0.4365
 3564SOL     OW22327   4.512   0.681   1.710 -0.1994  0.0605 -0.1053
 3564SOL    HW122328   4.429   0.692   1.662  0.7340 -1.9374 -2.1418
 3564SOL    HW222329   4.512   0.587   1.728 -0.2109 -0.2076 -1.4642
 3565SOL     OW22330   3.767   3.550   7.987  0.7612  0.1672  0.4975
 3565SOL    HW122331   3.851   3.516   8.020  0.0230 -1.2220  0.9422
 3565SOL    HW222332   3.751   3.629   8.039 -0.8796  0.5411 -0.6128
 3566SOL     OW22333   2.349   3.973   5.143 -0.1966 -0.2974  0.1875
 3566SOL    HW122334   2.433   3.963   5.188  1.1214  1.1072 -1.9466
 3566SOL    HW222335   2.290   3.966   5.218  1.5892  0.8191  1.6825
 3567SOL     OW22336   3.368   1.778   6.825 -0.0643  0.1001 -0.6471
 3567SOL    HW122337   3.277   1.786   6.794 -0.2411 -1.7120 -0.5669
 3567SOL    HW222338   3.364   1.692   6.866  0.7832 -0.0217 -0.8291
 3568SOL     OW22339   4.209   0.056   2.721  0.8597  0.2684 -0.1893
 3568SOL    HW122340   4.195   0.111   2.643 -0.2528  0.1009 -0.1050
 3568SOL    HW222341   4.151   0.098   2.785  0.8902  0.2973 -0.1807
 3569SOL     OW22342   1.540   0.058   9.642 -0.3830  0.1020 -0.1360
 3569SOL    HW122343   1.604   0.108   9.692 -0.2057  2.2257 -2.4553
 3569SOL    HW222344   1.475   0.049   9.711  0.1152 -2.2675  0.0309
 3570SOL     OW22345   2.992   2.533   2.632  0.3656  0.1578 -0.0765
 3570SOL    HW122346   3.084   2.517   2.612  0.4540 -0.6368  0.9945
 3570SOL    HW222347   2.955   2.461   2.581  0.1326 -1.0430  1.8039
 3571SOL     OW22348   0.416   0.710   7.708  0.4114  0.1788  0.3534
 3571SOL    HW122349   0.483   0.778   7.708 -0.3342  0.9028  0.1334
 3571SOL    HW222350   0.377   0.701   7.794 -2.7679  0.8754 -1.0337
 3572SOL     OW22351   0.766   3.768  15.622 -0.2225 -0.4016 -0.4048
 3572SOL    HW122352   0.729   3.765  15.534 -1.6312  1.2035  0.1428
 3572SOL    HW222353   0.843   3.720  15.592 -1.3010 -1.9574 -0.6489
 3573SOL     OW22354   0.007   0.596   6.950  0.1358 -0.1455 -0.5867
 3573SOL    HW122355   0.024   0.502   6.961  0.0668 -0.0865  0.0186
 3573SOL    HW222356   4.702   0.588   6.864  0.7215  1.8895 -1.0665
 3574SOL     OW22357   4.156   0.023  11.004 -0.4215  0.0332 -0.4423
 3574SOL    HW122358   4.062   0.035  11.000 -0.5662  0.0018  2.6468
 3574SOL    HW222359   4.169   4.726  10.915  1.0381  0.4958 -0.4052
 3575SOL     OW22360   2.226   4.173   9.070  0.2775  0.4004 -0.1240
 3575SOL    HW122361   2.185   4.118   9.137  0.5404 -0.5013 -0.7099
 3575SOL    HW222362   2.224   4.114   8.995  0.2581  0.1539  0.0702
 3576SOL     OW22363   3.053   0.114   6.427 -0.5488 -0.4374  0.2103
 3576SOL    HW122364   3.052   0.110   6.522  1.7546  0.0081  0.2535
 3576SOL    HW222365   3.022   0.025   6.409  1.6626 -1.3194  0.7957
 3577SOL     OW22366   0.542   2.151   7.178 -0.3013 -0.1102 -0.2802
 3577SOL    HW122367   0.463   2.108   7.144 -1.4485  0.4355  1.6613
 3577SOL    HW222368   0.580   2.172   7.093  0.5852 -0.1790  0.1064
 3578SOL     OW22369   0.999   1.158  11.589 -0.1422 -0.1002  0.1543
 3578SOL    HW122370   0.973   1.250  11.584  2.8748  0.7455  0.0770
 3578SOL    HW222371   1.080   1.175  11.542 -1.6320  0.4216 -2.2210
 3579SOL     OW22372   3.537   2.666   2.209 -0.4643  0.3057 -0.1499
 3579SOL    HW122373   3.447   2.689   2.182 -0.6041  0.4230  0.4256
 3579SOL    HW222374   3.518   2.593   2.268  1.6357  1.3499  1.8231
 3580SOL     OW22375   3.231   1.063   9.345 -0.1487 -0.0453  0.0844
 3580SOL    HW122376   3.203   1.155   9.348 -0.6171 -0.2248  1.5068
 3580SOL    HW222377   3.255   1.062   9.438 -1.4333  0.6341  0.4264
 3581SOL     OW22378   1.153   0.336  12.347  0.5993 -0.2028  0.2578
 3581SOL    HW122379   1.105   0.337  12.264 -1.3591 -0.8494  1.3858
 3581SOL    HW222380   1.077   0.299  12.392  0.7310 -3.8337 -2.4288
 3582SOL     OW22381   0.609   4.011   6.095  0.0977  0.0252 -0.1680
 3582SOL    HW122382   0.669   4.052   6.158 -1.4077  2.0457 -0.0432
 3582SOL    HW222383   0.675   4.023   6.027 -0.0653  0.1866 -0.2968
 3583SOL     OW22384   1.898   1.764   4.816  0.0634 -0.6883  0.1176
 3583SOL    HW122385   1.821   1.808   4.780  1.7379  0.5935 -1.8533
 3583SOL    HW222386   1.848   1.714   4.881 -1.2996  0.8886  0.2965
 3584SOL     OW22387   0.651   0.444   2.855 -0.1271  0.1784  0.0893
 3584SOL    HW122388   0.570   0.416   2.813  0.2661  0.2477 -0.7195
 3584SOL    HW222389   0.614   0.497   2.926  3.0484  1.0903  1.0910
 3585SOL     OW22390   4.101   1.164   1.561 -0.0775  0.3046  0.2222
 3585SOL    HW122391   4.026   1.117   1.596 -0.3564  1.7354  1.5563
 3585SOL    HW222392   4.057   1.223   1.500 -1.8973  0.6652  1.8652
 3586SOL     OW22393   4.066   4.496   6.910  0.0232  0.0745  0.1121
 3586SOL    HW122394   4.029   4.408   6.912 -0.7615  0.3769 -1.4440
 3586SOL    HW222395   3.987   4.529   6.867 -0.7156  0.2815  1.5990
 3587SOL     OW22396   2.632   0.391   5.801  0.3682 -0.3224 -0.0809
 3587SOL    HW122397   2.727   0.386   5.803  0.3812  0.2208  1.0049
 3587SOL    HW222398   2.615   0.433   5.886 -1.9057 -1.8367  0.2113
 3588SOL     OW22399   2.076   2.067   4.270 -0.1788 -0.1132  0.3894
 3588SOL    HW122400   2.001   2.077   4.212  1.3781 -3.3204 -2.1893
 3588SOL    HW222401   2.034   2.010   4.335  1.7588 -1.3600  0.5690
 3589SOL     OW22402   1.472   3.881   2.494  0.0764  0.2441  0.1978
 3589SOL    HW122403   1.554   3.903   2.539 -1.1825 -0.9009  3.0746
 3589SOL    HW222404   1.493   3.790   2.471 -0.1212  0.4071 -0.6132
 3590SOL     OW22405   2.943   1.961   7.320 -0.2129 -0.2948 -0.0850
 3590SOL    HW122406   2.967   1.907   7.244  0.3064 -0.6043  0.3069
 3590SOL    HW222407   3.005   1.950   7.392  0.9744  2.7449 -0.6223
 3591SOL     OW22408   4.280   3.800   1.897  0.2831  0.0465  0.0545
 3591SOL    HW122409   4.223   3.865   1.856 -0.4446 -1.0337 -0.6421
 3591SOL    HW222410   4.337   3.778   1.823 -0.7243  0.1551 -0.7344
 3592SOL     OW22411   2.519   1.203   0.006 -0.1472 -0.1564  0.0102
 3592SOL    HW122412   2.580   1.145   0.053  0.1137  1.2477  1.3981
 3592SOL    HW222413   2.500   1.152  17.675  1.8879 -0.9497  0.0191
 3593SOL     OW22414   2.257   1.074   3.006 -0.4286  0.0953 -0.5298
 3593SOL    HW122415   2.168   1.074   3.041 -0.4110 -0.6746 -0.4892
 3593SOL    HW222416   2.303   0.993   3.025 -0.7629 -0.3059 -1.4143
 3594SOL     OW22417   3.495   4.664  13.048  0.1323 -0.7050  0.2598
 3594SOL    HW122418   3.485   4.604  12.974 -0.0948 -2.0615  1.3940
 3594SOL    HW222419   3.502   0.014  13.010 -1.2263 -0.8021 -0.2375
 3595SOL     OW22420   1.447   3.504  14.807  0.4666  0.2979  0.0051
 3595SOL    HW122421   1.501   3.427  14.787 -0.1550 -0.3882  0.9236
 3595SOL    HW222422   1.492   3.556  14.873 -0.2450 -1.5627  1.9589
 3596SOL     OW22423   2.917   2.443   0.726  0.3419  0.1939 -0.3227
 3596SOL    HW122424   2.827   2.473   0.736  0.9330  1.8852 -0.1684
 3596SOL    HW222425   2.929   2.421   0.633  0.2712  1.0616 -0.5359
 3597SOL     OW22426   2.236   3.036   6.030 -0.2993 -0.3256  0.2957
 3597SOL    HW122427   2.311   3.073   5.983  0.6107 -3.0189 -0.3441
 3597SOL    HW222428   2.284   2.992   6.100  0.3205  0.2684  0.2498
 3598SOL     OW22429   3.627   3.514   8.334 -0.1736 -0.1486 -0.2397
 3598SOL    HW122430   3.659   3.511   8.244 -0.0788  2.2813 -0.2690
 3598SOL    HW222431   3.620   3.608   8.347  1.7340  0.0253 -0.4914
 3599SOL     OW22432   1.375   4.404  11.352  0.2860 -0.4913 -0.6844
 3599SOL    HW122433   1.318   4.328  11.365  0.9160 -0.9230 -0.4283
 3599SOL    HW222434   1.314   4.474  11.373  0.3575 -0.6920  0.2213
 3600SOL     OW22435   4.681   2.165   3.088 -0.4862  0.1728  0.2130
 3600SOL    HW122436   4.667   2.256   3.111  1.2013  0.5911 -0.3750
 3600SOL    HW222437   0.037   2.161   3.067 -0.4929 -0.6543  0.3093
 3601SOL     OW22438   2.757   0.848   6.395 -0.6354 -0.0424 -0.2949
 3601SOL    HW122439   2.695   0.777   6.413 -0.6434 -0.2670 -1.2004
 3601SOL    HW222440   2.697   0.922   6.401 -1.5712 -0.8878  0.6854
 3602SOL     OW22441   4.156   2.018   4.639 -0.4136 -0.2553  0.1378
 3602SOL    HW122442   4.181   1.937   4.594  0.9950 -0.4815  1.3065
 3602SOL    HW222443   4.238   2.068   4.640 -1.4188  1.3794  0.4412
 3603SOL     OW22444   3.865   2.965   4.279  0.1232  0.1625  0.2767
 3603SOL    HW122445   3.907   3.004   4.356 -0.8352 -2.3031  2.0587
 3603SOL    HW222446   3.937   2.922   4.233  2.1832  3.2284  0.6770
 3604SOL     OW22447   3.801   3.353  14.677  0.4412 -0.1069 -0.1294
 3604SOL    HW122448   3.851   3.429  14.646  3.0069 -0.9563  1.9020
 3604SOL    HW222449   3.840   3.348  14.764 -2.3597  0.4361  1.1437
 3605SOL     OW22450   4.488   0.837   6.146  0.1190 -0.4658  0.0208
 3605SOL    HW122451   4.435   0.915   6.158  1.9672  0.9005 -0.7715
 3605SOL    HW222452   4.577   0.867   6.162  0.8193 -1.4720 -2.0379
 3606SOL     OW22453   0.835   4.123  16.378  0.0193  0.0043  0.1576
 3606SOL    HW122454   0.775   4.081  16.440 -0.0003 -0.7965 -0.4125
 3606SOL    HW222455   0.909   4.062  16.376 -0.7450 -1.0028  3.1049
 3607SOL     OW22456   3.620   4.623   8.950 -0.0887 -0.2687  0.4953
 3607SOL    HW122457   3.650   4.690   9.011  1.0056  1.5401 -2.0485
 3607SOL    HW222458   3.584   4.678   8.881  1.3184 -0.4523 -0.3868
 3608SOL     OW22459   1.493   4.574   7.532  0.0550 -0.4660 -0.1573
 3608SOL    HW122460   1.434   4.515   7.579  0.8037 -0.6759  0.5021
 3608SOL    HW222461   1.459   4.578   7.443 -0.9596  0.9811  0.2816
 3609SOL     OW22462   0.555   3.464   6.029  0.0372  0.1198 -0.0740
 3609SOL    HW122463   0.478   3.512   6.000 -0.7953 -0.7550  0.6655
 3609SOL    HW222464   0.607   3.532   6.072  0.1763  0.4862 -0.8341
 3610SOL     OW22465   1.476   3.591   4.844 -0.3547  0.0830  0.2178
 3610SOL    HW122466   1.399   3.587   4.788 -1.1982 -2.5188  1.5763
 3610SOL    HW222467   1.542   3.571   4.778  0.0819  1.0363  0.3607
 3611SOL     OW22468   1.685   2.345  10.854  0.1561  0.2553  0.7202
 3611SOL    HW122469   1.719   2.296  10.928 -0.6915 -1.2976  0.0658
 3611SOL    HW222470   1.646   2.277  10.799  2.5511  0.5794 -1.4101
 3612SOL     OW22471   1.429   3.305  14.093  0.0538 -0.0310 -0.2961
 3612SOL    HW122472   1.409   3.213  14.072 -4.1732  0.7464  0.3169
 3612SOL    HW222473   1.470   3.344  14.016  0.0075  4.6688  2.0633
 3613SOL     OW22474   2.039   3.363   6.045  0.1072 -0.4616  0.0123
 3613SOL    HW122475   2.115   3.390   5.994  0.9299 -1.2481  0.8287
 3613SOL    HW222476   1.971   3.370   5.978  0.8784 -1.6276 -0.8957
 3614SOL     OW22477   3.174   2.020   2.959  0.0743 -0.4621 -0.0190
 3614SOL    HW122478   3.152   2.101   2.913  0.0858 -0.1439  0.5263
 3614SOL    HW222479   3.161   2.048   3.050  0.6505  0.5327 -0.2512
 3615SOL     OW22480   3.219   2.673  10.057  0.2498 -0.2812 -0.2044
 3615SOL    HW122481   3.222   2.580  10.036  0.9272 -0.2257 -0.3685
 3615SOL    HW222482   3.168   2.667  10.137 -0.2814 -0.3995 -0.5543
 3616SOL     OW22483   3.476   0.229   3.630  0.1397  0.1972  0.1934
 3616SOL    HW122484   3.457   0.138   3.608  0.2509  0.1548  0.2735
 3616SOL    HW222485   3.472   0.220   3.726 -1.0247 -1.3844 -0.0131
 3617SOL     OW22486   2.405   4.600   7.654  0.3361  0.0066  0.8375
 3617SOL    HW122487   2.353   4.611   7.574  0.9192 -2.3138  0.1239
 3617SOL    HW222488   2.457   4.680   7.644 -0.9399  0.5637 -1.2643
 3618SOL     OW22489   1.270   4.155  14.528  0.1833 -0.3184 -0.2577
 3618SOL    HW122490   1.302   4.181  14.442  2.2335 -0.8989  0.3336
 3618SOL    HW222491   1.189   4.109  14.503 -0.5894  0.6363  0.4896
 3619SOL     OW22492   0.710   1.022  16.899 -0.3367  0.0188  0.5112
 3619SOL    HW122493   0.787   0.966  16.888 -0.4990 -0.1186  0.1003
 3619SOL    HW222494   0.753   1.090  16.951 -0.8338  1.0011 -0.3553
 3620SOL     OW22495   0.351   0.047   4.210  0.6878  0.2745  0.0514
 3620SOL    HW122496   0.413   0.072   4.142  1.4390  1.1765  1.0658
 3620SOL    HW222497   0.349   0.119   4.273 -1.7502 -0.2388  0.5457
 3621SOL     OW22498   3.292   0.274   7.313 -0.3564  0.2389  0.2365
 3621SOL    HW122499   3.363   0.220   7.346 -0.8725 -0.0643  0.8648
 3621SOL    HW222500   3.312   0.271   7.220 -0.0926 -0.1093  0.3059
 3622SOL     OW22501   4.638   1.363  16.443  0.3558 -0.1121 -0.5258
 3622SOL    HW122502   4.636   1.375  16.348  0.1131  1.5640 -0.3043
 3622SOL    HW222503   4.665   1.271  16.450 -1.5516 -0.5760  0.7847
 3623SOL     OW22504   2.777   3.790  12.754  0.3557  0.1223  0.0841
 3623SOL    HW122505   2.720   3.713  12.747  0.3254  0.3378 -2.0349
 3623SOL    HW222506   2.863   3.753  12.737 -0.4717 -1.2208 -1.1615
 3624SOL     OW22507   0.226   4.340   2.584  0.2270 -0.1096 -0.0531
 3624SOL    HW122508   0.291   4.337   2.513 -1.0156  2.0897 -1.2759
 3624SOL    HW222509   0.143   4.352   2.538  0.2760 -2.6966 -0.8157
 3625SOL     OW22510   1.718   4.575  12.438  0.2507  0.0362 -0.7073
 3625SOL    HW122511   1.677   4.488  12.442 -0.1604  0.3179  1.2633
 3625SOL    HW222512   1.759   4.570  12.352  1.6516 -1.8699  0.0866
 3626SOL     OW22513   3.099   1.894  11.640 -0.1650 -0.6433 -0.0643
 3626SOL    HW122514   3.040   1.848  11.580  0.4174  0.0187 -1.1472
 3626SOL    HW222515   3.122   1.973  11.590 -0.4117 -1.7572 -1.9608
 3627SOL     OW22516   2.058   2.483   4.231 -0.0059 -0.2511 -0.3482
 3627SOL    HW122517   2.053   2.424   4.307 -1.5490 -1.6160 -1.5160
 3627SOL    HW222518   2.001   2.441   4.167 -0.6680 -0.1113  0.1448
 3628SOL     OW22519   3.493   3.781   8.697  0.2895 -0.2632 -0.5057
 3628SOL    HW122520   3.551   3.849   8.730 -0.7396  0.1479  0.4583
 3628SOL    HW222521   3.412   3.802   8.744  0.8501  0.8964 -0.0606
 3629SOL     OW22522   4.480   2.183   4.837 -0.4763  0.1516  0.0709
 3629SOL    HW122523   4.546   2.196   4.905 -1.2744 -0.9916  1.0736
 3629SOL    HW222524   4.421   2.252   4.865  0.7237  1.5736 -0.8971
 3630SOL     OW22525   4.004   4.175   8.696 -0.1348  0.0173  0.1228
 3630SOL    HW122526   3.977   4.251   8.646  1.4316  0.0197 -0.7320
 3630SOL    HW222527   4.012   4.223   8.779 -2.3107  2.2889 -0.9919
 3631SOL     OW22528   4.461   4.507  15.153 -0.7991 -0.5049 -0.0757
 3631SOL    HW122529   4.446   4.598  15.125 -2.0476 -0.3641  1.0616
 3631SOL    HW222530   4.371   4.479  15.172 -0.7245 -1.4486 -1.0851
 3632SOL     OW22531   1.674   4.715  12.009 -0.0255  0.5003 -0.3105
 3632SOL    HW122532   1.621   0.057  12.016  1.0899  1.3392 -1.4541
 3632SOL    HW222533   1.659   4.679  11.921 -3.1510  3.3567 -0.9286
 3633SOL     OW22534   2.458   1.212   6.725  0.2440  0.4715 -0.3849
 3633SOL    HW122535   2.372   1.175   6.747  0.4107  0.0027 -0.5370
 3633SOL    HW222536   2.424   1.282   6.669 -0.9540  0.4262  0.2873
 3634SOL     OW22537   4.096   4.205   6.395 -0.1581  0.1706  0.4752
 3634SOL    HW122538   4.097   4.238   6.305 -1.2986  0.6405  0.6385
 3634SOL    HW222539   4.108   4.281   6.452  0.1487 -0.9040  1.8414
 3635SOL     OW22540   1.946   1.436   3.923 -0.3074 -0.3527 -0.1822
 3635SOL    HW122541   2.008   1.380   3.969 -0.9430 -1.0133 -0.1367
 3635SOL    HW222542   1.901   1.474   3.998  2.1367 -1.5745  1.8896
 3636SOL     OW22543   1.021   2.628   6.390 -0.1589  0.0511  0.0538
 3636SOL    HW122544   0.995   2.693   6.325 -2.2921 -0.0066  0.8583
 3636SOL    HW222545   1.041   2.556   6.331  0.4055  0.2275  0.0266
 3637SOL     OW22546   4.027   2.167   4.442  0.3453  0.1814 -0.0433
 3637SOL    HW122547   4.048   2.108   4.514  0.2383 -0.1366 -0.2737
 3637SOL    HW222548   4.100   2.229   4.454  0.1630  0.5732 -0.9007
 3638SOL     OW22549   2.154   2.020   1.816  0.0628 -0.3473 -0.4398
 3638SOL    HW122550   2.080   2.014   1.876  1.4356  0.3312  1.3095
 3638SOL    HW222551   2.223   1.968   1.855 -0.8097 -1.0274  0.1799
 3639SOL     OW22552   3.582   0.675   6.544 -0.0417  0.2941  0.4996
 3639SOL    HW122553   3.584   0.637   6.632 -1.1371 -1.3762 -0.2226
 3639SOL    HW222554   3.659   0.732   6.546 -0.9822  1.5455  0.9740
 3640SOL     OW22555   4.610   4.531  14.536  0.2212 -0.5655 -0.3015
 3640SOL    HW122556   4.693   4.559  14.574  0.8701 -0.5781 -1.7155
 3640SOL    HW222557   4.635   4.505  14.447  2.9573  0.1489  0.2571
 3641SOL     OW22558   0.608   3.981   2.103  0.8948  0.0202 -0.3906
 3641SOL    HW122559   0.541   3.913   2.115  1.7485 -0.2817  2.6117
 3641SOL    HW222560   0.570   4.052   2.156  2.8173  0.0399  0.9485
 3642SOL     OW22561   1.315   0.379   9.049 -0.0519  0.3021  0.7804
 3642SOL    HW122562   1.239   0.320   9.057  0.1751 -0.2480 -1.1792
 3642SOL    HW222563   1.374   0.333   9.108  0.6426 -1.2180 -1.1212
 3643SOL     OW22564   3.141   1.094  12.903  0.1014  0.3442  0.4408
 3643SOL    HW122565   3.103   1.182  12.898  0.3285  0.4846  1.1347
 3643SOL    HW222566   3.208   1.105  12.836  0.7862  2.1322  1.4102
 3644SOL     OW22567   2.650   3.371   7.714 -0.3935 -0.2522 -0.3521
 3644SOL    HW122568   2.743   3.362   7.731 -0.7848 -0.0999  1.8585
 3644SOL    HW222569   2.644   3.463   7.688  0.1739 -0.0959  0.0810
 3645SOL     OW22570   3.455   3.918   9.979  0.3508 -1.0310 -0.1590
 3645SOL    HW122571   3.446   3.934  10.073  1.9932 -2.8410  0.3184
 3645SOL    HW222572   3.522   3.850   9.982  1.5801  0.1548 -1.1212
 3646SOL     OW22573   2.127   0.212   7.439 -0.7903 -0.4258  0.7758
 3646SOL    HW122574   2.196   0.278   7.451 -0.1154 -1.2525  1.5083
 3646SOL    HW222575   2.060   0.222   7.506 -1.5127 -0.5669  0.0734
 3647SOL     OW22576   2.490   3.026   2.849  0.3151 -0.3999  0.4177
 3647SOL    HW122577   2.448   3.069   2.923  2.5745  2.6877 -0.0416
 3647SOL    HW222578   2.578   3.030   2.886  0.3929  0.0154  0.1936
 3648SOL     OW22579   3.954   1.945  12.212  0.4588  0.1303  0.3874
 3648SOL    HW122580   3.941   1.969  12.120 -1.4767  0.2053  0.6699
 3648SOL    HW222581   3.959   2.033  12.251  2.5143  0.1374  0.0829
 3649SOL     OW22582   2.454   1.655   8.382 -0.5370  0.3945  0.0250
 3649SOL    HW122583   2.405   1.586   8.338 -1.7875  0.7789  0.8084
 3649SOL    HW222584   2.403   1.654   8.464 -0.8409 -1.4223 -0.1922
 3650SOL     OW22585   3.843   0.344   5.174 -0.3103 -0.0522 -0.7841
 3650SOL    HW122586   3.785   0.395   5.118 -1.9366 -2.6817 -1.4790
 3650SOL    HW222587   3.814   0.256   5.150  2.6794 -0.6758 -2.2182
 3651SOL     OW22588   2.664   2.136   9.728 -0.4762  0.0615 -0.0998
 3651SOL    HW122589   2.608   2.064   9.698  0.5636 -1.6219  2.0549
 3651SOL    HW222590   2.688   2.167   9.640  0.0133  0.8126  0.3034
 3652SOL     OW22591   4.225   0.502   2.562 -0.4042  0.6484 -0.0909
 3652SOL    HW122592   4.148   0.539   2.606 -0.3815  0.6697 -0.0693
 3652SOL    HW222593   4.259   0.443   2.629 -1.7165  0.0896  0.0856
 3653SOL     OW22594   4.201   2.642   8.971  0.2394  0.6664 -0.1065
 3653SOL    HW122595   4.253   2.571   8.933 -0.5743 -0.4579  0.8707
 3653SOL    HW222596   4.183   2.609   9.059  1.3065 -0.0997 -0.1742
 3654SOL     OW22597   4.442   0.693  14.829  0.3574  0.2372 -0.1427
 3654SOL    HW122598   4.360   0.681  14.781  0.9951  2.4950 -1.8266
 3654SOL    HW222599   4.440   0.788  14.838 -0.2238  0.2657 -0.5835
 3655SOL     OW22600   0.295   3.378  15.355 -0.0514  0.5283 -0.6022
 3655SOL    HW122601   0.358   3.328  15.406 -0.6174  1.2210  0.7594
 3655SOL    HW222602   0.220   3.320  15.362 -1.1021  2.1655  1.4090
 3656SOL     OW22603   1.484   0.240   4.792  0.2729  0.6014 -0.1081
 3656SOL    HW122604   1.466   0.252   4.698  0.0714 -0.4251 -0.2030
 3656SOL    HW222605   1.528   0.322   4.814 -1.3030  1.0003  1.5099
 3657SOL     OW22606   0.854   0.645  17.602  0.0672  0.0316 -0.1215
 3657SOL    HW122607   0.866   0.715  17.537 -1.0607  1.7390  1.5231
 3657SOL    HW222608   0.914   0.577  17.571  0.8717  0.1964  1.0994
 3658SOL     OW22609   2.807   1.681   2.246 -0.0485 -0.4531 -0.4958
 3658SOL    HW122610   2.739   1.746   2.263 -0.0122 -0.8525  1.2096
 3658SOL    HW222611   2.751   1.611   2.279 -0.1824 -1.9748 -3.9575
 3659SOL     OW22612   0.182   2.810   2.954 -0.5658  0.0126  0.0778
 3659SOL    HW122613   0.129   2.852   2.886  0.2293 -0.5071 -0.8826
 3659SOL    HW222614   0.208   2.725   2.917  0.3492  1.0539 -1.6895
 3660SOL     OW22615   1.607   1.260   9.662 -0.3046 -0.0776  0.2799
 3660SOL    HW122616   1.576   1.187   9.715  0.0726 -1.8759 -1.9748
 3660SOL    HW222617   1.641   1.212   9.586 -1.6240  1.6417 -1.4009
 3661SOL     OW22618   3.857   3.310  12.736 -0.6810  0.5665 -0.1634
 3661SOL    HW122619   3.908   3.230  12.737 -0.3971  0.7077 -3.1984
 3661SOL    HW222620   3.782   3.291  12.679  0.2130  0.0050 -1.1449
 3662SOL     OW22621   4.364   4.582   3.867  0.3925  0.2953  0.0025
 3662SOL    HW122622   4.316   4.538   3.937 -1.4079 -0.5346 -1.7575
 3662SOL    HW222623   4.288   4.585   3.809  2.4713  3.1774 -2.5678
 3663SOL     OW22624   1.256   2.391  13.274 -0.2386 -0.3805 -0.1163
 3663SOL    HW122625   1.187   2.344  13.320 -2.3287  1.1764 -1.6352
 3663SOL    HW222626   1.304   2.406  13.356  1.1509 -1.1858 -0.7876
 3664SOL     OW22627   0.027   3.531   3.606  0.1280  0.7482  0.0856
 3664SOL    HW122628   4.681   3.537   3.653  1.4746 -2.6173  2.9296
 3664SOL    HW222629   0.085   3.511   3.680  1.0024 -2.2037 -1.3796
 3665SOL     OW22630   4.188   0.576   0.455  0.0530 -0.0952 -0.1932
 3665SOL    HW122631   4.215   0.509   0.519 -1.6417 -1.6323 -1.1246
 3665SOL    HW222632   4.190   0.653   0.513 -1.8908  0.9652 -1.5801
 3666SOL     OW22633   0.020   3.395   2.244 -0.3918  0.1342  0.4100
 3666SOL    HW122634   4.736   3.305   2.269  2.1555 -0.2833  1.1423
 3666SOL    HW222635   4.721   3.437   2.322 -1.9896 -1.5745  0.5745
 3667SOL     OW22636   1.679   0.935  16.693 -0.2384 -0.2133 -0.6279
 3667SOL    HW122637   1.708   0.901  16.609  2.4959 -0.4229  0.3669
 3667SOL    HW222638   1.646   0.856  16.735 -1.5687  1.2104  1.0430
 3668SOL     OW22639   3.068   3.024   9.439 -0.1534  0.0788 -0.0756
 3668SOL    HW122640   3.100   2.991   9.523 -0.1290  2.0730  0.6825
 3668SOL    HW222641   3.008   3.095   9.462 -0.1855  0.4345 -1.2716
 3669SOL     OW22642   4.652   3.144   3.367 -0.0669 -0.2896 -0.0984
 3669SOL    HW122643   4.704   3.065   3.380  1.8213  0.4988 -3.0409
 3669SOL    HW222644   4.617   3.157   3.456  2.4754 -0.8103  0.9929
 3670SOL     OW22645   4.584   1.080   9.072 -0.6485  0.1707 -0.6375
 3670SOL    HW122646   4.663   1.090   9.019  0.8687 -0.5800  1.4727
 3670SOL    HW222647   4.575   0.986   9.059  0.6127 -0.1690  0.8909
 3671SOL     OW22648   3.120   0.599   5.799 -0.3855 -0.1678 -0.7308
 3671SOL    HW122649   3.166   0.580   5.717 -0.2421  1.3327 -0.9930
 3671SOL    HW222650   3.144   0.691   5.807 -0.0935 -0.5554  2.7315
 3672SOL     OW22651   3.080   3.911   9.087 -0.8648  0.3196 -0.0218
 3672SOL    HW122652   3.012   3.968   9.050  0.7182  1.5568 -1.0075
 3672SOL    HW222653   3.152   3.913   9.025 -1.6374  3.0110 -0.8312
 3673SOL     OW22654   0.028   0.089  16.476  0.3468 -0.0755 -0.7910
 3673SOL    HW122655   0.105   0.135  16.508  0.7336 -0.0786 -1.7137
 3673SOL    HW222656   0.066   0.031  16.410 -2.3089 -1.7640 -0.8766
 3674SOL     OW22657   2.478   2.770  13.906 -0.0558  0.3530 -0.1310
 3674SOL    HW122658   2.458   2.676  13.900  3.1487 -0.3683  0.4100
 3674SOL    HW222659   2.563   2.759  13.949  0.8038  2.6425 -1.2541
 3675SOL     OW22660   3.162   2.899   5.183 -0.1790 -0.1712 -0.9207
 3675SOL    HW122661   3.162   2.946   5.099  2.1769 -0.9686 -1.3545
 3675SOL    HW222662   3.070   2.905   5.210 -0.2985  0.7156 -1.5228
 3676SOL     OW22663   3.544   3.331   2.533 -0.1336  0.5519 -0.4038
 3676SOL    HW122664   3.512   3.307   2.620  3.9524  4.5196  2.2324
 3676SOL    HW222665   3.494   3.267   2.482 -0.8300 -0.0360  1.0213
 3677SOL     OW22666   3.567   2.562   5.882 -0.2523 -0.0360  0.0722
 3677SOL    HW122667   3.487   2.608   5.856 -0.8292 -0.7935  0.4862
 3677SOL    HW222668   3.541   2.472   5.860  2.5281 -1.0786  1.0732
 3678SOL     OW22669   1.341   4.031  10.369 -0.9851 -0.0453 -0.0735
 3678SOL    HW122670   1.313   3.965  10.433  0.8718  0.2387  1.0253
 3678SOL    HW222671   1.270   4.095  10.376  0.2624  1.3596 -0.2950
 3679SOL     OW22672   1.768   0.642   4.634 -0.1582 -0.0519  0.2672
 3679SOL    HW122673   1.809   0.706   4.692  1.9651 -0.2184 -1.0471
 3679SOL    HW222674   1.849   0.623   4.586  0.4895  1.0584  0.9292
 3680SOL     OW22675   3.841   2.297   8.685  0.4119  0.2285 -0.0059
 3680SOL    HW122676   3.900   2.325   8.754 -0.1260  1.7793 -0.1754
 3680SOL    HW222677   3.883   2.215   8.660 -0.1264 -0.3470  0.9666
 3681SOL     OW22678   0.670   2.489  15.409  0.0891 -0.4687  0.0102
 3681SOL    HW122679   0.620   2.552  15.356 -2.9348 -2.2823  0.6748
 3681SOL    HW222680   0.649   2.418  15.347  2.5955 -0.6594 -0.6150
 3682SOL     OW22681   1.734   2.030   7.043 -0.1380 -0.0456 -0.1215
 3682SOL    HW122682   1.674   2.011   7.115  2.0246  0.0154  1.6825
 3682SOL    HW222683   1.783   2.103   7.080 -0.0863  0.2686 -0.7956
 3683SOL     OW22684   4.048   3.772   4.044  0.3482 -0.2067 -0.3260
 3683SOL    HW122685   3.971   3.753   3.989 -0.3959  1.2654  0.2243
 3683SOL    HW222686   4.014   3.807   4.126  0.6728 -0.8347  0.0746
 3684SOL     OW22687   4.424   0.834   9.002  0.8259  0.2332  0.1028
 3684SOL    HW122688   4.347   0.815   8.948 -2.5655  1.6927  4.3106
 3684SOL    HW222689   4.401   0.793   9.086 -1.5253  0.3987 -0.4540
 3685SOL     OW22690   2.501   1.233   8.711 -0.3381 -0.1671 -0.3716
 3685SOL    HW122691   2.572   1.262   8.768 -1.6421  1.9699  0.1679
 3685SOL    HW222692   2.480   1.149   8.752 -3.3179 -0.2592 -2.0652
 3686SOL     OW22693   0.765   4.641   2.906  0.7134  0.1773 -0.0478
 3686SOL    HW122694   0.752   4.684   2.822  0.7389 -2.4511 -1.4184
 3686SOL    HW222695   0.689   4.584   2.919  1.5445 -0.9233 -0.0430
 3687SOL     OW22696   3.815   0.635   0.878 -0.1725  0.1618 -0.1522
 3687SOL    HW122697   3.843   0.673   0.961  1.8932  0.4065 -0.9432
 3687SOL    HW222698   3.732   0.597   0.905  0.0550  0.2463  0.6550
 3688SOL     OW22699   1.751   1.998  12.524  0.2966 -0.2946  0.2735
 3688SOL    HW122700   1.693   2.033  12.592  1.3454  1.8136  0.0933
 3688SOL    HW222701   1.693   1.997  12.448  0.2295 -0.8516  0.3339
 3689SOL     OW22702   3.154   2.246   7.208 -0.0994  0.0694 -0.1806
 3689SOL    HW122703   3.096   2.322   7.212  0.3814  0.4076  0.3304
 3689SOL    HW222704   3.229   2.292   7.244  0.0213 -0.1062 -0.2079
 3690SOL     OW22705   4.381   2.832   8.088  0.3138 -0.0964 -0.5628
 3690SOL    HW122706   4.337   2.875   8.161  1.0462  0.3706 -0.3960
 3690SOL    HW222707   4.293   2.813   8.057 -0.5677  0.2933  1.7235
 3691SOL     OW22708   3.717   0.093   4.523 -0.4642  0.4734 -0.1757
 3691SOL    HW122709   3.782   0.029   4.553  0.8489  2.2164  0.7666
 3691SOL    HW222710   3.647   0.037   4.491 -0.7914  0.2802  0.8832
 3692SOL     OW22711   1.822   3.474   6.419 -0.0955  0.3397  0.3692
 3692SOL    HW122712   1.828   3.432   6.505  2.4817  0.1820  0.0934
 3692SOL    HW222713   1.759   3.541   6.443  0.9522  0.9013  1.5167
 3693SOL     OW22714   3.602   1.865   8.218  0.0511 -0.3384  0.2198
 3693SOL    HW122715   3.653   1.817   8.153  0.9591  1.0073 -0.0750
 3693SOL    HW222716   3.557   1.791   8.259 -0.8446 -0.6800 -1.4094
 3694SOL     OW22717   1.180   4.406   8.215 -0.3703  0.0493  0.5644
 3694SOL    HW122718   1.203   4.315   8.234 -0.3782  0.2758  1.7079
 3694SOL    HW222719   1.245   4.420   8.147 -1.7966  0.5927 -0.6825
 3695SOL     OW22720   0.785   0.769  11.269 -0.1177  0.0665 -0.2861
 3695SOL    HW122721   0.703   0.790  11.224  0.0671 -0.0702 -0.6855
 3695SOL    HW222722   0.787   0.825  11.346 -0.5968 -0.4268  0.0756
 3696SOL     OW22723   2.770   0.863   7.963  0.2044 -0.0057 -0.0719
 3696SOL    HW122724   2.707   0.843   8.032  1.0111  2.0007  1.2529
 3696SOL    HW222725   2.804   0.775   7.949 -4.0096 -1.9910  2.2177
 3697SOL     OW22726   0.405   3.200   6.164 -0.4085  0.2284  0.5103
 3697SOL    HW122727   0.458   3.175   6.239  0.0292  2.8703  1.0749
 3697SOL    HW222728   0.462   3.259   6.115 -0.7619  0.8940  0.8937
 3698SOL     OW22729   0.490   3.111  14.372 -0.1560  0.2416  0.6020
 3698SOL    HW122730   0.527   3.099  14.460 -0.5025  1.2500  0.8854
 3698SOL    HW222731   0.548   3.182  14.343  0.1158  0.4263  1.5778
 3699SOL     OW22732   2.300   1.709   2.377  0.3357  0.2977 -0.3440
 3699SOL    HW122733   2.319   1.748   2.291  0.1404  1.1622  0.0055
 3699SOL    HW222734   2.253   1.782   2.418 -2.0044 -1.2680 -0.2680
 3700SOL     OW22735   0.302   3.181   2.868  0.0613 -0.3908  0.5185
 3700SOL    HW122736   0.220   3.154   2.908  1.0219 -1.5479  1.7140
 3700SOL    HW222737   0.314   3.272   2.895  1.9964 -0.1117 -1.2779
 3701SOL     OW22738   1.454   2.607   9.315  0.0098  0.1887  0.1820
 3701SOL    HW122739   1.452   2.547   9.240 -1.8758  1.1629 -0.5267
 3701SOL    HW222740   1.435   2.555   9.393 -0.8914 -0.6995 -0.6301
 3702SOL     OW22741   1.716   2.028   0.203 -0.2619  0.2084  0.1499
 3702SOL    HW122742   1.743   2.029   0.295  1.4111 -1.7991 -0.3189
 3702SOL    HW222743   1.638   1.973   0.210 -1.0503  1.5630  2.0267
 3703SOL     OW22744   1.175   1.423   5.346 -0.4162 -0.1919  0.1061
 3703SOL    HW122745   1.221   1.408   5.264 -2.7307  1.0206 -1.4397
 3703SOL    HW222746   1.086   1.425   5.310 -0.3364  2.9266  0.0329
 3704SOL     OW22747   3.250   1.202   6.133 -0.3460 -0.0105  0.4162
 3704SOL    HW122748   3.164   1.168   6.107  0.0528 -0.5201 -0.2324
 3704SOL    HW222749   3.233   1.243   6.218  1.4405  1.7401 -0.0759
 3705SOL     OW22750   3.813   4.007  16.428  0.3868  0.2536 -0.5149
 3705SOL    HW122751   3.846   3.919  16.447  0.4857  0.8514  2.1800
 3705SOL    HW222752   3.777   3.986  16.342 -0.7691 -1.4282  0.3588
 3706SOL     OW22753   3.870   0.725   3.230 -0.0699 -0.0275  0.1561
 3706SOL    HW122754   3.861   0.713   3.324 -2.5057 -1.4710 -0.2825
 3706SOL    HW222755   3.815   0.653   3.200  2.0917 -2.8444  2.9544
 3707SOL     OW22756   3.568   1.830   5.029  0.2884  0.5466 -0.2449
 3707SOL    HW122757   3.534   1.767   4.966  0.0954  2.4788 -2.0596
 3707SOL    HW222758   3.521   1.909   5.002  0.9031  0.9280 -0.1905
 3708SOL     OW22759   2.277   3.493   5.597  0.1344  0.0710 -0.2763
 3708SOL    HW122760   2.256   3.405   5.631 -1.5162 -0.0679 -1.6365
 3708SOL    HW222761   2.365   3.481   5.562  0.2200 -1.3037  0.3941
 3709SOL     OW22762   1.876   1.772   9.124 -0.7742  0.2800 -0.8386
 3709SOL    HW122763   1.820   1.746   9.051 -0.7245 -0.1414 -0.7292
 3709SOL    HW222764   1.903   1.859   9.096 -0.7930  1.0861  1.6383
 3710SOL     OW22765   2.082   3.236   8.271 -0.0512  0.3036  0.5726
 3710SOL    HW122766   2.173   3.263   8.286  0.5111 -1.0835 -0.3877
 3710SOL    HW222767   2.046   3.323   8.289 -0.6315  0.1536  0.1540
 3711SOL     OW22768   2.500   3.527   3.010 -0.3489 -0.1324  0.0072
 3711SOL    HW122769   2.566   3.594   2.995 -0.4006 -0.3957 -1.4420
 3711SOL    HW222770   2.449   3.565   3.081 -1.9263  3.0018 -2.8175
 3712SOL     OW22771   3.845   0.883  12.168 -0.4984  0.2556 -0.0203
 3712SOL    HW122772   3.846   0.907  12.261  1.1375 -0.9724  0.2708
 3712SOL    HW222773   3.924   0.832  12.149 -1.2633 -1.2420  0.8853
 3713SOL     OW22774   2.972   1.908   3.811  0.3793 -0.4859 -0.0025
 3713SOL    HW122775   2.998   1.970   3.743 -2.1411  1.8663  1.1491
 3713SOL    HW222776   2.878   1.893   3.802  0.2501 -0.0460  0.5409
 3714SOL     OW22777   2.217   4.466   2.144 -0.1269  0.0220  0.1347
 3714SOL    HW122778   2.181   4.521   2.073 -0.8316 -1.7686 -0.9061
 3714SOL    HW222779   2.267   4.400   2.096 -1.2009 -1.9742  1.7746
 3715SOL     OW22780   0.581   4.597   8.924 -0.2984  0.1795 -0.2309
 3715SOL    HW122781   0.594   4.556   8.838  1.7686 -1.5620  0.9317
 3715SOL    HW222782   0.554   4.521   8.974 -1.4966 -0.4744 -1.8661
 3716SOL     OW22783   1.728   2.398   2.502  0.1385 -0.1401  0.2846
 3716SOL    HW122784   1.720   2.392   2.407 -0.0117  2.3737  0.1405
 3716SOL    HW222785   1.669   2.471   2.521  0.9808  1.2991 -2.6704
 3717SOL     OW22786   1.695   3.617   8.785 -0.4106  0.2653 -0.2417
 3717SOL    HW122787   1.739   3.702   8.792 -0.5134  0.1767  1.3846
 3717SOL    HW222788   1.648   3.599   8.866 -1.0511 -2.8009 -1.2896
 3718SOL     OW22789   1.050   4.056   0.798 -0.4762 -0.3957 -0.4317
 3718SOL    HW122790   1.068   4.119   0.729 -0.6517  0.1885  0.0596
 3718SOL    HW222791   0.971   4.018   0.759 -1.7368  1.4458  0.3375
 3719SOL     OW22792   4.609   2.836   3.060  0.2841  0.0047  0.1738
 3719SOL    HW122793   4.665   2.876   3.127  0.4837 -0.7202  0.4488
 3719SOL    HW222794   4.659   2.756   3.081  0.4453  0.2022  0.5473
 3720SOL     OW22795   2.649   4.223  16.080  0.0313  0.5050  0.5028
 3720SOL    HW122796   2.740   4.251  16.066  0.2673 -1.6636 -2.3460
 3720SOL    HW222797   2.604   4.296  16.038 -0.3792  0.4028  0.7663
 3721SOL     OW22798   0.680   0.069   5.623 -0.3684  0.2002 -0.3036
 3721SOL    HW122799   0.685   0.162   5.605  1.5938  0.0519 -0.5488
 3721SOL    HW222800   0.759   0.028   5.585 -0.7179 -0.9987  0.2564
 3722SOL     OW22801   0.844   4.419   1.854  0.3237  0.3200  0.3583
 3722SOL    HW122802   0.931   4.380   1.851 -0.8072 -2.1942  0.4029
 3722SOL    HW222803   0.868   4.498   1.805  3.6867 -1.0737 -0.2200
 3723SOL     OW22804   1.545   2.437   5.400  0.5725 -0.6508  0.3553
 3723SOL    HW122805   1.599   2.421   5.478  0.9109 -2.1308 -0.1695
 3723SOL    HW222806   1.463   2.438   5.448 -1.5452  1.3188 -3.3166
 3724SOL     OW22807   0.541   4.103   4.723  0.7475 -0.2277 -0.2100
 3724SOL    HW122808   0.633   4.127   4.711  0.6603 -0.1075 -0.6276
 3724SOL    HW222809   0.523   4.080   4.632  0.1906  2.1201 -0.6669
 3725SOL     OW22810   3.067   0.925   2.341  0.2893  0.4904  0.2829
 3725SOL    HW122811   2.995   0.931   2.279 -0.8499  1.3914  1.7024
 3725SOL    HW222812   3.135   0.959   2.283 -0.8785  0.5065 -1.0649
 3726SOL     OW22813   1.326   2.496  15.939  0.1167  0.0460  0.5915
 3726SOL    HW122814   1.326   2.582  15.897  1.0462 -1.4628 -2.5000
 3726SOL    HW222815   1.232   2.479  15.931  0.6615 -3.0497  0.8276
 3727SOL     OW22816   2.335   0.058   8.069  0.7469 -0.2648 -0.5342
 3727SOL    HW122817   2.280   0.067   7.991 -1.3609 -1.3951  0.8155
 3727SOL    HW222818   2.269   0.070   8.138  0.0369 -2.1062 -0.9000
 3728SOL     OW22819   2.734   1.768   6.407  0.0964  0.2178  0.0120
 3728SOL    HW122820   2.797   1.714   6.454  2.9474  3.2650 -0.3089
 3728SOL    HW222821   2.722   1.834   6.476  1.0035 -0.4447  0.8003
 3729SOL     OW22822   0.644   2.775   1.866  0.2626  0.3240 -0.2457
 3729SOL    HW122823   0.711   2.809   1.926 -0.7930  2.4765 -0.2859
 3729SOL    HW222824   0.571   2.835   1.881  1.0964  1.4221 -0.5660
 3730SOL     OW22825   2.667   2.474   7.734  0.2289  0.2872  0.4244
 3730SOL    HW122826   2.744   2.527   7.755  0.7919 -0.0996 -0.6862
 3730SOL    HW222827   2.646   2.506   7.647 -0.4718 -1.0230  0.1143
 3731SOL     OW22828   0.379   2.081   7.515 -0.0977 -0.7358  0.0681
 3731SOL    HW122829   0.445   2.131   7.564 -0.3062  1.4354 -1.8564
 3731SOL    HW222830   0.302   2.139   7.519 -0.5222 -1.2956 -0.0332
 3732SOL     OW22831   1.197   3.758   4.289 -0.1201 -0.3724 -0.2746
 3732SOL    HW122832   1.123   3.742   4.347 -0.2440  0.3118 -0.2386
 3732SOL    HW222833   1.261   3.691   4.313  0.9969  0.3984 -1.0927
 3733SOL     OW22834   3.804   1.782  12.498  0.3226  0.4430  0.3978
 3733SOL    HW122835   3.845   1.725  12.433 -0.3258  2.3297 -1.6638
 3733SOL    HW222836   3.854   1.772  12.579 -1.2122 -0.0959  1.2803
 3734SOL     OW22837   2.012   3.268  14.245  0.1786  0.4181  0.5744
 3734SOL    HW122838   2.024   3.361  14.227 -0.0580  0.3644  0.1438
 3734SOL    HW222839   1.949   3.258  14.173 -1.1306 -0.1368  1.7791
 3735SOL     OW22840   2.545   1.324  14.300 -0.8559 -0.5994 -0.1930
 3735SOL    HW122841   2.604   1.264  14.344  0.1601  1.6113  1.4769
 3735SOL    HW222842   2.597   1.404  14.304 -3.0696  0.8746 -0.4952
 3736SOL     OW22843   3.222   0.721   7.823 -0.3565 -0.0238  0.0842
 3736SOL    HW122844   3.162   0.787   7.789 -0.2689 -0.4949 -1.0022
 3736SOL    HW222845   3.229   0.658   7.751  1.3749 -0.3826  0.5457
 3737SOL     OW22846   1.987   0.741   1.879  0.1670  0.2705 -0.1888
 3737SOL    HW122847   1.951   0.829   1.883 -0.9238 -0.1619 -0.4679
 3737SOL    HW222848   1.998   0.725   1.973 -0.9428  0.5106 -0.0176
 3738SOL     OW22849   0.305   0.744   6.928  0.3004  0.0841  0.1661
 3738SOL    HW122850   0.361   0.734   7.005  0.2199 -2.5038 -0.1146
 3738SOL    HW222851   0.263   0.830   6.939 -0.5378 -0.0642 -1.8625
 3739SOL     OW22852   1.961   3.460   8.312  0.6728  0.1630  0.3739
 3739SOL    HW122853   1.902   3.509   8.253 -1.7178 -1.8750  1.0756
 3739SOL    HW222854   1.929   3.493   8.396  0.7865  1.7491 -0.1859
 3740SOL     OW22855   4.093   2.245  15.974 -0.6555 -0.3512 -0.0077
 3740SOL    HW122856   4.135   2.162  15.997 -0.0420  0.6082  2.3838
 3740SOL    HW222857   4.015   2.238  16.030 -0.3863 -0.3198  0.3747
 3741SOL     OW22858   1.009   3.107   4.897 -0.6592  0.0651 -0.5100
 3741SOL    HW122859   1.055   3.091   4.814 -0.4831  0.7879 -0.5564
 3741SOL    HW222860   1.040   3.033   4.948 -0.1147  0.3491 -0.4246
 3742SOL     OW22861   4.505   3.350   8.297  0.0463  0.9077 -0.2241
 3742SOL    HW122862   4.538   3.264   8.272  1.7540  1.4767  0.1247
 3742SOL    HW222863   4.432   3.336   8.358 -0.4390 -2.6285 -1.6173
 3743SOL     OW22864   3.311   2.410  14.565 -0.0545  0.1324  0.3214
 3743SOL    HW122865   3.329   2.395  14.473 -3.0418 -0.6413 -0.1392
 3743SOL    HW222866   3.300   2.321  14.600  0.5107 -0.0146  0.1266
 3744SOL     OW22867   1.545   2.835   6.259 -0.1431  0.0526  0.0684
 3744SOL    HW122868   1.482   2.796   6.198  2.4240 -1.9615 -1.3452
 3744SOL    HW222869   1.612   2.766   6.254 -0.7508 -0.4840 -0.8164
 3745SOL     OW22870   4.344   2.753  15.672 -0.0683  0.8089 -0.3289
 3745SOL    HW122871   4.253   2.768  15.648 -0.7324 -0.0322  1.7069
 3745SOL    HW222872   4.372   2.708  15.592 -0.4914  1.9262 -1.1123
 3746SOL     OW22873   0.063   3.633   4.075  0.5308 -0.7268  0.0673
 3746SOL    HW122874   0.028   3.643   4.163 -2.1755 -0.0291 -1.0832
 3746SOL    HW222875   4.723   3.670   4.033 -0.2253 -1.7905  0.5182
 3747SOL     OW22876   2.342   4.118   2.185 -0.7047 -0.0800  0.5021
 3747SOL    HW122877   2.343   4.186   2.118  1.4268  0.7485  1.3585
 3747SOL    HW222878   2.435   4.130   2.208 -0.5922  0.4795 -0.2430
 3748SOL     OW22879   4.323   2.867   8.930  0.1742  0.1101 -0.2780
 3748SOL    HW122880   4.278   2.783   8.923  0.6457 -0.2924  1.4272
 3748SOL    HW222881   4.417   2.855   8.944  0.1887  0.4029 -0.1212
 3749SOL     OW22882   0.040   0.010   7.469 -0.0474  0.0855 -0.1391
 3749SOL    HW122883   4.736   0.056   7.396 -0.0643 -1.1502 -0.9133
 3749SOL    HW222884   0.035   4.656   7.443 -2.1965  0.0195  0.5545
 3750SOL     OW22885   3.377   4.222   5.300 -1.2369 -0.3615 -0.0014
 3750SOL    HW122886   3.317   4.167   5.249 -2.4990  0.8134  0.2143
 3750SOL    HW222887   3.459   4.174   5.290 -0.4844  0.4554  2.3624
 3751SOL     OW22888   4.500   0.114   1.550 -0.0594 -0.3333  0.3381
 3751SOL    HW122889   4.430   0.050   1.564  0.4193 -0.8261  0.4733
 3751SOL    HW222890   4.491   0.126   1.455  0.4949 -0.6728  0.2450
 3752SOL     OW22891   2.572   4.532   6.011 -0.1187  0.3593  0.3229
 3752SOL    HW122892   2.513   4.584   6.065 -0.6857  0.5584 -0.4897
 3752SOL    HW222893   2.537   4.443   6.015  1.6578 -0.2628  2.3643
 3753SOL     OW22894   1.742   0.808  15.058  0.6795 -0.2977 -0.4915
 3753SOL    HW122895   1.740   0.732  15.117 -0.7954  1.4734  1.7515
 3753SOL    HW222896   1.648   0.814  15.039  0.8628 -3.1019 -2.2530
 3754SOL     OW22897   0.085   0.983   4.323 -0.2625 -0.0102 -0.1811
 3754SOL    HW122898   0.122   1.066   4.293  0.7573 -0.0754  0.8944
 3754SOL    HW222899   0.160   0.946   4.371 -0.3752 -0.4633 -0.3553
 3755SOL     OW22900   0.950   2.309   5.298 -0.3430 -0.1362 -0.0157
 3755SOL    HW122901   0.950   2.404   5.305 -3.2269 -0.1596  0.0066
 3755SOL    HW222902   1.012   2.278   5.364 -0.1681 -2.7041 -1.3514
 3756SOL     OW22903   1.208   1.711   5.916  0.8816  0.6094  0.9816
 3756SOL    HW122904   1.206   1.678   6.006 -0.6649  0.6361  0.9466
 3756SOL    HW222905   1.297   1.685   5.892  0.4259 -0.4377  0.4244
 3757SOL     OW22906   3.265   3.189   5.156  0.2758 -0.0642 -0.2311
 3757SOL    HW122907   3.314   3.140   5.090  1.8248  0.3127  0.6231
 3757SOL    HW222908   3.283   3.139   5.236  2.0807  1.9438  0.6132
 3758SOL     OW22909   2.275   3.010   2.378  0.2718 -0.7773 -1.1491
 3758SOL    HW122910   2.209   3.017   2.446  0.5401  3.3181 -1.3067
 3758SOL    HW222911   2.338   3.065   2.425 -1.4529 -1.5202  2.0148
 3759SOL     OW22912   3.465   3.258  15.954 -0.5138 -0.2266  0.5588
 3759SOL    HW122913   3.404   3.304  16.012 -2.1217 -0.4151 -0.9766
 3759SOL    HW222914   3.504   3.212  16.029 -0.5333  1.3050  1.5128
 3760SOL     OW22915   4.204   3.703   8.747 -0.1846 -0.2540  0.0208
 3760SOL    HW122916   4.116   3.728   8.775 -0.4317 -0.7833 -0.2892
 3760SOL    HW222917   4.194   3.634   8.682  1.7919  0.1493 -0.7135
 3761SOL     OW22918   2.060   3.337   2.630  0.1509 -0.3241  0.1210
 3761SOL    HW122919   2.139   3.321   2.578 -0.4183  2.5135 -1.6097
 3761SOL    HW222920   2.073   3.290   2.713 -1.6194  0.5426  0.8900
 3762SOL     OW22921   2.861   4.459  14.427  0.3281 -0.6617  0.2689
 3762SOL    HW122922   2.894   4.389  14.370 -1.3205  0.1247 -1.6710
 3762SOL    HW222923   2.779   4.414  14.446 -1.3893  1.7234 -1.6061
 3763SOL     OW22924   3.302   1.749   4.656 -0.3968 -0.5359 -0.0230
 3763SOL    HW122925   3.256   1.832   4.644  0.3017 -0.1588 -0.1377
 3763SOL    HW222926   3.321   1.719   4.567  2.0440  1.3739 -0.1603
 3764SOL     OW22927   3.851   3.448   0.624 -0.8677 -0.5422  0.3876
 3764SOL    HW122928   3.923   3.483   0.571  0.6624 -0.2071  2.6673
 3764SOL    HW222929   3.773   3.452   0.569  0.3665  3.2154 -1.0671
 3765SOL     OW22930   3.861   1.753   2.209 -0.3827  0.0444  0.3477
 3765SOL    HW122931   3.880   1.713   2.124  1.3405 -2.6366  1.9850
 3765SOL    HW222932   3.943   1.746   2.258  0.3059  0.3900 -0.7629
 3766SOL     OW22933   1.354   2.610   6.959  0.2693  0.1860 -0.5883
 3766SOL    HW122934   1.287   2.553   6.999  1.0025  0.3111  0.8048
 3766SOL    HW222935   1.391   2.552   6.893 -0.0037 -0.0763 -0.5142
 3767SOL     OW22936   3.306   0.036   6.635 -0.0845 -0.1714 -0.2108
 3767SOL    HW122937   3.292   4.735   6.722  0.4004 -0.4416 -0.2501
 3767SOL    HW222938   3.254   0.116   6.638  0.7918  0.4591 -2.4642
 3768SOL     OW22939   0.522   1.274  14.606 -0.8493  0.0122 -0.2052
 3768SOL    HW122940   0.430   1.297  14.589 -0.8772 -1.5337 -2.2545
 3768SOL    HW222941   0.541   1.308  14.693  1.2514  3.0299 -1.8242
 3769SOL     OW22942   0.808   3.859   2.002  0.0977 -0.2884 -0.1214
 3769SOL    HW122943   0.879   3.908   2.043  1.5811 -0.3488 -2.6322
 3769SOL    HW222944   0.732   3.903   2.040  0.3791  0.1587 -0.0770
 3770SOL     OW22945   3.433   1.107  17.283 -0.6213 -0.0988 -0.7336
 3770SOL    HW122946   3.370   1.077  17.349  0.7239 -1.1088  0.0801
 3770SOL    HW222947   3.459   1.021  17.249  0.7232  0.2299 -0.5251
 3771SOL     OW22948   4.054   3.211   4.446 -0.1265  0.1439  0.2086
 3771SOL    HW122949   3.976   3.267   4.454  0.7019  1.1055  1.5415
 3771SOL    HW222950   4.020   3.128   4.479 -4.2520  2.1247  0.9881
 3772SOL     OW22951   2.557   2.779   4.484 -0.0350 -0.3681  0.4302
 3772SOL    HW122952   2.499   2.703   4.477  0.0007 -0.2123 -1.5859
 3772SOL    HW222953   2.570   2.800   4.392 -3.4637 -2.0592 -0.4637
 3773SOL     OW22954   4.173   3.449   2.718  0.3586 -0.2254 -0.1815
 3773SOL    HW122955   4.191   3.361   2.753 -1.0449  0.0967  1.3274
 3773SOL    HW222956   4.261   3.470   2.687  0.8071 -1.2929  0.3401
 3774SOL     OW22957   2.382   4.347   9.233 -0.2828 -0.4479  0.2049
 3774SOL    HW122958   2.444   4.282   9.267 -1.7703  0.1110  4.0211
 3774SOL    HW222959   2.305   4.303   9.196 -0.4191  0.7077 -0.8577
 3775SOL     OW22960   1.418   3.927   4.335  0.0985 -0.1519 -0.2656
 3775SOL    HW122961   1.419   3.885   4.421  1.2907 -0.0493 -0.2387
 3775SOL    HW222962   1.333   3.894   4.304  0.2601 -0.1840 -0.6740
 3776SOL     OW22963   0.664   0.559   8.634 -0.0392 -0.0128 -0.0739
 3776SOL    HW122964   0.733   0.503   8.668  1.1054  1.3455 -0.1399
 3776SOL    HW222965   0.660   0.525   8.545 -0.3846 -3.7693  1.3994
 3777SOL     OW22966   4.006   4.069   2.920 -0.3463 -0.5660  0.2981
 3777SOL    HW122967   4.044   3.981   2.921 -3.0671 -1.7627 -0.5215
 3777SOL    HW222968   4.083   4.113   2.955 -0.3368 -0.6047  0.3267
 3778SOL     OW22969   1.858   2.920  15.245 -0.0051  0.2254  0.1504
 3778SOL    HW122970   1.764   2.914  15.228  0.3900 -1.9946 -1.2844
 3778SOL    HW222971   1.857   2.856  15.316 -0.0250 -0.8277 -0.7965
 3779SOL     OW22972   4.688   0.318  12.403 -0.9115 -0.1947  0.3872
 3779SOL    HW122973   4.635   0.242  12.426  0.3843 -0.7158  1.6649
 3779SOL    HW222974   0.006   0.294  12.329  1.6570  2.2965  1.4856
 3780SOL     OW22975   0.758   1.405   6.051 -0.1067  0.4462 -0.0995
 3780SOL    HW122976   0.835   1.437   6.099 -0.5234  0.6246  0.4542
 3780SOL    HW222977   0.700   1.389   6.126 -1.1460 -0.3676 -1.0772
 3781SOL     OW22978   0.440   2.974   3.460  0.4639  0.0920  0.2297
 3781SOL    HW122979   0.518   2.962   3.515  0.6136 -0.2817 -0.0680
 3781SOL    HW222980   0.481   3.042   3.407  1.4009 -1.1128 -0.5792
 3782SOL     OW22981   0.120   4.411   1.437 -0.0748 -0.1492  0.4416
 3782SOL    HW122982   0.049   4.354   1.407 -0.0173  0.1229 -0.2209
 3782SOL    HW222983   0.179   4.352   1.484 -1.8081 -4.2283 -2.5608
 3783SOL     OW22984   2.602   3.152  12.114  0.2902 -0.2396  0.5266
 3783SOL    HW122985   2.648   3.111  12.041 -1.3036 -0.9405 -0.0914
 3783SOL    HW222986   2.628   3.094  12.186 -0.1164  0.7631  1.4839
 3784SOL     OW22987   3.239   2.212   1.116 -0.2099 -0.1052  0.2954
 3784SOL    HW122988   3.157   2.167   1.135  0.9111 -2.8838 -1.5724
 3784SOL    HW222989   3.303   2.143   1.099 -0.7485 -0.9558  1.7294
 3785SOL     OW22990   2.247   3.201   7.650 -0.3608  0.3189  0.1350
 3785SOL    HW122991   2.301   3.164   7.719  0.4389 -1.3795 -1.3816
 3785SOL    HW222992   2.176   3.137   7.641  0.7776 -0.9341 -0.0285
 3786SOL     OW22993   4.351   3.476  10.536 -0.3934  0.2654  0.0836
 3786SOL    HW122994   4.359   3.464  10.630 -0.7689 -2.3009 -0.2286
 3786SOL    HW222995   4.417   3.546  10.531  0.2501 -0.4026 -0.7166
 3787SOL     OW22996   0.852   1.112   4.137 -0.3063  0.2631 -0.1025
 3787SOL    HW122997   0.835   1.046   4.070  2.5135  1.4619 -2.0036
 3787SOL    HW222998   0.940   1.145   4.119  0.4026 -1.5256  0.1525
 3788SOL     OW22999   3.469   0.800  17.278  0.1190  0.5609  0.2369
 3788SOL    HW123000   3.559   0.767  17.275 -0.3632 -0.8090  0.6175
 3788SOL    HW223001   3.457   0.791  17.373  1.5079  0.1725  0.3751
 3789SOL     OW23002   4.126   2.035   3.422 -0.3782  0.1349 -0.5995
 3789SOL    HW123003   4.176   2.043   3.341  0.6348 -1.3459 -0.1135
 3789SOL    HW223004   4.131   1.943   3.449  1.4396 -0.2292 -2.1864
 3790SOL     OW23005   3.197   0.690   9.207  0.1903  0.3035  0.3397
 3790SOL    HW123006   3.228   0.687   9.116  1.2088 -3.5287  0.8420
 3790SOL    HW223007   3.242   0.610   9.232 -1.1540 -1.2723 -2.2559
 3791SOL     OW23008   1.767   3.086   3.210 -0.3757 -0.1680  0.3596
 3791SOL    HW123009   1.709   3.010   3.212 -1.6572  0.7619 -0.6612
 3791SOL    HW223010   1.854   3.048   3.210 -0.0415  0.5745 -1.0651
 3792SOL     OW23011   0.927   3.247   5.700 -0.1416  0.4779  0.2521
 3792SOL    HW123012   0.952   3.184   5.768 -0.2674  1.1169  0.8870
 3792SOL    HW223013   0.912   3.190   5.624  1.2739  1.3877 -0.7081
 3793SOL     OW23014   4.485   0.786   0.344  0.5588  0.7129  0.4787
 3793SOL    HW123015   4.517   0.713   0.291  0.5825  0.4814  0.8109
 3793SOL    HW223016   4.448   0.842   0.275  0.9295 -1.6935 -1.6809
 3794SOL     OW23017   0.629   1.739   1.109 -0.1463 -0.0978 -0.5830
 3794SOL    HW123018   0.609   1.675   1.041  1.3644 -0.2595 -0.8768
 3794SOL    HW223019   0.542   1.754   1.146 -0.3359 -0.7588 -0.7693
 3795SOL     OW23020   1.827   2.826   6.508 -0.5471 -0.2522  0.2728
 3795SOL    HW123021   1.752   2.785   6.551 -1.9250  1.7110 -0.2807
 3795SOL    HW223022   1.828   2.760   6.438 -0.3595 -0.2036  0.2289
 3796SOL     OW23023   1.664   4.033   9.102  0.2263  0.3619 -0.1221
 3796SOL    HW123024   1.623   4.117   9.121 -0.1593  0.7901 -2.8731
 3796SOL    HW223025   1.589   3.975   9.085  0.8106 -0.4657  0.1267
 3797SOL     OW23026   1.708   2.835   8.556  0.5646 -0.6117 -0.2434
 3797SOL    HW123027   1.764   2.840   8.478 -0.4403  0.1401 -0.9103
 3797SOL    HW223028   1.772   2.850   8.626  0.5615  0.4662 -0.4785
 3798SOL     OW23029   3.438   3.200  13.403 -0.2823  0.0880  0.2384
 3798SOL    HW123030   3.420   3.278  13.455 -2.0756 -0.2671  0.1610
 3798SOL    HW223031   3.388   3.208  13.322  0.3150  0.6523 -0.0733
 3799SOL     OW23032   2.448   4.368   2.693 -0.2945  0.3076  0.3054
 3799SOL    HW123033   2.354   4.384   2.688 -0.2861  0.6663  1.3768
 3799SOL    HW223034   2.490   4.448   2.726  0.3506 -0.6440  1.8078
 3800SOL     OW23035   2.780   1.995   5.851  0.2258  0.4838  0.1004
 3800SOL    HW123036   2.808   2.085   5.837 -1.5829  1.0102 -0.1168
 3800SOL    HW223037   2.705   2.017   5.907  1.5914  2.2101  1.2485
 3801SOL     OW23038   3.922   3.522   9.311 -0.2278  0.0823  0.6549
 3801SOL    HW123039   3.984   3.477   9.255 -1.1388  0.6886 -0.8490
 3801SOL    HW223040   3.844   3.500   9.260  0.1620  0.0191  0.0933
 3802SOL     OW23041   0.839   3.351   4.300  0.0726  0.4884  0.3309
 3802SOL    HW123042   0.759   3.385   4.340  0.2924  1.6957 -0.2702
 3802SOL    HW223043   0.802   3.296   4.231 -1.0872 -0.8655  2.0128
 3803SOL     OW23044   4.361   2.491   9.469  0.2405  0.4008 -0.3236
 3803SOL    HW123045   4.292   2.490   9.403 -1.6894  0.0599  1.6961
 3803SOL    HW223046   4.322   2.556   9.528 -1.4938 -2.1375  1.3270
 3804SOL     OW23047   4.440   2.083   9.699  0.0878 -0.2695  0.0386
 3804SOL    HW123048   4.472   2.139   9.628 -4.5358 -0.0438 -1.8508
 3804SOL    HW223049   4.347   2.103   9.696  0.6971  2.4498 -1.2406
 3805SOL     OW23050   4.374   4.311  11.529  0.1298 -0.7407 -0.1806
 3805SOL    HW123051   4.315   4.287  11.458 -0.1571 -0.1897 -0.1259
 3805SOL    HW223052   4.314   4.363  11.581  1.0673 -0.3845  0.5459
 3806SOL     OW23053   3.732   2.092   2.467 -0.3777  0.1756 -0.5354
 3806SOL    HW123054   3.676   2.104   2.544  0.2688  4.6152 -0.7700
 3806SOL    HW223055   3.729   1.996   2.464  0.2424  0.1149  0.5933
 3807SOL     OW23056   4.199   4.310  16.433  0.1239  0.1762 -0.4350
 3807SOL    HW123057   4.179   4.387  16.486  0.0253 -0.3620  0.3095
 3807SOL    HW223058   4.230   4.350  16.352  0.8768  0.2903 -0.0935
 3808SOL     OW23059   3.117   0.491   7.690 -0.4384  0.2431 -0.2468
 3808SOL    HW123060   3.103   0.489   7.595  1.1231 -1.5001 -0.4441
 3808SOL    HW223061   3.054   0.430   7.728 -0.0629 -0.9631 -1.5509
 3809SOL     OW23062   1.151   1.492   9.447  0.3185  0.4777  0.8695
 3809SOL    HW123063   1.129   1.449   9.364 -0.5578 -0.1176  1.4206
 3809SOL    HW223064   1.203   1.423   9.488 -1.5283 -0.4852  1.5750
 3810SOL     OW23065   2.405   3.232   3.741  0.4125 -0.0713 -0.2425
 3810SOL    HW123066   2.490   3.187   3.742  1.1946  1.3520 -1.5184
 3810SOL    HW223067   2.360   3.188   3.813  0.6553 -0.8815 -0.5803
 3811SOL     OW23068   3.368   2.733   6.469 -0.3287 -0.6835  0.5746
 3811SOL    HW123069   3.428   2.808   6.469 -0.8375 -0.2763 -1.1158
 3811SOL    HW223070   3.409   2.687   6.543  1.7523  0.4616  0.1188
 3812SOL     OW23071   0.695   0.023  11.936 -0.3172  0.3965  0.2671
 3812SOL    HW123072   0.748   4.702  11.881 -0.7049 -1.6318  2.0241
 3812SOL    HW223073   0.640   4.697  11.983  1.4504 -0.4179  1.2776
 3813SOL     OW23074   3.040   0.144   4.364 -0.0898 -0.6400  0.2640
 3813SOL    HW123075   3.017   0.223   4.414 -1.3505  0.4293 -1.9710
 3813SOL    HW223076   3.006   0.179   4.281  0.0816 -0.2436  0.3580
 3814SOL     OW23077   1.276   2.159  14.963 -0.4057  0.1528  0.0981
 3814SOL    HW123078   1.343   2.212  14.920 -0.2792 -0.0896 -0.0024
 3814SOL    HW223079   1.251   2.223  15.030  1.3873 -0.5042  1.4008
 3815SOL     OW23080   0.185   3.757   3.249  0.5041  0.1674 -0.4221
 3815SOL    HW123081   0.234   3.690   3.297 -2.0230 -0.2991  1.5089
 3815SOL    HW223082   0.105   3.760   3.301 -0.5433 -0.7567 -2.0019
 3816SOL     OW23083   2.283   2.210   5.392 -0.5377  0.3963 -0.2391
 3816SOL    HW123084   2.333   2.277   5.438 -0.4167 -1.1389  1.8972
 3816SOL    HW223085   2.239   2.272   5.334 -3.5294 -2.4672 -1.0422
 3817SOL     OW23086   0.401   1.979   1.563 -0.0875  0.1477  0.3317
 3817SOL    HW123087   0.404   1.983   1.658 -1.8753  0.7882  0.3418
 3817SOL    HW223088   0.314   2.006   1.534  0.1789  1.1906  0.5088
 3818SOL     OW23089   3.812   3.806   4.684  0.2876  0.5843  0.7625
 3818SOL    HW123090   3.750   3.851   4.627 -0.9709 -0.7775  1.0759
 3818SOL    HW223091   3.845   3.878   4.739  1.1377 -0.7986  2.0688
 3819SOL     OW23092   0.606   4.359   7.451 -0.3670 -0.2587  0.7761
 3819SOL    HW123093   0.556   4.279   7.440  1.3320 -1.0783 -1.0358
 3819SOL    HW223094   0.565   4.414   7.384 -1.7681 -0.8416  1.1576
 3820SOL     OW23095   2.171   4.004   7.746 -0.1895  0.3043  0.0120
 3820SOL    HW123096   2.177   4.095   7.716 -2.3630  0.6276  0.5669
 3820SOL    HW223097   2.144   3.969   7.661  1.4850 -2.3637  0.5765
 3821SOL     OW23098   1.865   0.092   6.623 -0.3056  0.2941 -0.0005
 3821SOL    HW123099   1.777   0.076   6.590 -0.4077  0.4908  0.1717
 3821SOL    HW223100   1.855   0.088   6.718  0.6340  0.6008  0.1134
 3822SOL     OW23101   2.483   4.147   4.132 -0.3215 -0.3655  0.0383
 3822SOL    HW123102   2.460   4.064   4.091  0.1165 -0.0520 -0.8436
 3822SOL    HW223103   2.478   4.209   4.060 -0.6802 -0.0084  0.3675
 3823SOL     OW23104   1.067   0.169  13.335  0.1051  0.4373 -0.0655
 3823SOL    HW123105   0.992   0.128  13.292  1.3309 -1.1873 -0.6436
 3823SOL    HW223106   1.058   0.156  13.430  0.2590  3.1064  0.3302
 3824SOL     OW23107   1.809   2.704   6.875 -0.0871 -0.1505  0.9687
 3824SOL    HW123108   1.745   2.736   6.938 -0.0400  2.0825 -0.0848
 3824SOL    HW223109   1.758   2.705   6.794  0.0171  1.8798  0.9127
 3825SOL     OW23110   3.069   1.565  12.461  0.0145  0.6256 -0.1319
 3825SOL    HW123111   2.998   1.629  12.470  1.7699  2.4426  0.8222
 3825SOL    HW223112   3.061   1.553  12.367  2.1847  0.1983 -0.2643
 3826SOL     OW23113   2.891   4.092  14.043 -0.1827 -0.1355 -0.2968
 3826SOL    HW123114   2.886   4.008  13.998 -1.8959 -0.2579  0.0952
 3826SOL    HW223115   2.796   4.105  14.044 -0.2635 -0.5739 -1.4856
 3827SOL     OW23116   1.549   4.006  15.602  0.0257  0.2186  0.0731
 3827SOL    HW123117   1.466   3.979  15.562 -0.1570 -1.0803  1.3183
 3827SOL    HW223118   1.568   4.074  15.538 -0.3664  1.2533  1.0526
 3828SOL     OW23119   1.541   2.861   0.742  0.2614  0.2873 -0.2391
 3828SOL    HW123120   1.601   2.928   0.774  0.0064  0.0087  0.8103
 3828SOL    HW223121   1.552   2.795   0.810 -1.0015  0.1552 -0.1655
 3829SOL     OW23122   0.374   3.916   9.835  0.1474 -0.1756  0.2028
 3829SOL    HW123123   0.449   3.958   9.793  0.8831 -2.0137 -0.3560
 3829SOL    HW223124   0.382   3.953   9.923  0.4114  0.8985 -0.2773
 3830SOL     OW23125   1.189   4.420   4.985  0.4147  0.2309  0.2140
 3830SOL    HW123126   1.156   4.417   5.074 -0.9173 -1.1128 -0.3335
 3830SOL    HW223127   1.223   4.331   4.970 -2.6693 -1.1803  1.6007
 3831SOL     OW23128   2.923   3.852   1.784  0.3712 -0.0494 -0.0899
 3831SOL    HW123129   2.878   3.929   1.820 -1.5432 -1.6227  0.8801
 3831SOL    HW223130   2.861   3.836   1.712  0.3633 -1.3258  0.2048
 3832SOL     OW23131   2.083   4.156   3.826 -0.0912 -0.0532 -0.4254
 3832SOL    HW123132   2.076   4.098   3.750 -1.0100  0.5935 -0.8388
 3832SOL    HW223133   2.011   4.129   3.884  0.5200 -0.7067  0.0253
 3833SOL     OW23134   3.504   1.403   2.847 -0.1054 -0.0094 -0.4557
 3833SOL    HW123135   3.536   1.475   2.794 -0.6272  0.4482 -0.1410
 3833SOL    HW223136   3.551   1.412   2.930  0.3422 -0.3720 -0.6644
 3834SOL     OW23137   1.592   2.475   4.924 -0.6534  0.4550 -0.4083
 3834SOL    HW123138   1.638   2.449   5.003 -0.4196 -1.6593 -1.2347
 3834SOL    HW223139   1.502   2.472   4.955 -1.1993 -0.3766 -2.1011
 3835SOL     OW23140   2.683   4.675   9.972  0.1595  0.4618 -0.0607
 3835SOL    HW123141   2.717   4.602  10.023 -1.1854  1.1985  1.8960
 3835SOL    HW223142   2.610   4.709  10.023 -1.3549 -1.5645 -0.9152
 3836SOL     OW23143   0.458   2.504  17.730  0.4892 -0.0086  0.0549
 3836SOL    HW123144   0.403   2.541   0.051 -0.5512 -0.1688 -0.7003
 3836SOL    HW223145   0.415   2.536  17.651 -0.6468 -0.2719  0.5678
 3837SOL     OW23146   3.959   4.159   2.185  0.2591  0.6264 -0.3525
 3837SOL    HW123147   3.969   4.064   2.185  2.1723  0.8163  1.5938
 3837SOL    HW223148   3.884   4.175   2.243 -1.6286 -3.4709 -1.6769
 3838SOL     OW23149   0.543   2.280   5.861 -0.0308 -0.0293  0.0262
 3838SOL    HW123150   0.528   2.370   5.832  3.2110  0.0414 -1.4724
 3838SOL    HW223151   0.589   2.294   5.944 -2.2217  0.3826  1.1481
 3839SOL     OW23152   2.818   3.421   7.314  0.3260  0.1582  0.0967
 3839SOL    HW123153   2.795   3.439   7.405  0.0364  2.7206 -0.4632
 3839SOL    HW223154   2.904   3.381   7.324 -0.4641 -1.9810 -1.6227
 3840SOL     OW23155   2.819   2.080  12.589  0.3098  0.4285  0.5079
 3840SOL    HW123156   2.771   2.117  12.514 -0.4464 -1.0068  0.2763
 3840SOL    HW223157   2.900   2.044  12.553  0.1353  1.0559 -0.5399
 3841SOL     OW23158   1.236   3.055   4.289 -0.3917  0.1793  0.0836
 3841SOL    HW123159   1.239   2.965   4.256  3.5168  0.2378  0.2799
 3841SOL    HW223160   1.329   3.066   4.306 -0.0084 -3.5003  0.3667
 3842SOL     OW23161   1.111   3.407   5.817  0.2346  0.4302 -0.5514
 3842SOL    HW123162   1.062   3.354   5.754  1.3141 -2.8016  1.3191
 3842SOL    HW223163   1.189   3.439   5.772  0.2755  2.4588  0.9452
 3843SOL     OW23164   3.972   4.436   4.087 -0.5340 -0.3709 -0.0510
 3843SOL    HW123165   4.060   4.474   4.084 -1.4408  1.6459 -0.8146
 3843SOL    HW223166   3.985   4.348   4.125  0.3058 -0.4956 -0.6245
 3844SOL     OW23167   3.235   3.019   9.229  0.0319  0.0714  0.3582
 3844SOL    HW123168   3.273   2.937   9.258  1.4370  0.3928 -0.6271
 3844SOL    HW223169   3.199   3.038   9.316 -1.4184 -1.0577  0.0115
 3845SOL     OW23170   0.098   1.330   8.041 -0.6027  0.4349 -0.8182
 3845SOL    HW123171   0.089   1.241   8.075  0.5410  1.4523  2.1034
 3845SOL    HW223172   0.189   1.330   8.009  0.1797 -0.8209  1.4145
 3846SOL     OW23173   0.982   1.383  11.185  0.2068 -0.3498 -0.7087
 3846SOL    HW123174   1.019   1.471  11.172 -1.2166  0.7727  3.0021
 3846SOL    HW223175   0.962   1.379  11.278  1.6872 -0.2065 -0.3927
 3847SOL     OW23176   4.426   0.880   7.625 -0.1993  0.0081  0.1468
 3847SOL    HW123177   4.426   0.792   7.663  1.9548 -0.1321 -0.1774
 3847SOL    HW223178   4.349   0.910   7.674 -0.4468 -0.9911  0.3718
 3848SOL     OW23179   0.748   0.045   2.189  0.4220 -0.4361 -0.3456
 3848SOL    HW123180   0.734   0.124   2.137  0.5177  1.3249  2.3437
 3848SOL    HW223181   0.659   0.015   2.208  0.6497 -0.4911  0.6369
 3849SOL     OW23182   3.061   0.682   1.615 -0.1340  0.3696  0.4220
 3849SOL    HW123183   2.975   0.650   1.643  0.3638  0.3949  1.9754
 3849SOL    HW223184   3.095   0.711   1.699  0.9491 -0.6947  0.3431
 3850SOL     OW23185   4.032   4.329   5.282 -0.4430  0.2315  0.2519
 3850SOL    HW123186   3.988   4.347   5.364 -0.3983  0.0567  0.3138
 3850SOL    HW223187   4.017   4.406   5.226  0.3496  0.5309  0.4417
 3851SOL     OW23188   1.170   0.243   4.829  0.3248 -0.4408 -0.1665
 3851SOL    HW123189   1.106   0.265   4.762 -1.4334  0.2147  1.7164
 3851SOL    HW223190   1.185   0.151   4.806 -0.0024 -0.8216  1.0981
 3852SOL     OW23191   1.164   0.761   0.681 -0.0601  0.2445 -0.1931
 3852SOL    HW123192   1.257   0.739   0.693  0.3344  3.5936  2.8737
 3852SOL    HW223193   1.169   0.838   0.624  2.6663  1.1150  1.2312
 3853SOL     OW23194   2.002   2.568   2.235 -0.0841  0.0502 -0.4451
 3853SOL    HW123195   2.057   2.644   2.256  1.8173 -0.5233 -3.3698
 3853SOL    HW223196   2.043   2.506   2.296 -0.6863  0.7635  0.6836
 3854SOL     OW23197   1.355   4.001   7.943 -0.0371 -0.5430  0.3139
 3854SOL    HW123198   1.334   4.015   7.851 -0.2386 -1.8706  0.1606
 3854SOL    HW223199   1.442   3.961   7.933 -0.2282 -0.8399 -0.1651
 3855SOL     OW23200   2.935   3.934   1.185 -0.2936 -0.0921 -0.0480
 3855SOL    HW123201   2.940   3.939   1.090  0.9157  2.7573  0.1680
 3855SOL    HW223202   2.909   3.842   1.188 -1.3293  0.1969  0.1197
 3856SOL     OW23203   3.447   1.389   3.173  0.0512 -0.3488  0.4182
 3856SOL    HW123204   3.529   1.405   3.127  0.2636  1.7686  1.5649
 3856SOL    HW223205   3.481   1.363   3.258 -1.1915 -0.7078  0.8074
 3857SOL     OW23206   3.715   4.296   4.728 -0.2700 -0.1255 -0.3485
 3857SOL    HW123207   3.720   4.362   4.797  0.2003 -0.9845  0.4462
 3857SOL    HW223208   3.652   4.336   4.669  0.1408  1.7559  0.4727
 3858SOL     OW23209   3.119   3.656   6.772 -0.3564 -0.7832 -0.1631
 3858SOL    HW123210   3.036   3.647   6.725 -0.8105 -0.0828  0.4896
 3858SOL    HW223211   3.103   3.599   6.847 -0.3811  1.1462  1.3335
 3859SOL     OW23212   3.830   0.673  12.849 -0.0495 -0.5637  0.0846
 3859SOL    HW123213   3.804   0.581  12.847  0.5648 -0.7083 -1.1322
 3859SOL    HW223214   3.904   0.668  12.789  0.6640  1.2739  0.8222
 3860SOL     OW23215   1.356   1.909   4.891  0.0105 -0.3939 -0.3946
 3860SOL    HW123216   1.414   1.976   4.855 -0.3600 -1.2133 -2.5220
 3860SOL    HW223217   1.347   1.852   4.814 -3.5496  1.0650 -1.0574
 3861SOL     OW23218   2.826   3.655   1.967 -0.3085  0.0850 -0.2667
 3861SOL    HW123219   2.733   3.677   1.964 -0.6475 -1.6805 -1.8697
 3861SOL    HW223220   2.856   3.738   1.931  0.3431  0.9562  2.2433
 3862SOL     OW23221   3.340   0.424   2.366  0.1923 -0.8831  0.0865
 3862SOL    HW123222   3.400   0.435   2.439  0.1901  0.7482 -0.1660
 3862SOL    HW223223   3.313   0.332   2.367  1.5061 -1.2690 -0.8751
 3863SOL     OW23224   2.538   3.482   8.689  0.0712 -0.1009  0.0132
 3863SOL    HW123225   2.513   3.550   8.626  0.9467 -0.2751 -0.5413
 3863SOL    HW223226   2.452   3.443   8.701  0.3070 -0.7290 -0.2879
 3864SOL     OW23227   3.827   2.428   9.061  0.0613 -0.3628 -0.0909
 3864SOL    HW123228   3.756   2.422   8.998  0.8326 -0.5547 -0.9315
 3864SOL    HW223229   3.895   2.419   8.995 -1.3859 -1.2739 -1.4387
 3865SOL     OW23230   0.702   0.107   9.305  0.6873 -0.1710 -0.2374
 3865SOL    HW123231   0.661   0.038   9.254  2.8992 -1.2681 -0.5259
 3865SOL    HW223232   0.686   0.076   9.394 -2.1263  1.4052 -0.2151
 3866SOL     OW23233   0.391   0.398   3.279 -0.4252  0.2589 -0.3710
 3866SOL    HW123234   0.318   0.438   3.326  0.4448 -0.4477  1.6018
 3866SOL    HW223235   0.353   0.314   3.251 -1.7622  0.0439  2.0750
 3867SOL     OW23236   0.749   3.268   8.165  0.2630 -0.3207  0.2119
 3867SOL    HW123237   0.803   3.285   8.088 -0.5246 -1.1970 -0.5360
 3867SOL    HW223238   0.746   3.172   8.159  1.7696 -0.3313 -0.2448
 3868SOL     OW23239   2.594   2.263   7.877 -0.4474  0.2592  0.1352
 3868SOL    HW123240   2.648   2.295   7.949 -0.1238  1.2234 -0.5460
 3868SOL    HW223241   2.611   2.332   7.813  0.1217 -0.7132 -0.7663
 3869SOL     OW23242   0.802   1.871   5.282  0.2911 -0.2366 -0.7700
 3869SOL    HW123243   0.857   1.905   5.353  0.0517  0.5519 -0.9554
 3869SOL    HW223244   0.776   1.957   5.248  0.7818  0.0897 -0.3050
 3870SOL     OW23245   0.283   4.260  14.650  0.2486  0.2752 -0.8176
 3870SOL    HW123246   0.231   4.298  14.579 -2.8188 -1.3496  0.5379
 3870SOL    HW223247   0.257   4.312  14.726 -0.3786 -3.0317  1.2444
 3871SOL     OW23248   0.251   0.089   2.638  0.0043  0.5695  0.4384
 3871SOL    HW123249   0.165   0.075   2.678  0.9668 -3.7091  0.9847
 3871SOL    HW223250   0.313   0.042   2.694 -2.0166 -0.7351  1.5918
 3872SOL     OW23251   3.232   1.587   5.220 -0.2673  0.2262  0.6187
 3872SOL    HW123252   3.215   1.637   5.300  0.3621  1.2062  0.1307
 3872SOL    HW223253   3.305   1.633   5.179 -0.4318 -1.4582 -1.5837
 3873SOL     OW23254   1.408   1.906  15.807  0.0673  0.0979 -0.3317
 3873SOL    HW123255   1.354   1.923  15.730 -0.3351 -0.7404 -0.2257
 3873SOL    HW223256   1.467   1.846  15.761  0.7738 -0.2366  1.0270
 3874SOL     OW23257   1.198   1.888  11.030 -0.2471  0.5316  0.2092
 3874SOL    HW123258   1.254   1.953  11.072 -1.3391  1.4389  0.2724
 3874SOL    HW223259   1.156   1.853  11.109 -0.7891 -1.1103 -0.8298
 3875SOL     OW23260   1.071   1.617   7.553 -0.2292  0.3674  0.3691
 3875SOL    HW123261   1.136   1.560   7.511  0.0253 -0.2594  1.5874
 3875SOL    HW223262   1.122   1.677   7.608  0.4884  1.2691 -1.3106
 3876SOL     OW23263   4.294   4.302   5.858  0.4660  0.0674 -0.3230
 3876SOL    HW123264   4.327   4.266   5.775  0.4362  1.1586 -0.8193
 3876SOL    HW223265   4.244   4.380   5.836  1.9955  0.8015 -1.2307
 3877SOL     OW23266   4.017   3.453   4.699 -0.2900 -0.0921  0.1323
 3877SOL    HW123267   4.038   3.481   4.610 -1.5866  0.1596 -0.0940
 3877SOL    HW223268   4.065   3.523   4.744 -0.7506 -1.2306  2.3934
 3878SOL     OW23269   1.870   3.423   5.832 -0.6730 -0.6535 -0.5677
 3878SOL    HW123270   1.836   3.474   5.758 -0.5804 -1.1218 -0.9249
 3878SOL    HW223271   1.802   3.467   5.885  0.5555 -0.1079  0.5531
 3879SOL     OW23272   3.338   1.851   0.830 -0.3409 -0.0433 -0.3590
 3879SOL    HW123273   3.269   1.787   0.846 -0.1685 -0.0620  0.3155
 3879SOL    HW223274   3.342   1.845   0.734  0.3879 -0.4856 -0.3017
 3880SOL     OW23275   0.104   2.672   4.417  0.0139  0.0069 -0.5604
 3880SOL    HW123276   0.129   2.661   4.508  2.6711  2.0665 -1.0210
 3880SOL    HW223277   0.100   2.582   4.384  0.1440 -0.1379 -0.1719
 3881SOL     OW23278   1.829   0.337   4.809 -0.7232  0.2871 -0.1884
 3881SOL    HW123279   1.755   0.398   4.818 -1.1373  0.1037 -2.2375
 3881SOL    HW223280   1.902   0.396   4.791  1.6458 -2.0047  2.0520
 3882SOL     OW23281   3.987   1.172   8.294 -0.0719  0.0025  0.1310
 3882SOL    HW123282   3.935   1.092   8.290 -0.8219  0.5506 -0.9361
 3882SOL    HW223283   4.069   1.139   8.256  0.1662  1.1376 -0.3309
 3883SOL     OW23284   4.209   2.174   2.498  0.7020  0.0955  0.0424
 3883SOL    HW123285   4.286   2.200   2.549  0.8248 -1.4021  0.6372
 3883SOL    HW223286   4.245   2.103   2.444 -1.2227  0.3517 -1.5490
 3884SOL     OW23287   3.609   3.757   5.661  0.4848  0.1133  0.3180
 3884SOL    HW123288   3.577   3.691   5.722  1.8215 -1.4574 -0.7086
 3884SOL    HW223289   3.623   3.707   5.581  2.1324 -0.7176  1.1323
 3885SOL     OW23290   3.799   0.651  11.422  0.5211 -0.6576  0.0267
 3885SOL    HW123291   3.747   0.625  11.346  0.0984 -0.4423  0.2418
 3885SOL    HW223292   3.787   0.746  11.420  0.3398 -0.7116 -1.1824
 3886SOL     OW23293   2.149   0.665   9.623 -0.3429  0.3012 -0.0079
 3886SOL    HW123294   2.100   0.688   9.545  2.3861  0.5466 -1.6470
 3886SOL    HW223295   2.224   0.724   9.617 -0.4450  0.5271  0.8579
 3887SOL     OW23296   4.393   3.999   5.915 -0.2473 -0.3986 -1.1005
 3887SOL    HW123297   4.354   3.951   5.988 -0.8566  1.8197  0.0329
 3887SOL    HW223298   4.360   4.085   5.940  0.4427  0.1844 -2.2138
 3888SOL     OW23299   0.328   1.967   5.685 -0.9894 -0.1536  0.0372
 3888SOL    HW123300   0.258   1.935   5.742 -0.1941 -2.3910 -0.2419
 3888SOL    HW223301   0.330   2.054   5.726  2.0599  0.1054 -0.6532
 3889SOL     OW23302   2.324   1.329   5.665  0.3735  0.3281  0.3758
 3889SOL    HW123303   2.328   1.332   5.569 -3.2149  2.8457  0.2853
 3889SOL    HW223304   2.414   1.297   5.669  0.9652  2.2907  2.8384
 3890SOL     OW23305   2.420   2.135  17.599 -0.0509 -0.5713  0.3734
 3890SOL    HW123306   2.445   2.182  17.519 -2.1621  0.1303  0.1290
 3890SOL    HW223307   2.334   2.176  17.609  0.4433  0.2786  1.1708
 3891SOL     OW23308   4.378   0.106  10.143  0.8976 -0.0568  0.7194
 3891SOL    HW123309   4.339   0.018  10.143 -0.9246  0.7433  1.3957
 3891SOL    HW223310   4.335   0.132  10.225  1.1975 -1.5385  1.3637
 3892SOL     OW23311   4.319   0.183   5.324 -0.3516  0.4781  0.9996
 3892SOL    HW123312   4.306   0.091   5.303 -3.4326  1.1017  0.1175
 3892SOL    HW223313   4.234   0.225   5.310 -0.8838 -1.1391 -0.5437
 3893SOL     OW23314   3.308   3.732  13.526  1.0536  0.2735 -0.2340
 3893SOL    HW123315   3.296   3.718  13.432 -0.2227  0.3495 -0.0791
 3893SOL    HW223316   3.243   3.795  13.557 -1.3256 -1.8387 -0.8674
 3894SOL     OW23317   2.922   2.781   3.419 -0.0979  0.4465  0.2003
 3894SOL    HW123318   2.907   2.850   3.483 -0.9556  1.1680 -0.8003
 3894SOL    HW223319   2.993   2.732   3.461 -1.0817 -1.0277  0.1495
 3895SOL     OW23320   3.249   1.125  16.283 -0.2302  0.2181  0.0561
 3895SOL    HW123321   3.258   1.187  16.210 -3.7018 -1.5569 -1.8840
 3895SOL    HW223322   3.299   1.158  16.358  1.7160 -2.9780  0.1868
 3896SOL     OW23323   0.844   0.766  11.907 -0.0195  0.1454  0.6247
 3896SOL    HW123324   0.914   0.757  11.973  1.4663  3.3189 -0.5463
 3896SOL    HW223325   0.892   0.818  11.843  0.7109  0.3287  1.3121
 3897SOL     OW23326   2.511   4.585   9.138  0.0206 -0.3979 -0.4280
 3897SOL    HW123327   2.485   4.504   9.183  0.9225  0.6391  1.9817
 3897SOL    HW223328   2.601   4.558   9.115  0.9239 -0.5761  3.3140
 3898SOL     OW23329   0.980   2.627   2.155 -0.5570 -0.4664 -0.2673
 3898SOL    HW123330   1.014   2.617   2.067 -0.8752  0.1354 -0.4589
 3898SOL    HW223331   0.886   2.608   2.154 -0.4127 -1.1990  0.0994
 3899SOL     OW23332   1.962   0.453   4.196 -0.4884  0.0625 -0.4211
 3899SOL    HW123333   2.035   0.456   4.258 -0.3414 -0.7788 -0.5645
 3899SOL    HW223334   1.922   0.367   4.208  1.9906 -1.0814 -0.5391
 3900SOL     OW23335   2.018   1.095   7.559  0.7604  0.2808  0.4503
 3900SOL    HW123336   2.020   1.188   7.581 -2.1773  0.2535  0.7707
 3900SOL    HW223337   2.104   1.092   7.516  0.7763  1.3345  0.4090
 3901SOL     OW23338   4.665   4.441  14.953  0.3749  0.1359  0.1144
 3901SOL    HW123339   4.610   4.497  14.898  0.4581 -0.9914 -1.1004
 3901SOL    HW223340   4.605   4.416  15.023  2.2389  0.3461  1.7837
 3902SOL     OW23341   2.512   4.188   9.714  0.1893  0.4032 -0.4676
 3902SOL    HW123342   2.587   4.246   9.729 -0.0013  0.4770  0.1767
 3902SOL    HW223343   2.560   4.107   9.698  2.1630  1.0430  2.1313
 3903SOL     OW23344   2.147   3.236  13.680 -0.1145 -0.1140  0.3166
 3903SOL    HW123345   2.176   3.145  13.683 -1.1681 -0.4443  0.6506
 3903SOL    HW223346   2.081   3.222  13.748 -2.3995 -0.9539 -2.0400
 3904SOL     OW23347   0.184   4.366   7.714  0.7570  0.1557  0.3781
 3904SOL    HW123348   0.157   4.445   7.761  1.3599  1.4498 -1.4520
 3904SOL    HW223349   0.262   4.404   7.674  1.9469 -2.9068 -0.1725
 3905SOL     OW23350   0.423   3.398   3.208  0.3458 -0.7193  0.0939
 3905SOL    HW123351   0.348   3.359   3.253  0.4533 -1.4909 -0.4055
 3905SOL    HW223352   0.473   3.442   3.277 -1.2389 -0.8569  1.3268
 3906SOL     OW23353   2.962   0.554  11.792 -0.0126 -0.5595  0.1522
 3906SOL    HW123354   3.025   0.601  11.846 -0.8099  1.0645 -0.3327
 3906SOL    HW223355   2.961   0.469  11.835 -1.1043 -0.4585  0.3312
 3907SOL     OW23356   0.462   2.271   2.378 -0.1098  0.5787  0.1458
 3907SOL    HW123357   0.521   2.257   2.452  2.2246 -1.1008 -2.0202
 3907SOL    HW223358   0.525   2.241   2.312 -2.2714 -0.7448 -1.3362
 3908SOL     OW23359   4.726   1.396  17.291  0.2233  0.2708 -0.0905
 3908SOL    HW123360   4.705   1.485  17.316 -1.4522 -0.0298 -0.4403
 3908SOL    HW223361   0.045   1.421  17.218 -0.8414  0.2829 -0.9090
 3909SOL     OW23362   4.172   2.847   7.272  0.6451 -0.4882 -0.5232
 3909SOL    HW123363   4.155   2.891   7.188 -0.7636 -0.9846 -0.4943
 3909SOL    HW223364   4.158   2.928   7.322  0.7010 -0.3848 -0.6740
 3910SOL     OW23365   2.353   1.793  14.619  0.2499  0.0728 -0.1883
 3910SOL    HW123366   2.320   1.717  14.666  1.0283 -1.1367 -1.6031
 3910SOL    HW223367   2.376   1.758  14.533  0.8318 -0.5428  0.2114
 3911SOL     OW23368   2.194   1.654   0.022  0.3376 -0.2294 -0.2868
 3911SOL    HW123369   2.195   1.618   0.110 -1.0813  1.5764  0.4751
 3911SOL    HW223370   2.274   1.612  17.738  0.6069  0.2735 -0.2851
 3912SOL     OW23371   0.498   2.110  15.091  0.3654 -0.9785 -0.0950
 3912SOL    HW123372   0.419   2.142  15.048  1.3393  1.0852 -0.3738
 3912SOL    HW223373   0.560   2.105  15.018  1.0565  0.7748  0.3644
 3913SOL     OW23374   4.660   2.363   7.427 -0.5371  0.1183 -0.2562
 3913SOL    HW123375   4.591   2.305   7.460 -0.6683  0.0927 -0.5677
 3913SOL    HW223376   4.599   2.434   7.405 -0.6329  0.3371  0.7436
 3914SOL     OW23377   0.210   4.333   3.849  0.2534 -0.3258  0.1489
 3914SOL    HW123378   0.146   4.267   3.877  0.0132 -0.0329  0.2976
 3914SOL    HW223379   0.185   4.414   3.894  0.1112 -0.0438 -0.4393
 3915SOL     OW23380   1.034   3.538   7.755  0.0030  0.4391 -0.1700
 3915SOL    HW123381   1.068   3.471   7.696  1.8783 -0.5787  2.0423
 3915SOL    HW223382   1.060   3.499   7.838 -0.0385 -3.3218 -1.9335
 3916SOL     OW23383   1.268   2.578  11.181  0.0531  0.5230  0.1093
 3916SOL    HW123384   1.309   2.533  11.107 -0.7538 -1.0517  0.6121
 3916SOL    HW223385   1.177   2.550  11.176  0.0648  0.7582 -1.4223
 3917SOL     OW23386   0.236   3.842   9.430  0.2456  0.1657  0.3093
 3917SOL    HW123387   0.250   3.785   9.353 -1.6132  0.2635 -0.0897
 3917SOL    HW223388   0.164   3.898   9.401  0.6131  0.0915 -0.7690
 3918SOL     OW23389   2.859   4.556   9.614  0.5733 -0.0154  0.7752
 3918SOL    HW123390   2.891   4.484   9.558 -0.9590  1.1253 -1.5745
 3918SOL    HW223391   2.767   4.535   9.626  0.4953  0.1157  0.4068
 3919SOL     OW23392   3.261   0.232   8.779  0.3993  0.3718 -0.0363
 3919SOL    HW123393   3.189   0.224   8.841  0.8264 -0.0901  0.3971
 3919SOL    HW223394   3.251   0.319   8.739 -0.1534  0.2342 -0.1855
 3920SOL     OW23395   1.880   3.055   6.634 -0.6644  0.3470  0.3571
 3920SOL    HW123396   1.882   2.971   6.588 -1.0327  0.9502 -0.7739
 3920SOL    HW223397   1.801   3.039   6.684 -0.3727  2.8503  1.6009
 3921SOL     OW23398   2.547   2.821  17.052 -0.3691 -0.4682 -1.1419
 3921SOL    HW123399   2.539   2.792  16.961 -0.2918 -1.7603 -0.7248
 3921SOL    HW223400   2.627   2.873  17.043 -1.1661  0.8114 -0.8423
 3922SOL     OW23401   2.814   4.340  12.212  0.5565 -0.0794 -0.1305
 3922SOL    HW123402   2.836   4.398  12.140 -3.8879  2.6025  0.6857
 3922SOL    HW223403   2.719   4.336  12.199  0.7203 -3.6185 -0.1882
 3923SOL     OW23404   2.154   1.775   4.171 -0.0323 -0.2498  0.2418
 3923SOL    HW123405   2.166   1.686   4.139 -1.1231 -1.2501  2.6612
 3923SOL    HW223406   2.107   1.757   4.252  0.2411  0.2499  0.5205
 3924SOL     OW23407   4.190   4.629  17.064  0.0819  0.2744  0.3505
 3924SOL    HW123408   4.258   4.599  17.003 -2.0279  0.4526 -2.1119
 3924SOL    HW223409   4.220   4.718  17.081 -2.0708  0.6855  1.9086
 3925SOL     OW23410   4.339   1.352   2.759  0.4691 -0.2022  0.2308
 3925SOL    HW123411   4.360   1.259   2.750 -0.0480 -0.2642 -0.2820
 3925SOL    HW223412   4.427   1.390   2.752 -0.0280  1.0941  1.0262
 3926SOL     OW23413   3.120   1.311   6.356  0.1809 -0.0586  0.7532
 3926SOL    HW123414   3.045   1.319   6.416 -0.7019  3.2597 -0.7866
 3926SOL    HW223415   3.141   1.405   6.352  2.5328 -0.6007  0.4279
 3927SOL     OW23416   4.570   3.484   4.465 -0.2336  0.5252 -0.0222
 3927SOL    HW123417   4.628   3.495   4.540 -0.7635 -1.1530  0.6498
 3927SOL    HW223418   4.621   3.427   4.407 -3.3471 -3.0211  0.6345
 3928SOL     OW23419   1.024   2.152   7.825  0.3947 -0.1514 -0.0753
 3928SOL    HW123420   1.052   2.243   7.809  2.1527 -0.5065  0.9612
 3928SOL    HW223421   0.961   2.168   7.895 -0.6256 -0.0559 -1.0231
 3929SOL     OW23422   0.387   4.671  13.077 -0.7358  0.7607 -0.3531
 3929SOL    HW123423   0.397   4.601  13.142  0.5407  2.1223  0.9139
 3929SOL    HW223424   0.463   4.655  13.020 -1.2011 -1.5746 -0.3141
 3930SOL     OW23425   2.528   0.694   9.492 -0.3819 -0.1788  0.0566
 3930SOL    HW123426   2.527   0.652   9.577  0.8808  1.2781  0.7935
 3930SOL    HW223427   2.469   0.769   9.502 -1.3372 -1.1099  1.3934
 3931SOL     OW23428   2.360   3.208   1.777  0.4217 -0.3664  0.2457
 3931SOL    HW123429   2.381   3.298   1.753 -1.2976 -0.4467 -1.5299
 3931SOL    HW223430   2.269   3.221   1.804  0.5489  1.7151 -0.2812
 3932SOL     OW23431   2.208   1.676   5.774 -0.2943  0.4806 -0.1506
 3932SOL    HW123432   2.278   1.661   5.711 -0.2904 -0.1693  0.0112
 3932SOL    HW223433   2.145   1.607   5.756  0.3161 -0.9477  3.2073
 3933SOL     OW23434   1.674   0.079   8.326  0.1688  0.0237  0.6241
 3933SOL    HW123435   1.675   0.123   8.411  2.0576  0.3380  0.4516
 3933SOL    HW223436   1.590   0.110   8.293 -0.0823 -2.1337 -0.7628
 3934SOL     OW23437   4.030   3.089  12.781  0.3509  0.1769 -0.4140
 3934SOL    HW123438   4.082   3.013  12.754  0.8172  0.1479  0.5603
 3934SOL    HW223439   4.092   3.141  12.833 -0.2522  0.0717  0.4069
 3935SOL     OW23440   1.992   1.167  17.348  0.2407 -0.0266  0.5068
 3935SOL    HW123441   2.002   1.081  17.308 -1.4071  0.4943 -1.0024
 3935SOL    HW223442   1.988   1.224  17.271 -0.7820  1.5643  1.7308
 3936SOL     OW23443   1.071   0.043   7.266 -0.1038 -0.2614  0.2430
 3936SOL    HW123444   1.074   4.695   7.222  0.6513 -0.5213  0.7846
 3936SOL    HW223445   1.111   0.103   7.203 -0.2258  0.1441  0.5511
 3937SOL     OW23446   1.249   3.666   1.040 -0.6198  0.1961 -0.4545
 3937SOL    HW123447   1.209   3.699   1.120  1.0175 -1.2726  0.9478
 3937SOL    HW223448   1.176   3.615   1.004 -0.3912  0.3589 -1.1581
 3938SOL     OW23449   0.036   2.536   8.861  0.2107 -0.0278 -0.0407
 3938SOL    HW123450   0.090   2.469   8.904 -0.6023 -1.0595 -0.6268
 3938SOL    HW223451   0.091   2.614   8.874  1.5134 -1.1128  0.9643
 3939SOL     OW23452   1.031   1.734   7.912  0.3884 -0.3231  0.4124
 3939SOL    HW123453   1.112   1.733   7.862  0.1951  1.2377  0.0546
 3939SOL    HW223454   1.014   1.644   7.940 -1.2097  0.0424  0.6297
 3940SOL     OW23455   0.716   2.388   1.736  0.0062  0.1777  0.3725
 3940SOL    HW123456   0.662   2.456   1.695 -0.2245 -0.3564 -0.2081
 3940SOL    HW223457   0.791   2.381   1.677 -0.3018 -1.5906  0.2124
 3941SOL     OW23458   2.701   1.099  17.490 -0.0095  0.4187 -0.4651
 3941SOL    HW123459   2.616   1.065  17.462  0.7923  0.3799 -2.8186
 3941SOL    HW223460   2.697   1.194  17.501  1.4785  0.6339 -1.8352
 3942SOL     OW23461   0.269   2.544  12.095 -0.3714  0.1929 -0.2676
 3942SOL    HW123462   0.190   2.504  12.058 -0.1658 -2.0289  1.6857
 3942SOL    HW223463   0.314   2.573  12.015 -0.3562  0.3327 -0.2078
 3943SOL     OW23464   0.525   4.654  12.089 -0.3762  0.6704  0.8663
 3943SOL    HW123465   0.492   4.709  12.161 -0.2202  3.9615 -1.5556
 3943SOL    HW223466   0.514   4.571  12.135  1.3177  0.5311  1.0264
 3944SOL     OW23467   0.280   3.049   6.411  0.3760 -0.0003 -0.0401
 3944SOL    HW123468   0.251   3.103   6.485  2.3524  0.6309  0.2949
 3944SOL    HW223469   0.332   2.981   6.453  0.2249  0.7852  1.4100
 3945SOL     OW23470   0.466   2.755   8.620 -0.2118 -0.0449 -0.4061
 3945SOL    HW123471   0.511   2.714   8.546 -0.3304 -0.8146 -0.0413
 3945SOL    HW223472   0.453   2.838   8.573 -1.2016 -1.7620 -3.1595
 3946SOL     OW23473   4.093   2.537   5.386  0.5303  0.1175  0.2636
 3946SOL    HW123474   4.100   2.498   5.474  1.5191 -0.2573  0.0201
 3946SOL    HW223475   4.013   2.588   5.396 -1.4794 -2.7682 -1.3149
 3947SOL     OW23476   3.353   3.986  10.263  0.4785 -0.2513 -0.2958
 3947SOL    HW123477   3.332   4.062  10.209 -0.1416 -1.3033 -1.5489
 3947SOL    HW223478   3.341   4.027  10.348  0.5703 -0.4669 -0.1802
 3948SOL     OW23479   2.382   4.724   2.687 -0.0768  0.7158  0.1754
 3948SOL    HW123480   2.308   0.007   2.630 -1.1792  2.0659  2.1096
 3948SOL    HW223481   2.449   0.025   2.630 -0.4434  1.1469  0.0339
 3949SOL     OW23482   1.620   3.593   4.612  0.1174 -0.1683 -0.2291
 3949SOL    HW123483   1.649   3.506   4.640  0.4659 -0.3505 -1.1622
 3949SOL    HW223484   1.695   3.637   4.572  1.0718 -0.9980  0.6361
 3950SOL     OW23485   4.584   2.672  15.774  0.3697 -0.6438  0.3749
 3950SOL    HW123486   4.637   2.746  15.803 -1.4600  0.0275  2.0119
 3950SOL    HW223487   4.505   2.719  15.747  1.1347  0.0173 -0.7245
 3951SOL     OW23488   2.468   2.676   7.075 -0.5435 -0.4060 -0.2190
 3951SOL    HW123489   2.509   2.590   7.065 -1.3095 -1.0467  2.1772
 3951SOL    HW223490   2.513   2.705   7.154  1.7686  1.0156 -2.0595
 3952SOL     OW23491   0.779   4.211   6.259 -0.0942 -0.4716  0.7977
 3952SOL    HW123492   0.737   4.276   6.315 -1.7081  1.3363 -2.4552
 3952SOL    HW223493   0.832   4.160   6.320 -1.6970 -0.7271  1.9627
 3953SOL     OW23494   4.516   3.233   3.082 -0.2483 -0.0636  0.6544
 3953SOL    HW123495   4.589   3.257   3.139  0.7926  1.4915 -1.3436
 3953SOL    HW223496   4.536   3.272   2.997 -2.0348  0.4423  0.4714
 3954SOL     OW23497   3.649   1.629   5.859 -0.4734  0.2074  0.6321
 3954SOL    HW123498   3.697   1.572   5.799 -0.5756  1.2423 -0.4307
 3954SOL    HW223499   3.617   1.704   5.810  0.7413  1.0776  1.1659
 3955SOL     OW23500   0.732   0.994   6.010  0.1752  0.2649  0.1327
 3955SOL    HW123501   0.765   0.964   5.925  0.2938  1.0163 -0.0883
 3955SOL    HW223502   0.742   1.089   6.005 -0.9519  0.2647 -2.1956
 3956SOL     OW23503   1.648   2.887  10.895  0.0950  0.0000  0.2983
 3956SOL    HW123504   1.615   2.846  10.975  1.0536  0.4866  0.9522
 3956SOL    HW223505   1.730   2.928  10.926  0.0568 -0.1210  0.5549
 3957SOL     OW23506   1.312   0.031  16.642  0.3527  0.4249  0.0068
 3957SOL    HW123507   1.332   4.676  16.628 -2.3687 -0.0693 -0.5807
 3957SOL    HW223508   1.390   0.073  16.606 -0.5238  2.8890  0.9891
 3958SOL     OW23509   1.631   3.970   3.212 -0.1976  0.1892 -0.1277
 3958SOL    HW123510   1.567   3.953   3.282 -1.1115  0.4790 -0.8904
 3958SOL    HW223511   1.592   4.048   3.173 -2.6947  0.0520  2.0502
 3959SOL     OW23512   4.059   1.124  17.447  0.4712 -0.1479  0.4195
 3959SOL    HW123513   4.100   1.072  17.378 -0.2390  2.2791 -1.8603
 3959SOL    HW223514   3.983   1.068  17.460 -0.6473  0.8854 -1.7354
 3960SOL     OW23515   0.687   1.944   8.570 -0.1700  0.4100 -0.3123
 3960SOL    HW123516   0.647   2.004   8.508  1.6029  0.7820 -1.0932
 3960SOL    HW223517   0.781   1.960   8.566  0.0719 -0.3827  1.8582
 3961SOL     OW23518   4.521   2.542   9.007 -0.0345 -0.4295 -0.1724
 3961SOL    HW123519   4.609   2.533   8.971 -0.2585 -1.8056 -0.4069
 3961SOL    HW223520   4.527   2.637   9.007 -0.4636 -0.4046 -0.2088
 3962SOL     OW23521   0.409   0.330   8.318  0.1340 -0.1342  0.6874
 3962SOL    HW123522   0.384   0.395   8.384 -1.4856  1.3303 -1.3862
 3962SOL    HW223523   0.499   0.362   8.314 -0.3173  1.0885  0.4228
 3963SOL     OW23524   2.422   2.856  12.029  0.2341  0.5685 -0.0494
 3963SOL    HW123525   2.493   2.877  12.090  0.6822 -0.1593 -0.3235
 3963SOL    HW223526   2.346   2.866  12.087 -0.3012 -0.1217 -0.6328
 3964SOL     OW23527   2.340   3.428   2.813  0.4571  0.0142 -0.5926
 3964SOL    HW123528   2.398   3.446   2.887  0.0793  0.6776 -0.4659
 3964SOL    HW223529   2.390   3.458   2.737 -0.7067  3.3181 -0.0327
 3965SOL     OW23530   2.330   2.795  16.358  0.9663  0.1831 -0.1465
 3965SOL    HW123531   2.325   2.881  16.399 -3.8460 -1.3223  2.4483
 3965SOL    HW223532   2.236   2.785  16.341  0.5857  0.5874  1.7526
 3966SOL     OW23533   4.642   2.714   4.035  0.4740 -0.0203 -0.7277
 3966SOL    HW123534   4.717   2.723   4.093  0.3531 -0.8135 -0.4489
 3966SOL    HW223535   4.596   2.653   4.093 -1.0152  0.3490 -1.5176
 3967SOL     OW23536   4.419   4.132   9.332 -0.1065 -0.1918  0.1137
 3967SOL    HW123537   4.366   4.089   9.399  0.4121  1.3369  1.5178
 3967SOL    HW223538   4.432   4.210   9.386 -1.5423  1.5828 -2.0986
 3968SOL     OW23539   1.049   2.081   2.787 -0.3611  0.0245  0.4091
 3968SOL    HW123540   0.989   2.043   2.851  0.8428 -1.6166  0.5635
 3968SOL    HW223541   1.073   2.010   2.728  1.5062 -0.7770  2.1038
 3969SOL     OW23542   1.669   2.308   3.883  0.6680 -0.1685 -0.1422
 3969SOL    HW123543   1.591   2.254   3.873  1.4847 -1.5754  1.2185
 3969SOL    HW223544   1.728   2.259   3.826  0.8117 -0.8078  0.5616
 3970SOL     OW23545   1.569   1.330   2.961 -0.0140  0.4828  0.1037
 3970SOL    HW123546   1.501   1.388   2.995 -1.9258 -2.4570  1.3303
 3970SOL    HW223547   1.645   1.356   3.013  0.0622 -0.8091  0.6269
 3971SOL     OW23548   2.391   3.958   9.566  0.0907 -0.7436  0.5312
 3971SOL    HW123549   2.394   3.872   9.609 -0.1486 -0.4147  1.2035
 3971SOL    HW223550   2.338   4.005   9.630 -0.4214  0.9793 -1.1663
 3972SOL     OW23551   2.363   2.790   5.236 -0.0859  0.2975 -0.0822
 3972SOL    HW123552   2.289   2.813   5.179  1.0505  2.6575 -0.5863
 3972SOL    HW223553   2.310   2.740   5.298 -0.0895  1.3059  0.7380
 3973SOL     OW23554   2.166   3.203   2.846 -0.3622  0.4674 -0.4221
 3973SOL    HW123555   2.233   3.266   2.821 -1.5874  2.2007  0.6315
 3973SOL    HW223556   2.192   3.163   2.929 -0.9229 -1.2864 -1.0809
 3974SOL     OW23557   0.944   2.677   8.069  0.7728  0.2638  0.8947
 3974SOL    HW123558   0.943   2.609   8.002 -1.1989  2.4294 -1.2849
 3974SOL    HW223559   1.029   2.718   8.050  0.9972  0.4643  2.3169
 3975SOL     OW23560   4.350   1.655   7.818  0.1863  0.2664  0.2211
 3975SOL    HW123561   4.370   1.712   7.892 -1.0722  0.8459  0.1064
 3975SOL    HW223562   4.257   1.677   7.813  0.2119  0.5403  1.0219
 3976SOL     OW23563   2.811   2.339   3.673  0.0648  1.0969  0.1149
 3976SOL    HW123564   2.802   2.253   3.631 -2.4478  2.7969 -2.8241
 3976SOL    HW223565   2.881   2.317   3.734  0.1853  2.0236  0.3124
 3977SOL     OW23566   3.246   4.530   7.852  0.0952 -0.2794  0.4273
 3977SOL    HW123567   3.280   4.457   7.904 -0.0419 -0.2028  0.6225
 3977SOL    HW223568   3.158   4.508   7.822  0.2604 -0.2988 -0.0611
 3978SOL     OW23569   3.206   4.064   3.895  0.3948  0.2921 -0.1055
 3978SOL    HW123570   3.135   4.031   3.951 -0.3503  1.1948 -0.5251
 3978SOL    HW223571   3.215   4.157   3.916  1.4470  0.1610  0.0241
 3979SOL     OW23572   2.750   0.459   7.203  0.0950 -0.3982  0.2762
 3979SOL    HW123573   2.785   0.507   7.128  0.7636  2.3429  2.3469
 3979SOL    HW223574   2.656   0.477   7.209  0.0351 -0.5135 -0.2958
 3980SOL     OW23575   3.543   0.682   6.069 -0.0778 -0.1930  0.4252
 3980SOL    HW123576   3.498   0.720   6.144  1.0279  2.4303 -0.2465
 3980SOL    HW223577   3.608   0.743   6.035  0.8498 -2.0350 -1.0970
 3981SOL     OW23578   2.956   0.503  13.550 -0.0798 -0.0321  0.3787
 3981SOL    HW123579   2.996   0.498  13.463 -0.0110  1.6698  0.3057
 3981SOL    HW223580   3.013   0.452  13.608 -0.4356 -1.3487 -0.4463
 3982SOL     OW23581   1.363   3.939   4.620 -0.5134 -0.7393  0.7148
 3982SOL    HW123582   1.449   3.908   4.649  0.0190  3.1627  3.3623
 3982SOL    HW223583   1.306   3.902   4.687 -1.1857 -1.5178 -0.2948
 3983SOL     OW23584   4.474   1.172   0.297  0.1061 -0.0746 -0.3146
 3983SOL    HW123585   4.490   1.263   0.324 -1.7616  0.2015 -0.1240
 3983SOL    HW223586   4.559   1.139   0.270 -0.1732 -0.7640 -0.3447
 3984SOL     OW23587   0.785   3.516  11.086 -0.2491 -0.0009 -0.0212
 3984SOL    HW123588   0.725   3.579  11.047 -1.0520 -0.1965  0.9210
 3984SOL    HW223589   0.769   3.510  11.180  0.6466  2.8207  0.3121
 3985SOL     OW23590   0.197   3.210  17.141  0.0814 -0.5685  0.3292
 3985SOL    HW123591   0.241   3.260  17.072 -1.2842  0.4487  0.2007
 3985SOL    HW223592   0.107   3.240  17.129  1.3480  1.9928 -2.7280
 3986SOL     OW23593   0.284   4.463  10.042  0.4617 -0.4130 -0.2406
 3986SOL    HW123594   0.263   4.556  10.044  3.0226  0.1386  1.0289
 3986SOL    HW223595   0.345   4.463   9.968 -0.0794 -0.7063 -0.6828
 3987SOL     OW23596   2.363   3.481   5.978  0.3580 -0.0383  0.0634
 3987SOL    HW123597   2.345   3.460   6.070  0.1361 -0.2420 -0.0247
 3987SOL    HW223598   2.414   3.558   6.001  1.3479 -0.1308 -1.8140
 3988SOL     OW23599   1.877   1.068   7.954  0.6773  0.2440  0.0432
 3988SOL    HW123600   1.930   1.148   7.959  0.5423  0.2535  1.4105
 3988SOL    HW223601   1.940   1.006   7.919  0.3066 -1.2844  2.1151
 3989SOL     OW23602   4.320   3.439  13.891 -0.8914  0.5581 -0.6749
 3989SOL    HW123603   4.393   3.377  13.893 -1.0004  0.5127  1.3154
 3989SOL    HW223604   4.336   3.495  13.967  0.2355 -0.0012 -0.5010
 3990SOL     OW23605   3.206   0.482   8.657  0.0272  0.3680  0.1132
 3990SOL    HW123606   3.299   0.505   8.651 -0.4526  2.0976 -0.7488
 3990SOL    HW223607   3.168   0.570   8.667  3.3776  1.8448 -0.1093
 3991SOL     OW23608   2.884   2.637   7.713  0.9850 -0.1334 -0.5243
 3991SOL    HW123609   2.919   2.636   7.802 -1.5018  0.6585  0.4455
 3991SOL    HW223610   2.910   2.724   7.681 -0.7178 -0.6629 -3.3736
 3992SOL     OW23611   4.465   4.159  16.086 -0.6349  0.0900  0.0854
 3992SOL    HW123612   4.403   4.110  16.032  0.1441 -0.3667 -0.3977
 3992SOL    HW223613   4.447   4.126  16.174 -0.3358 -1.3385 -0.3982
 3993SOL     OW23614   2.927   3.353   5.291  0.1440 -0.3641  0.2945
 3993SOL    HW123615   2.891   3.300   5.362  0.8716  1.1311  1.7994
 3993SOL    HW223616   2.921   3.294   5.217 -0.8286 -0.5099  0.4945
 3994SOL     OW23617   3.618   0.610   5.582  0.1690 -0.2055  0.3259
 3994SOL    HW123618   3.640   0.693   5.624  0.0671  0.0198 -0.0692
 3994SOL    HW223619   3.574   0.572   5.658 -1.4428  0.5033 -0.2677
 3995SOL     OW23620   0.503   3.568   6.880  0.5321 -0.2298 -0.3967
 3995SOL    HW123621   0.471   3.657   6.863  1.1320  0.2346  0.9287
 3995SOL    HW223622   0.596   3.571   6.899  1.1470 -2.1354 -3.1683
 3996SOL     OW23623   1.018   3.044   4.014  0.5060  0.0006 -0.0849
 3996SOL    HW123624   1.021   2.981   3.942 -1.4419 -0.8336  0.5539
 3996SOL    HW223625   1.013   3.128   3.968  3.3630 -0.4973 -1.2875
 3997SOL     OW23626   1.674   4.059  12.875  0.3282 -0.1250 -0.0006
 3997SOL    HW123627   1.653   4.022  12.961  0.6106  1.1471  0.6050
 3997SOL    HW223628   1.694   3.976  12.832 -1.6186 -1.0836  0.9005
 3998SOL     OW23629   2.669   4.571   8.671 -0.0657  0.1554  0.3418
 3998SOL    HW123630   2.592   4.533   8.713  1.3647 -0.0893  2.7671
 3998SOL    HW223631   2.695   4.495   8.618 -1.8101  2.1695 -3.3165
 3999SOL     OW23632   4.715   1.516   4.389  1.1433 -0.2565  0.7614
 3999SOL    HW123633   4.702   1.588   4.328 -0.3630 -0.2256  1.1097
 3999SOL    HW223634   4.624   1.509   4.416  1.2430 -1.3067  0.8416
 4000SOL     OW23635   3.923   0.661   5.972  0.2038 -0.0836  0.0167
 4000SOL    HW123636   4.016   0.679   5.984  0.3582  0.7080 -2.2667
 4000SOL    HW223637   3.913   0.596   5.902  1.1917 -1.4706  1.1858
 4001SOL     OW23638   0.446   3.492   7.228 -0.0286  0.5070  0.4064
 4001SOL    HW123639   0.420   3.505   7.319 -0.6238 -0.1191  0.3232
 4001SOL    HW223640   0.534   3.454   7.231  0.1657  0.8402 -0.8319
 4002SOL     OW23641   2.599   4.280   7.383 -0.6262  0.0798  0.4871
 4002SOL    HW123642   2.524   4.335   7.361  1.6129  2.9627  0.0699
 4002SOL    HW223643   2.662   4.327   7.328 -1.0326  0.0137 -0.0409
 4003SOL     OW23644   0.469   3.135   2.195 -0.8661  0.1039 -0.2424
 4003SOL    HW123645   0.411   3.142   2.119 -1.4241 -1.7418  0.0109
 4003SOL    HW223646   0.499   3.224   2.212 -3.7816  1.2126 -0.8369
 4004SOL     OW23647   4.602   1.358   3.419  0.0974 -0.1507  0.4558
 4004SOL    HW123648   4.602   1.415   3.342  1.0612 -0.2516  0.3763
 4004SOL    HW223649   4.516   1.319   3.404  0.2354 -0.6966  1.1098
 4005SOL     OW23650   3.188   2.416   3.013  0.1706  0.1304  0.2143
 4005SOL    HW123651   3.126   2.426   3.085 -1.1566 -1.0773 -0.7677
 4005SOL    HW223652   3.192   2.507   2.981  1.5310 -0.2643 -0.7714
 4006SOL     OW23653   2.340   0.558   3.019 -0.1397 -0.5864 -0.1241
 4006SOL    HW123654   2.292   0.482   2.987  0.8403 -1.6769  0.9662
 4006SOL    HW223655   2.394   0.517   3.087 -0.9953  1.5985  1.8390
 4007SOL     OW23656   1.195   0.785   1.743  0.7785  0.6783 -0.6288
 4007SOL    HW123657   1.168   0.876   1.732 -1.0487  0.2581  0.3260
 4007SOL    HW223658   1.273   0.806   1.794 -0.6155  0.7963  1.4626
 4008SOL     OW23659   2.960   3.325  10.898 -0.9663  0.6202  0.2368
 4008SOL    HW123660   2.966   3.260  10.828 -0.7609 -0.0605  0.8882
 4008SOL    HW223661   3.043   3.319  10.945  0.8992 -1.1205 -3.2524
 4009SOL     OW23662   4.510   2.552   4.254 -0.4501  0.2349  0.0138
 4009SOL    HW123663   4.456   2.474   4.238 -0.9950  0.8821 -1.2654
 4009SOL    HW223664   4.446   2.610   4.295 -1.2916  0.1928 -1.2396
 4010SOL     OW23665   1.873   0.128   1.302 -0.2556 -0.1444 -0.0140
 4010SOL    HW123666   1.892   0.211   1.345  0.5266  0.1275 -0.8724
 4010SOL    HW223667   1.956   0.127   1.254 -0.7654 -0.0349 -0.9176
 4011SOL     OW23668   3.183   0.296   5.239 -0.7924 -0.2116 -0.2957
 4011SOL    HW123669   3.150   0.364   5.180  0.5130  2.0572  1.5673
 4011SOL    HW223670   3.216   0.227   5.182 -1.8858 -1.0506  0.0891
 4012SOL     OW23671   2.309   0.189   1.138 -0.2664  0.0633  0.4897
 4012SOL    HW123672   2.300   0.229   1.051  0.2966  0.9400  0.8370
 4012SOL    HW223673   2.387   0.234   1.170  1.5273 -1.5215 -1.6687
 4013SOL     OW23674   1.457   4.465   1.907  0.4042  0.5032  0.2666
 4013SOL    HW123675   1.541   4.483   1.866  0.2995 -0.2062 -0.2454
 4013SOL    HW223676   1.476   4.386   1.957  3.5521  0.8815 -0.3576
 4014SOL     OW23677   4.724   4.095   5.160 -0.2359 -0.2002  0.3244
 4014SOL    HW123678   4.635   4.060   5.170  0.0415 -0.0814  3.1614
 4014SOL    HW223679   0.019   4.069   5.246  0.0072 -0.7890  0.0510
 4015SOL     OW23680   3.345   3.502   8.379  0.2772  0.1029  0.2810
 4015SOL    HW123681   3.424   3.479   8.329 -0.4250 -0.2659 -0.6449
 4015SOL    HW223682   3.360   3.482   8.472  0.8489 -3.5744 -0.6179
 4016SOL     OW23683   2.089   3.350   6.723 -0.0531  0.0820  0.4640
 4016SOL    HW123684   1.993   3.351   6.712 -0.2974 -1.2243  2.4906
 4016SOL    HW223685   2.098   3.419   6.789 -0.2673  1.0582 -0.5362
 4017SOL     OW23686   2.990   3.014   1.053 -1.0813 -0.5746  0.0099
 4017SOL    HW123687   3.012   2.957   0.979  0.8478  0.0425  0.0888
 4017SOL    HW223688   3.013   2.955   1.125 -0.0430  2.7326  2.4086
 4018SOL     OW23689   3.325   3.834  16.791 -0.8682 -0.2414 -0.6464
 4018SOL    HW123690   3.275   3.903  16.836  0.1354 -0.0197  0.1325
 4018SOL    HW223691   3.374   3.802  16.866 -0.2031  2.5864  0.1557
 4019SOL     OW23692   2.214   4.462   2.585 -0.4851 -0.1486 -0.1976
 4019SOL    HW123693   2.130   4.441   2.625 -0.7507  0.1935 -0.5830
 4019SOL    HW223694   2.194   4.538   2.531  0.5997 -0.3239 -0.8550
 4020SOL     OW23695   0.096   4.722   6.001 -0.1247 -0.2565  0.6514
 4020SOL    HW123696   0.026   4.657   6.006 -1.3727  1.0430 -0.0142
 4020SOL    HW223697   0.069   0.038   5.926  0.7054 -0.1606  0.4202
 4021SOL     OW23698   3.925   2.725   4.584  0.1271 -0.1442 -0.0202
 4021SOL    HW123699   3.927   2.704   4.677 -0.0218  1.7687  0.4178
 4021SOL    HW223700   3.876   2.645   4.568  1.9471 -1.3656  0.4373
 4022SOL     OW23701   2.480   0.965   4.137 -0.0537  0.0934 -0.1354
 4022SOL    HW123702   2.468   0.914   4.217  0.1829  0.0884 -0.1006
 4022SOL    HW223703   2.397   0.942   4.096 -0.2714  0.0773  0.3162
 4023SOL     OW23704   0.385   0.802  13.869  0.3413  0.2126  0.2291
 4023SOL    HW123705   0.327   0.876  13.853  0.5666  0.4533  0.5258
 4023SOL    HW223706   0.473   0.828  13.840 -0.4252  0.3497 -1.9665
 4024SOL     OW23707   0.810   1.519   6.918 -0.2866  1.0159  0.3832
 4024SOL    HW123708   0.790   1.489   6.829 -0.3032 -1.2988  1.1619
 4024SOL    HW223709   0.864   1.445   6.947  0.1860  0.1118 -2.8373
 4025SOL     OW23710   4.330   2.605  17.171 -0.1232  0.6040 -0.1311
 4025SOL    HW123711   4.425   2.607  17.182  0.0595 -2.4102 -0.9738
 4025SOL    HW223712   4.319   2.528  17.115 -1.6106  0.1220  0.8147
 4026SOL     OW23713   0.304   3.924   5.252 -0.2111 -0.2426  0.4363
 4026SOL    HW123714   0.348   4.001   5.218  0.1967 -1.1658 -1.1460
 4026SOL    HW223715   0.330   3.924   5.344  0.7380 -1.4883  0.1723
 4027SOL     OW23716   1.509   2.198  14.767 -0.3823 -0.9622  0.0065
 4027SOL    HW123717   1.577   2.151  14.718 -0.9294  0.3058 -2.0009
 4027SOL    HW223718   1.562   2.266  14.809 -1.5037 -1.4624  2.1952
 4028SOL     OW23719   2.402   1.652   2.959  0.0022 -0.8573  0.7142
 4028SOL    HW123720   2.479   1.655   3.015 -0.0458  0.7035  0.7130
 4028SOL    HW223721   2.440   1.600   2.889  0.9651  3.0922 -1.7286
 4029SOL     OW23722   2.799   3.343  12.815 -0.4718 -0.1913 -0.2123
 4029SOL    HW123723   2.781   3.364  12.906  0.8044 -1.2896  0.2901
 4029SOL    HW223724   2.767   3.423  12.774  2.0596  0.5811 -0.6997
 4030SOL     OW23725   2.840   2.357   5.516 -0.2031  0.1045  0.1781
 4030SOL    HW123726   2.869   2.267   5.529 -1.2845  0.0613  2.3041
 4030SOL    HW223727   2.806   2.375   5.604  1.5209 -0.0633  0.8738
 4031SOL     OW23728   0.275   2.012   5.396  0.4625  0.0158  0.2509
 4031SOL    HW123729   0.298   2.105   5.391  1.4236 -0.1289  2.4292
 4031SOL    HW223730   0.325   1.983   5.471 -0.7815 -1.5508  0.4772
 4032SOL     OW23731   2.511   0.735   7.498 -0.0751 -0.4003  0.1706
 4032SOL    HW123732   2.561   0.802   7.544 -2.1542  1.7889 -0.7391
 4032SOL    HW223733   2.570   0.715   7.425 -2.1886 -3.1221 -0.7601
 4033SOL     OW23734   2.957   0.931   6.575  0.2046 -0.3700  0.0372
 4033SOL    HW123735   2.877   0.924   6.523  1.0929  0.8615 -1.4897
 4033SOL    HW223736   3.007   0.962   6.500 -0.6068  0.5514 -0.1250
 4034SOL     OW23737   4.182   4.567   9.287  0.0671  0.5960 -0.7466
 4034SOL    HW123738   4.130   4.531   9.358  0.8840  0.5595 -0.1634
 4034SOL    HW223739   4.112   4.607   9.236 -0.2917  1.6404  0.5588
 4035SOL     OW23740   3.763   3.937   5.912 -0.3360 -0.5857 -0.7899
 4035SOL    HW123741   3.842   3.949   5.860  0.5472  0.4653  0.7997
 4035SOL    HW223742   3.741   3.844   5.912 -0.2770 -0.6113  2.2163
 4036SOL     OW23743   2.870   2.514   2.239  0.1127  0.0794  0.1511
 4036SOL    HW123744   2.904   2.428   2.212 -0.9313  0.0349 -1.0239
 4036SOL    HW223745   2.779   2.518   2.209  0.0104  1.6325  0.7005
 4037SOL     OW23746   0.177   1.907  17.745  0.0953  0.1753  0.4803
 4037SOL    HW123747   0.187   1.986  17.692 -1.8036  0.0253 -0.1232
 4037SOL    HW223748   0.130   1.943   0.072  2.5906  0.8480  1.7125
 4038SOL     OW23749   4.622   4.584   7.865 -0.1463 -0.2522  0.0633
 4038SOL    HW123750   4.624   4.635   7.946  1.0026  1.4653 -1.0439
 4038SOL    HW223751   4.706   4.609   7.826 -0.5157 -0.2400 -0.7250
 4039SOL     OW23752   2.279   2.030   9.717 -0.9160  0.3128  0.0389
 4039SOL    HW123753   2.231   2.086   9.656 -1.6468 -0.0453  0.2887
 4039SOL    HW223754   2.235   2.059   9.797  0.6038 -1.9304  1.6784
 4040SOL     OW23755   1.458   4.211   6.560 -0.7076  0.4172 -0.5533
 4040SOL    HW123756   1.425   4.300   6.577  0.7328  0.8273  0.1651
 4040SOL    HW223757   1.455   4.164   6.643 -1.8921  0.1886 -0.7328
 4041SOL     OW23758   1.492   0.871  14.993  0.4807  0.0964  0.1372
 4041SOL    HW123759   1.430   0.902  14.927  0.7148  2.0323  0.8304
 4041SOL    HW223760   1.528   0.958  15.011  0.1979  0.7865 -2.6471
 4042SOL     OW23761   2.583   4.361   7.743  0.4867  0.0162  0.1295
 4042SOL    HW123762   2.502   4.403   7.716  0.8616  1.0613  0.6419
 4042SOL    HW223763   2.630   4.384   7.662 -3.0684  0.5889 -1.7590
 4043SOL     OW23764   3.747   0.998   8.549 -0.4721 -0.4510  0.2399
 4043SOL    HW123765   3.658   0.969   8.525 -0.2554 -0.7665 -0.1871
 4043SOL    HW223766   3.787   0.979   8.464 -1.2116  1.0658 -0.4430
 4044SOL     OW23767   4.550   3.593   3.731  0.1327  0.9098  0.1184
 4044SOL    HW123768   4.504   3.606   3.814 -1.0289  1.5629 -0.6237
 4044SOL    HW223769   4.492   3.521   3.705 -3.3837  2.9880  2.2680
 4045SOL     OW23770   2.604   2.397   4.728 -0.3114 -0.2075  0.4951
 4045SOL    HW123771   2.608   2.302   4.717  1.7220 -0.0523 -0.1558
 4045SOL    HW223772   2.607   2.429   4.637 -0.8291  0.5437  0.7432
 4046SOL     OW23773   1.793   0.699   7.720 -0.0908  0.6518  0.1963
 4046SOL    HW123774   1.842   0.685   7.640 -0.3349 -1.5165  0.4194
 4046SOL    HW223775   1.706   0.663   7.703 -0.0148  0.1012  0.9239
 4047SOL     OW23776   0.131   4.235   9.120 -0.3842  0.2335  0.1828
 4047SOL    HW123777   0.223   4.234   9.147 -0.3843  1.1243  0.2185
 4047SOL    HW223778   0.089   4.278   9.193 -2.5882 -0.0662 -0.9082
 4048SOL     OW23779   0.465   1.519   4.551 -0.9148  0.5805  0.2669
 4048SOL    HW123780   0.393   1.545   4.493 -1.0281  2.8931  1.4624
 4048SOL    HW223781   0.430   1.498   4.638  1.8760  1.4511  1.5988
 4049SOL     OW23782   2.755   1.734  14.737 -0.5351  0.1399 -0.1279
 4049SOL    HW123783   2.797   1.819  14.742 -0.3813 -0.0800  2.1136
 4049SOL    HW223784   2.757   1.718  14.642  0.0125  0.7207 -0.2137
 4050SOL     OW23785   4.372   0.275   4.730 -0.7684 -0.0801 -0.0416
 4050SOL    HW123786   4.446   0.259   4.788 -0.5086  0.7577 -0.1413
 4050SOL    HW223787   4.347   0.358   4.771 -1.9489 -1.0191  1.1166
 4051SOL     OW23788   4.473   0.327   1.935  0.2270 -0.6978  0.1694
 4051SOL    HW123789   4.408   0.257   1.932 -1.4585  0.7975  1.8839
 4051SOL    HW223790   4.475   0.339   1.840 -0.8794  0.5961  0.3053
 4052SOL     OW23791   3.040   0.188   6.136  0.1128  0.4631 -0.4506
 4052SOL    HW123792   2.957   0.140   6.144 -0.0455  1.2329  2.5765
 4052SOL    HW223793   3.088   0.179   6.219  0.6809  0.2604 -0.8067
 4053SOL     OW23794   4.701   1.938   6.425  0.4984 -0.1580 -0.1860
 4053SOL    HW123795   4.702   1.928   6.520  4.2397  1.6589 -0.0537
 4053SOL    HW223796   4.688   1.847   6.397  1.2362 -0.7556  1.3910
 4054SOL     OW23797   0.871   4.548   2.602 -0.5497 -0.1315  0.1277
 4054SOL    HW123798   0.915   4.540   2.518  0.9284  0.1226  0.8870
 4054SOL    HW223799   0.865   4.643   2.615  0.6625 -0.1088  0.5550
 4055SOL     OW23800   1.481   2.750   8.391 -0.1584  0.1662  0.2023
 4055SOL    HW123801   1.538   2.762   8.467 -1.1462  2.1382  0.6438
 4055SOL    HW223802   1.531   2.794   8.322  2.0034 -0.5518  1.3286
 4056SOL     OW23803   4.369   3.161  11.240 -0.1427 -0.1009  0.2563
 4056SOL    HW123804   4.351   3.073  11.272  0.0241 -0.7858 -1.5286
 4056SOL    HW223805   4.428   3.153  11.165 -0.7984  0.1393 -0.2841
 4057SOL     OW23806   2.629   2.213   1.988 -0.2075  0.8444 -0.0389
 4057SOL    HW123807   2.551   2.170   1.953  0.6693 -1.1623  0.4459
 4057SOL    HW223808   2.702   2.155   1.966 -1.6663 -0.6964 -0.8558
 4058SOL     OW23809   3.199   4.248   9.737  0.2152 -0.5858  0.3253
 4058SOL    HW123810   3.241   4.163   9.748  1.0451 -0.0110  1.5980
 4058SOL    HW223811   3.107   4.233   9.715  0.0187  1.0339 -0.0247
 4059SOL     OW23812   4.451   0.653   5.435  0.0749  0.3433  0.0110
 4059SOL    HW123813   4.364   0.659   5.474  0.5052  4.5739  0.3229
 4059SOL    HW223814   4.423   0.651   5.344 -1.2531  1.3542  0.4047
 4060SOL     OW23815   1.533   4.148   4.959 -0.6929  0.2208  0.4899
 4060SOL    HW123816   1.617   4.165   4.917  0.0235 -1.6563  1.1856
 4060SOL    HW223817   1.554   4.073   5.014  0.9272  1.4752  1.5822
 4061SOL     OW23818   3.171   1.247   2.086  0.1014  0.3229  0.0771
 4061SOL    HW123819   3.176   1.317   2.150  0.7163 -1.0658  1.5427
 4061SOL    HW223820   3.213   1.297   2.015  0.1150 -2.1255 -1.6435
 4062SOL     OW23821   3.413   4.121  14.774 -0.8332  0.5447  0.1890
 4062SOL    HW123822   3.472   4.179  14.725  0.6855  0.2095  1.6045
 4062SOL    HW223823   3.383   4.174  14.847  1.0126  0.7553  0.7982
 4063SOL     OW23824   3.173   1.207  17.183  0.0536 -0.3310  0.4975
 4063SOL    HW123825   3.174   1.291  17.136 -1.0045 -0.8786 -0.4978
 4063SOL    HW223826   3.260   1.171  17.165  0.7134  2.3939 -1.8465
 4064SOL     OW23827   0.636   1.265   3.781  0.2285  0.0244  0.2802
 4064SOL    HW123828   0.704   1.198   3.771  0.5247  0.3751 -0.0672
 4064SOL    HW223829   0.691   1.309   3.845  0.6908  0.5245 -0.4642
 4065SOL     OW23830   2.441   2.412   5.504  0.2432  0.9301  0.8166
 4065SOL    HW123831   2.476   2.455   5.425 -1.2175  3.1799  1.4022
 4065SOL    HW223832   2.412   2.488   5.554  0.1433  1.6711 -0.3633
 4066SOL     OW23833   3.774   2.089   0.345 -0.4928 -0.0638 -0.3541
 4066SOL    HW123834   3.782   2.013   0.287 -0.3661 -0.3694  0.0656
 4066SOL    HW223835   3.862   2.093   0.381 -0.4058 -1.1077 -0.4699
 4067SOL     OW23836   1.084   0.164  15.426  0.5328  0.1671 -0.0578
 4067SOL    HW123837   1.172   0.189  15.397  0.7231  1.0054  1.2479
 4067SOL    HW223838   1.104   0.077  15.460 -1.0871 -0.3932 -0.5108
 4068SOL     OW23839   0.837   0.370   8.773  0.2457  0.3695 -0.8041
 4068SOL    HW123840   0.824   0.306   8.703  1.7628 -1.1870  0.3340
 4068SOL    HW223841   0.928   0.361   8.798  0.7363  2.9998 -1.6413
 4069SOL     OW23842   3.543   1.807   5.672  0.8159  0.0085  0.1017
 4069SOL    HW123843   3.553   1.898   5.645 -1.2228  0.3413  0.4871
 4069SOL    HW223844   3.449   1.792   5.686  1.0735 -0.8497  0.9545
 4070SOL     OW23845   2.907   4.034   4.122  0.1916  0.1617  0.6417
 4070SOL    HW123846   2.961   4.042   4.200 -0.2756  3.1239  0.6548
 4070SOL    HW223847   2.929   4.115   4.075  1.2570  0.1319  1.0959
 4071SOL     OW23848   1.258   0.394   3.319 -0.3103 -0.5847  1.2112
 4071SOL    HW123849   1.172   0.417   3.352  0.2092  2.1844  0.5818
 4071SOL    HW223850   1.233   0.320   3.263  1.6739  0.2570 -0.7790
 4072SOL     OW23851   3.664   1.510   2.418  1.0208 -0.4452 -0.1208
 4072SOL    HW123852   3.683   1.517   2.324 -1.5414 -0.9796 -0.6563
 4072SOL    HW223853   3.738   1.454   2.441  1.1852 -0.4006 -0.5470
 4073SOL     OW23854   0.810   2.432   3.275  0.4208  0.1567  0.4624
 4073SOL    HW123855   0.869   2.494   3.232  0.2986 -1.0917 -1.4900
 4073SOL    HW223856   0.754   2.488   3.329 -1.9730 -1.7182 -0.0960
 4074SOL     OW23857   2.163   2.546  17.700 -0.3632  0.1017  0.2229
 4074SOL    HW123858   2.072   2.545  17.672 -0.0021  3.9063 -1.1333
 4074SOL    HW223859   2.197   2.460  17.677  0.8184  1.6910 -4.1326
 4075SOL     OW23860   1.568   1.482   2.438  0.1333 -0.1976  0.3532
 4075SOL    HW123861   1.663   1.486   2.423  0.3929 -1.1290  1.7456
 4075SOL    HW223862   1.557   1.499   2.531 -0.4149  1.1024  0.0405
 4076SOL     OW23863   0.589   3.428   2.720  0.1018  0.0463 -0.3966
 4076SOL    HW123864   0.657   3.374   2.681 -1.1724 -1.0781 -1.0703
 4076SOL    HW223865   0.522   3.390   2.664 -0.1159  1.8520 -1.3781
 4077SOL     OW23866   0.718   4.296   8.790  0.9719  0.6753  0.5266
 4077SOL    HW123867   0.758   4.227   8.737  0.3208  0.5363  0.2179
 4077SOL    HW223868   0.785   4.364   8.782  0.9934  0.6268  0.2868
 4078SOL     OW23869   2.276   0.753   2.836  0.5502  0.0897 -0.2601
 4078SOL    HW123870   2.316   0.681   2.883 -0.4479 -0.9495 -1.0142
 4078SOL    HW223871   2.212   0.790   2.897  0.2724 -0.0984 -0.4380
 4079SOL     OW23872   0.089   4.010   2.456 -0.2060 -0.0412 -0.7073
 4079SOL    HW123873   0.003   3.976   2.431 -0.1700  0.1511 -1.0964
 4079SOL    HW223874   0.144   3.970   2.389  1.9403  0.9461  0.4728
 4080SOL     OW23875   3.647   1.855   0.482  0.6264  0.7185  0.6441
 4080SOL    HW123876   3.694   1.782   0.441 -1.6500  0.3741 -1.3336
 4080SOL    HW223877   3.674   1.933   0.433 -2.1015  0.8503 -0.6739
 4081SOL     OW23878   4.358   4.445   5.197 -0.0961  0.1330 -0.3446
 4081SOL    HW123879   4.426   4.481   5.139  0.6696 -0.2272  0.3245
 4081SOL    HW223880   4.301   4.406   5.132  0.7988 -0.7364 -0.6037
 4082SOL     OW23881   2.534   2.546   3.395  0.1000  0.0698 -0.0725
 4082SOL    HW123882   2.507   2.517   3.308  0.3603  0.1300 -0.1727
 4082SOL    HW223883   2.537   2.465   3.445  0.0144  0.2535  0.2314
 4083SOL     OW23884   4.375   2.115   3.189 -0.0473 -0.1429 -0.0084
 4083SOL    HW123885   4.318   2.168   3.133  1.5462  0.7630 -0.7721
 4083SOL    HW223886   4.371   2.157   3.275  2.9555  1.7112 -0.7931
 4084SOL     OW23887   1.611   4.222   2.302  0.0639 -0.4939  0.3957
 4084SOL    HW123888   1.599   4.284   2.374 -0.0843  0.7338 -0.6836
 4084SOL    HW223889   1.692   4.179   2.330  0.3754  0.1005  0.3908
 4085SOL     OW23890   2.468   0.981  13.934  0.0328 -0.1725  0.1659
 4085SOL    HW123891   2.408   0.906  13.941  0.6763 -0.5393  1.8892
 4085SOL    HW223892   2.407   1.054  13.930 -1.6820 -1.6861 -1.4203
 4086SOL     OW23893   2.296   1.791   8.088  0.5305 -0.5707 -0.1475
 4086SOL    HW123894   2.383   1.758   8.109  0.2478  0.9486  3.3842
 4086SOL    HW223895   2.271   1.838   8.167  0.8377  1.0690 -1.0078
 4087SOL     OW23896   4.123   1.723  12.227 -0.0560  0.0517 -0.5147
 4087SOL    HW123897   4.121   1.715  12.323 -1.3887  0.4520 -0.5169
 4087SOL    HW223898   4.058   1.791  12.210  1.8745  1.6400 -1.7027
 4088SOL     OW23899   0.969   2.961   7.738  0.1623  0.2644  0.2321
 4088SOL    HW123900   0.993   2.966   7.645 -0.2776 -3.5819 -0.0599
 4088SOL    HW223901   0.957   2.867   7.751  0.9594  0.2249  0.7218
 4089SOL     OW23902   1.517   4.341   5.146  0.3828  0.3636  0.1260
 4089SOL    HW123903   1.472   4.292   5.077  1.8898  0.2140 -0.7533
 4089SOL    HW223904   1.561   4.269   5.191 -0.3418 -0.8833 -1.1638
 4090SOL     OW23905   1.864   0.000   4.823  0.2599 -0.3308  0.0744
 4090SOL    HW123906   1.923   4.664   4.835  0.8055 -0.4396 -3.2820
 4090SOL    HW223907   1.780   4.704   4.856 -0.7399  0.1411 -1.9880
 4091SOL     OW23908   1.030   3.139   0.364  0.4373  0.2663  0.3649
 4091SOL    HW123909   0.985   3.224   0.363  1.4612  0.8189  1.3005
 4091SOL    HW223910   1.124   3.154   0.355  0.4674  0.2464  0.6506
 4092SOL     OW23911   3.185   3.819   4.692 -0.3432 -0.1106  0.0074
 4092SOL    HW123912   3.107   3.797   4.640  1.3648 -1.3540 -2.0494
 4092SOL    HW223913   3.168   3.906   4.727 -1.3805 -0.6425  0.8155
 4093SOL     OW23914   1.609   3.363   8.450 -0.0286  0.1703  0.1711
 4093SOL    HW123915   1.524   3.386   8.413  0.5565 -0.0029 -1.2707
 4093SOL    HW223916   1.592   3.269   8.456 -1.5168  0.4943  1.1023
 4094SOL     OW23917   0.700   0.621   3.097 -0.3336  0.0966 -0.0053
 4094SOL    HW123918   0.795   0.635   3.097 -0.5316  1.4538  2.5024
 4094SOL    HW223919   0.671   0.691   3.040  0.0292 -1.3420 -1.9494
 4095SOL     OW23920   1.274   0.624   2.727 -0.3021 -0.1132  0.3978
 4095SOL    HW123921   1.224   0.608   2.647  0.2043  0.8921 -0.1212
 4095SOL    HW223922   1.262   0.538   2.766  0.8102 -0.2116  0.5294
 4096SOL     OW23923   4.527   0.631   2.724 -0.0624 -0.2644  0.5726
 4096SOL    HW123924   4.543   0.634   2.630  2.0649 -1.3365  0.8949
 4096SOL    HW223925   4.607   0.671   2.758  1.3144 -1.4749 -1.2172
 4097SOL     OW23926   4.242   4.512   4.123 -0.1265 -0.0840  0.3058
 4097SOL    HW123927   4.290   4.590   4.149 -0.6214  0.5428 -0.6362
 4097SOL    HW223928   4.240   4.461   4.204  1.8724 -0.2279  0.2546
 4098SOL     OW23929   3.513   0.935   5.865 -0.0982  0.0694  0.1046
 4098SOL    HW123930   3.514   1.030   5.875  0.0978  0.1761 -0.9025
 4098SOL    HW223931   3.587   0.910   5.919 -0.8891 -2.1611  0.1595
 4099SOL     OW23932   2.242   4.073   9.787 -0.3330 -0.0001  0.0563
 4099SOL    HW123933   2.329   4.111   9.778  1.2769 -3.3885  1.5985
 4099SOL    HW223934   2.189   4.153   9.794  0.8536  0.9618 -1.9927
 4100SOL     OW23935   3.380   4.095   6.159 -0.5431  0.1916 -0.5351
 4100SOL    HW123936   3.404   4.187   6.152  1.4772 -0.1224  2.0849
 4100SOL    HW223937   3.368   4.080   6.253 -0.7279 -0.8227 -0.7248
 4101SOL     OW23938   1.903   1.013   1.522  0.5643  0.1060 -0.7166
 4101SOL    HW123939   1.878   0.920   1.526  2.0826 -0.2257  0.8209
 4101SOL    HW223940   1.983   1.016   1.573  0.0904  1.2696 -0.0383
 4102SOL     OW23941   2.639   4.684   7.262  0.0243 -0.0286 -0.3592
 4102SOL    HW123942   2.636   0.015   7.195 -0.6963 -0.1995 -0.4972
 4102SOL    HW223943   2.702   4.709   7.330  0.1262 -0.3607 -0.3301
 4103SOL     OW23944   3.755   2.129   4.128 -0.0297 -0.5192 -0.0382
 4103SOL    HW123945   3.683   2.066   4.122 -0.6255 -0.0659  2.7877
 4103SOL    HW223946   3.816   2.081   4.072  1.5073 -0.5119  1.6354
 4104SOL     OW23947   0.396   3.967  15.318  0.9479  0.2950 -0.0035
 4104SOL    HW123948   0.446   3.909  15.261 -2.2433 -1.3714 -1.0893
 4104SOL    HW223949   0.437   4.052  15.300  1.5673  0.2108  1.0012
 4105SOL     OW23950   0.683   1.717   3.924 -0.1360  0.0157  0.3424
 4105SOL    HW123951   0.625   1.778   3.970  0.8530  2.3379 -1.4897
 4105SOL    HW223952   0.633   1.694   3.845 -0.2891  1.3925  0.0487
 4106SOL     OW23953   2.132   4.004   7.461 -0.2234  0.6344  0.2487
 4106SOL    HW123954   2.104   3.919   7.427  1.6015  1.3067 -2.8715
 4106SOL    HW223955   2.075   4.069   7.421  0.6632  0.6552 -0.9780
 4107SOL     OW23956   4.230   4.699   7.559  0.4576 -0.5622 -0.3279
 4107SOL    HW123957   4.277   4.616   7.555  0.4270 -0.5707 -0.4974
 4107SOL    HW223958   4.203   4.718   7.469 -2.3691  0.8319  0.8153
 4108SOL     OW23959   3.014   4.497   3.976 -0.5754 -0.3131 -0.1598
 4108SOL    HW123960   3.058   4.580   3.996 -1.6452  0.0613  0.6567
 4108SOL    HW223961   2.982   4.523   3.890  0.6331 -1.0797 -0.8272
 4109SOL     OW23962   2.520   2.528   6.391 -0.2101 -0.2512 -0.4166
 4109SOL    HW123963   2.543   2.604   6.446  1.6104 -1.2387  0.1960
 4109SOL    HW223964   2.460   2.488   6.453 -1.3321  1.0549 -0.6468
 4110SOL     OW23965   1.468   2.916  11.155  0.1406  0.5448 -0.4299
 4110SOL    HW123966   1.439   2.862  11.229  2.8531 -1.3484 -0.7421
 4110SOL    HW223967   1.479   3.000  11.200  1.0401  0.3793 -0.3462
 4111SOL     OW23968   3.887   2.591  15.441  0.1128 -0.3810 -0.4549
 4111SOL    HW123969   3.963   2.622  15.391  0.6230 -0.8888  0.0188
 4111SOL    HW223970   3.920   2.502  15.448  1.9813  0.2941 -0.6122
 4112SOL     OW23971   0.736   0.516   7.825  0.5694 -0.1696  0.0097
 4112SOL    HW123972   0.710   0.558   7.907 -1.1828  0.3162 -0.7882
 4112SOL    HW223973   0.667   0.449   7.825  1.5208 -1.1529 -0.8384
 4113SOL     OW23974   4.720   4.069  14.932 -0.3225 -0.2564 -0.1939
 4113SOL    HW123975   4.687   4.003  14.992 -0.5811  0.2246  0.2005
 4113SOL    HW223976   0.075   4.076  14.954 -0.1425  1.7549 -1.6167
 4114SOL     OW23977   0.325   2.725   6.741  0.6106  0.3908 -0.1471
 4114SOL    HW123978   0.311   2.744   6.648  2.9813 -1.5505 -0.9098
 4114SOL    HW223979   0.320   2.811   6.783  1.3820  1.5487 -2.4269
 4115SOL     OW23980   2.227   1.843   2.875 -0.0644 -0.2422  0.4692
 4115SOL    HW123981   2.157   1.813   2.934  0.6428 -1.3386  0.7407
 4115SOL    HW223982   2.289   1.772   2.889  0.1930 -0.3637 -1.2932
 4116SOL     OW23983   3.212   1.350   4.199  0.3244 -0.2369  0.0385
 4116SOL    HW123984   3.140   1.313   4.250  0.3712 -0.7839 -0.2926
 4116SOL    HW223985   3.231   1.276   4.141  1.1598 -0.5805  0.7399
 4117SOL     OW23986   4.034   0.799   4.163  0.1341 -0.1334  0.4348
 4117SOL    HW123987   4.126   0.789   4.138 -0.3398 -2.9255 -0.1313
 4117SOL    HW223988   4.023   0.884   4.206  1.3285 -0.3360  1.1302
 4118SOL     OW23989   3.478   3.137   6.505  0.1162 -0.2238 -0.0577
 4118SOL    HW123990   3.480   3.199   6.579  1.1643 -0.7533  0.3464
 4118SOL    HW223991   3.383   3.122   6.501 -0.0205  0.2598  1.4894
 4119SOL     OW23992   0.850   1.063   7.641  0.3854 -0.6903  0.6976
 4119SOL    HW123993   0.873   0.970   7.649  1.4006 -0.5235 -0.4202
 4119SOL    HW223994   0.831   1.063   7.547  0.1624  1.8880  0.7433
 4120SOL     OW23995   0.483   0.705   1.198 -0.7669  0.4827 -0.2020
 4120SOL    HW123996   0.449   0.792   1.180  1.3205  1.3094 -0.0873
 4120SOL    HW223997   0.540   0.721   1.273 -2.2226 -1.4269  1.3353
 4121SOL     OW23998   2.550   1.346  13.212  0.3771  0.2695  0.3986
 4121SOL    HW123999   2.611   1.400  13.261  0.2249  0.6128  0.2096
 4121SOL    HW224000   2.590   1.335  13.125 -0.2645 -0.9903  0.2651
 4122SOL     OW24001   3.659   3.996   5.489  0.1998 -0.6393  0.0272
 4122SOL    HW124002   3.619   4.056   5.552  0.1439  1.1594 -1.7200
 4122SOL    HW224003   3.602   3.918   5.495 -0.0366 -0.4866 -0.2001
 4123SOL     OW24004   3.768   0.013   2.085  0.0977 -0.3474  0.4414
 4123SOL    HW124005   3.704   0.004   2.014  0.5293 -0.2060  0.0296
 4123SOL    HW224006   3.720   0.057   2.155 -1.3358 -1.1769  0.0003
 4124SOL     OW24007   1.608   2.498  11.245  0.1846 -0.1805 -0.8423
 4124SOL    HW124008   1.548   2.448  11.300 -0.5496  0.8868 -0.6691
 4124SOL    HW224009   1.573   2.493  11.156 -3.2062  0.8897  0.4241
 4125SOL     OW24010   3.271   4.329   3.916  0.2406 -0.2816 -0.4102
 4125SOL    HW124011   3.266   4.399   3.981 -1.2273  1.5763 -2.5530
 4125SOL    HW224012   3.272   4.382   3.837 -1.6664  0.1761 -0.1292
 4126SOL     OW24013   3.186   0.325   3.631  0.8128  0.2091  0.3048
 4126SOL    HW124014   3.150   0.308   3.718 -2.9681  3.1900 -0.6937
 4126SOL    HW224015   3.266   0.273   3.637 -0.5404 -2.1781 -2.1033
 4127SOL     OW24016   0.516   0.192   4.068 -0.6386 -0.0068  0.6135
 4127SOL    HW124017   0.587   0.233   4.019  2.1577 -3.8886  1.4661
 4127SOL    HW224018   0.466   0.272   4.081 -0.5952 -0.1177  1.4186
 4128SOL     OW24019   1.323   3.927  15.460 -0.7580 -0.0846  0.4098
 4128SOL    HW124020   1.254   3.978  15.417 -1.5608 -1.4412  0.0944
 4128SOL    HW224021   1.316   3.840  15.422 -0.5516  0.0947 -0.0427
 4129SOL     OW24022   1.371   3.994  11.582 -0.2069 -0.1961  0.1341
 4129SOL    HW124023   1.453   4.026  11.619 -1.3949  0.0990  2.5050
 4129SOL    HW224024   1.392   3.901  11.591  0.5183 -0.0407  0.0577
 4130SOL     OW24025   3.048   4.194   2.241 -0.3003 -0.3835 -0.4117
 4130SOL    HW124026   3.030   4.225   2.152  1.5235 -0.5266 -0.8297
 4130SOL    HW224027   2.987   4.245   2.294 -1.4595  0.2266 -2.3638
 4131SOL     OW24028   2.822   3.945   6.705  0.1160  0.0485  0.2342
 4131SOL    HW124029   2.882   3.954   6.780  1.3748 -0.7763 -0.6836
 4131SOL    HW224030   2.874   3.888   6.650  1.7357 -0.1840  2.0188
 4132SOL     OW24031   1.673   3.087  14.407  0.6935  0.7892  0.0501
 4132SOL    HW124032   1.675   3.163  14.347  1.5335  1.4779  0.9543
 4132SOL    HW224033   1.578   3.086  14.415  0.6703  0.9352 -0.1781
 4133SOL     OW24034   3.779   4.292   1.823 -0.1814 -0.2410  0.0910
 4133SOL    HW124035   3.751   4.269   1.734 -1.9779 -1.4963  0.9776
 4133SOL    HW224036   3.774   4.204   1.860 -3.3961 -0.0340  0.1779
 4134SOL     OW24037   0.353   1.759  12.611  0.0079  0.3653  0.0981
 4134SOL    HW124038   0.403   1.765  12.692  0.1718  1.1101 -0.0632
 4134SOL    HW224039   0.275   1.712  12.641  1.0117 -1.2764  0.1646
 4135SOL     OW24040   2.644   1.322   5.213 -0.0483 -0.2027  0.3554
 4135SOL    HW124041   2.611   1.247   5.164  0.9131 -0.8933  0.7886
 4135SOL    HW224042   2.724   1.347   5.167  0.5612 -1.5575  0.6895
 4136SOL     OW24043   3.456   1.327   4.418 -0.1815 -0.0417 -0.4584
 4136SOL    HW124044   3.375   1.356   4.460 -0.7485 -2.0542 -0.2057
 4136SOL    HW224045   3.449   1.234   4.436 -1.2711  0.2056  0.3644
 4137SOL     OW24046   2.034   4.082   8.510 -0.0656 -0.0918 -0.2615
 4137SOL    HW124047   2.110   4.046   8.463  0.0219  2.0371 -1.7673
 4137SOL    HW224048   2.060   4.058   8.599 -1.9038  0.6909  0.4742
 4138SOL     OW24049   4.166   1.129   1.909  0.1501  0.1446 -0.3084
 4138SOL    HW124050   4.213   1.093   1.985  1.4074  3.6554  0.6036
 4138SOL    HW224051   4.230   1.194   1.878 -0.3322 -0.2128 -2.0228
 4139SOL     OW24052   3.444   1.344   0.273 -0.4562  0.2092 -0.2212
 4139SOL    HW124053   3.423   1.429   0.234 -1.2330  0.5587  0.9551
 4139SOL    HW224054   3.526   1.318   0.232 -1.1186 -3.3932  0.8014
 4140SOL     OW24055   3.259   2.525   9.709  0.6326  0.1134  0.5156
 4140SOL    HW124056   3.328   2.519   9.642  0.3191 -0.0121  0.2051
 4140SOL    HW224057   3.289   2.453   9.764 -2.9090 -0.9758  0.9980
 4141SOL     OW24058   3.978   2.905  17.456  0.1652  0.1477  0.4878
 4141SOL    HW124059   4.065   2.938  17.480 -0.9511  1.2382  2.9734
 4141SOL    HW224060   3.998   2.876  17.367 -2.3338  0.9700 -0.3584
 4142SOL     OW24061   1.513   1.330   1.541  0.0258  0.3292 -0.0030
 4142SOL    HW124062   1.590   1.382   1.565  0.5130 -0.1246 -0.6038
 4142SOL    HW224063   1.549   1.242   1.551 -0.9591 -0.0279  0.4495
 4143SOL     OW24064   4.601   1.913   3.145  0.5468 -0.0460 -0.0124
 4143SOL    HW124065   4.628   2.000   3.115 -3.3514  1.0052 -0.5023
 4143SOL    HW224066   4.640   1.906   3.232  1.1827 -1.0765 -0.3750
 4144SOL     OW24067   3.635   2.670  15.546 -0.2349 -0.0038 -0.1018
 4144SOL    HW124068   3.714   2.629  15.510 -0.2219  0.4226 -0.5668
 4144SOL    HW224069   3.673   2.719  15.618  0.2519  0.8476 -0.9284
 4145SOL     OW24070   2.009   3.903   7.936  0.0296  0.0349  0.2507
 4145SOL    HW124071   2.045   3.946   7.858  0.0604 -0.3088  0.0770
 4145SOL    HW224072   2.035   3.963   8.007  0.6701 -0.0027  0.0519
 4146SOL     OW24073   1.212   1.324   6.278  0.3043  0.2294  0.2081
 4146SOL    HW124074   1.129   1.369   6.264 -0.6079 -1.1906  1.0777
 4146SOL    HW224075   1.256   1.377   6.345 -0.9330  3.0336 -1.1976
 4147SOL     OW24076   2.584   1.904   9.942  0.0535  0.0819  0.2657
 4147SOL    HW124077   2.554   1.893   9.852  0.1439  0.9761  0.1247
 4147SOL    HW224078   2.556   1.821   9.982  2.5121 -0.7406  0.2772
 4148SOL     OW24079   3.512   0.895  14.280  0.7739  0.3656  0.0775
 4148SOL    HW124080   3.467   0.952  14.218 -4.1935 -0.4360  2.9510
 4148SOL    HW224081   3.604   0.897  14.255  0.6163  0.6970 -0.4738
 4149SOL     OW24082   4.676   4.367  16.152  0.7022 -0.1064 -0.4344
 4149SOL    HW124083   4.625   4.293  16.120  0.3493  0.3815 -1.0050
 4149SOL    HW224084   4.728   4.388  16.074 -0.5752  0.5402 -1.1258
 4150SOL     OW24085   4.595   3.218   3.877  0.8617  0.3822 -0.1108
 4150SOL    HW124086   4.656   3.190   3.945 -0.4054  0.3647  1.0294
 4150SOL    HW224087   4.510   3.210   3.920  0.7607 -3.3801 -1.1003
 4151SOL     OW24088   0.012   1.170   0.605 -0.0109  0.0211 -0.0967
 4151SOL    HW124089   0.075   1.242   0.598 -0.7005  0.6004 -0.3311
 4151SOL    HW224090   0.062   1.089   0.598 -0.3402 -0.2458  0.6673
 4152SOL     OW24091   0.116   1.222   5.677 -0.0353 -0.0660  0.2674
 4152SOL    HW124092   0.050   1.152   5.675 -1.5427  1.3367  0.9455
 4152SOL    HW224093   0.134   1.241   5.585 -1.4026  1.0949  0.2345
 4153SOL     OW24094   3.855   0.916  11.764  0.2811 -0.3766  0.4016
 4153SOL    HW124095   3.843   0.989  11.825 -0.4342  0.7588 -1.1151
 4153SOL    HW224096   3.886   0.848  11.824  3.2468  0.6488  0.0405
 4154SOL     OW24097   4.231   3.765   2.142  0.4479 -0.2068 -0.5091
 4154SOL    HW124098   4.210   3.672   2.134  0.8133 -0.1176 -2.6817
 4154SOL    HW224099   4.253   3.786   2.051 -3.0800  3.3825 -0.5426
 4155SOL     OW24100   0.266   2.467   5.173  0.0283  0.2545 -0.1240
 4155SOL    HW124101   0.337   2.411   5.204 -1.4674  0.2639  3.3765
 4155SOL    HW224102   0.312   2.536   5.125 -2.8971  1.8811 -0.5984
 4156SOL     OW24103   3.562   4.469   1.884  0.4536  0.1256  0.3908
 4156SOL    HW124104   3.636   4.431   1.837  0.5172 -0.3159  0.8386
 4156SOL    HW224105   3.558   4.406   1.957  2.3336  0.9093  1.1738
 4157SOL     OW24106   2.905   4.383   0.603  0.0877  1.1830  0.0269
 4157SOL    HW124107   2.848   4.341   0.668  1.2042  4.1765  2.9584
 4157SOL    HW224108   2.981   4.400   0.658 -0.9566 -1.2254  2.2382
 4158SOL     OW24109   3.027   1.908   4.083  0.1465  0.3011  0.3209
 4158SOL    HW124110   3.040   1.918   3.989 -2.5162  0.4483 -0.0349
 4158SOL    HW224111   2.934   1.932   4.082 -0.3424 -1.5365  0.8136
 4159SOL     OW24112   1.709   3.808   5.857 -0.2545  0.1484  0.3067
 4159SOL    HW124113   1.801   3.833   5.867  0.4393 -1.2059 -2.6766
 4159SOL    HW224114   1.682   3.829   5.947  2.7984 -0.5965  1.3848
 4160SOL     OW24115   4.375   2.184   5.632 -0.3109 -0.5113 -0.2992
 4160SOL    HW124116   4.351   2.092   5.645  1.2257 -1.0650 -1.4175
 4160SOL    HW224117   4.433   2.183   5.555 -0.7332  1.2850 -0.6334
 4161SOL     OW24118   2.912   4.021   3.259 -0.1190 -0.2996  0.3497
 4161SOL    HW124119   2.827   4.032   3.215 -1.5050  0.2039  3.1648
 4161SOL    HW224120   2.924   4.107   3.299 -0.8520 -0.0759  0.0944
 4162SOL     OW24121   2.590   0.691   1.392 -0.2212  0.2806 -0.4767
 4162SOL    HW124122   2.623   0.773   1.356 -1.2307  0.8266 -0.1695
 4162SOL    HW224123   2.532   0.659   1.323  1.9633 -2.5031 -0.9689
 4163SOL     OW24124   2.127   3.654   2.711 -0.2223 -0.3169 -0.5398
 4163SOL    HW124125   2.076   3.687   2.636 -1.5546  1.2490  1.0534
 4163SOL    HW224126   2.072   3.580   2.734 -1.0471  0.8556  1.2706
 4164SOL     OW24127   1.871   1.421  17.177  0.1797 -0.3477 -0.0588
 4164SOL    HW124128   1.846   1.508  17.148 -2.1434 -0.4234  1.7263
 4164SOL    HW224129   1.880   1.441  17.271  1.5110 -0.3658 -0.1762
 4165SOL     OW24130   1.781   4.111   7.807  0.5055  0.2252 -0.6034
 4165SOL    HW124131   1.779   4.027   7.762 -0.8701 -1.0841  1.8865
 4165SOL    HW224132   1.855   4.155   7.765 -0.6873  1.9406 -0.9296
 4166SOL     OW24133   3.336   2.804  14.987 -0.2430 -0.0218 -0.2535
 4166SOL    HW124134   3.418   2.853  14.996 -0.6210  0.5567  0.0487
 4166SOL    HW224135   3.280   2.865  14.939  0.6144  0.4284 -0.6994
 4167SOL     OW24136   2.477   0.490   7.147  0.9576 -0.6821  0.2005
 4167SOL    HW124137   2.396   0.442   7.163  1.3188 -1.6604 -0.8399
 4167SOL    HW224138   2.521   0.417   7.102 -0.0130 -0.3214 -1.3563
 4168SOL     OW24139   4.558   3.047   2.902  0.1623 -0.0190 -0.1073
 4168SOL    HW124140   4.599   2.972   2.944 -0.8368 -0.7760 -0.5009
 4168SOL    HW224141   4.539   3.098   2.981 -2.2261 -0.8248 -0.1662
 4169SOL     OW24142   2.990   0.821   1.857 -0.3424  0.0367  0.3299
 4169SOL    HW124143   2.998   0.917   1.859 -2.5672  0.2180  0.6021
 4169SOL    HW224144   3.071   0.793   1.901 -0.0577  0.2298 -0.0685
 4170SOL     OW24145   1.710   3.679  10.001 -0.1413 -0.5792 -0.2083
 4170SOL    HW124146   1.714   3.621  10.077  0.6625  0.5335  0.5887
 4170SOL    HW224147   1.688   3.763  10.042  1.6424  1.3447 -3.2302
 4171SOL     OW24148   3.120   0.275   3.927 -0.1956  0.3796  0.3898
 4171SOL    HW124149   3.214   0.291   3.937 -0.3999  1.5473  0.4244
 4171SOL    HW224150   3.091   0.357   3.968  0.4765  1.3516 -1.1015
 4172SOL     OW24151   2.881   4.017   6.018  0.0314 -0.3082 -0.3603
 4172SOL    HW124152   2.871   3.939   5.963 -2.1957  0.1810 -0.6560
 4172SOL    HW224153   2.971   4.046   6.007 -0.0933 -0.1203 -0.9517
 4173SOL     OW24154   0.077   0.317   6.055  0.1501  0.6959 -0.5195
 4173SOL    HW124155   0.160   0.300   6.099 -0.0936  1.6396  0.2822
 4173SOL    HW224156   0.072   0.249   5.988 -0.2931  0.3350 -0.1130
 4174SOL     OW24157   3.998   3.280  16.139  0.3246  0.1075  0.3530
 4174SOL    HW124158   4.072   3.255  16.083  0.6737 -0.9382  1.2852
 4174SOL    HW224159   3.942   3.203  16.151  0.9346 -0.3650  0.1739
 4175SOL     OW24160   3.273   3.102   6.166  0.3139 -0.3995 -0.2057
 4175SOL    HW124161   3.274   3.134   6.076 -2.3115  0.1400 -0.0464
 4175SOL    HW224162   3.284   3.179   6.222 -2.0387  0.3652 -0.7963
 4176SOL     OW24163   1.141   4.492  16.408  1.1727  0.6857  0.3375
 4176SOL    HW124164   1.076   4.563  16.406 -0.6306 -0.9601 -0.4459
 4176SOL    HW224165   1.096   4.416  16.371  2.6729 -0.5235  0.9883
 4177SOL     OW24166   3.805   4.718   3.353  0.4478 -0.5665  0.2450
 4177SOL    HW124167   3.808   0.074   3.375  0.2631 -0.4172 -0.3641
 4177SOL    HW224168   3.843   4.720   3.265  0.7075  3.7855  0.4349
 4178SOL     OW24169   4.023   0.938   9.142  0.2717 -0.2085 -0.4401
 4178SOL    HW124170   4.067   0.953   9.225 -0.9822  0.8796  0.0256
 4178SOL    HW224171   4.070   1.006   9.093  0.7161 -0.2371 -0.0513
 4179SOL     OW24172   4.600   0.478   3.308  0.1997 -0.8494  0.0517
 4179SOL    HW124173   4.558   0.537   3.371 -1.8458  0.1343 -2.2069
 4179SOL    HW224174   4.616   0.407   3.370 -0.7505  0.7305  2.1097
 4180SOL     OW24175   1.845   0.697   1.647  0.1697 -0.2132 -0.1261
 4180SOL    HW124176   1.753   0.718   1.667 -0.1994 -1.0816 -0.9350
 4180SOL    HW224177   1.888   0.708   1.732 -0.6112  0.4039  0.1975
 4181SOL     OW24178   3.103   0.727  12.651 -0.3179  0.3727 -0.3150
 4181SOL    HW124179   3.047   0.741  12.575 -1.6940  0.3682  0.6920
 4181SOL    HW224180   3.177   0.776  12.617 -1.4960  1.1390 -1.7573
 4182SOL     OW24181   3.320   1.291  16.064 -0.1727 -0.2612  0.4613
 4182SOL    HW124182   3.411   1.260  16.066  0.0816  0.4731  0.1221
 4182SOL    HW224183   3.333   1.374  16.018  0.7882 -0.1849  0.8692
 4183SOL     OW24184   0.649   3.338   3.414 -0.4549  0.2544  0.2935
 4183SOL    HW124185   0.563   3.334   3.456 -0.4123 -0.3287  0.3170
 4183SOL    HW224186   0.666   3.431   3.398  0.7204 -0.2275 -1.1896
 4184SOL     OW24187   0.019   4.497   8.164  0.0695 -0.1724  0.3866
 4184SOL    HW124188   4.682   4.555   8.180  0.3225  0.8463 -2.1265
 4184SOL    HW224189   0.093   4.546   8.199 -0.4857  0.6019  0.4670
 4185SOL     OW24190   0.151   2.013   7.750  0.5942  0.2748  0.1162
 4185SOL    HW124191   0.188   2.078   7.810  1.2947  0.2810 -0.3226
 4185SOL    HW224192   0.140   2.073   7.675 -0.5892  0.3192  0.3271
 4186SOL     OW24193   3.814   3.114   6.353 -0.1234 -0.2705  0.1531
 4186SOL    HW124194   3.758   3.186   6.325  1.2982  0.0157 -1.9416
 4186SOL    HW224195   3.874   3.160   6.411  1.2649 -1.5489 -0.2770
 4187SOL     OW24196   2.600   3.171   2.361  0.2467 -0.3566 -0.3041
 4187SOL    HW124197   2.662   3.101   2.342 -0.5283 -1.6423  2.0288
 4187SOL    HW224198   2.657   3.224   2.417  1.2442  0.1362 -1.7649
 4188SOL     OW24199   4.354   1.595   5.466  0.1161 -0.4994 -0.2669
 4188SOL    HW124200   4.413   1.529   5.504  1.9297  0.5051 -1.2966
 4188SOL    HW224201   4.403   1.612   5.385  0.3608  1.6978  0.3521
 4189SOL     OW24202   0.081   3.025   7.378 -0.2463  0.1089  0.1846
 4189SOL    HW124203   0.113   2.959   7.439  0.1450  0.6294  0.5512
 4189SOL    HW224204   0.156   3.042   7.320 -0.4124  0.6926  0.1318
 4190SOL     OW24205   3.395   1.176   1.125 -1.0032  0.3409  0.4489
 4190SOL    HW124206   3.486   1.197   1.106 -0.6388 -1.3420  0.3360
 4190SOL    HW224207   3.414   1.154   1.216  1.0602 -2.3695 -0.6533
 4191SOL     OW24208   3.475   4.657  11.943  0.2812 -0.0817  0.1375
 4191SOL    HW124209   3.408   4.698  11.887  2.0086  1.3420 -0.8957
 4191SOL    HW224210   3.545   4.655  11.878  1.2568  0.6011  1.1706
 4192SOL     OW24211   0.182   4.061   2.695 -0.2307  0.0688 -0.5133
 4192SOL    HW124212   0.153   4.053   2.604  1.7816  0.3283 -1.1807
 4192SOL    HW224213   0.200   4.154   2.705  1.1670 -0.3697  1.0621
 4193SOL     OW24214   4.518   4.162   9.961 -0.0183 -0.1928 -0.2464
 4193SOL    HW124215   4.516   4.067   9.953  0.0123 -0.0300 -2.2642
 4193SOL    HW224216   4.427   4.174   9.988  0.7638 -0.6932  2.5470
 4194SOL     OW24217   3.118   3.252  15.593  0.0433 -0.1748  0.2044
 4194SOL    HW124218   3.113   3.157  15.598 -1.2271 -0.1637 -1.2600
 4194SOL    HW224219   3.041   3.277  15.644 -0.7638  0.1921 -1.2065
 4195SOL     OW24220   3.914   0.130   7.066  0.7565 -0.2166  0.9596
 4195SOL    HW124221   3.979   0.085   7.012  1.0135 -0.2937  1.3286
 4195SOL    HW224222   3.930   0.221   7.040 -1.9483 -0.8865 -3.0055
 4196SOL     OW24223   1.218   0.293   4.276  0.0278  0.4988  0.2873
 4196SOL    HW124224   1.225   0.209   4.229 -0.5003  0.8984 -0.5150
 4196SOL    HW224225   1.301   0.302   4.322  0.6184 -1.2733 -0.4300
 4197SOL     OW24226   0.574   3.585  15.005 -0.2583  0.0748  0.0609
 4197SOL    HW124227   0.545   3.588  14.914 -0.2361  2.4996  0.1327
 4197SOL    HW224228   0.518   3.516  15.043  1.3465 -1.6135 -0.6612
 4198SOL     OW24229   2.161   2.229   2.215  0.3055 -0.6352 -0.5242
 4198SOL    HW124230   2.091   2.250   2.153  0.7860  0.4534 -0.6938
 4198SOL    HW224231   2.202   2.311   2.243 -0.3489  0.0142 -1.4514
 4199SOL     OW24232   4.041   2.524  12.970  0.2999 -0.3232  0.0549
 4199SOL    HW124233   4.134   2.506  12.987  1.1423  2.4758 -1.6006
 4199SOL    HW224234   4.058   2.594  12.907  0.6379 -0.3211  0.1459
 4200SOL     OW24235   4.613   2.441   8.642 -0.3819 -0.2722  0.2784
 4200SOL    HW124236   4.549   2.511   8.631 -0.1012 -0.2351 -1.1176
 4200SOL    HW224237   4.689   2.488   8.676 -1.1364  0.7345  0.5760
 4201SOL     OW24238   1.683   2.902   8.269 -0.0175  0.0916 -0.0519
 4201SOL    HW124239   1.733   2.833   8.225 -0.9440 -0.6829  0.1067
 4201SOL    HW224240   1.736   2.978   8.246 -0.0703 -0.2346 -1.2549
 4202SOL     OW24241   1.358   4.648   8.847 -0.1404  0.2567 -0.2860
 4202SOL    HW124242   1.394   4.737   8.845 -0.0391  0.2217 -0.0510
 4202SOL    HW224243   1.302   4.648   8.924 -1.4105 -0.5332 -1.2071
 4203SOL     OW24244   2.728   3.367  13.097 -0.1622 -0.1449 -0.2555
 4203SOL    HW124245   2.652   3.347  13.150 -0.5731  1.0149 -0.4049
 4203SOL    HW224246   2.791   3.365  13.169 -1.8980 -1.3204  1.2336
 4204SOL     OW24247   0.129   0.709   2.472  0.3639  0.0152 -0.3530
 4204SOL    HW124248   0.198   0.646   2.495  1.4648  1.2478 -0.2686
 4204SOL    HW224249   0.043   0.670   2.482  0.8655 -0.5067  1.8793
 4205SOL     OW24250   3.065   3.075   1.487  0.5393  0.3571 -0.4725
 4205SOL    HW124251   3.130   3.057   1.555  0.0967 -0.6374 -0.3101
 4205SOL    HW224252   3.084   2.999   1.431 -0.8938  0.1616 -0.6947
 4206SOL     OW24253   4.677   4.606   1.186  0.1297 -0.1512  0.2439
 4206SOL    HW124254   4.588   4.642   1.186 -0.0530 -0.6199  1.3154
 4206SOL    HW224255   4.697   4.590   1.094 -0.5602 -0.4349  0.1460
 4207SOL     OW24256   1.687   2.813   2.970 -0.1244  0.3104  0.3720
 4207SOL    HW124257   1.745   2.878   2.932  1.2426 -0.3243  1.3442
 4207SOL    HW224258   1.619   2.871   3.004 -2.2033 -2.2031  0.4862
 4208SOL     OW24259   4.575   3.576   5.238 -0.0456  0.0306 -0.1623
 4208SOL    HW124260   4.589   3.501   5.296 -0.0133  1.1982  1.3223
 4208SOL    HW224261   4.648   3.571   5.176 -0.0789  1.1750 -0.2911
 4209SOL     OW24262   1.153   2.654  13.383 -0.0932  0.1433 -0.4877
 4209SOL    HW124263   1.185   2.565  13.369  0.1077  0.2920 -0.9413
 4209SOL    HW224264   1.234   2.705  13.385 -0.4464  0.6288  1.5820
 4210SOL     OW24265   1.813   1.921  17.688  0.2457 -0.5521  0.0757
 4210SOL    HW124266   1.719   1.901  17.687  0.5632 -2.0812 -1.4919
 4210SOL    HW224267   1.807   1.948   0.031  1.4790 -2.0334  0.5974
 4211SOL     OW24268   1.783   1.181  16.468  0.5058  0.2927 -0.1475
 4211SOL    HW124269   1.813   1.263  16.430 -1.2884  1.3735  0.7667
 4211SOL    HW224270   1.820   1.185  16.556 -1.9462 -0.4623  0.9094
 4212SOL     OW24271   4.664   1.016   6.749 -0.9871 -0.4393 -0.3382
 4212SOL    HW124272   4.625   0.961   6.817 -0.3916 -2.0505 -1.3126
 4212SOL    HW224273   4.611   0.996   6.672 -1.3531 -1.1746  0.1063
 4213SOL     OW24274   0.660   2.279   2.210 -0.1174  0.3026 -0.1642
 4213SOL    HW124275   0.720   2.204   2.212  0.2584  0.6129  0.4135
 4213SOL    HW224276   0.696   2.319   2.131  0.6206 -2.5801 -1.2846
 4214SOL     OW24277   4.278   0.901   6.515  0.4660  0.0279 -0.1284
 4214SOL    HW124278   4.266   0.822   6.462 -0.9707  0.1623 -0.0132
 4214SOL    HW224279   4.361   0.942   6.492  0.5010  1.0071  1.7574
 4215SOL     OW24280   3.216   4.001  15.503  0.7475  0.2999 -0.3845
 4215SOL    HW124281   3.281   4.008  15.573 -0.0329 -0.2108  0.3908
 4215SOL    HW224282   3.147   3.957  15.553  1.7912  0.7209  1.4462
 4216SOL     OW24283   4.303   3.878   7.706 -0.3096  0.3611  0.1826
 4216SOL    HW124284   4.299   3.901   7.799 -0.1727  1.0721  0.0156
 4216SOL    HW224285   4.325   3.964   7.670  0.5529  0.1236  0.1381
 4217SOL     OW24286   2.620   3.501   5.510  0.3771  0.4442  0.2169
 4217SOL    HW124287   2.581   3.581   5.476  1.5291  2.0676  2.6726
 4217SOL    HW224288   2.711   3.519   5.486 -0.2203 -1.4829 -3.5084
 4218SOL     OW24289   2.260   2.581   5.006  0.4765 -0.4806 -0.0122
 4218SOL    HW124290   2.347   2.620   5.007  0.4632 -0.4057 -1.3730
 4218SOL    HW224291   2.204   2.659   5.008  1.5386  0.2527  0.8739
 4219SOL     OW24292   0.249   0.163   3.226  0.3356 -0.1120  0.8379
 4219SOL    HW124293   0.184   0.190   3.162 -0.0742 -0.4525  1.1133
 4219SOL    HW224294   0.206   0.093   3.276 -2.1047  1.1973  0.5737
 4220SOL     OW24295   3.616   3.659   6.250  0.3772  0.2842 -0.2925
 4220SOL    HW124296   3.643   3.597   6.317 -4.4399  1.5952  2.8566
 4220SOL    HW224297   3.559   3.724   6.291 -0.8208  0.1294 -1.6985
 4221SOL     OW24298   2.974   4.361  13.080  0.1663 -0.2134 -0.2716
 4221SOL    HW124299   2.973   4.429  13.014  1.8493 -1.5571 -1.6711
 4221SOL    HW224300   2.899   4.314  13.043  0.4398 -0.0580 -1.0070
 4222SOL     OW24301   0.622   2.168  10.575 -0.6084  0.2623  0.0770
 4222SOL    HW124302   0.548   2.196  10.629 -2.5761  1.0971 -3.0802
 4222SOL    HW224303   0.593   2.183  10.485  0.3349  1.0788 -0.0902
 4223SOL     OW24304   3.317   2.552  12.909  0.2512  0.0515  0.5184
 4223SOL    HW124305   3.241   2.547  12.851 -0.8748  0.4319  1.9574
 4223SOL    HW224306   3.317   2.646  12.929 -0.5453  0.4313 -1.2796
 4224SOL     OW24307   3.171   0.299  15.555  0.3081  0.0737 -0.6811
 4224SOL    HW124308   3.231   0.231  15.525 -0.5693 -0.5499 -1.0181
 4224SOL    HW224309   3.206   0.373  15.506  0.2653 -0.4370 -1.4768
 4225SOL     OW24310   0.849   4.630   5.132  0.2509  0.1707 -1.3161
 4225SOL    HW124311   0.820   4.721   5.129  2.4788  0.8969 -0.8873
 4225SOL    HW224312   0.853   4.605   5.040 -2.8321 -2.1631 -0.8358
 4226SOL     OW24313   2.889   0.841   5.524 -0.1702  0.6336 -0.0659
 4226SOL    HW124314   2.967   0.894   5.538  1.2088 -0.7210 -2.5799
 4226SOL    HW224315   2.876   0.844   5.429 -0.3081 -2.4940 -0.1637
 4227SOL     OW24316   3.312   0.025   5.927  0.1402  0.3942  0.1630
 4227SOL    HW124317   3.311   0.103   5.871  2.2944 -0.3441 -0.9091
 4227SOL    HW224318   3.404   0.029   5.955  0.6118 -0.7265 -1.2153
 4228SOL     OW24319   3.871   4.049   3.674  0.1297  0.0550  0.1976
 4228SOL    HW124320   3.937   4.041   3.742  1.2333  0.8117 -0.7759
 4228SOL    HW224321   3.794   4.048   3.730  0.5247 -1.6560  0.7004
 4229SOL     OW24322   0.820   2.074   5.928 -0.4075  0.1434  0.5114
 4229SOL    HW124323   0.881   2.011   5.890 -2.6615  0.5021 -3.7033
 4229SOL    HW224324   0.755   2.018   5.970 -0.4039  0.3856  0.8403
 4230SOL     OW24325   2.641   0.966   3.700 -0.1803  0.4817 -0.3628
 4230SOL    HW124326   2.589   0.980   3.621  1.2131  2.1736 -0.9685
 4230SOL    HW224327   2.610   1.036   3.757  1.4605  0.6522  0.3088
 4231SOL     OW24328   1.475   0.236   1.418  0.2084  0.9092  0.3622
 4231SOL    HW124329   1.389   0.202   1.443 -0.6684  0.9026 -2.6270
 4231SOL    HW224330   1.542   0.172   1.440  1.0179  2.9168  3.7118
 4232SOL     OW24331   0.691   0.583   8.069  0.5584  0.0099  0.6229
 4232SOL    HW124332   0.626   0.618   8.130 -0.7153 -3.7383  1.4372
 4232SOL    HW224333   0.749   0.659   8.066  1.0185 -0.3517  0.4696
 4233SOL     OW24334   0.055   1.485   7.413  0.2261 -0.0000 -0.7010
 4233SOL    HW124335   0.065   1.515   7.322  1.7488  0.3947 -0.4055
 4233SOL    HW224336   0.129   1.530   7.454  1.0080 -1.0712 -0.9520
 4234SOL     OW24337   0.175   0.423   2.237  0.2228 -0.2777 -0.0850
 4234SOL    HW124338   0.260   0.384   2.215  0.5339  1.0640 -1.2743
 4234SOL    HW224339   0.111   0.356   2.211 -1.1637  0.8362  0.4840
 4235SOL     OW24340   0.212   4.544   8.856 -0.2267  0.0135  0.1702
 4235SOL    HW124341   0.218   4.457   8.894 -2.8649 -0.3747 -0.3416
 4235SOL    HW224342   0.194   4.516   8.766 -1.8644  0.4352  0.3729
 4236SOL     OW24343   0.761   1.466   3.529 -0.0353 -0.3995  0.6169
 4236SOL    HW124344   0.832   1.522   3.498 -0.0513 -0.3593  0.6525
 4236SOL    HW224345   0.798   1.380   3.510  1.0676  0.3236 -0.4929
 4237SOL     OW24346   3.503   1.822  11.817  0.3024 -0.1950  0.1884
 4237SOL    HW124347   3.548   1.906  11.805 -0.8774  0.3121 -0.6928
 4237SOL    HW224348   3.572   1.759  11.798  0.4429 -0.0527  0.2223
 4238SOL     OW24349   4.096   1.042   6.665 -0.5894  0.2978  0.3583
 4238SOL    HW124350   4.182   1.000   6.674 -0.5388  1.0722  3.7120
 4238SOL    HW224351   4.094   1.001   6.579  3.0815 -1.8481  1.2784
 4239SOL     OW24352   1.006   2.324   3.581  0.0178  0.5915 -0.2435
 4239SOL    HW124353   0.957   2.277   3.514 -0.3962  1.5230 -0.5799
 4239SOL    HW224354   1.096   2.290   3.574 -1.0788 -1.8999 -2.3002
 4240SOL     OW24355   0.197   1.237   4.284  0.6198  0.1783 -0.0079
 4240SOL    HW124356   0.168   1.245   4.193 -0.1896 -0.1077  0.2259
 4240SOL    HW224357   0.289   1.260   4.273  0.2395  1.9412  0.3255
 4241SOL     OW24358   1.870   0.373  12.682  0.4889 -0.6088 -0.0676
 4241SOL    HW124359   1.958   0.341  12.698  0.8611  0.9037  0.8569
 4241SOL    HW224360   1.837   0.300  12.628 -0.9431 -2.0002  2.6862
 4242SOL     OW24361   1.249   3.735   8.562  0.2035 -0.6597  0.4248
 4242SOL    HW124362   1.340   3.719   8.536  0.2713  0.6949 -0.2205
 4242SOL    HW224363   1.202   3.653   8.552  0.6988 -1.0866  1.6302
 4243SOL     OW24364   3.351   4.304   8.798 -0.1278  0.3786 -0.1851
 4243SOL    HW124365   3.412   4.307   8.725  1.2952  2.8656  1.1143
 4243SOL    HW224366   3.316   4.393   8.796  0.0277  0.4663  1.0784
 4244SOL     OW24367   0.032   0.023   3.692 -0.3100 -0.6762  0.2956
 4244SOL    HW124368   4.723   0.094   3.737 -0.9452 -0.3832 -0.8006
 4244SOL    HW224369   0.008   4.685   3.745  0.0485 -0.7992  0.2799
 4245SOL     OW24370   0.438   1.032  13.621  0.4060 -0.8555 -0.0095
 4245SOL    HW124371   0.466   1.093  13.552  4.5799 -1.9491  0.6853
 4245SOL    HW224372   0.400   1.099  13.677 -0.2197 -1.0910 -0.1533
 4246SOL     OW24373   4.599   1.622  10.634 -0.0228  0.0784 -0.7473
 4246SOL    HW124374   4.619   1.575  10.715  2.3946 -0.6459 -1.7714
 4246SOL    HW224375   4.684   1.617  10.590  0.9242 -0.7943  1.1730
 4247SOL     OW24376   4.598   1.494   2.673  0.4115 -0.2877 -0.0367
 4247SOL    HW124377   4.675   1.466   2.623 -1.2364 -1.6456 -1.8039
 4247SOL    HW224378   4.553   1.542   2.604 -1.0003  0.6529  1.5375
 4248SOL     OW24379   1.473   3.064   3.523 -0.0928 -0.9911  0.1798
 4248SOL    HW124380   1.458   3.058   3.428  1.4814 -2.2512  0.0189
 4248SOL    HW224381   1.438   3.149   3.550  1.7359 -0.3854  0.6111
 4249SOL     OW24382   0.387   0.581   2.987 -0.0205 -0.1591 -0.2272
 4249SOL    HW124383   0.340   0.619   3.061  1.2435  1.4882 -0.2797
 4249SOL    HW224384   0.332   0.508   2.960  1.7454 -1.4834 -0.2003
 4250SOL     OW24385   0.238   4.485   4.807  0.3220 -0.3464  0.2618
 4250SOL    HW124386   0.158   4.454   4.764 -0.4357  1.2869  0.4826
 4250SOL    HW224387   0.202   4.512   4.891 -1.2027  0.0698 -0.5170
 4251SOL     OW24388   1.219   0.264   7.155  0.9693  0.4725 -0.4003
 4251SOL    HW124389   1.171   0.334   7.110 -1.1919 -1.9046 -1.7823
 4251SOL    HW224390   1.247   0.297   7.240  0.8762 -3.0014  0.9772
 4252SOL     OW24391   4.648   4.056   5.629 -0.6185 -0.0464 -0.2545
 4252SOL    HW124392   4.678   4.051   5.538  1.1156 -3.5553  0.4687
 4252SOL    HW224393   4.734   4.077   5.667 -0.6347  0.1024 -0.3023
 4253SOL     OW24394   0.069   3.903   6.811  0.4027  0.0551  0.2385
 4253SOL    HW124395   0.009   3.899   6.737  1.3773  0.7795 -0.5922
 4253SOL    HW224396   0.075   3.813   6.842  1.6142 -0.1937 -0.6771
 4254SOL     OW24397   3.455   2.833   8.268 -0.8241 -0.1609  0.0655
 4254SOL    HW124398   3.360   2.844   8.260 -0.8102 -1.3182 -1.9102
 4254SOL    HW224399   3.481   2.815   8.177 -1.6891 -2.9128  0.3366
 4255SOL     OW24400   4.497   0.201  17.219  0.4007 -0.0454  0.1814
 4255SOL    HW124401   4.517   0.294  17.230 -1.5117  0.3743  0.1091
 4255SOL    HW224402   4.411   0.193  17.259  0.0472  0.6522 -0.4311
 4256SOL     OW24403   2.047   3.280  14.519 -0.2479  0.4780  0.6250
 4256SOL    HW124404   1.955   3.307  14.516 -0.4539  0.1978  3.5150
 4256SOL    HW224405   2.062   3.256  14.428 -1.6112  2.7406 -0.1817
 4257SOL     OW24406   0.845   0.954   2.789  0.2163 -0.9722  0.2084
 4257SOL    HW124407   0.890   1.038   2.797 -1.9763  0.0423  1.5961
 4257SOL    HW224408   0.920   0.895   2.774  0.8452 -0.5364  1.6279
 4258SOL     OW24409   4.679   2.467   5.700 -0.1525 -0.0257  0.2667
 4258SOL    HW124410   4.716   2.379   5.704 -0.3217 -0.1520 -1.1884
 4258SOL    HW224411   4.734   2.501   5.629  2.1081 -2.1223  0.9781
 4259SOL     OW24412   4.240   3.527   8.122 -0.0290 -0.2615 -0.2526
 4259SOL    HW124413   4.322   3.478   8.124 -0.9260 -1.7629 -0.4412
 4259SOL    HW224414   4.284   3.612   8.126 -2.3089  0.9217 -0.4024
 4260SOL     OW24415   1.530   0.228   2.703 -0.4003  0.4543  0.1785
 4260SOL    HW124416   1.550   0.204   2.794 -0.5866 -1.6654 -0.3464
 4260SOL    HW224417   1.574   0.314   2.700  0.7669 -0.1213  0.7466
 4261SOL     OW24418   4.184   0.744  15.488  0.1761 -0.2029 -0.4262
 4261SOL    HW124419   4.242   0.701  15.550 -1.5818 -1.7378  0.1596
 4261SOL    HW224420   4.096   0.729  15.522  0.7236 -1.5414  0.3974
 4262SOL     OW24421   4.714   2.067   8.849 -0.3793 -0.5374  0.5609
 4262SOL    HW124422   4.702   2.119   8.928  0.3653  0.5339 -0.0453
 4262SOL    HW224423   0.053   2.012   8.867  0.2755  0.4561  0.7768
 4263SOL     OW24424   2.831   1.606  11.794  0.5669  0.7463 -0.0191
 4263SOL    HW124425   2.865   1.591  11.705 -0.0044  1.2124 -0.3183
 4263SOL    HW224426   2.737   1.596  11.777  0.9607  0.8843 -2.3688
 4264SOL     OW24427   3.932   1.196   4.013  0.0822 -0.2854 -0.0519
 4264SOL    HW124428   3.935   1.288   3.989 -1.8877 -0.2148 -0.0678
 4264SOL    HW224429   4.019   1.181   4.049  0.8037  0.8425 -1.3578
 4265SOL     OW24430   0.328   3.582   5.933 -0.1775  0.4318 -0.2311
 4265SOL    HW124431   0.308   3.507   5.878 -0.9567 -1.3883  2.5489
 4265SOL    HW224432   0.239   3.616   5.935  0.0340  1.0339 -0.8759
 4266SOL     OW24433   0.999   1.215   7.838  0.4141 -0.3262 -0.0834
 4266SOL    HW124434   0.977   1.150   7.771 -1.1131 -0.1521  0.2479
 4266SOL    HW224435   1.053   1.167   7.901  1.1433  1.0978  0.3754
 4267SOL     OW24436   3.357   3.582  10.898  0.1592  0.5534 -0.2144
 4267SOL    HW124437   3.436   3.542  10.933 -0.7607 -1.5782 -0.5438
 4267SOL    HW224438   3.340   3.647  10.965  1.2903  0.5049  0.1237
 4268SOL     OW24439   2.384   1.070   9.231  0.5099  1.0832  0.8270
 4268SOL    HW124440   2.351   0.985   9.202  2.8180  0.1881  0.8281
 4268SOL    HW224441   2.464   1.087   9.180  0.2463 -1.5122 -0.4628
 4269SOL     OW24442   1.961   3.896   6.991 -0.2334  0.0071 -0.0455
 4269SOL    HW124443   1.933   3.808   7.017 -1.3276  0.4054  0.1339
 4269SOL    HW224444   1.914   3.908   6.909  1.4220 -1.3950 -1.1926
 4270SOL     OW24445   1.541   0.488   8.446 -0.2754  0.7491 -0.2476
 4270SOL    HW124446   1.544   0.459   8.537  0.2110  2.6672  0.3487
 4270SOL    HW224447   1.621   0.538   8.434 -0.9220  1.8082 -0.1752
 4271SOL     OW24448   1.124   2.393   7.751 -0.4202 -0.5077  0.4572
 4271SOL    HW124449   1.214   2.425   7.741 -1.6475  2.1743 -1.8488
 4271SOL    HW224450   1.085   2.472   7.714  1.4922  0.3919  0.3389
 4272SOL     OW24451   4.687   2.438   1.836  0.2775 -0.4294  0.4959
 4272SOL    HW124452   4.726   2.455   1.750 -0.1495 -2.0447 -0.0124
 4272SOL    HW224453   4.598   2.417   1.809 -0.3645 -0.2857  2.4504
 4273SOL     OW24454   0.285   4.137   9.444 -0.3386  0.6841 -0.0166
 4273SOL    HW124455   0.304   4.198   9.515  2.3832 -0.6979  0.4330
 4273SOL    HW224456   0.191   4.131   9.463  0.0824 -2.0394  1.1692
 4274SOL     OW24457   4.374   2.429   2.914 -0.2293 -1.0623 -0.1500
 4274SOL    HW124458   4.378   2.408   3.007  1.4907  1.6881  0.4072
 4274SOL    HW224459   4.331   2.514   2.905 -0.0154 -0.7998  1.2527
 4275SOL     OW24460   1.523   3.983   3.483 -0.1868 -0.3284 -0.1309
 4275SOL    HW124461   1.439   4.015   3.450 -0.1338 -1.9622 -1.8214
 4275SOL    HW224462   1.558   4.061   3.526 -2.5050 -0.9085  2.8010
 4276SOL     OW24463   2.235   2.170   6.417 -0.4898  0.4484 -0.1142
 4276SOL    HW124464   2.219   2.223   6.339 -0.9897  2.7803  1.5964
 4276SOL    HW224465   2.274   2.237   6.473  0.1438  1.1077 -1.3565
 4277SOL     OW24466   1.388   1.397   3.696  0.9067  0.1710  0.2767
 4277SOL    HW124467   1.461   1.428   3.748  0.1582 -0.6558  1.8228
 4277SOL    HW224468   1.413   1.304   3.701 -0.3070 -0.0219  2.9180
 4278SOL     OW24469   2.970   1.501   3.550  0.5167  0.2793  0.0945
 4278SOL    HW124470   3.008   1.551   3.622  0.1856  1.4157 -0.5183
 4278SOL    HW224471   3.045   1.504   3.491  0.8801  0.5858  0.5662
 4279SOL     OW24472   1.787   1.344   4.813  0.1699  0.2498  0.4841
 4279SOL    HW124473   1.789   1.434   4.846  2.1020  0.1592  0.6152
 4279SOL    HW224474   1.693   1.335   4.826  0.0089 -0.0549 -0.8944
 4280SOL     OW24475   4.491   3.158  11.919 -0.3022  0.4516 -0.1743
 4280SOL    HW124476   4.503   3.187  11.829  1.2509 -1.2043 -0.5000
 4280SOL    HW224477   4.562   3.094  11.925 -0.2913  0.5235  0.5027
 4281SOL     OW24478   0.118   1.282   3.373  0.4164 -0.1269 -0.5555
 4281SOL    HW124479   0.086   1.240   3.294 -3.0132 -0.2710  0.8808
 4281SOL    HW224480   0.035   1.284   3.421  0.5597  4.2998 -0.4655
 4282SOL     OW24481   4.486   2.640   5.018  0.9536  0.3133  0.1074
 4282SOL    HW124482   4.464   2.733   5.021  1.3687  0.4401 -0.5985
 4282SOL    HW224483   4.404   2.605   4.983  0.4651  1.5513  0.0322
 4283SOL     OW24484   4.597   4.043  10.492  0.7494  0.2518  0.3390
 4283SOL    HW124485   4.671   4.070  10.547 -0.1665  1.3588  1.0172
 4283SOL    HW224486   4.519   4.096  10.508  0.6330  0.1866 -0.0059
 4284SOL     OW24487   2.539   3.494   4.280  0.0706 -0.2698 -1.1310
 4284SOL    HW124488   2.504   3.492   4.369 -2.1274 -2.1117 -2.0291
 4284SOL    HW224489   2.479   3.433   4.237 -3.7887  1.2698  2.0637
 4285SOL     OW24490   3.416   4.219  13.613 -0.9050  0.0202  0.3351
 4285SOL    HW124491   3.453   4.298  13.573  0.9182 -0.4506  1.0798
 4285SOL    HW224492   3.348   4.258  13.668  0.3296  1.2045  1.0201
 4286SOL     OW24493   3.348   4.352   7.228 -0.3618 -0.0897  0.4706
 4286SOL    HW124494   3.383   4.320   7.311 -0.0406 -0.4931  0.1783
 4286SOL    HW224495   3.261   4.314   7.235 -0.6225  0.3049 -0.5893
 4287SOL     OW24496   1.766   2.376   4.738  0.1429  1.1672  0.9238
 4287SOL    HW124497   1.805   2.313   4.799 -2.2429 -0.6434  0.5776
 4287SOL    HW224498   1.700   2.421   4.792 -1.4835  0.2086 -0.2777
 4288SOL     OW24499   0.633   4.146   5.546  0.3383  0.2289  0.2859
 4288SOL    HW124500   0.676   4.061   5.547 -0.4634 -0.1686  0.4810
 4288SOL    HW224501   0.706   4.202   5.517  0.6075  0.0400  0.6088
 4289SOL     OW24502   0.773   4.008  15.224 -0.1067 -0.7425 -0.0406
 4289SOL    HW124503   0.685   4.042  15.239  0.5659  1.0894 -0.3341
 4289SOL    HW224504   0.759   3.932  15.167  0.5437  0.4037 -1.6993
 4290SOL     OW24505   1.190   4.206   7.412 -0.0034  0.0048 -0.5362
 4290SOL    HW124506   1.097   4.200   7.391 -0.1675 -0.9666  0.4765
 4290SOL    HW224507   1.204   4.267   7.485  0.5776  0.4613 -1.0294
 4291SOL     OW24508   3.264   1.840   5.636  0.0978 -0.6260 -0.6157
 4291SOL    HW124509   3.188   1.878   5.679  0.9967  0.6011 -0.1132
 4291SOL    HW224510   3.270   1.907   5.567  0.4267 -0.1667 -0.1361
 4292SOL     OW24511   1.753   2.368   6.687  0.8055 -0.3983  0.1702
 4292SOL    HW124512   1.758   2.425   6.610 -2.6166 -0.7380 -0.2664
 4292SOL    HW224513   1.739   2.283   6.644  0.5243  0.4224 -1.3560
 4293SOL     OW24514   0.585   1.172   7.625 -0.0200  0.3895  0.0727
 4293SOL    HW124515   0.653   1.223   7.669 -0.1876  0.6970 -0.0318
 4293SOL    HW224516   0.621   1.083   7.633  0.1677  0.3311 -1.4274
 4294SOL     OW24517   0.317   3.430   6.371  0.2810  0.1288  0.2407
 4294SOL    HW124518   0.347   3.356   6.318  3.1405  2.4735 -1.4042
 4294SOL    HW224519   0.349   3.396   6.455  1.4710  1.1525  0.1883
 4295SOL     OW24520   0.809   0.269   6.739 -0.8830  0.1789  0.7484
 4295SOL    HW124521   0.719   0.238   6.731 -1.1300  1.0064  0.2878
 4295SOL    HW224522   0.824   0.273   6.833 -2.0831 -0.0784  0.9540
 4296SOL     OW24523   0.941   0.322  14.249  0.0181  0.4591  0.0533
 4296SOL    HW124524   0.958   0.327  14.343 -0.8912  1.3249  0.1628
 4296SOL    HW224525   0.928   0.228  14.237 -0.1181  0.6870 -1.5110
 4297SOL     OW24526   0.891   3.960   5.705  0.3138  0.1360  0.4143
 4297SOL    HW124527   0.985   3.978   5.697  0.3439  0.4308  1.4223
 4297SOL    HW224528   0.863   3.929   5.619 -1.0942 -3.0105  1.9867
 4298SOL     OW24529   4.557   3.204   8.531 -0.1370  0.1232 -0.0559
 4298SOL    HW124530   4.512   3.241   8.607  0.1599  1.7095 -0.6714
 4298SOL    HW224531   4.548   3.110   8.551 -0.5138  0.2093  0.1786
 4299SOL     OW24532   3.487   4.196   4.985  0.4640 -0.0068 -0.1210
 4299SOL    HW124533   3.440   4.133   5.039  0.0078  0.0705 -0.4294
 4299SOL    HW224534   3.547   4.129   4.954  0.3873  0.4725 -1.2968
 4300SOL     OW24535   0.746   1.543   5.022  0.4225  0.2610 -0.3326
 4300SOL    HW124536   0.750   1.590   4.938  0.9663  0.5635 -0.1336
 4300SOL    HW224537   0.680   1.596   5.065 -0.5226 -1.0513 -0.1681
 4301SOL     OW24538   3.846   3.280   5.263  0.5275  0.2396  0.0063
 4301SOL    HW124539   3.897   3.347   5.217 -0.1028  0.6408 -0.1043
 4301SOL    HW224540   3.919   3.219   5.273  0.5099  0.1671 -0.3348
 4302SOL     OW24541   2.569   2.538  10.621 -0.0405  0.1123  0.2282
 4302SOL    HW124542   2.616   2.489  10.554 -0.7305  0.6820 -0.6661
 4302SOL    HW224543   2.640   2.572  10.677  1.1781  0.3708 -1.4710
 4303SOL     OW24544   4.002   1.348   1.924 -0.0963 -0.4095 -0.2803
 4303SOL    HW124545   4.062   1.274   1.933  0.3673  0.1036  0.8504
 4303SOL    HW224546   3.966   1.339   1.836 -1.1247 -3.5980  0.4535
 4304SOL     OW24547   3.682   3.157   1.609  0.3367  0.5362 -0.8195
 4304SOL    HW124548   3.720   3.179   1.694 -2.5302  2.5021 -0.0135
 4304SOL    HW224549   3.611   3.098   1.637 -0.0644  1.2201 -0.3895
 4305SOL     OW24550   4.559   2.836   9.043 -0.1922  0.1830 -0.3442
 4305SOL    HW124551   4.636   2.886   9.068  0.2289 -0.5437 -0.1707
 4305SOL    HW224552   4.512   2.851   9.125 -2.3399 -1.2341 -1.3046
 4306SOL     OW24553   2.810   4.010   4.525  0.1046 -0.5970  0.2293
 4306SOL    HW124554   2.771   4.068   4.459  0.9760 -1.5891 -1.1741
 4306SOL    HW224555   2.746   3.939   4.530  1.8117 -2.3443 -2.5352
 4307SOL     OW24556   4.715   4.600   9.261  0.7365 -0.0627 -0.5742
 4307SOL    HW124557   4.733   4.593   9.168  0.3153  2.7936 -0.8868
 4307SOL    HW224558   4.646   4.666   9.252  0.5620  0.1911  2.4300
 4308SOL     OW24559   2.097   0.502  15.414  0.0748  0.3473 -0.2010
 4308SOL    HW124560   2.126   0.458  15.494  4.3403 -0.8718 -2.4413
 4308SOL    HW224561   2.153   0.471  15.344  0.2660 -0.8271  0.4675
 4309SOL     OW24562   2.343   1.377   4.956 -0.6612  0.3660  0.1519
 4309SOL    HW124563   2.395   1.298   4.972  0.5245  0.8361 -1.3308
 4309SOL    HW224564   2.295   1.372   5.039 -1.5352  0.8969 -0.3266
 4310SOL     OW24565   2.116   4.008  14.163 -0.2099  0.1465  0.4133
 4310SOL    HW124566   2.070   4.000  14.246 -1.8415 -1.1892 -0.6354
 4310SOL    HW224567   2.045   4.053  14.116 -1.7248 -1.0235  1.5990
 4311SOL     OW24568   0.823   4.630   1.628 -0.5990  0.0861  0.0858
 4311SOL    HW124569   0.788   4.689   1.694  0.4244  1.9702 -1.0488
 4311SOL    HW224570   0.740   4.611   1.585 -0.1428 -0.5979 -0.4880
 4312SOL     OW24571   2.205   0.871   3.734  0.2005 -0.3813  0.0594
 4312SOL    HW124572   2.114   0.872   3.764 -0.1569  1.5338 -1.1249
 4312SOL    HW224573   2.199   0.941   3.670 -1.0974  1.1094  1.8249
 4313SOL     OW24574   0.724   4.113   2.743 -0.5901  0.4377  0.4832
 4313SOL    HW124575   0.810   4.071   2.749  0.2093  2.1351  0.7154
 4313SOL    HW224576   0.679   4.044   2.694  1.1431  0.5151 -1.2126
 4314SOL     OW24577   0.942   2.525  15.435 -0.2146  0.3411  0.3071
 4314SOL    HW124578   0.847   2.520  15.426 -0.2552  0.0535  0.8918
 4314SOL    HW224579   0.946   2.566  15.522 -1.5775 -0.8344  0.9342
 4315SOL     OW24580   2.096   3.936   9.477  0.2427  0.1681 -0.3756
 4315SOL    HW124581   2.143   3.941   9.560  0.4250  1.4295 -0.5607
 4315SOL    HW224582   2.145   3.862   9.440  1.4697  0.7692  0.0375
 4316SOL     OW24583   2.709   4.278   8.153  0.2566  0.5144  0.3292
 4316SOL    HW124584   2.616   4.281   8.132 -0.0192  0.8206  1.5478
 4316SOL    HW224585   2.700   4.225   8.233  0.3781  0.7777  0.5175
 4317SOL     OW24586   3.704   2.068  16.009  0.2603 -0.3882  0.4561
 4317SOL    HW124587   3.750   2.140  16.052 -0.1537 -1.8414  3.3689
 4317SOL    HW224588   3.646   2.123  15.957 -2.3343 -3.6958 -0.1371
 4318SOL     OW24589   1.218   2.043  15.943 -0.0545 -0.1865  0.7956
 4318SOL    HW124590   1.134   2.022  15.903  0.4563 -0.6905 -0.0069
 4318SOL    HW224591   1.271   1.986  15.887 -1.7139  0.3490 -1.3181
 4319SOL     OW24592   0.191   4.179   1.559 -0.0726  0.8366 -0.2691
 4319SOL    HW124593   0.176   4.199   1.651 -0.3039  1.0723 -0.3596
 4319SOL    HW224594   0.123   4.121   1.526 -1.9038  1.1271  3.0348
 4320SOL     OW24595   0.180   3.002   3.818  0.4966 -0.5609  0.5190
 4320SOL    HW124596   0.174   3.035   3.729 -0.4872  0.6121  1.0162
 4320SOL    HW224597   0.257   3.050   3.849  0.2619  0.0250  0.1837
 4321SOL     OW24598   3.046   2.466   1.946 -0.4481  0.1831 -0.3079
 4321SOL    HW124599   3.074   2.414   1.871  3.0278  0.1014  1.0428
 4321SOL    HW224600   3.003   2.533   1.893 -0.0707  0.7843  0.1451
 4322SOL     OW24601   4.627   0.238   0.362  0.1861  0.0116 -0.4609
 4322SOL    HW124602   4.540   0.248   0.324  0.3153 -0.8229 -0.9951
 4322SOL    HW224603   4.637   0.143   0.366 -0.7453 -0.0251  0.8546
 4323SOL     OW24604   4.262   4.586   8.429  0.7202  0.0179  0.1183
 4323SOL    HW124605   4.208   4.654   8.471  2.8785  1.2144  0.9388
 4323SOL    HW224606   4.331   4.572   8.494  1.8673  0.1187 -1.0983
 4324SOL     OW24607   4.720   0.293   3.471  0.5145  0.1365 -0.4684
 4324SOL    HW124608   4.718   0.266   3.563  1.0311  0.7890 -0.2639
 4324SOL    HW224609   4.709   0.207   3.431  3.1394 -0.9495  1.1329
 4325SOL     OW24610   3.754   0.724   7.062  0.0672  0.1254  0.2320
 4325SOL    HW124611   3.686   0.767   7.010  2.1422  4.8313  1.4298
 4325SOL    HW224612   3.710   0.639   7.062  0.3273 -0.0109 -1.4732
 4326SOL     OW24613   4.723   1.640   3.887 -0.3515 -0.3472 -0.3032
 4326SOL    HW124614   4.691   1.617   3.800  0.6199 -2.3723 -0.1250
 4326SOL    HW224615   0.053   1.572   3.894 -2.1615 -2.0155  1.0478
 4327SOL     OW24616   3.485   2.360   2.009  0.1364  0.0511 -0.1602
 4327SOL    HW124617   3.453   2.282   1.963 -0.6443  0.3053 -0.0452
 4327SOL    HW224618   3.535   2.311   2.076 -0.2469  0.3560  0.3498
 4328SOL     OW24619   0.625   2.290   6.925  0.3355 -0.1237  0.4252
 4328SOL    HW124620   0.635   2.365   6.985  0.2890  1.0196 -1.0127
 4328SOL    HW224621   0.593   2.345   6.854  0.8861 -1.3261 -0.7416
 4329SOL     OW24622   0.894   4.023   6.433  0.3442  0.4841 -0.2680
 4329SOL    HW124623   0.861   3.988   6.516 -0.9873 -1.0030 -1.4157
 4329SOL    HW224624   0.986   4.031   6.456  0.2833 -0.9402  0.4740
 4330SOL     OW24625   3.048   3.273   1.017 -0.4373  0.3008 -0.1375
 4330SOL    HW124626   3.059   3.179   1.035  0.4924  0.7631  1.7292
 4330SOL    HW224627   3.049   3.265   0.922 -0.5299  1.3759 -0.2203
 4331SOL     OW24628   2.846   1.436   3.042 -0.1664 -0.0310  0.2895
 4331SOL    HW124629   2.879   1.347   3.053 -0.8549 -0.2731  0.3812
 4331SOL    HW224630   2.868   1.472   3.128 -1.6363 -0.2971  0.7622
 4332SOL     OW24631   1.494   2.307   4.510 -0.2650  0.0240  0.9801
 4332SOL    HW124632   1.433   2.290   4.581  1.0041  0.6717  2.2287
 4332SOL    HW224633   1.497   2.403   4.517 -0.4741  0.1509 -0.4626
 4333SOL     OW24634   1.329   1.447   1.879  0.4071 -0.1482  0.1042
 4333SOL    HW124635   1.330   1.430   1.784  0.0283 -1.9183  0.4138
 4333SOL    HW224636   1.234   1.462   1.885 -0.0840 -2.4718 -1.7075
 4334SOL     OW24637   4.540   3.698  10.534  0.0804  0.5248 -0.2963
 4334SOL    HW124638   4.613   3.729  10.481  0.2636 -0.9592 -0.9125
 4334SOL    HW224639   4.515   3.771  10.592 -0.4486 -0.6238  0.9305
 4335SOL     OW24640   0.342   4.583  15.673  0.0380 -0.6171  0.3539
 4335SOL    HW124641   0.269   4.644  15.662  0.6614 -0.3347 -2.1795
 4335SOL    HW224642   0.392   4.617  15.599  0.1734 -0.1490  0.6552
 4336SOL     OW24643   2.133   2.919   2.012  0.2396  0.2449 -0.2205
 4336SOL    HW124644   2.217   2.965   2.016 -0.0787  1.0027 -2.1184
 4336SOL    HW224645   2.121   2.900   1.918 -0.4222 -1.7418  0.2613
 4337SOL     OW24646   2.743   4.209   0.724  0.2791 -0.5476  0.0670
 4337SOL    HW124647   2.707   4.120   0.718 -0.2646 -0.3469  0.3436
 4337SOL    HW224648   2.757   4.223   0.818  1.5685 -0.0564 -0.2113
 4338SOL     OW24649   3.682   1.594   2.727  0.2881  0.2179 -0.2189
 4338SOL    HW124650   3.690   1.629   2.816 -0.8146 -4.2669  1.6173
 4338SOL    HW224651   3.633   1.670   2.695  0.9181  0.3906 -0.7731
 4339SOL     OW24652   3.654   3.308   6.052  1.0408 -0.3387 -0.2928
 4339SOL    HW124653   3.747   3.331   6.062  1.1030 -0.7516  0.0577
 4339SOL    HW224654   3.623   3.339   6.137 -0.0601 -0.0555 -0.8076
 4340SOL     OW24655   2.108   0.030   1.190  0.1409  0.1011 -0.0739
 4340SOL    HW124656   2.192   0.070   1.168 -0.6771  1.6501 -0.3432
 4340SOL    HW224657   2.096   4.698   1.125 -1.3883  0.4057 -0.1193
 4341SOL     OW24658   3.673   0.387   8.915 -0.1468  0.2612 -0.9615
 4341SOL    HW124659   3.668   0.459   8.978 -0.4209 -2.2341  1.8574
 4341SOL    HW224660   3.687   0.432   8.832  2.0881 -1.1745 -1.3743
 4342SOL     OW24661   4.197   0.701   5.603 -0.6333 -0.4530  0.5078
 4342SOL    HW124662   4.151   0.754   5.538  1.6369 -0.0213 -0.7255
 4342SOL    HW224663   4.220   0.758   5.676 -2.3140  0.9584 -0.0679
 4343SOL     OW24664   1.676   3.653   6.525 -0.0961 -0.0993 -0.3853
 4343SOL    HW124665   1.675   3.749   6.527  1.2046 -0.0766 -0.9760
 4343SOL    HW224666   1.665   3.628   6.617  2.5403  0.2516  0.0031
 4344SOL     OW24667   0.318   0.525   6.778 -0.0278  0.4762 -0.4513
 4344SOL    HW124668   0.412   0.526   6.760 -0.1190 -0.1425 -0.9602
 4344SOL    HW224669   0.302   0.605   6.830  0.8033  0.8219 -0.7299
 4345SOL     OW24670   4.034   4.028   7.002  0.4810 -0.1939 -0.2694
 4345SOL    HW124671   4.043   3.933   7.003  0.3734 -0.2073 -0.4761
 4345SOL    HW224672   4.115   4.055   7.046  1.7764 -1.2206 -2.0140
 4346SOL     OW24673   3.504   1.175   5.236 -0.2485 -0.3732  0.4323
 4346SOL    HW124674   3.593   1.146   5.214  0.5816  0.3043  2.9361
 4346SOL    HW224675   3.493   1.237   5.164  2.0958 -0.6717 -0.1710
 4347SOL     OW24676   3.578   4.355   2.163  0.7533  0.2013  0.0734
 4347SOL    HW124677   3.488   4.352   2.197  1.0304  0.2670  0.8001
 4347SOL    HW224678   3.612   4.269   2.185  1.0551  0.0592 -0.9472
 4348SOL     OW24679   4.656   4.285   7.286 -0.1702  0.5505 -0.0502
 4348SOL    HW124680   4.597   4.287   7.211 -0.0269 -0.1463 -0.1829
 4348SOL    HW224681   4.627   4.207   7.334  2.2942 -0.2414  0.1746
 4349SOL     OW24682   4.016   3.497   5.212  0.5016 -0.0305 -0.3433
 4349SOL    HW124683   3.956   3.520   5.284 -0.4980 -0.8602 -0.9064
 4349SOL    HW224684   4.072   3.574   5.199 -0.8839  1.5558  2.8747
 4350SOL     OW24685   1.951   1.323   8.494 -0.4174 -0.0407 -0.1814
 4350SOL    HW124686   2.020   1.261   8.472 -1.4575 -0.9985 -0.7253
 4350SOL    HW224687   1.991   1.378   8.562 -1.3174 -0.5291  0.7582
 4351SOL     OW24688   0.392   0.750  13.552  0.1116  0.4141 -0.5869
 4351SOL    HW124689   0.411   0.838  13.585 -0.2042  0.5915 -0.8768
 4351SOL    HW224690   0.411   0.771  13.461 -0.9726 -0.0250 -0.9123
 4352SOL     OW24691   2.152   0.998   6.530 -0.5203  0.5782  0.2338
 4352SOL    HW124692   2.068   0.968   6.495 -0.7774  2.5672 -0.8474
 4352SOL    HW224693   2.198   0.916   6.549  2.2037  1.7290 -1.4125
 4353SOL     OW24694   4.312   3.818   4.158 -0.1740 -0.2666  0.3308
 4353SOL    HW124695   4.318   3.735   4.205 -0.6836 -0.2234  0.4742
 4353SOL    HW224696   4.235   3.801   4.105 -0.5047 -1.0388  1.0533
 4354SOL     OW24697   3.930   2.101   8.554  0.3352  0.1997  0.5920
 4354SOL    HW124698   4.012   2.088   8.507 -0.2503  0.1182 -0.3892
 4354SOL    HW224699   3.872   2.109   8.478  1.0869  0.5537  0.0642
 4355SOL     OW24700   2.222   3.245   4.338 -0.4571 -0.0009  0.6583
 4355SOL    HW124701   2.248   3.153   4.341  1.3047  0.4476 -2.0213
 4355SOL    HW224702   2.306   3.278   4.309  0.7810 -2.0222  1.9520
 4356SOL     OW24703   2.312   1.312  13.335 -0.6809  0.5910  0.1862
 4356SOL    HW124704   2.245   1.351  13.280 -1.1007 -0.4828 -0.0679
 4356SOL    HW224705   2.383   1.332  13.274 -1.3737 -1.1406 -1.1848
 4357SOL     OW24706   1.670   2.917   5.374 -0.0630 -0.0233 -0.2862
 4357SOL    HW124707   1.682   2.929   5.468  3.3360 -0.7089 -0.6121
 4357SOL    HW224708   1.758   2.901   5.340  0.1673  0.4515  0.0815
 4358SOL     OW24709   1.343   4.138   2.846 -0.3716  0.3588  0.3097
 4358SOL    HW124710   1.353   4.195   2.770  1.0929 -1.8141 -1.1357
 4358SOL    HW224711   1.431   4.113   2.873  0.3644  1.6132 -0.9555
 4359SOL     OW24712   0.722   3.248   5.333 -0.1435 -0.0314 -0.3103
 4359SOL    HW124713   0.743   3.157   5.312 -0.9216  0.1489 -1.8976
 4359SOL    HW224714   0.647   3.258   5.274 -0.8290 -0.6945  0.4519
 4360SOL     OW24715   3.429   1.010   0.577  0.0658 -0.2092  0.1116
 4360SOL    HW124716   3.334   1.010   0.585  0.3534  3.3789  3.7093
 4360SOL    HW224717   3.450   1.103   0.577  1.7373 -0.5904  0.1487
 4361SOL     OW24718   3.031   4.051   4.378 -0.2757  0.0940  0.0677
 4361SOL    HW124719   2.955   4.035   4.433 -0.5283 -2.5536 -1.0107
 4361SOL    HW224720   3.076   4.127   4.416  0.4923 -0.5412  0.4423
 4362SOL     OW24721   3.716   2.377   4.081 -0.6064 -0.2263 -0.2659
 4362SOL    HW124722   3.622   2.383   4.101 -0.5389 -0.6767  0.1920
 4362SOL    HW224723   3.735   2.284   4.096  1.6227 -0.0464 -1.9401
 4363SOL     OW24724   1.664   1.133   3.898 -0.1182  0.1033 -0.8487
 4363SOL    HW124725   1.715   1.212   3.916 -0.2482  0.5117 -2.2467
 4363SOL    HW224726   1.688   1.080   3.973 -4.7974  1.8666  1.9059
 4364SOL     OW24727   1.419   3.830   0.065  0.2751  0.4067 -0.2553
 4364SOL    HW124728   1.336   3.815   0.021  0.6420 -0.7610 -0.5484
 4364SOL    HW224729   1.430   3.752   0.120  1.9131  1.2032  0.5739
 4365SOL     OW24730   2.312   2.551   1.728  0.2371  0.3439  0.1394
 4365SOL    HW124731   2.367   2.474   1.711 -1.0588 -0.6940  0.6223
 4365SOL    HW224732   2.284   2.545   1.819  1.2709 -0.6721  0.3813
 4366SOL     OW24733   1.002   3.546   1.682 -0.4076  0.2252  0.4983
 4366SOL    HW124734   0.942   3.614   1.654  1.4642  1.1915 -1.1171
 4366SOL    HW224735   1.079   3.569   1.631 -1.5239  2.1638 -0.3144
 4367SOL     OW24736   0.907   4.239   5.562  0.2568  0.7715  0.6883
 4367SOL    HW124737   0.955   4.217   5.642 -0.5712 -1.1507  0.6487
 4367SOL    HW224738   0.968   4.302   5.524  0.8466  0.1748  0.6480
 4368SOL     OW24739   4.344   3.635   3.223 -0.7151  0.1015  0.3959
 4368SOL    HW124740   4.329   3.580   3.146  2.7337  2.0480 -1.6811
 4368SOL    HW224741   4.264   3.632   3.275 -1.0300 -1.7448 -0.1839
 4369SOL     OW24742   3.014   1.160   1.086 -0.4358 -0.4092  0.2753
 4369SOL    HW124743   3.084   1.221   1.110  0.6303 -1.6299  0.2677
 4369SOL    HW224744   2.937   1.217   1.088 -0.8999 -1.0059 -0.9893
 4370SOL     OW24745   4.546   2.323  10.483 -0.1263  0.5094 -0.8258
 4370SOL    HW124746   4.627   2.283  10.516 -0.1306  2.7835  1.8908
 4370SOL    HW224747   4.498   2.334  10.565  1.2413 -0.4839  0.1166
 4371SOL     OW24748   3.768   3.083  17.465 -0.2218 -0.1958  0.0042
 4371SOL    HW124749   3.721   3.001  17.452  0.4512 -0.1181 -2.7815
 4371SOL    HW224750   3.857   3.047  17.467 -0.3766 -0.5917 -0.2949
 4372SOL     OW24751   0.681   1.178   7.063  0.3366  0.4708  0.1592
 4372SOL    HW124752   0.627   1.212   7.134 -0.4197  1.2542 -0.7951
 4372SOL    HW224753   0.611   1.191   6.998  0.4997  0.2729 -0.0532
 4373SOL     OW24754   4.681   2.409  15.749  0.2953 -0.1941 -0.6221
 4373SOL    HW124755   4.728   2.393  15.831 -0.4377  0.5513 -0.0498
 4373SOL    HW224756   4.665   2.503  15.756  0.7908 -0.2918  1.8657
 4374SOL     OW24757   2.147   0.072  10.359 -0.1513 -0.4074 -0.2054
 4374SOL    HW124758   2.199   0.139  10.404  1.2920 -0.5748 -1.6169
 4374SOL    HW224759   2.150   4.735  10.420  1.9749 -1.7807 -2.0062
 4375SOL     OW24760   1.694   1.913   4.710  0.8528  0.0716  0.4386
 4375SOL    HW124761   1.724   1.977   4.645  0.7064 -1.3287 -0.9851
 4375SOL    HW224762   1.642   1.972   4.765  0.5805  0.4144 -0.1793
 4376SOL     OW24763   2.383   4.270  17.517  0.4975 -0.4171  0.6593
 4376SOL    HW124764   2.411   4.196  17.462 -4.9420 -1.0357 -1.2354
 4376SOL    HW224765   2.296   4.242  17.546 -0.3071  0.5527 -0.8429
 4377SOL     OW24766   2.675   2.002   8.536 -0.0033 -0.1533 -0.0208
 4377SOL    HW124767   2.700   2.089   8.567  0.5039  0.1311 -1.2194
 4377SOL    HW224768   2.612   2.038   8.474  1.5878 -0.0605 -1.6024
 4378SOL     OW24769   3.757   3.665   6.025  0.2654  0.3167 -0.7809
 4378SOL    HW124770   3.689   3.671   6.091  0.4229 -0.7521 -0.5161
 4378SOL    HW224771   3.833   3.656   6.082  0.0597 -1.3473 -0.7559
 4379SOL     OW24772   0.555   0.832  13.308 -0.1978  0.2832 -0.4057
 4379SOL    HW124773   0.503   0.902  13.269  0.2510 -0.3378 -2.1303
 4379SOL    HW224774   0.594   0.787  13.233 -0.6229  2.8557 -2.1684
 4380SOL     OW24775   2.481   1.437   1.616 -0.0606  0.5428  0.0578
 4380SOL    HW124776   2.419   1.488   1.564 -0.3087  0.6592  0.4668
 4380SOL    HW224777   2.558   1.447   1.560 -0.2129  3.8468  0.4185
 4381SOL     OW24778   2.505   4.125   9.359  0.0846  0.0482 -0.2215
 4381SOL    HW124779   2.467   4.083   9.436  3.2472 -0.8095  0.8575
 4381SOL    HW224780   2.571   4.057   9.346  1.5498  1.4873 -0.2764
 4382SOL     OW24781   0.902   3.410  10.556  0.2571  0.2435 -0.4124
 4382SOL    HW124782   0.893   3.468  10.631 -3.4667 -0.0387 -0.6348
 4382SOL    HW224783   0.935   3.327  10.590  1.0463  0.2472 -1.1616
 4383SOL     OW24784   3.400   1.025   7.585  0.7260  0.1635 -0.3487
 4383SOL    HW124785   3.424   0.964   7.516 -0.1053  1.2047 -1.5689
 4383SOL    HW224786   3.462   1.000   7.653  0.3004 -1.9850 -0.7523
 4384SOL     OW24787   1.328   0.370   2.995 -0.0545  0.0378 -0.3538
 4384SOL    HW124788   1.412   0.412   3.014 -1.3534  2.8611 -0.8294
 4384SOL    HW224789   1.329   0.292   3.050  3.0371 -1.0079 -1.9325
 4385SOL     OW24790   3.815   2.471   7.972  0.5399 -0.2555 -0.1471
 4385SOL    HW124791   3.889   2.417   7.944  2.3381  1.0600  1.9732
 4385SOL    HW224792   3.761   2.472   7.893 -0.5425 -0.5818  0.5894
 4386SOL     OW24793   4.065   2.388   3.457  0.1699 -0.6173  0.1158
 4386SOL    HW124794   4.085   2.445   3.531 -0.1243  0.7340 -0.8409
 4386SOL    HW224795   4.001   2.330   3.497 -0.6640  1.8037  2.2871
 4387SOL     OW24796   4.013   3.483   6.645  0.2238 -0.2581 -0.7160
 4387SOL    HW124797   3.993   3.559   6.591  0.2155 -0.2431 -0.6919
 4387SOL    HW224798   4.099   3.519   6.662  1.1683 -2.2873 -1.1696
 4388SOL     OW24799   1.131   4.539  13.738 -0.5520  0.1260 -0.3216
 4388SOL    HW124800   1.185   4.591  13.797  0.1852 -2.2898  1.1522
 4388SOL    HW224801   1.196   4.495  13.684  0.5701  0.8979  0.3995
 4389SOL     OW24802   1.638   4.314   0.406 -0.0116  0.3054 -0.4408
 4389SOL    HW124803   1.615   4.274   0.322  1.4686  0.1370 -0.7511
 4389SOL    HW224804   1.722   4.273   0.422 -0.9085 -0.7812  1.4544
 4390SOL     OW24805   0.356   0.853  17.426 -0.1496  0.4076 -0.0470
 4390SOL    HW124806   0.294   0.786  17.396  1.6411 -0.9559 -0.6407
 4390SOL    HW224807   0.303   0.923  17.465 -0.5679  1.4620 -2.5014
 4391SOL     OW24808   0.911   4.402   8.080  0.1848 -0.5624 -0.1563
 4391SOL    HW124809   1.004   4.390   8.061  0.1631 -1.2504  0.1668
 4391SOL    HW224810   0.881   4.313   8.096 -0.4049 -0.2119  0.6906
 4392SOL     OW24811   3.138   4.725   4.044  0.1219  0.4030 -0.6494
 4392SOL    HW124812   3.132   0.066   3.989  0.6449 -0.4970 -1.9916
 4392SOL    HW224813   3.069   0.011   4.107  0.7160  2.6063 -0.8169
 4393SOL     OW24814   4.425   4.081  14.384 -0.0179 -0.3923  0.1939
 4393SOL    HW124815   4.519   4.098  14.392 -0.1835  1.0424 -0.9003
 4393SOL    HW224816   4.393   4.127  14.461  2.0542 -2.0125  2.0140
 4394SOL     OW24817   2.720   4.362   4.622 -0.4052  0.4713  0.0014
 4394SOL    HW124818   2.798   4.359   4.565 -0.3113  1.8974  0.0662
 4394SOL    HW224819   2.752   4.360   4.712  0.5875 -2.3930 -0.3939
 4395SOL     OW24820   0.538   4.199  15.297 -0.2257  0.2011  0.0828
 4395SOL    HW124821   0.473   4.265  15.320 -0.0803  0.4496 -0.2166
 4395SOL    HW224822   0.583   4.188  15.381 -0.3577  0.2207  0.1566
 4396SOL     OW24823   0.779   0.116   6.422  0.0860  0.4091  0.4119
 4396SOL    HW124824   0.723   0.099   6.346  1.2643  1.4912 -0.6869
 4396SOL    HW224825   0.791   0.211   6.415  1.3881  0.1893 -0.3816
 4397SOL     OW24826   2.303   1.225  14.230 -0.0440  0.2940 -0.5569
 4397SOL    HW124827   2.296   1.138  14.269  0.6212  0.0161 -1.0686
 4397SOL    HW224828   2.390   1.252  14.262  0.7678 -2.0530 -0.8150
 4398SOL     OW24829   2.868   2.064   1.981 -0.0485 -0.2818 -0.2064
 4398SOL    HW124830   2.929   2.008   2.028 -0.3241  0.0174  0.5008
 4398SOL    HW224831   2.860   2.020   1.896 -0.0671 -0.8212  0.0741
 4399SOL     OW24832   1.361   1.528   0.171 -0.4126 -0.2263 -0.4103
 4399SOL    HW124833   1.302   1.454   0.161  0.4344 -0.6583 -2.4115
 4399SOL    HW224834   1.430   1.488   0.118  0.6324 -0.0984  0.8509
 4400SOL     OW24835   3.445   4.269   9.063 -0.4972 -0.1113  0.0358
 4400SOL    HW124836   3.391   4.328   9.116 -0.2130 -1.5874  1.9788
 4400SOL    HW224837   3.410   4.284   8.976  1.2498  2.0539 -0.2689
 4401SOL     OW24838   3.741   1.418   5.323 -0.1232  0.0273 -0.4639
 4401SOL    HW124839   3.650   1.432   5.349 -0.4093 -0.6512 -1.1081
 4401SOL    HW224840   3.783   1.502   5.343 -1.4986  1.1055 -2.1019
 4402SOL     OW24841   3.116   2.251  11.069 -0.4742 -0.0579  0.3408
 4402SOL    HW124842   3.134   2.322  11.008  1.0887 -1.4363 -0.7792
 4402SOL    HW224843   3.194   2.254  11.124  1.9137  0.4961 -3.0899
 4403SOL     OW24844   2.865   1.570   3.303  0.4185 -0.1223  0.6182
 4403SOL    HW124845   2.913   1.653   3.296 -0.6309  0.4604  0.3420
 4403SOL    HW224846   2.866   1.556   3.398  1.2601 -0.0756  0.6174
 4404SOL     OW24847   2.713   3.590   8.363  0.1459 -0.2877  0.1987
 4404SOL    HW124848   2.620   3.582   8.383 -0.3619  2.7991 -0.9759
 4404SOL    HW224849   2.744   3.555   8.447 -1.1588  1.4661  1.4094
 4405SOL     OW24850   1.082   3.986  14.073 -0.3936  0.6310  0.7711
 4405SOL    HW124851   1.037   4.046  14.132  2.5137  3.0881  0.4866
 4405SOL    HW224852   1.166   3.990  14.118  0.1727 -0.3879 -0.2029
 4406SOL     OW24853   0.868   4.248   2.136  0.0805  0.3140 -0.2764
 4406SOL    HW124854   0.914   4.312   2.081  1.7007 -1.5758 -1.1139
 4406SOL    HW224855   0.928   4.174   2.127  1.0930  1.2234 -1.0791
 4407SOL     OW24856   0.843   1.512   9.093 -0.7786  0.4124  0.0803
 4407SOL    HW124857   0.805   1.506   9.005  1.6279 -0.2702 -0.9075
 4407SOL    HW224858   0.855   1.421   9.121 -0.8084  1.0199  2.0876
 4408SOL     OW24859   4.717   1.701   4.184 -0.2715  0.9067 -0.2522
 4408SOL    HW124860   4.693   1.680   4.093  3.7598 -0.7049 -0.9189
 4408SOL    HW224861   0.073   1.723   4.177 -0.1914  0.6296 -0.0367
 4409SOL     OW24862   1.987   2.140  16.924 -0.3195  0.3524  0.6954
 4409SOL    HW124863   1.965   2.135  16.831  0.5864  1.1269  0.4418
 4409SOL    HW224864   2.082   2.130  16.925 -0.2230  1.1538 -0.3523
 4410SOL     OW24865   1.676   4.525   9.662  0.4894 -1.0105 -0.2578
 4410SOL    HW124866   1.611   4.592   9.685  0.6601 -0.9679  0.0973
 4410SOL    HW224867   1.748   4.589   9.662 -1.4805  1.2273 -1.4367
 4411SOL     OW24868   2.047   2.619  10.477 -0.3874 -0.1106  0.1511
 4411SOL    HW124869   2.014   2.596  10.563 -1.7567  2.8554  0.3898
 4411SOL    HW224870   2.140   2.602  10.492 -0.0313  2.5986  0.9890
 4412SOL     OW24871   1.592   2.038   5.824  0.3580 -0.3908 -0.1117
 4412SOL    HW124872   1.592   2.035   5.729 -1.9167  1.4325 -0.1792
 4412SOL    HW224873   1.645   1.964   5.852 -1.9505 -2.3947 -1.0699
 4413SOL     OW24874   0.267   1.545   5.006 -0.3808 -0.1406  0.0469
 4413SOL    HW124875   0.309   1.595   5.076 -1.2430  1.9153 -0.9096
 4413SOL    HW224876   0.211   1.480   5.049  0.0682 -1.4708 -1.3626
 4414SOL     OW24877   1.339   1.651   6.884  0.3386 -0.0143  0.1248
 4414SOL    HW124878   1.245   1.671   6.880 -0.1505 -1.8107  2.4050
 4414SOL    HW224879   1.358   1.666   6.977  1.2318  0.2481 -0.1023
 4415SOL     OW24880   4.357   4.600   3.523  0.3943 -0.6250  0.3686
 4415SOL    HW124881   4.427   4.548   3.562  0.8563 -0.8456 -0.7626
 4415SOL    HW224882   4.277   4.554   3.550 -1.1443  0.8562 -1.6512
 4416SOL     OW24883   2.752   0.330   6.857  0.2530 -0.6171  0.5251
 4416SOL    HW124884   2.834   0.372   6.833  0.9570 -0.6143  3.0265
 4416SOL    HW224885   2.689   0.381   6.807 -0.6259 -1.8252  0.3907
 4417SOL     OW24886   0.966   2.129   8.099  0.4014 -0.4386  0.1627
 4417SOL    HW124887   1.053   2.095   8.121 -1.1632 -4.0900  0.6050
 4417SOL    HW224888   0.934   2.050   8.057 -1.2077  0.9116 -1.1490
 4418SOL     OW24889   3.919   3.899   5.558 -0.2032  0.1851  0.1194
 4418SOL    HW124890   3.826   3.914   5.542 -0.0993 -1.0415 -1.6743
 4418SOL    HW224891   3.931   3.808   5.530  0.8356  0.1187  0.7620
 4419SOL     OW24892   1.802   0.862   6.608  0.3923 -0.5688  0.1687
 4419SOL    HW124893   1.888   0.820   6.603  0.7217  0.3175 -1.7640
 4419SOL    HW224894   1.772   0.820   6.689  1.4446 -2.3654 -0.3882
 4420SOL     OW24895   2.231   0.770   2.354  0.5921 -0.1753 -0.2538
 4420SOL    HW124896   2.324   0.788   2.338  0.3141  0.5987 -0.9643
 4420SOL    HW224897   2.228   0.727   2.439 -2.8682  0.2478 -0.1476
 4421SOL     OW24898   2.223   3.093  16.203 -0.1511 -0.5970  0.7540
 4421SOL    HW124899   2.281   3.167  16.222  1.4691 -2.2559  2.3171
 4421SOL    HW224900   2.193   3.062  16.288 -0.5739  0.9127  1.1479
 4422SOL     OW24901   3.451   3.767   4.571 -0.2442 -0.1037 -0.5946
 4422SOL    HW124902   3.437   3.771   4.476  0.8274 -1.7493 -0.8134
 4422SOL    HW224903   3.364   3.789   4.603  1.2589  3.3913  1.2311
 4423SOL     OW24904   1.862   1.080  17.059  0.2707  0.3019  0.3830
 4423SOL    HW124905   1.876   1.012  16.993 -0.6872  0.6840 -0.2298
 4423SOL    HW224906   1.933   1.059  17.119  0.6497  0.4488 -0.0083
 4424SOL     OW24907   1.050   0.967   5.891  0.1441  0.3596  0.2143
 4424SOL    HW124908   1.084   0.916   5.965  4.1655 -1.8182 -3.1047
 4424SOL    HW224909   1.131   1.008   5.859 -0.7737 -0.2058 -2.8220
 4425SOL     OW24910   1.288   4.383   4.139  0.0641 -0.6446 -0.1221
 4425SOL    HW124911   1.241   4.417   4.215  0.1701  1.1565 -0.8839
 4425SOL    HW224912   1.350   4.320   4.176  0.2600 -0.4307 -0.0905
 4426SOL     OW24913   1.853   2.578  11.195 -0.3733 -0.1353 -0.2901
 4426SOL    HW124914   1.846   2.662  11.240  1.3308 -1.6313  2.8396
 4426SOL    HW224915   1.776   2.532  11.228 -0.9627  0.1643 -1.2622
 4427SOL     OW24916   4.305   1.547   7.282  0.2062 -0.5716 -0.0309
 4427SOL    HW124917   4.358   1.515   7.356 -1.4634  0.3826  1.5647
 4427SOL    HW224918   4.374   1.599   7.241  0.3694 -1.4984 -0.9424
 4428SOL     OW24919   3.670   2.993   3.840 -0.1325 -0.7136  0.3016
 4428SOL    HW124920   3.614   3.069   3.821  1.4857  0.2087 -0.7535
 4428SOL    HW224921   3.739   3.028   3.896 -0.5863  0.1701  0.3257
 4429SOL     OW24922   4.271   1.410  14.205 -0.6041 -0.3931 -0.4440
 4429SOL    HW124923   4.280   1.504  14.220 -2.3838 -0.3625  0.5555
 4429SOL    HW224924   4.202   1.394  14.270 -0.1832 -1.0201 -0.1617
 4430SOL     OW24925   3.078   3.803  15.314 -0.3668 -0.1586  0.6404
 4430SOL    HW124926   3.131   3.877  15.342 -1.7094  0.6321  1.0957
 4430SOL    HW224927   3.057   3.767  15.401 -1.2715 -0.9220  0.1045
 4431SOL     OW24928   0.215   1.006   3.332  0.0095  0.0783 -0.3469
 4431SOL    HW124929   0.206   1.064   3.408 -0.1794  1.7795 -1.6641
 4431SOL    HW224930   0.300   1.030   3.297 -1.1042  0.9125 -2.4974
 4432SOL     OW24931   2.845   0.718  11.607 -0.4066  0.1488  0.4632
 4432SOL    HW124932   2.878   0.698  11.519  0.5537  2.1471  0.3688
 4432SOL    HW224933   2.900   0.662  11.661 -2.4240 -1.9000  0.3635
 4433SOL     OW24934   4.250   4.689   0.460 -0.0555 -0.0428  0.0319
 4433SOL    HW124935   4.243   0.047   0.461 -1.9438 -0.1767 -0.0438
 4433SOL    HW224936   4.232   4.651   0.546  0.5144 -2.4207 -0.8951
 4434SOL     OW24937   1.064   2.160   1.901  0.1618  0.6481 -0.4519
 4434SOL    HW124938   1.036   2.154   1.810 -2.4531  0.7041  0.3573
 4434SOL    HW224939   1.092   2.251   1.904 -1.0121  1.0052 -0.6186
 4435SOL     OW24940   3.439   0.745  12.220 -0.0262  0.1042 -0.3917
 4435SOL    HW124941   3.521   0.770  12.179  0.7638 -0.9323  0.5478
 4435SOL    HW224942   3.423   0.813  12.286  0.9641 -0.6840  0.6525
 4436SOL     OW24943   2.636   1.183   1.344 -0.4677  0.0845  0.2478
 4436SOL    HW124944   2.682   1.106   1.378 -1.2615 -1.3075 -1.8133
 4436SOL    HW224945   2.586   1.134   1.278 -0.8585 -0.8462  1.2282
 4437SOL     OW24946   1.063   1.131   8.187 -0.5235 -0.0246 -0.1934
 4437SOL    HW124947   0.976   1.168   8.170 -1.8864 -2.0128  2.5362
 4437SOL    HW224948   1.071   1.063   8.120 -0.2590 -0.6812  0.4985
 4438SOL     OW24949   0.235   0.597   6.508  0.4580 -0.8739  0.1510
 4438SOL    HW124950   0.215   0.506   6.490 -2.7427 -0.1152 -0.0720
 4438SOL    HW224951   0.260   0.580   6.599  1.8283  1.5665  0.2423
 4439SOL     OW24952   1.156   2.560   5.980  0.7737  0.4448  0.1660
 4439SOL    HW124953   1.149   2.498   6.053  1.7179  0.2121  0.0650
 4439SOL    HW224954   1.149   2.502   5.904 -0.7651 -0.4675  1.0126
 4440SOL     OW24955   1.104   0.286   8.569  0.1219  0.7700 -0.3703
 4440SOL    HW124956   1.147   0.365   8.538 -0.2099  1.8478  1.8699
 4440SOL    HW224957   1.070   0.245   8.490  1.4024  0.5911 -0.8223
 4441SOL     OW24958   0.734   4.533  15.829 -0.6683  0.1401  0.1238
 4441SOL    HW124959   0.766   4.463  15.772  1.8911 -0.3764  2.2209
 4441SOL    HW224960   0.741   4.614  15.777  2.5032  1.1848  2.2137
 4442SOL     OW24961   0.327   0.232   1.045  0.0603  0.6987 -0.2758
 4442SOL    HW124962   0.312   0.232   1.140 -0.1073  0.4061 -0.3027
 4442SOL    HW224963   0.299   0.322   1.029 -0.6615  0.8485  1.7558
 4443SOL     OW24964   4.681   3.144   2.371 -0.3731  0.1499 -0.2368
 4443SOL    HW124965   4.674   3.071   2.310 -0.6215 -0.0701  0.0571
 4443SOL    HW224966   4.637   3.105   2.446  0.3206 -0.8623 -0.3638
 4444SOL     OW24967   0.294   3.510   7.753 -0.2228 -0.0508  0.0489
 4444SOL    HW124968   0.201   3.533   7.743 -0.6064 -0.3549  2.8632
 4444SOL    HW224969   0.335   3.596   7.753 -1.3808  0.5087 -0.5875
 4445SOL     OW24970   1.511   2.752   1.836  0.5657 -0.2490 -0.5070
 4445SOL    HW124971   1.577   2.745   1.767  1.9840  0.6936  0.7334
 4445SOL    HW224972   1.515   2.847   1.849  0.9628 -1.0633  5.2591
 4446SOL     OW24973   3.774   2.131   3.751 -0.4515 -0.7529  0.8220
 4446SOL    HW124974   3.687   2.147   3.788  0.1354  0.0863  1.8674
 4446SOL    HW224975   3.818   2.084   3.822 -1.9976 -0.2152  2.1383
 4447SOL     OW24976   1.274   2.720   6.376  0.1842 -0.0927 -0.2314
 4447SOL    HW124977   1.281   2.753   6.287 -0.0459  1.3554  0.2897
 4447SOL    HW224978   1.182   2.701   6.391  0.0188  1.3191  0.4968
 4448SOL     OW24979   2.417   0.113   0.677 -0.0057  0.2854  0.0206
 4448SOL    HW124980   2.357   0.166   0.624 -0.2855 -2.4502 -2.4029
 4448SOL    HW224981   2.458   0.055   0.613 -0.3340  1.0879 -0.9366
 4449SOL     OW24982   0.554   4.403   9.407  0.4484 -0.0726  0.4975
 4449SOL    HW124983   0.528   4.481   9.359 -1.6971 -2.0707 -1.6347
 4449SOL    HW224984   0.468   4.372   9.436  0.4709  0.6842  1.3634
 4450SOL     OW24985   4.710   2.101   0.220 -0.0852 -0.3442  0.3418
 4450SOL    HW124986   4.623   2.136   0.237  0.0193 -0.1837  0.5471
 4450SOL    HW224987   4.720   2.044   0.296 -1.5714 -0.0465  0.7601
 4451SOL     OW24988   3.990   0.654   8.455  0.4310 -0.1663  0.4292
 4451SOL    HW124989   4.024   0.741   8.435 -0.9510  0.6508  1.6596
 4451SOL    HW224990   4.056   0.601   8.411  1.4644 -0.3737  2.2103
 4452SOL     OW24991   0.825   3.449  17.072  0.3259 -0.3274 -0.0697
 4452SOL    HW124992   0.768   3.373  17.088 -2.4934  2.7679  4.4019
 4452SOL    HW224993   0.868   3.420  16.992  2.7854  0.2681  1.0391
 4453SOL     OW24994   4.610   2.433   0.204 -0.2097  0.0802  0.4237
 4453SOL    HW124995   4.695   2.393   0.225 -1.1990 -1.3929  1.6838
 4453SOL    HW224996   4.606   2.518   0.248 -0.5865 -0.1803  0.8963
 4454SOL     OW24997   2.930   1.050   5.009 -0.3326 -0.4821  0.1312
 4454SOL    HW124998   2.944   0.974   5.065 -1.4671  1.3689  2.9360
 4454SOL    HW224999   2.890   1.107   5.075 -1.6897  1.1433 -2.0843
 4455SOL     OW25000   0.859   1.790   7.680 -0.2302  0.5210 -0.0761
 4455SOL    HW125001   0.913   1.715   7.654 -0.8684 -0.1428  0.5036
 4455SOL    HW225002   0.900   1.867   7.641 -2.3472  2.4365  1.4598
 4456SOL     OW25003   1.484   2.211  17.328 -0.1588  0.2923 -0.0576
 4456SOL    HW125004   1.537   2.196  17.249  0.0807  1.7858 -0.1962
 4456SOL    HW225005   1.542   2.275  17.369  1.0348 -1.7141  1.3388
 4457SOL     OW25006   2.903   4.138  17.041 -0.1731  0.6122 -0.5002
 4457SOL    HW125007   2.827   4.090  17.008  1.4090 -2.0838 -0.2849
 4457SOL    HW225008   2.877   4.155  17.131  1.3976  3.0944 -0.5041
 4458SOL     OW25009   3.183   3.872   5.405 -0.1957  0.1379 -0.1435
 4458SOL    HW125010   3.105   3.823   5.431 -1.4711  1.8062 -0.7666
 4458SOL    HW225011   3.197   3.917   5.488 -0.2892  0.4044 -0.2690
 4459SOL     OW25012   1.993   1.571   9.742  0.5654  0.0784 -0.2672
 4459SOL    HW125013   1.897   1.563   9.736  0.5923  0.7728 -1.5221
 4459SOL    HW225014   2.004   1.508   9.814 -0.0796  0.5698  0.2676
 4460SOL     OW25015   1.201   2.071   8.289  0.3239  0.2777 -0.0834
 4460SOL    HW125016   1.267   2.078   8.359 -0.2928 -0.1494  0.5343
 4460SOL    HW225017   1.231   2.151   8.245 -0.9956 -0.3350 -2.0788
 4461SOL     OW25018   0.688   3.324   3.093 -0.3718  0.1270 -0.0771
 4461SOL    HW125019   0.614   3.343   3.150  0.2516  1.2478  0.3528
 4461SOL    HW225020   0.747   3.267   3.142  0.6837  0.8850 -0.4651
 4462SOL     OW25021   3.349   4.107   4.614 -0.3614 -0.2393  0.1453
 4462SOL    HW125022   3.288   4.169   4.653  0.8681  0.3334  1.1408
 4462SOL    HW225023   3.296   4.027   4.610 -0.8273 -0.0303  2.1892
 4463SOL     OW25024   0.194   0.800   5.836  0.0982 -0.0285  0.6453
 4463SOL    HW125025   0.285   0.773   5.826 -0.3000 -0.4867 -1.8373
 4463SOL    HW225026   0.154   0.723   5.877  0.7178 -0.0004  1.3127
 4464SOL     OW25027   1.791   1.806   9.390 -0.5775 -0.0479  0.6043
 4464SOL    HW125028   1.813   1.786   9.299 -2.6426 -1.2125  0.3585
 4464SOL    HW225029   1.816   1.722   9.428 -0.3163 -0.8404 -1.2744
 4465SOL     OW25030   1.152   1.705   0.217  0.3602 -0.0902 -0.1920
 4465SOL    HW125031   1.223   1.641   0.215  0.3932 -0.0183 -1.3343
 4465SOL    HW225032   1.086   1.655   0.264 -0.7954  3.4856  1.9345
 4466SOL     OW25033   3.193   3.050   1.740  0.4134  0.6505 -0.1674
 4466SOL    HW125034   3.219   2.969   1.785 -0.7693  1.2751  1.6472
 4466SOL    HW225035   3.278   3.094   1.738 -1.2365  3.6861 -1.7675
 4467SOL     OW25036   2.614   3.095   7.601  0.4489  0.2215  0.1275
 4467SOL    HW125037   2.612   3.190   7.595 -0.1256  0.3490  2.2201
 4467SOL    HW225038   2.556   3.081   7.676 -0.5336  0.7737 -0.5328
 4468SOL     OW25039   4.567   3.082   4.945 -0.3736 -0.4573  0.0586
 4468SOL    HW125040   4.565   3.147   4.874 -1.1943  0.6183  1.0696
 4468SOL    HW225041   4.563   3.137   5.022  0.7561  1.6828 -1.4171
 4469SOL     OW25042   3.396   2.220   2.471 -0.4355 -0.3067  0.8414
 4469SOL    HW125043   3.311   2.228   2.513 -0.7804 -0.3446  0.1465
 4469SOL    HW225044   3.384   2.140   2.420  1.6983  1.7011 -2.8924
 4470SOL     OW25045   2.721   3.317   2.813  0.0097 -0.5197 -0.1254
 4470SOL    HW125046   2.676   3.233   2.823 -0.6204 -0.4111 -2.0814
 4470SOL    HW225047   2.784   3.307   2.885 -1.1415 -0.3081  0.9018
 4471SOL     OW25048   2.915   3.652   4.871  0.2735 -0.1784 -0.0856
 4471SOL    HW125049   2.965   3.580   4.833 -1.6287 -1.7553  0.4334
 4471SOL    HW225050   2.945   3.728   4.821 -2.7786  1.1132  0.0862
 4472SOL     OW25051   3.412   0.850   7.051 -0.3897  0.5317 -0.0524
 4472SOL    HW125052   3.452   0.860   6.965  0.7939  1.8212  0.6619
 4472SOL    HW225053   3.478   0.886   7.109 -0.3579  1.4121 -0.6269
 4473SOL     OW25054   4.023   1.722   5.789 -0.5470  0.5731 -0.2622
 4473SOL    HW125055   3.956   1.770   5.739 -1.4824 -1.0159 -0.5451
 4473SOL    HW225056   4.050   1.665   5.717  1.7253 -0.5906  1.5391
 4474SOL     OW25057   3.220   2.681   3.063  0.9873  0.0426 -0.0258
 4474SOL    HW125058   3.248   2.647   3.148  0.6917 -0.2564 -0.0466
 4474SOL    HW225059   3.160   2.751   3.087  1.5290  0.7888 -0.8709
 4475SOL     OW25060   2.197   3.202   3.531 -0.1872 -0.0881 -0.1262
 4475SOL    HW125061   2.268   3.229   3.590 -0.9170 -0.5952  0.9922
 4475SOL    HW225062   2.146   3.138   3.581 -0.3395  1.8146  2.1613
 4476SOL     OW25063   0.019   0.304   1.946 -0.4575 -0.1542 -0.2237
 4476SOL    HW125064   0.021   0.211   1.970  1.4599  0.0207  0.3088
 4476SOL    HW225065   4.666   0.311   1.914 -0.4855 -1.7324 -0.4744
 4477SOL     OW25066   4.063   1.295   6.762 -0.1219 -0.0128 -0.0035
 4477SOL    HW125067   4.078   1.205   6.733 -0.7479 -0.3290  0.6515
 4477SOL    HW225068   4.121   1.306   6.837 -0.2375  1.8524 -0.1735
 4478SOL     OW25069   4.468   2.919  16.090  0.0131  0.1815 -0.0488
 4478SOL    HW125070   4.445   2.844  16.037  2.0735 -1.4869  1.4351
 4478SOL    HW225071   4.432   2.887  16.173 -2.3141  1.7237 -0.4309
 4479SOL     OW25072   0.410   4.205  11.030 -0.5799  0.1591 -0.0752
 4479SOL    HW125073   0.439   4.122  11.068 -1.6082  0.7825  2.0893
 4479SOL    HW225074   0.354   4.240  11.099 -1.8939 -1.6548 -0.2109
 4480SOL     OW25075   3.609   0.184   5.442 -0.6621  0.2829  0.1645
 4480SOL    HW125076   3.672   0.118   5.414 -1.4755 -1.2173  1.8787
 4480SOL    HW225077   3.620   0.171   5.537 -1.7527  2.2365  0.5607
 4481SOL     OW25078   1.234   0.142   1.462 -0.3681  0.5584 -0.3041
 4481SOL    HW125079   1.146   0.166   1.432 -0.1500  2.3588  0.4807
 4481SOL    HW225080   1.226   0.055   1.501  1.5367  1.2047  1.5137
 4482SOL     OW25081   2.567   2.508   9.045 -0.0657 -0.4300  0.5603
 4482SOL    HW125082   2.636   2.543   9.102  2.2242 -0.5203 -2.1636
 4482SOL    HW225083   2.552   2.415   9.060 -1.1618 -0.0826  1.5878
 4483SOL     OW25084   2.852   0.107  13.838  0.2582  0.0806 -0.1127
 4483SOL    HW125085   2.771   0.127  13.884  1.3943  0.4920  1.7449
 4483SOL    HW225086   2.903   0.162  13.899 -2.3509  1.5857  0.7158
 4484SOL     OW25087   0.422   3.762   7.170 -0.4199 -0.0209  0.3616
 4484SOL    HW125088   0.418   3.667   7.178 -0.4899 -0.1450 -1.0222
 4484SOL    HW225089   0.415   3.769   7.075  1.1287 -2.4924  0.0597
 4485SOL     OW25090   2.021   0.457   6.356  0.0223 -0.4960 -0.0400
 4485SOL    HW125091   1.977   0.374   6.377  0.9350 -0.7538  0.8514
 4485SOL    HW225092   2.084   0.436   6.288 -0.4785 -2.0417 -0.0398
 4486SOL     OW25093   1.107   1.920   6.320 -0.2079 -0.1254 -0.7335
 4486SOL    HW125094   1.137   1.984   6.255 -1.2976  0.0293 -1.0818
 4486SOL    HW225095   1.088   1.981   6.392  2.2139  1.8325 -1.7214
 4487SOL     OW25096   1.466   0.731  12.587  0.2270 -0.1959 -0.2114
 4487SOL    HW125097   1.503   0.662  12.641 -3.1695  0.6308  3.1943
 4487SOL    HW225098   1.545   0.755  12.539 -0.5704  1.0242 -0.9269
 4488SOL     OW25099   4.614   1.086   2.077  0.3846  0.0296  0.5445
 4488SOL    HW125100   4.610   1.008   2.022 -1.5761 -0.8171  1.9085
 4488SOL    HW225101   4.624   1.048   2.164  0.4363 -0.3085  0.3901
 4489SOL     OW25102   4.539   4.457   8.380 -0.0923 -0.3175  0.2383
 4489SOL    HW125103   4.558   4.387   8.318 -1.1901 -0.7327  0.3749
 4489SOL    HW225104   4.454   4.495   8.356  1.2579  1.3289 -2.0154
 4490SOL     OW25105   2.234   0.125  16.496 -0.3092 -0.1094 -0.3820
 4490SOL    HW125106   2.219   0.064  16.423 -1.0025 -1.8707  1.2530
 4490SOL    HW225107   2.163   0.101  16.555 -0.6151 -0.4046 -0.8694
 4491SOL     OW25108   2.592   0.817   5.564  0.0770 -0.8324  0.6323
 4491SOL    HW125109   2.667   0.775   5.523  1.3761  0.1779  1.9464
 4491SOL    HW225110   2.618   0.909   5.572 -0.8851 -0.5128  0.0372
 4492SOL     OW25111   3.453   2.148  13.052 -0.1735  0.0570 -0.0405
 4492SOL    HW125112   3.393   2.074  13.056 -0.2190  0.0242 -1.3065
 4492SOL    HW225113   3.536   2.102  13.060  0.6939  1.6272  0.1286
 4493SOL     OW25114   1.666   2.305  14.457 -0.1319 -0.5700  0.3501
 4493SOL    HW125115   1.655   2.289  14.363  1.6814 -0.5181  0.1217
 4493SOL    HW225116   1.757   2.334  14.450 -0.1100 -1.0995 -1.5902
 4494SOL     OW25117   0.922   0.662   8.399 -0.4219  0.1915  0.6316
 4494SOL    HW125118   0.999   0.713   8.372  0.6720 -0.1555  3.1337
 4494SOL    HW225119   0.909   0.598   8.328 -0.0766  1.0448 -0.2054
 4495SOL     OW25120   2.731   2.109   0.883 -0.5503 -0.3680  0.4906
 4495SOL    HW125121   2.660   2.120   0.820 -0.7467  1.1867  0.9791
 4495SOL    HW225122   2.708   2.031   0.933  0.7493 -0.7243  0.5466
 4496SOL     OW25123   2.179   3.300   4.816 -0.2255  0.1455  0.0445
 4496SOL    HW125124   2.111   3.327   4.754 -0.6484 -0.7065  0.1333
 4496SOL    HW225125   2.132   3.287   4.898  1.8112  0.3675  1.2600
 4497SOL     OW25126   0.089   0.791   1.398  0.0494 -0.0915  0.0235
 4497SOL    HW125127   0.181   0.788   1.423  0.4042  0.4142 -1.2146
 4497SOL    HW225128   0.103   0.788   1.304 -0.1493 -1.3850  0.0415
 4498SOL     OW25129   0.181   0.402  11.400  0.3027  0.0416  0.0402
 4498SOL    HW125130   0.086   0.403  11.414  0.5393 -4.0427  1.7866
 4498SOL    HW225131   0.201   0.462  11.328 -2.9155 -0.3604 -1.1587
 4499SOL     OW25132   1.937   1.844   7.118  0.2092 -0.6880  0.1186
 4499SOL    HW125133   1.979   1.884   7.195  1.0612  0.6636 -1.0556
 4499SOL    HW225134   1.872   1.905   7.083 -1.5430 -3.1115 -0.8253
 4500SOL     OW25135   4.528   1.852   2.219 -0.2357 -0.4535  0.1097
 4500SOL    HW125136   4.618   1.877   2.200 -1.2783  2.4792 -0.9762
 4500SOL    HW225137   4.529   1.759   2.194  1.9123 -0.2578 -0.4916
 4501SOL     OW25138   2.880   3.648  13.816  0.1517 -0.7280  0.0159
 4501SOL    HW125139   2.799   3.674  13.773  0.7539 -1.1753 -1.4029
 4501SOL    HW225140   2.845   3.579  13.872  1.0970 -0.5921  0.7750
 4502SOL     OW25141   2.326   3.138   9.450 -0.0603  0.0406 -0.5190
 4502SOL    HW125142   2.253   3.117   9.508  0.6788  2.0342  1.1310
 4502SOL    HW225143   2.313   3.073   9.380 -3.0323 -1.1560  1.1351
 4503SOL     OW25144   2.649   0.683   6.618 -0.4000 -0.8791  0.0561
 4503SOL    HW125145   2.696   0.715   6.695 -0.9815 -0.5354  0.2632
 4503SOL    HW225146   2.562   0.673   6.655 -0.4219  0.3506  0.3433
 4504SOL     OW25147   0.341   2.063   2.115  0.2926 -0.5380  0.0863
 4504SOL    HW125148   0.336   2.037   2.207 -2.5548 -0.7358 -0.1345
 4504SOL    HW225149   0.302   2.150   2.107 -0.5978 -0.7491  2.1479
 4505SOL     OW25150   4.088   2.539   3.118  0.5670  0.0451  0.4744
 4505SOL    HW125151   3.999   2.507   3.101  1.0395 -0.6104 -0.7558
 4505SOL    HW225152   4.084   2.565   3.210 -0.6319  0.4739  0.3109
 4506SOL     OW25153   0.018   2.373  14.574 -0.2739 -0.3550  0.0570
 4506SOL    HW125154   0.028   2.284  14.540 -2.0959 -0.4799 -0.1159
 4506SOL    HW225155   4.692   2.422  14.521 -1.0975 -2.4538 -0.8881
 4507SOL     OW25156   3.856   0.374  11.392 -0.3579  0.5407  0.2505
 4507SOL    HW125157   3.816   0.460  11.404 -0.1702  0.8261 -1.1460
 4507SOL    HW225158   3.875   0.363  11.485  0.4409  3.5576  0.4550
 4508SOL     OW25159   4.041   4.285  16.832 -0.0584  0.0171 -0.1667
 4508SOL    HW125160   4.008   4.248  16.750 -1.6857  2.9035 -0.8290
 4508SOL    HW225161   4.087   4.364  16.803  0.4661  0.0061  0.6395
 4509SOL     OW25162   3.981   0.969   8.076 -0.7296 -0.2638 -0.2234
 4509SOL    HW125163   3.978   0.945   7.983  0.3695 -0.4349 -0.2106
 4509SOL    HW225164   3.996   1.064   8.069 -0.9020 -0.3027 -1.1933
 4510SOL     OW25165   3.290   2.173   4.496 -0.4141 -0.6673  0.1427
 4510SOL    HW125166   3.352   2.111   4.457  1.1011  0.4829  0.7358
 4510SOL    HW225167   3.222   2.111   4.523  1.7082 -2.3197  1.6946
 4511SOL     OW25168   3.395   4.475   7.592  0.1200 -0.3496 -0.3246
 4511SOL    HW125169   3.376   4.566   7.572 -1.1465 -0.4260  0.4943
 4511SOL    HW225170   3.476   4.468   7.542  0.8279 -1.6137  0.9894
 4512SOL     OW25171   2.321   2.191  10.090  0.5161  0.3985 -0.8211
 4512SOL    HW125172   2.396   2.164  10.036  0.7596 -0.0778 -0.2557
 4512SOL    HW225173   2.341   2.285  10.083 -0.0868  0.5304 -0.7143
 4513SOL     OW25174   0.992   1.932   8.417 -0.5757 -0.0531  0.2697
 4513SOL    HW125175   0.969   1.840   8.403  1.0543 -0.1568 -1.7993
 4513SOL    HW225176   1.072   1.935   8.365  0.4760  1.2223  1.9526
 4514SOL     OW25177   4.187   3.163  15.953 -0.1423 -0.0513 -0.0681
 4514SOL    HW125178   4.166   3.118  15.871  1.7874  0.0281 -0.6169
 4514SOL    HW225179   4.280   3.183  15.948 -0.1792 -0.1266 -1.1328
 4515SOL     OW25180   3.414   1.921   2.438 -0.4150 -0.1715 -0.3480
 4515SOL    HW125181   3.411   1.876   2.523  0.4513 -0.3478 -0.4106
 4515SOL    HW225182   3.504   1.903   2.413  0.4312  1.2858  1.7074
 4516SOL     OW25183   1.722   0.429   5.400  0.0537 -0.5127  0.0363
 4516SOL    HW125184   1.702   0.336   5.409 -2.5154 -0.0782 -0.9967
 4516SOL    HW225185   1.666   0.458   5.327  0.3082  2.2393  0.9300
 4517SOL     OW25186   2.608   4.526  14.901  0.2201 -0.0881 -0.1986
 4517SOL    HW125187   2.581   4.507  14.811  1.1439  1.5767 -0.8232
 4517SOL    HW225188   2.701   4.547  14.893  0.2117 -0.3026 -0.8423
 4518SOL     OW25189   3.419   0.018   5.310 -0.9258  0.3477 -0.1625
 4518SOL    HW125190   3.457   0.100   5.342 -0.3784 -0.1239  0.3858
 4518SOL    HW225191   3.368   4.717   5.382  1.8920 -0.1391  1.5757
 4519SOL     OW25192   0.105   1.114  11.681 -0.1147  0.4700 -0.4788
 4519SOL    HW125193   0.078   1.205  11.672 -0.3446  0.5899  1.3696
 4519SOL    HW225194   0.146   1.113  11.768 -1.3088 -0.0071  0.0812
 4520SOL     OW25195   3.850   0.852  17.666  0.3967  0.3054  0.1325
 4520SOL    HW125196   3.927   0.907  17.653  1.3121 -0.7359  1.1823
 4520SOL    HW225197   3.802   0.868  17.585 -0.4537 -0.6886  0.4391
 4521SOL     OW25198   2.995   2.399   5.196  0.1035  0.5414  0.6850
 4521SOL    HW125199   3.042   2.467   5.148 -1.8695  2.0440  0.8406
 4521SOL    HW225200   3.074   2.368   5.240 -0.5316 -1.7913  0.1534
 4522SOL     OW25201   1.882   0.320   7.113 -0.6909 -0.1502  0.1580
 4522SOL    HW125202   1.787   0.315   7.122 -0.8235  0.0761 -1.1360
 4522SOL    HW225203   1.915   0.235   7.143 -1.0672  0.1762  1.4898
 4523SOL     OW25204   0.965   3.974  15.476 -0.5895  0.5033  1.0105
 4523SOL    HW125205   1.040   4.019  15.437  1.0225 -0.8012  2.6040
 4523SOL    HW225206   0.900   4.045  15.481  0.0221  1.1900 -0.5830
 4524SOL     OW25207   1.864   1.529  10.994 -0.4607  0.7011  0.1443
 4524SOL    HW125208   1.931   1.483  10.945  0.2705  1.2617  0.6050
 4524SOL    HW225209   1.819   1.455  11.034  2.1476 -0.1192  1.5771
 4525SOL     OW25210   1.092   2.848  16.751 -0.0268  0.0576 -0.0089
 4525SOL    HW125211   1.044   2.930  16.744 -1.9566 -1.0947 -0.3259
 4525SOL    HW225212   1.051   2.810  16.829  1.9726  1.0585  1.5378
 4526SOL     OW25213   0.171   2.050   8.642  0.1174  0.0895  0.3244
 4526SOL    HW125214   0.105   2.092   8.697  0.2292 -0.2808  0.7401
 4526SOL    HW225215   0.178   2.102   8.562 -0.9053 -0.7859 -0.3462
 4527SOL     OW25216   1.375   3.767   6.621 -0.3442 -0.0665  0.5503
 4527SOL    HW125217   1.342   3.840   6.675  1.8592  0.2024  1.5220
 4527SOL    HW225218   1.444   3.724   6.671  0.0869 -0.2433 -0.1956
 4528SOL     OW25219   4.661   3.927   5.872  0.6223  0.6805  0.0422
 4528SOL    HW125220   4.608   4.003   5.899  1.3616  0.6297  1.6382
 4528SOL    HW225221   4.701   3.959   5.791 -0.7678  4.2651  0.7310
 4529SOL     OW25222   2.527   2.343  16.447 -0.0700 -0.0912  0.0525
 4529SOL    HW125223   2.611   2.387  16.436  0.2889 -0.8812 -0.3260
 4529SOL    HW225224   2.534   2.316  16.539  1.1199 -1.2876 -0.3818
 4530SOL     OW25225   4.071   4.578   9.796 -0.5322 -0.0975 -0.1329
 4530SOL    HW125226   4.031   4.524   9.864  0.2818 -2.9977 -1.9585
 4530SOL    HW225227   4.126   4.516   9.747  0.9699  1.3519 -0.2797
 4531SOL     OW25228   3.641   3.452   9.260 -0.2680  0.2706 -1.0247
 4531SOL    HW125229   3.565   3.396   9.272  0.2327 -0.1000  0.4329
 4531SOL    HW225230   3.623   3.515   9.331  1.8893  0.0969 -0.3086
 4532SOL     OW25231   3.043   1.287   4.445 -0.2904 -0.0896  0.2740
 4532SOL    HW125232   3.042   1.376   4.481 -1.0704 -0.0651  0.1908
 4532SOL    HW225233   2.960   1.279   4.398 -0.7307  1.0240  0.8626
 4533SOL     OW25234   1.118   1.783   8.214  0.3833  0.1446  0.5322
 4533SOL    HW125235   1.211   1.801   8.199  0.5485 -0.2284  1.1041
 4533SOL    HW225236   1.081   1.816   8.132 -1.8859 -0.6192  1.2439
 4534SOL     OW25237   2.038   1.601   1.801 -0.6103 -0.4943 -0.2993
 4534SOL    HW125238   1.998   1.565   1.880 -1.1548 -0.3942 -0.5320
 4534SOL    HW225239   2.126   1.570   1.822 -0.4604 -0.1911 -0.4834
 4535SOL     OW25240   0.811   2.195   2.993 -0.3469  0.1766 -0.0028
 4535SOL    HW125241   0.886   2.136   3.000  0.8609  2.0139  2.7539
 4535SOL    HW225242   0.753   2.137   3.041  0.1197 -0.0570  0.2836
 4536SOL     OW25243   3.944   0.589  14.373  0.7066  0.0420  0.0136
 4536SOL    HW125244   3.911   0.544  14.295 -0.0306  2.3749 -1.0048
 4536SOL    HW225245   3.930   0.682  14.355 -1.2542 -0.5886 -1.6876
 4537SOL     OW25246   2.420   3.603   3.274 -1.0283  0.1848  0.0114
 4537SOL    HW125247   2.393   3.683   3.320 -1.9301 -1.0427  1.6470
 4537SOL    HW225248   2.358   3.536   3.305 -0.2619  0.5414  2.2830
 4538SOL     OW25249   1.941   3.735   7.473  0.0413 -0.2331  0.1519
 4538SOL    HW125250   1.958   3.641   7.469 -1.0282 -0.2795 -3.0858
 4538SOL    HW225251   1.872   3.743   7.408  0.8903 -1.0880 -0.8622
 4539SOL     OW25252   0.543   2.288   7.655  0.1037  0.1814  0.3437
 4539SOL    HW125253   0.576   2.319   7.570  1.4067  0.8109  1.0905
 4539SOL    HW225254   0.511   2.369   7.695  0.6054 -0.4281  1.9824
 4540SOL     OW25255   4.118   0.512   1.740 -0.1402  0.1559 -0.1179
 4540SOL    HW125256   4.155   0.425   1.726 -0.0414  0.5213 -2.1571
 4540SOL    HW225257   4.024   0.500   1.752 -0.4082  0.0350 -2.2976
 4541SOL     OW25258   3.748   1.188   0.614 -0.1219 -0.5024  0.4514
 4541SOL    HW125259   3.681   1.247   0.578  0.5957  0.2160  0.2947
 4541SOL    HW225260   3.825   1.221   0.567 -1.4112  1.3148 -0.3770
 4542SOL     OW25261   2.556   0.817   9.005 -1.0186  0.6084  0.1829
 4542SOL    HW125262   2.514   0.764   9.073 -0.7220  1.6649  1.1854
 4542SOL    HW225263   2.646   0.819   9.035 -1.6225  1.3431  1.9304
 4543SOL     OW25264   0.744   3.385   8.820 -0.0676 -0.2654  0.0803
 4543SOL    HW125265   0.803   3.444   8.868 -2.5785  0.5563  2.1405
 4543SOL    HW225266   0.741   3.299   8.864  1.1473 -0.2117  0.2780
 4544SOL     OW25267   1.983   1.880   2.034  0.5004  0.3109 -0.3181
 4544SOL    HW125268   2.031   1.799   2.050  0.9246  0.7384  0.5700
 4544SOL    HW225269   1.894   1.845   2.032  0.0551  1.1890  3.3772
 4545SOL     OW25270   2.518   1.866   0.455 -1.1114  0.5113 -0.2144
 4545SOL    HW125271   2.613   1.877   0.467 -0.5602 -3.3782 -0.9626
 4545SOL    HW225272   2.484   1.946   0.495  0.3004  1.2271 -0.4323
 4546SOL     OW25273   2.890   0.315   4.186  0.2603  0.5032  0.0037
 4546SOL    HW125274   2.801   0.289   4.209  0.2944  1.1192  0.8123
 4546SOL    HW225275   2.872   0.329   4.093 -0.6223  0.5009  0.1777
 4547SOL     OW25276   0.375   1.093   4.813 -0.0891 -0.1532 -0.2722
 4547SOL    HW125277   0.354   1.121   4.724 -2.1185 -1.6118 -0.2505
 4547SOL    HW225278   0.468   1.079   4.798  0.0423  0.5339 -0.1006
 4548SOL     OW25279   3.230   2.372   3.718 -0.5652 -0.2726 -0.2134
 4548SOL    HW125280   3.176   2.410   3.786  1.2159  1.1021  0.4195
 4548SOL    HW225281   3.314   2.416   3.732 -0.6677 -0.3403  0.6126
 4549SOL     OW25282   2.991   2.586   9.812 -0.1427  0.0338  0.1797
 4549SOL    HW125283   2.976   2.492   9.811  0.3120 -0.0313 -0.6153
 4549SOL    HW225284   3.065   2.596   9.752 -2.1523  1.0817 -2.1275
 4550SOL     OW25285   3.645   2.746   6.948 -0.2634 -0.5826 -0.1086
 4550SOL    HW125286   3.557   2.764   6.980  0.1018  0.3531  0.3622
 4550SOL    HW225287   3.686   2.744   7.034  1.5834 -1.9541 -1.0171
 4551SOL     OW25288   4.470   0.482   8.608  0.6555 -0.7007 -0.1721
 4551SOL    HW125289   4.452   0.576   8.613  1.5015 -0.5360 -0.3033
 4551SOL    HW225290   4.385   0.454   8.575 -1.2075  2.3013  2.0520
 4552SOL     OW25291   2.695   1.628  14.232 -1.0002  0.2186 -0.2464
 4552SOL    HW125292   2.749   1.702  14.260 -1.1058  1.4176 -3.1280
 4552SOL    HW225293   2.712   1.619  14.138 -1.4172 -2.1357 -0.0751
 4553SOL     OW25294   0.365   0.039   7.920 -0.6089  0.1793  0.0303
 4553SOL    HW125295   0.373   0.013   8.012  0.0124  0.1090 -0.0453
 4553SOL    HW225296   0.282   0.087   7.921 -0.6583  0.0922  0.0738
 4554SOL     OW25297   1.379   1.370   6.880 -0.2757 -0.6462 -0.6061
 4554SOL    HW125298   1.339   1.361   6.966 -2.7774  3.3650 -1.3343
 4554SOL    HW225299   1.382   1.465   6.871 -0.0978 -0.7314 -1.5265
 4555SOL     OW25300   0.129   0.013  15.073  0.0847  0.1885 -0.2395
 4555SOL    HW125301   0.147   4.688  15.002  0.0871 -0.8830  0.6985
 4555SOL    HW225302   0.035   0.017  15.052 -0.1636 -0.3692  0.7781
 4556SOL     OW25303   2.397   4.055  16.269 -0.4755 -0.3422 -0.2023
 4556SOL    HW125304   2.422   4.121  16.334  1.5716 -1.0071 -0.2919
 4556SOL    HW225305   2.460   4.076  16.199 -1.0399 -0.8485 -0.8575
 4557SOL     OW25306   3.856   0.350   1.167  0.3945 -0.1990  0.4817
 4557SOL    HW125307   3.841   0.357   1.073 -1.6829  0.8799  0.9031
 4557SOL    HW225308   3.936   0.298   1.156  1.1112  1.1001 -0.6041
 4558SOL     OW25309   4.523   3.446   8.007 -0.3153 -0.0698  0.6460
 4558SOL    HW125310   4.549   3.440   8.099  1.3226 -2.7816  0.0129
 4558SOL    HW225311   4.468   3.369   7.994  0.9406 -0.8510 -0.0366
 4559SOL     OW25312   1.244   2.540   8.209  0.2935 -0.3462  0.2683
 4559SOL    HW125313   1.222   2.616   8.264  1.1062 -0.0391  0.1617
 4559SOL    HW225314   1.183   2.559   8.138  0.4423  2.1450  0.8017
 4560SOL     OW25315   4.152   0.108   2.454  0.5572  0.2903  0.6266
 4560SOL    HW125316   4.212   0.163   2.403  1.1450  0.3762  1.4055
 4560SOL    HW225317   4.102   0.079   2.378  1.8835 -0.0100 -0.1335
 4561SOL     OW25318   3.733   1.726   8.479  0.0277  0.4381 -0.5517
 4561SOL    HW125319   3.748   1.632   8.487  0.7755  0.7429  1.4601
 4561SOL    HW225320   3.819   1.762   8.501  0.2371 -1.4020  1.6755
 4562SOL     OW25321   4.090   0.113   4.367 -0.3427 -0.2255  0.1064
 4562SOL    HW125322   4.155   0.161   4.418 -2.5734 -0.1721  2.9155
 4562SOL    HW225323   4.038   0.072   4.436 -0.0811 -2.4723 -1.0168
 4563SOL     OW25324   3.955   4.181  17.069 -0.4847  0.2571 -0.7306
 4563SOL    HW125325   3.986   4.246  17.132 -1.8678 -0.4090  0.6316
 4563SOL    HW225326   3.976   4.233  16.991  0.0675 -1.2803 -1.6158
 4564SOL     OW25327   1.035   0.820   6.622  0.0167  0.3792 -0.3649
 4564SOL    HW125328   1.104   0.862   6.570  0.0140  0.4055 -0.3473
 4564SOL    HW225329   1.074   0.733   6.612  1.4421  1.0558 -0.6572
 4565SOL     OW25330   1.414   0.537  16.757 -0.3493  0.1538  0.2801
 4565SOL    HW125331   1.374   0.507  16.675 -2.6897 -1.8746  2.1883
 4565SOL    HW225332   1.366   0.617  16.782  2.1933  1.6120  0.4906
 4566SOL     OW25333   2.699   2.743   2.001  0.1330 -0.5706 -0.1626
 4566SOL    HW125334   2.673   2.653   1.983  1.6578 -1.3693  1.6068
 4566SOL    HW225335   2.646   2.768   2.077 -2.2196  0.5608 -2.1656
 4567SOL     OW25336   0.066   4.226  10.901 -0.2638 -0.0657  0.2778
 4567SOL    HW125337   0.090   4.135  10.920  1.2982  0.4024  0.5226
 4567SOL    HW225338   0.113   4.271  10.972 -3.6003 -0.6703  2.8819
 4568SOL     OW25339   1.600   0.162   4.191  0.2106 -0.3124 -0.0474
 4568SOL    HW125340   1.555   0.152   4.107  1.3166  1.0828 -0.7920
 4568SOL    HW225341   1.527   0.135   4.246 -0.1366  1.2851  0.2571
 4569SOL     OW25342   1.559   3.349   7.805 -0.4048 -0.0223 -0.1591
 4569SOL    HW125343   1.635   3.407   7.811 -0.8073  0.5488 -0.5893
 4569SOL    HW225344   1.604   3.267   7.782 -1.7173 -0.4502 -1.2079
 4570SOL     OW25345   2.223   1.539   4.092 -0.4462  0.6983  0.0818
 4570SOL    HW125346   2.205   1.453   4.056  1.7860  1.3891 -2.6600
 4570SOL    HW225347   2.283   1.567   4.023 -3.0348  0.9622 -2.0834
 4571SOL     OW25348   2.946   0.516  17.627  0.0023  0.0938 -0.0236
 4571SOL    HW125349   2.959   0.599  17.674  2.8881  0.8371 -2.1479
 4571SOL    HW225350   3.038   0.497  17.610  0.0673 -0.6099  1.1107
 4572SOL     OW25351   1.679   3.350   4.688  0.1996  0.1375 -0.0922
 4572SOL    HW125352   1.712   3.266   4.719 -1.0132 -0.4421 -0.3623
 4572SOL    HW225353   1.585   3.333   4.682  0.4157 -1.1687  0.2141
 4573SOL     OW25354   2.014   4.288   5.760  0.2677  0.2752 -0.1534
 4573SOL    HW125355   1.961   4.345   5.815  0.1135  0.9075 -0.9624
 4573SOL    HW225356   1.996   4.204   5.804  0.2713 -0.4596 -1.5401
 4574SOL     OW25357   2.501   1.052   7.426  0.0390  0.4521 -0.5769
 4574SOL    HW125358   2.526   1.141   7.451  4.4204 -0.4270 -1.7888
 4574SOL    HW225359   2.540   1.001   7.497  1.7177  2.6072  0.0518
 4575SOL     OW25360   2.985   2.964  17.260 -0.2906 -0.1252 -0.1164
 4575SOL    HW125361   2.997   3.055  17.287  3.0385 -0.4611 -0.5425
 4575SOL    HW225362   3.040   2.910  17.316 -0.3845 -1.0373 -0.8934
 4576SOL     OW25363   1.372   2.884   4.530  0.0097  0.0426 -0.2161
 4576SOL    HW125364   1.338   2.970   4.555 -1.4903 -0.8699  0.9058
 4576SOL    HW225365   1.325   2.866   4.449 -1.5176  0.7950  0.5016
 4577SOL     OW25366   2.896   1.158  14.332  0.1136  0.1184  0.3339
 4577SOL    HW125367   2.829   1.151  14.400 -1.1857 -0.2748 -0.9754
 4577SOL    HW225368   2.935   1.071  14.339  1.7975  0.8339 -0.0597
 4578SOL     OW25369   1.052   2.620   3.475  0.1235 -0.1351 -0.7196
 4578SOL    HW125370   1.043   2.525   3.488  0.8570 -0.3916 -2.0105
 4578SOL    HW225371   1.093   2.643   3.558 -1.6138 -0.7833  0.3172
 4579SOL     OW25372   1.837   0.966   1.949  0.3064  0.2533  0.3121
 4579SOL    HW125373   1.798   0.965   2.037 -1.7377 -2.0387 -0.6371
 4579SOL    HW225374   1.909   1.029   1.956  0.9378 -0.4138 -0.1450
 4580SOL     OW25375   1.899   0.037  14.159 -0.1310 -0.1421  0.0480
 4580SOL    HW125376   1.919   0.004  14.246  1.3543 -0.7529 -0.5157
 4580SOL    HW225377   1.974   0.006  14.109  1.1943  1.7143  0.8809
 4581SOL     OW25378   1.394   4.202   7.659  0.2068 -0.1079  0.1284
 4581SOL    HW125379   1.379   4.284   7.707  1.0961 -0.1817  0.5359
 4581SOL    HW225380   1.477   4.194   7.706  0.7586  0.9238 -0.6639
 4582SOL     OW25381   2.316   1.229   3.451  0.0454  0.4629  0.2819
 4582SOL    HW125382   2.260   1.226   3.373 -0.0697  0.4513  0.3656
 4582SOL    HW225383   2.251   1.223   3.521  0.6231 -0.9454  0.6934
 4583SOL     OW25384   2.595   0.045   4.631 -0.4819  0.0939  0.4099
 4583SOL    HW125385   2.680   0.031   4.673  0.8727  2.4753 -1.5226
 4583SOL    HW225386   2.560   4.700   4.596  2.5885 -0.9830 -0.1790
 4584SOL     OW25387   3.857   3.754   3.812 -0.5120 -0.1889 -0.1703
 4584SOL    HW125388   3.787   3.765   3.876 -0.8768  3.5484 -1.1936
 4584SOL    HW225389   3.807   3.715   3.741 -0.0888  1.2688 -1.2694
 4585SOL     OW25390   2.108   0.823   3.040 -0.2827  0.2887 -0.1511
 4585SOL    HW125391   2.144   0.779   3.117  0.1299  2.6724  1.0059
 4585SOL    HW225392   2.025   0.864   3.065 -0.0951  0.7278 -0.2499
 4586SOL     OW25393   0.422   3.626   4.333  0.0780  0.6371 -0.2783
 4586SOL    HW125394   0.402   3.660   4.245 -0.3975  0.4141 -0.2577
 4586SOL    HW225395   0.491   3.689   4.353  0.5456 -0.1375  0.5430
 4587SOL     OW25396   1.537   1.230   5.311 -0.1977  0.3404  0.2572
 4587SOL    HW125397   1.530   1.201   5.402 -0.8638 -1.5902 -0.4085
 4587SOL    HW225398   1.563   1.151   5.265 -2.4463 -0.9207  1.1359
 4588SOL     OW25399   1.364   2.505  13.510  0.0188  0.1026 -0.1181
 4588SOL    HW125400   1.384   2.598  13.519  0.4480  0.1468 -1.5852
 4588SOL    HW225401   1.321   2.474  13.590  0.9349 -2.1903 -0.5293
 4589SOL     OW25402   1.572   1.449   3.893  0.3032  0.0428  0.1671
 4589SOL    HW125403   1.573   1.469   3.986 -0.8858 -1.3279  0.4854
 4589SOL    HW225404   1.629   1.518   3.860  0.9919 -1.6549 -2.2081
 4590SOL     OW25405   1.110   0.675   6.286 -0.0477  0.8511 -0.2190
 4590SOL    HW125406   1.127   0.636   6.372 -1.5412 -0.6697 -0.5936
 4590SOL    HW225407   1.102   0.768   6.305  1.5114  1.1150 -0.8544
 4591SOL     OW25408   1.855   0.098   7.296  0.2710  0.0684  0.5460
 4591SOL    HW125409   1.797   0.053   7.357  0.6899 -0.1920  0.7477
 4591SOL    HW225410   1.930   0.114   7.352  1.2489  0.5975 -0.8987
 4592SOL     OW25411   2.369   4.398   1.478  0.0828 -0.1953 -0.3864
 4592SOL    HW125412   2.446   4.412   1.534  0.1087  0.4943 -0.5870
 4592SOL    HW225413   2.305   4.367   1.542  2.4055 -1.1182  1.4817
 4593SOL     OW25414   1.878   1.505   9.458 -0.1064  0.5273  0.2393
 4593SOL    HW125415   1.815   1.489   9.388 -1.2101  0.9536  1.1405
 4593SOL    HW225416   1.828   1.471   9.532  0.2702 -0.3062  0.1099
 4594SOL     OW25417   0.280   0.542   1.408 -0.1937  0.4435 -0.0201
 4594SOL    HW125418   0.328   0.618   1.442  0.6702 -0.5261  0.9270
 4594SOL    HW225419   0.199   0.552   1.458  0.1574  3.1171  0.0419
 4595SOL     OW25420   4.690   2.945   5.868  0.0073 -0.6880 -0.2507
 4595SOL    HW125421   4.655   2.856   5.866  1.9829 -1.4221 -1.6138
 4595SOL    HW225422   4.617   3.000   5.838  0.0600 -1.1146 -1.1547
 4596SOL     OW25423   3.191   3.294   6.355  0.3586  0.2330  0.4883
 4596SOL    HW125424   3.167   3.342   6.434 -1.4253 -0.2856  0.2451
 4596SOL    HW225425   3.103   3.277   6.323  0.3910  1.5291 -0.2872
 4597SOL     OW25426   4.539   0.492  17.163  0.3156 -0.0578 -0.1215
 4597SOL    HW125427   4.488   0.519  17.086  1.0499 -1.3121 -1.0475
 4597SOL    HW225428   4.616   0.546  17.146  0.6521 -0.6508 -0.5020
 4598SOL     OW25429   2.041   1.454   4.306 -0.0333 -0.1004 -0.6088
 4598SOL    HW125430   2.119   1.461   4.252  0.7907 -0.4339  0.5329
 4598SOL    HW225431   2.079   1.396   4.373  1.4671  2.6469  0.9108
 4599SOL     OW25432   2.703   0.032  11.109 -0.8611  0.2907 -0.3196
 4599SOL    HW125433   2.783   4.725  11.080 -0.8243  1.5931 -2.1889
 4599SOL    HW225434   2.683   0.082  11.030 -1.9174 -1.2942 -1.0486
 4600SOL     OW25435   3.510   4.264   3.681 -0.6217  0.0821  0.2373
 4600SOL    HW125436   3.449   4.338   3.691 -2.3172 -1.4401  1.0323
 4600SOL    HW225437   3.557   4.292   3.602  0.3817  0.2673  0.9073
 4601SOL     OW25438   0.437   2.323  13.964 -0.0298  0.1688 -0.3065
 4601SOL    HW125439   0.507   2.257  13.964 -1.6265 -1.5275 -0.2576
 4601SOL    HW225440   0.362   2.279  14.004  0.2745  0.0957  0.1840
 4602SOL     OW25441   3.234   2.297   6.868  0.2429  0.2635 -0.1040
 4602SOL    HW125442   3.240   2.202   6.872  3.0178  0.5739  3.6216
 4602SOL    HW225443   3.269   2.325   6.953 -1.1593  2.0800 -0.1030
 4603SOL     OW25444   4.491   0.730   0.863 -0.6844  0.0091  0.2061
 4603SOL    HW125445   4.497   0.788   0.787 -1.1496 -0.1031  0.0841
 4603SOL    HW225446   4.540   0.777   0.931  0.7189  0.3566 -1.0536
 4604SOL     OW25447   3.966   1.422   8.381  0.5028 -0.0847 -0.3145
 4604SOL    HW125448   3.993   1.334   8.357  2.2532  1.1000 -2.7775
 4604SOL    HW225449   4.032   1.463   8.325 -1.2214 -0.1097 -2.4012
 4605SOL     OW25450   1.760   4.579   3.370  0.7553 -0.8143 -0.9262
 4605SOL    HW125451   1.763   4.551   3.461  0.3381 -1.6418 -1.1673
 4605SOL    HW225452   1.853   4.575   3.348  0.9095 -1.7154 -0.0555
 4606SOL     OW25453   4.272   3.603   6.636 -0.3015 -0.0666  0.2495
 4606SOL    HW125454   4.343   3.559   6.681 -0.1162  0.2492  0.2668
 4606SOL    HW225455   4.306   3.611   6.546 -3.2932  0.6189 -0.8336
 4607SOL     OW25456   2.086   2.122   2.492 -0.3395 -0.3406 -0.5071
 4607SOL    HW125457   2.085   2.031   2.522  0.9770 -0.4850 -0.8727
 4607SOL    HW225458   2.156   2.117   2.426 -0.5264 -2.3379 -0.5556
 4608SOL     OW25459   3.643   0.063   6.974  0.1979  0.6091  0.1460
 4608SOL    HW125460   3.738   0.054   6.981  0.0818 -1.1019 -0.4415
 4608SOL    HW225461   3.641   0.042   6.881 -0.6734 -1.6746  0.6752
 4609SOL     OW25462   1.555   1.239   6.386  0.2013  0.5287  0.0442
 4609SOL    HW125463   1.546   1.195   6.470  1.7331  2.7586  1.3918
 4609SOL    HW225464   1.580   1.159   6.341  0.3795  0.5314  0.1371
 4610SOL     OW25465   0.726   3.204   4.775 -0.3709  0.0344 -0.0429
 4610SOL    HW125466   0.760   3.265   4.840  0.6867 -0.6553  0.0632
 4610SOL    HW225467   0.775   3.227   4.696  0.1588  1.8016  0.8001
 4611SOL     OW25468   2.068   1.664   2.177  0.2285  0.1289 -0.1705
 4611SOL    HW125469   2.035   1.594   2.122  1.4479 -0.1811 -0.5028
 4611SOL    HW225470   2.136   1.627   2.235  1.4906  0.9974 -1.0995
 4612SOL     OW25471   4.485   0.135   8.508  0.1439  0.3623  0.4174
 4612SOL    HW125472   4.540   0.208   8.538  0.0957  1.6498 -2.5920
 4612SOL    HW225473   4.528   0.119   8.424  2.1947 -1.0146  1.7402
 4613SOL     OW25474   2.803   2.531   6.403 -0.1405  0.3100 -0.5805
 4613SOL    HW125475   2.812   2.449   6.451  2.6084  1.2687  0.5440
 4613SOL    HW225476   2.716   2.514   6.366 -0.9134 -2.0094  2.3526
 4614SOL     OW25477   3.455   3.449  10.376  0.0614 -0.1508  0.4391
 4614SOL    HW125478   3.510   3.525  10.392 -0.9628  0.0526  2.9504
 4614SOL    HW225479   3.527   3.389  10.355 -0.9445 -0.9154 -0.8149
 4615SOL     OW25480   4.247   1.376   8.743 -0.0934  0.4773  0.9223
 4615SOL    HW125481   4.275   1.314   8.810 -0.6476  0.2815  0.9708
 4615SOL    HW225482   4.328   1.409   8.704 -0.2201 -0.7193 -0.3667
 4616SOL     OW25483   0.518   2.223  12.364 -0.0146 -0.3496 -0.6300
 4616SOL    HW125484   0.577   2.225  12.289  0.8986 -0.2910  0.0939
 4616SOL    HW225485   0.470   2.140  12.350 -0.8065  0.4423 -2.6838
 4617SOL     OW25486   1.072   4.664   3.722 -0.0196  0.3223 -0.1279
 4617SOL    HW125487   1.077   0.005   3.776  0.8246 -0.9940  1.7505
 4617SOL    HW225488   0.987   4.624   3.739  1.2376 -2.1226  0.5511
 4618SOL     OW25489   3.044   3.527   2.797  0.1683 -0.1818  0.4854
 4618SOL    HW125490   3.038   3.504   2.890  2.2376 -1.6487  0.2566
 4618SOL    HW225491   3.137   3.549   2.789  0.2867 -1.6121 -2.2059
 4619SOL     OW25492   1.058   4.386   3.540  1.0880  0.0774  0.5138
 4619SOL    HW125493   1.145   4.396   3.578  1.1127 -1.9119  1.0049
 4619SOL    HW225494   1.039   4.474   3.508 -2.7026  0.8032  4.7010
 4620SOL     OW25495   1.261   2.693   2.246 -0.2987  0.8537 -0.2933
 4620SOL    HW125496   1.282   2.702   2.153  1.9463 -0.5491  0.0631
 4620SOL    HW225497   1.179   2.739   2.260 -0.8986 -0.2597 -0.1335
 4621SOL     OW25498   4.412   2.900   5.074  0.2782  0.1078 -0.0430
 4621SOL    HW125499   4.456   2.946   5.003  0.4562  0.4725  0.3061
 4621SOL    HW225500   4.360   2.971   5.111 -0.9287 -0.2500 -1.0495
 4622SOL     OW25501   3.466   2.531   9.469 -0.0167  0.4488  0.1471
 4622SOL    HW125502   3.523   2.602   9.439  0.0542  1.4540  2.6834
 4622SOL    HW225503   3.525   2.457   9.483  1.1974  1.4806  0.4862
 4623SOL     OW25504   1.260   2.303   0.210  0.3517  0.1633 -0.3849
 4623SOL    HW125505   1.206   2.335   0.283  1.4606 -1.8304  1.3140
 4623SOL    HW225506   1.347   2.335   0.234 -0.2505  1.6625 -0.1976
 4624SOL     OW25507   3.547   0.652   3.790 -0.1811  0.6800  0.2882
 4624SOL    HW125508   3.592   0.569   3.774  0.2213  1.2348 -1.4590
 4624SOL    HW225509   3.483   0.638   3.720  0.3091 -4.4311  0.8288
 4625SOL     OW25510   1.950   3.024   5.388  0.3295 -0.3537 -0.5313
 4625SOL    HW125511   1.912   3.039   5.301  1.9934  3.3741 -0.6259
 4625SOL    HW225512   1.938   2.929   5.386 -0.1552 -0.3244  2.3191
 4626SOL     OW25513   4.032   3.086   5.332 -0.0076  0.1203  0.3161
 4626SOL    HW125514   4.010   3.086   5.425 -0.8420 -1.9529  0.1198
 4626SOL    HW225515   4.020   2.994   5.308  0.5478 -0.2330  1.4104
 4627SOL     OW25516   4.585   1.310   6.785 -0.2863 -0.5373 -0.1623
 4627SOL    HW125517   4.499   1.278   6.812 -0.9725  0.6801 -0.8886
 4627SOL    HW225518   4.627   1.225   6.797 -3.0412 -2.0866 -1.3766
 4628SOL     OW25519   0.773   4.123   4.171 -0.1194 -0.3529 -0.4526
 4628SOL    HW125520   0.866   4.101   4.172 -0.2127 -0.7885 -1.7285
 4628SOL    HW225521   0.775   4.218   4.164  0.9054 -0.3231  0.1963
 4629SOL     OW25522   1.413   3.598  14.516 -0.5252 -0.2023 -0.3919
 4629SOL    HW125523   1.427   3.689  14.542  1.1224 -0.2350 -1.1719
 4629SOL    HW225524   1.428   3.555  14.600 -0.7334  0.9676  0.2390
 4630SOL     OW25525   3.641   3.817   9.194  0.5658  0.0385  0.1304
 4630SOL    HW125526   3.611   3.908   9.203  0.4803  0.1064 -0.8829
 4630SOL    HW225527   3.558   3.793   9.153  0.1253 -1.0822  1.6678
 4631SOL     OW25528   0.578   2.926   4.570 -0.3864  0.2083 -0.3816
 4631SOL    HW125529   0.573   2.912   4.475 -1.6932  0.5720 -0.3616
 4631SOL    HW225530   0.674   2.922   4.570 -0.5257 -2.9234 -1.8386
 4632SOL     OW25531   3.974   0.076   1.071 -0.2477 -0.1653 -0.2695
 4632SOL    HW125532   3.906   0.059   1.006  0.4349 -0.4109 -0.9187
 4632SOL    HW225533   3.933   0.065   1.157  2.2852  0.9023  1.0733
 4633SOL     OW25534   4.615   0.875   3.676  0.0912  0.5163 -0.4148
 4633SOL    HW125535   4.613   0.926   3.595  0.0622  0.0489 -0.7140
 4633SOL    HW225536   4.615   0.934   3.751  2.6342 -0.0351  0.0459
 4634SOL     OW25537   3.480   1.507   5.370 -0.6982 -0.5571 -0.5677
 4634SOL    HW125538   3.392   1.492   5.407 -0.1568 -1.1558  0.4856
 4634SOL    HW225539   3.459   1.575   5.306  2.6373  1.6241  0.6813
 4635SOL     OW25540   2.341   1.869   7.095 -0.4998  0.6870 -0.3170
 4635SOL    HW125541   2.308   1.781   7.116 -0.3623  0.6997 -0.0454
 4635SOL    HW225542   2.435   1.860   7.104 -0.4061  1.3698 -0.6667
 4636SOL     OW25543   1.132   2.714   8.663 -0.2401 -0.9299 -0.1242
 4636SOL    HW125544   1.043   2.750   8.669  0.5099  0.8215  0.6123
 4636SOL    HW225545   1.128   2.651   8.734 -2.8563  0.9012  1.3678
 4637SOL     OW25546   1.124   3.903   2.988 -0.3886 -0.2370  0.2759
 4637SOL    HW125547   1.093   3.813   2.990 -1.3739  0.0260 -2.8061
 4637SOL    HW225548   1.213   3.884   2.959 -0.6018 -0.3850 -0.2841
 4638SOL     OW25549   0.829   2.430   7.314  0.3583  0.1886 -0.1745
 4638SOL    HW125550   0.924   2.417   7.307  0.5943  2.1509 -0.3691
 4638SOL    HW225551   0.806   2.455   7.225  1.1644 -0.7703 -0.6685
 4639SOL     OW25552   1.481   2.673   0.184  0.1656 -0.7782 -0.6543
 4639SOL    HW125553   1.389   2.659   0.165 -0.1462  1.0609 -0.4838
 4639SOL    HW225554   1.474   2.704   0.274  0.7333 -1.3132 -0.4257
 4640SOL     OW25555   3.425   3.496   3.194 -0.0106  0.2767 -0.2584
 4640SOL    HW125556   3.331   3.501   3.212  0.1116  0.4500  0.3187
 4640SOL    HW225557   3.441   3.491   3.099 -0.5056 -2.7919 -0.1970
 4641SOL     OW25558   4.685   4.212   8.679 -0.1819  0.5601  0.1673
 4641SOL    HW125559   4.661   4.218   8.772 -0.0173 -2.9973  0.4495
 4641SOL    HW225560   0.026   4.157   8.693  0.7730  1.4958 -1.5968
 4642SOL     OW25561   4.194   0.067  15.873 -0.4060 -0.2829 -0.0452
 4642SOL    HW125562   4.131   0.127  15.914  1.0921  1.0108  0.3678
 4642SOL    HW225563   4.244   0.130  15.821 -1.5918  0.1741 -0.6329
 4643SOL     OW25564   4.048   0.152  12.207 -0.2162 -0.2420 -0.0243
 4643SOL    HW125565   4.066   0.225  12.148  0.9157  0.0715  0.7008
 4643SOL    HW225566   4.064   0.201  12.288 -2.6160 -0.6110  0.6585
 4644SOL     OW25567   2.238   0.301   3.927 -0.3758  0.1596  0.7721
 4644SOL    HW125568   2.164   0.355   3.899  1.5964  2.1544 -0.6138
 4644SOL    HW225569   2.226   0.221   3.877  0.1508 -2.1079  4.3093
 4645SOL     OW25570   3.030   1.852   6.083  0.0612 -0.0939  0.1845
 4645SOL    HW125571   2.967   1.795   6.039 -0.1653  1.7753 -1.8734
 4645SOL    HW225572   3.007   1.841   6.176 -1.1223  1.8125  0.1289
 4646SOL     OW25573   2.573   3.476   1.908 -0.0626  0.0978  0.4253
 4646SOL    HW125574   2.606   3.387   1.918  0.3528  0.3062  0.9169
 4646SOL    HW225575   2.537   3.474   1.820  0.7065  0.3204  0.1094
 4647SOL     OW25576   4.230   2.915  12.694  0.3408 -0.2470  0.2859
 4647SOL    HW125577   4.290   2.989  12.682 -0.2023  0.1218 -0.1432
 4647SOL    HW225578   4.189   2.893  12.610 -0.8678  1.1109  0.5052
 4648SOL     OW25579   4.730   3.806   7.526  0.4902  0.2045  0.3866
 4648SOL    HW125580   4.719   3.820   7.620 -0.4405 -1.3561  0.5048
 4648SOL    HW225581   4.720   3.712   7.516 -1.2910  0.2863  1.3530
 4649SOL     OW25582   2.358   3.125  11.965  0.4540  0.2666 -0.4970
 4649SOL    HW125583   2.366   3.029  11.967  3.5611  0.5428 -0.8787
 4649SOL    HW225584   2.420   3.156  12.031  1.2700 -0.6726 -0.8260
 4650SOL     OW25585   2.004   1.734   6.573  0.4252  0.1410  0.3487
 4650SOL    HW125586   2.033   1.654   6.531 -1.7905 -0.4369 -0.1182
 4650SOL    HW225587   2.060   1.747   6.649 -0.1196 -3.0531  1.3081
 4651SOL     OW25588   1.379   3.618   6.081  0.3876  0.2388 -0.2937
 4651SOL    HW125589   1.297   3.584   6.118  1.8189 -2.1431  0.7055
 4651SOL    HW225590   1.430   3.537   6.073 -0.9204 -0.7326  1.0400
 4652SOL     OW25591   1.737   0.462  16.563  0.1268 -0.0065 -0.3629
 4652SOL    HW125592   1.668   0.489  16.503  1.7840 -0.1112 -2.3435
 4652SOL    HW225593   1.813   0.500  16.518 -0.4512  0.8319 -0.6285
 4653SOL     OW25594   2.130   4.306  11.369 -0.6397  0.3091  0.3423
 4653SOL    HW125595   2.068   4.348  11.430 -0.1101  2.0445 -0.2969
 4653SOL    HW225596   2.103   4.215  11.364 -1.0758  0.5075 -1.0053
 4654SOL     OW25597   3.016   1.153  11.557  0.0020  0.1547  0.1708
 4654SOL    HW125598   3.080   1.144  11.486 -0.8216  0.6674 -0.6375
 4654SOL    HW225599   2.951   1.215  11.524 -0.2288  0.3239  0.9610
 4655SOL     OW25600   1.040   2.087   6.503 -0.0900 -0.0787 -0.3692
 4655SOL    HW125601   1.042   2.066   6.597  0.8881 -0.2870 -0.4287
 4655SOL    HW225602   0.947   2.087   6.481  0.2081 -0.3796 -1.6008
 4656SOL     OW25603   0.947   2.710   4.310 -0.6272  0.1824  0.2728
 4656SOL    HW125604   0.965   2.715   4.404 -0.3741  0.5787  0.2026
 4656SOL    HW225605   0.954   2.800   4.280  0.7687 -0.0702 -0.1852
 4657SOL     OW25606   3.205   4.047   5.155 -0.4956 -0.2072  0.3625
 4657SOL    HW125607   3.259   3.987   5.103 -0.1149 -1.1161  1.7981
 4657SOL    HW225608   3.170   3.986   5.219 -2.0474  0.7974  0.4705
 4658SOL     OW25609   1.887   1.001  15.200  0.2369  0.3645  0.2237
 4658SOL    HW125610   1.838   1.079  15.174  1.4200  0.5059 -1.6141
 4658SOL    HW225611   1.837   0.936  15.151 -0.7729  0.7163  0.8075
 4659SOL     OW25612   1.035   0.394   1.911 -0.7524 -0.0235  0.5661
 4659SOL    HW125613   1.043   0.473   1.857 -0.4670 -1.6126 -1.7411
 4659SOL    HW225614   1.119   0.399   1.957 -0.6859 -0.7846  0.5220
 4660SOL     OW25615   1.112   1.571   8.496  0.5793 -0.2602 -0.3719
 4660SOL    HW125616   1.198   1.589   8.534  0.0308 -0.3023  0.8897
 4660SOL    HW225617   1.051   1.552   8.567  0.3345 -0.0211 -0.5172
 4661SOL     OW25618   3.888   0.177  14.131  0.0456 -0.0582 -0.7391
 4661SOL    HW125619   3.845   0.174  14.217  2.3121  1.5001  0.4401
 4661SOL    HW225620   3.971   0.132  14.145  0.2309  0.2505 -0.8497
 4662SOL     OW25621   1.877   0.241   6.355 -0.1096  0.3119  0.1795
 4662SOL    HW125622   1.828   0.183   6.412  0.9341  0.1721  0.9200
 4662SOL    HW225623   1.939   0.181   6.314  0.8041 -0.2287  2.3710
 4663SOL     OW25624   2.360   1.642   6.548  0.2766  0.3343  0.0809
 4663SOL    HW125625   2.291   1.705   6.570 -0.8622 -1.2268  0.9837
 4663SOL    HW225626   2.387   1.671   6.462 -0.6974 -1.9191 -0.9965
 4664SOL     OW25627   1.542   0.823   0.904 -0.0533 -0.7598 -0.2054
 4664SOL    HW125628   1.488   0.797   0.829 -0.9628  0.5355  0.0002
 4664SOL    HW225629   1.584   0.738   0.921  2.0308 -0.0904 -2.0368
 4665SOL     OW25630   3.020   1.255   2.385  0.1213  0.4961  0.1867
 4665SOL    HW125631   3.060   1.180   2.428  1.9042  1.2469 -0.1758
 4665SOL    HW225632   2.965   1.210   2.321  3.0728 -0.3647 -1.7711
 4666SOL     OW25633   3.329   2.161   8.901  1.2769  0.7748  0.1826
 4666SOL    HW125634   3.314   2.075   8.941  2.7129 -0.0527 -1.0290
 4666SOL    HW225635   3.376   2.129   8.824 -0.5330 -0.4843 -0.4124
 4667SOL     OW25636   3.070   2.237   4.868  0.1127 -0.6144 -0.2180
 4667SOL    HW125637   3.042   2.153   4.902  0.0407 -0.7327 -0.5719
 4667SOL    HW225638   2.990   2.290   4.858  0.6493 -0.2998 -2.9809
 4668SOL     OW25639   2.544   2.369   2.727 -0.0811 -0.1023 -0.6068
 4668SOL    HW125640   2.547   2.445   2.785 -3.0632 -0.9629  0.6884
 4668SOL    HW225641   2.583   2.409   2.650 -0.8738  3.4115  0.8249
 4669SOL     OW25642   4.090   0.026  11.637  0.2537 -0.6007  0.4174
 4669SOL    HW125643   3.999   0.026  11.666 -0.7309 -2.8977 -2.6241
 4669SOL    HW225644   4.105   0.119  11.620  1.2117 -0.8552 -0.1110
 4670SOL     OW25645   1.817   2.660   5.647  0.0707  0.5935  0.2036
 4670SOL    HW125646   1.753   2.731   5.653 -0.8302 -0.3043  1.2356
 4670SOL    HW225647   1.819   2.628   5.737 -1.4002  1.6645  0.6207
 4671SOL     OW25648   3.369   0.381   3.931  0.1053  0.4095 -0.1190
 4671SOL    HW125649   3.442   0.325   3.902 -0.0047  0.3395 -0.2619
 4671SOL    HW225650   3.368   0.361   4.025  2.2793  3.4214  0.5283
 4672SOL     OW25651   4.167   3.106   3.035  0.6303  0.7078  0.1279
 4672SOL    HW125652   4.233   3.037   3.031  1.2874  1.2951  0.7455
 4672SOL    HW225653   4.108   3.069   3.101 -1.7346  1.5520 -1.4900
 4673SOL     OW25654   3.699   1.415   7.323 -1.1873 -0.3200 -0.0238
 4673SOL    HW125655   3.683   1.467   7.244  0.4232  1.1995  0.6432
 4673SOL    HW225656   3.793   1.395   7.318 -1.2922 -0.7946 -0.0596
 4674SOL     OW25657   1.890   1.792   8.053 -0.2872 -0.0883  0.1378
 4674SOL    HW125658   1.970   1.784   8.001 -1.3863 -0.0585 -1.5491
 4674SOL    HW225659   1.819   1.783   7.989  1.5435 -1.9436 -1.6315
 4675SOL     OW25660   1.693   3.984   4.254  0.1383 -0.3121 -0.1167
 4675SOL    HW125661   1.652   3.966   4.169  1.4498  2.4060 -1.3229
 4675SOL    HW225662   1.640   3.931   4.313  2.0103 -1.6361  0.4007
 4676SOL     OW25663   0.558   3.583   8.912 -0.7231  0.4063  0.0136
 4676SOL    HW125664   0.589   3.564   8.824 -1.3684 -1.5492  0.2080
 4676SOL    HW225665   0.615   3.532   8.971  0.3964 -0.4359 -1.8102
 4677SOL     OW25666   0.203   3.076   3.578  1.1578 -0.4774 -0.7655
 4677SOL    HW125667   0.267   3.020   3.533  2.3459 -1.0317  1.5879
 4677SOL    HW225668   0.232   3.165   3.555 -0.3076 -0.3136 -1.9492
 4678SOL     OW25669   1.482   2.359   6.307 -0.2253 -0.0482 -0.1040
 4678SOL    HW125670   1.444   2.360   6.219  0.3886 -0.2136 -0.3772
 4678SOL    HW225671   1.412   2.311   6.350 -0.8862 -0.7403 -1.9329
 4679SOL     OW25672   1.547   0.510   2.983 -0.1299  0.0960 -0.4349
 4679SOL    HW125673   1.478   0.577   2.979  0.4372  0.8773  2.6947
 4679SOL    HW225674   1.625   0.549   3.023 -1.2921  3.1900 -1.1357
 4680SOL     OW25675   3.459   1.357   0.859  0.5349  0.3597  0.6042
 4680SOL    HW125676   3.505   1.287   0.812 -2.2374 -1.7487  0.9670
 4680SOL    HW225677   3.444   1.319   0.946  0.0429 -0.7368  0.0529
 4681SOL     OW25678   3.373   3.463   4.323  0.0136  0.5250  0.5122
 4681SOL    HW125679   3.305   3.509   4.372  0.7559  1.9684  0.1704
 4681SOL    HW225680   3.448   3.496   4.372 -0.3894  0.3734  1.2311
 4682SOL     OW25681   1.451   0.903  16.178 -0.3768 -0.7898  0.8829
 4682SOL    HW125682   1.427   0.983  16.132  1.4912 -0.9967 -0.4679
 4682SOL    HW225683   1.545   0.922  16.181 -0.4691 -0.3198  0.7572
 4683SOL     OW25684   3.437   1.011   2.955 -0.2278  0.0797 -0.1133
 4683SOL    HW125685   3.477   0.946   2.898 -3.0392 -0.8561 -1.0446
 4683SOL    HW225686   3.506   1.072   2.982 -0.3424  0.8891 -1.6499
 4684SOL     OW25687   1.310   0.511  17.082  0.1956 -0.2571  0.3488
 4684SOL    HW125688   1.307   0.542  16.991 -0.7158  1.0799  0.8256
 4684SOL    HW225689   1.361   0.577  17.130  2.9728 -0.4275 -2.3840
 4685SOL     OW25690   0.449   3.394   1.978 -0.0901  0.1733  0.0359
 4685SOL    HW125691   0.454   3.392   2.073  1.3014  0.9885 -0.0310
 4685SOL    HW225692   0.407   3.309   1.962 -4.5128  2.0041  1.7486
 4686SOL     OW25693   2.032   2.764   4.255  0.0729 -0.6304 -0.2984
 4686SOL    HW125694   2.054   2.671   4.244  1.7338 -0.0419 -1.9963
 4686SOL    HW225695   1.942   2.756   4.286  0.3711  0.9434  0.9962
 4687SOL     OW25696   2.375   1.694  17.214 -0.2367 -0.1349  0.1184
 4687SOL    HW125697   2.313   1.627  17.243  0.3841  0.7904  3.6950
 4687SOL    HW225698   2.433   1.708  17.290 -0.4053  0.0059  0.2208
 4688SOL     OW25699   1.347   0.225  15.427  0.1609  0.0843  0.5568
 4688SOL    HW125700   1.442   0.228  15.418  0.0707 -0.1028 -0.4689
 4688SOL    HW225701   1.321   0.313  15.402  0.3468  0.6887  2.4860
 4689SOL     OW25702   2.196   2.222   3.556 -0.0460  0.7183 -0.3134
 4689SOL    HW125703   2.214   2.140   3.600  0.9222  1.3917  0.5334
 4689SOL    HW225704   2.164   2.279   3.625  0.5520  1.9589 -1.0576
 4690SOL     OW25705   0.494   1.199   8.166  0.2198 -1.0153 -0.0224
 4690SOL    HW125706   0.549   1.247   8.104  0.3517  0.0107  0.8733
 4690SOL    HW225707   0.490   1.123   8.108 -1.4684 -0.7066 -0.3221
 4691SOL     OW25708   1.410   1.470   7.741  0.8568  0.4785  0.1826
 4691SOL    HW125709   1.468   1.396   7.726 -0.5870 -0.4054 -1.0663
 4691SOL    HW225710   1.455   1.517   7.811  2.3378 -0.9016  0.1481
 4692SOL     OW25711   2.918   3.286  15.765 -0.1405  0.0934 -0.5090
 4692SOL    HW125712   2.899   3.330  15.848  0.6215 -0.5913  0.0367
 4692SOL    HW225713   2.839   3.231  15.763 -0.2381  0.3003 -2.0394
 4693SOL     OW25714   1.554   2.752   9.056  0.2603 -0.0179 -0.2133
 4693SOL    HW125715   1.551   2.835   9.009 -0.4084  0.1621  0.1564
 4693SOL    HW225716   1.537   2.779   9.146  1.8256  0.8776 -0.1895
 4694SOL     OW25717   0.891   2.065   6.885 -0.1740 -0.1128 -0.3793
 4694SOL    HW125718   0.822   2.020   6.934  0.4617 -1.5047 -0.7553
 4694SOL    HW225719   0.959   1.999   6.872  0.7515  0.9226 -0.8155
 4695SOL     OW25720   1.566   0.100   7.260  0.0753  0.0358  0.2470
 4695SOL    HW125721   1.573   0.005   7.260 -1.5743 -0.0984 -4.9252
 4695SOL    HW225722   1.486   0.118   7.309 -1.3037 -0.5788 -1.7863
 4696SOL     OW25723   0.461   3.220   4.835  0.0981 -0.1934 -0.1286
 4696SOL    HW125724   0.549   3.184   4.823 -0.3110 -0.9447 -0.8351
 4696SOL    HW225725   0.471   3.315   4.834  3.5149 -0.5166  1.4767
 4697SOL     OW25726   4.211   1.876  11.464 -0.4169  0.1928 -0.7101
 4697SOL    HW125727   4.302   1.899  11.484 -0.1349 -2.0090  0.5830
 4697SOL    HW225728   4.207   1.785  11.493  1.0467  0.6903  1.0497
 4698SOL     OW25729   1.693   1.053   6.234 -0.5083  0.2451  0.3237
 4698SOL    HW125730   1.622   0.998   6.202 -0.9127  0.5847  0.6393
 4698SOL    HW225731   1.750   0.989   6.278 -0.3948 -0.4701 -0.8613
 4699SOL     OW25732   1.835   2.231   7.215 -0.2520  0.1651  0.4139
 4699SOL    HW125733   1.871   2.215   7.302  0.5613  0.3871  0.1141
 4699SOL    HW225734   1.752   2.276   7.233 -0.9821 -2.3280  3.3205
 4700SOL     OW25735   0.441   2.554   2.208  0.0634  0.3747 -0.2391
 4700SOL    HW125736   0.474   2.476   2.251 -1.2599 -0.2385 -0.3356
 4700SOL    HW225737   0.363   2.567   2.263  0.6781 -0.3600  0.7989
 4701SOL     OW25738   0.566   0.253   3.453 -0.0348 -0.2553 -0.2130
 4701SOL    HW125739   0.536   0.187   3.390 -0.0274  0.4626 -0.9778
 4701SOL    HW225740   0.516   0.330   3.424  3.2065  2.6740  2.0656
 4702SOL     OW25741   1.183   2.269  11.348 -0.1083  0.0466  0.4257
 4702SOL    HW125742   1.143   2.197  11.398  1.8991 -0.6871  0.9795
 4702SOL    HW225743   1.103   2.321  11.339 -1.3613 -1.5328  2.5293
 4703SOL     OW25744   3.446   0.032   3.132 -0.3320  0.0140 -0.2778
 4703SOL    HW125745   3.404   4.700   3.082 -0.2188 -0.6539  0.5469
 4703SOL    HW225746   3.536   0.019   3.101 -0.1923 -0.4680  0.3232
 4704SOL     OW25747   1.628   3.900   4.691 -0.4458 -0.4202 -0.2158
 4704SOL    HW125748   1.648   3.810   4.718 -0.3757 -0.1284  0.7156
 4704SOL    HW225749   1.710   3.941   4.664 -0.2995 -0.1543  0.6318
 4705SOL     OW25750   0.884   2.130   2.129 -0.2054 -0.0218  0.3572
 4705SOL    HW125751   0.927   2.184   2.194 -0.4235  0.4199  0.1332
 4705SOL    HW225752   0.955   2.113   2.067 -1.1108 -1.6640 -0.2455
 4706SOL     OW25753   0.291   1.088   5.070 -0.4887 -0.1552  0.1034
 4706SOL    HW125754   0.339   1.162   5.107 -1.0578 -0.3148  1.1477
 4706SOL    HW225755   0.320   1.085   4.979 -0.5741  0.3194  0.0599
 4707SOL     OW25756   3.035   2.043   8.027 -0.3703 -0.0944 -0.4357
 4707SOL    HW125757   3.101   2.111   8.039  0.4222 -0.3769 -3.2679
 4707SOL    HW225758   2.968   2.110   8.017 -0.3731  0.3066  2.0878
 4708SOL     OW25759   3.204   0.472   0.556  0.3296  0.1409 -0.1587
 4708SOL    HW125760   3.225   0.557   0.518 -0.1873 -0.2701 -1.3722
 4708SOL    HW225761   3.185   0.428   0.473  2.3571  0.6042 -0.8586
 4709SOL     OW25762   1.498   1.948  14.910 -0.0367  0.0901 -0.4452
 4709SOL    HW125763   1.449   1.866  14.910 -1.2583  0.8213  1.1399
 4709SOL    HW225764   1.443   1.998  14.849  0.4775 -0.7766 -1.6090
 4710SOL     OW25765   2.912   0.612   4.301 -0.7119 -0.0111 -0.3151
 4710SOL    HW125766   2.950   0.633   4.386  1.4310 -0.7169 -1.1127
 4710SOL    HW225767   2.926   0.518   4.287  0.6779 -0.0600  1.5060
 4711SOL     OW25768   2.707   0.900  15.627 -0.6231  0.0599  0.0493
 4711SOL    HW125769   2.636   0.836  15.634 -0.5669  0.1476  1.2751
 4711SOL    HW225770   2.769   0.849  15.574  1.8024 -0.2105  3.1302
 4712SOL     OW25771   0.738   2.685   5.043 -0.1233 -0.0315  0.5497
 4712SOL    HW125772   0.649   2.716   5.062 -0.5425  1.1295 -3.1934
 4712SOL    HW225773   0.710   2.593   5.049 -0.8815  0.1613  0.0576
 4713SOL     OW25774   1.217   0.886  11.916  0.1014  0.1323 -0.0179
 4713SOL    HW125775   1.194   0.932  11.997  1.9988  1.3970 -0.2244
 4713SOL    HW225776   1.180   0.798  11.926 -3.0616  1.7141  2.4633
 4714SOL     OW25777   1.594   3.643   2.387 -0.0227 -0.0405  0.1107
 4714SOL    HW125778   1.683   3.619   2.414 -0.1671 -1.3758 -0.5770
 4714SOL    HW225779   1.579   3.610   2.299 -3.2841 -1.5622  1.2471
 4715SOL     OW25780   0.282   2.145   8.866 -0.3337  0.7668 -0.4441
 4715SOL    HW125781   0.377   2.139   8.869 -0.3117  1.6860  0.9821
 4715SOL    HW225782   0.253   2.079   8.803  0.4058 -0.3334  0.3660
 4716SOL     OW25783   3.678   1.149   3.109  0.3728 -0.5993  0.4933
 4716SOL    HW125784   3.746   1.134   3.043  0.9212  3.3150  0.1803
 4716SOL    HW225785   3.704   1.099   3.186  1.5075 -1.9749 -0.7847
 4717SOL     OW25786   3.208   3.336  11.006 -0.1843  0.6370  0.2762
 4717SOL    HW125787   3.280   3.278  11.031  1.0833  2.1204  0.0544
 4717SOL    HW225788   3.256   3.419  11.000 -0.5506  0.8845  0.7542
 4718SOL     OW25789   0.872   3.458   4.998 -0.3691 -0.3389  0.6613
 4718SOL    HW125790   0.931   3.490   5.067 -1.3125  2.0446  0.3758
 4718SOL    HW225791   0.818   3.399   5.050 -0.1718 -0.2301  0.9854
 4719SOL     OW25792   0.661   3.427  12.121 -0.1980 -0.0336 -0.2570
 4719SOL    HW125793   0.667   3.522  12.130 -1.1037 -0.0056  0.0894
 4719SOL    HW225794   0.699   3.393  12.202 -2.8153 -1.4512  0.3797
 4720SOL     OW25795   3.371   3.468   6.272 -0.6839 -0.3736  0.2533
 4720SOL    HW125796   3.460   3.434   6.260  0.8893  3.3122  1.2278
 4720SOL    HW225797   3.321   3.394   6.304 -1.2462 -0.3787 -0.6545
 4721SOL     OW25798   1.258   2.213  17.161 -0.5072  0.2339 -0.5814
 4721SOL    HW125799   1.306   2.213  17.243 -1.2452 -0.5443 -0.1466
 4721SOL    HW225800   1.303   2.134  17.131 -0.3602 -0.8359  2.4477
 4722SOL     OW25801   1.337   2.678   7.442 -0.3694 -0.0894 -0.6240
 4722SOL    HW125802   1.412   2.635   7.483 -0.8935 -2.5964 -2.3108
 4722SOL    HW225803   1.383   2.698   7.360 -0.2541 -0.3133 -0.6116
 4723SOL     OW25804   1.280   1.713   7.753  0.7832  0.0797  0.1514
 4723SOL    HW125805   1.363   1.666   7.745 -1.1855 -3.0567 -1.9051
 4723SOL    HW225806   1.316   1.801   7.747 -1.2866  1.0091  1.1471
 4724SOL     OW25807   1.706   0.960   2.491 -0.2888  0.0919 -0.5816
 4724SOL    HW125808   1.764   1.036   2.482 -1.0806  0.8642  0.7697
 4724SOL    HW225809   1.736   0.904   2.419 -2.3221 -1.1692 -0.4413
 4725SOL     OW25810   2.896   1.510   0.938  0.1941  0.4300 -0.1912
 4725SOL    HW125811   2.902   1.547   1.026  0.7960 -1.0742  0.3935
 4725SOL    HW225812   2.874   1.418   0.948  1.1834  0.1530 -0.5184
 4726SOL     OW25813   0.829   4.141   8.414  0.0092  0.1523  0.3786
 4726SOL    HW125814   0.784   4.137   8.329 -0.7766  3.7800  0.6163
 4726SOL    HW225815   0.914   4.176   8.388 -0.2738  0.5705  0.0049
 4727SOL     OW25816   1.206   0.616   5.835 -0.0584 -0.7410  0.2770
 4727SOL    HW125817   1.226   0.569   5.753 -0.9915 -0.3806 -0.1512
 4727SOL    HW225818   1.279   0.675   5.853 -0.2709 -0.8009  1.3005
 4728SOL     OW25819   0.844   2.415   4.032  0.1295 -0.5055  0.0858
 4728SOL    HW125820   0.897   2.348   4.075 -1.7702 -2.7733 -1.1244
 4728SOL    HW225821   0.839   2.391   3.940 -3.1864  1.4519 -0.2375
 4729SOL     OW25822   2.646   0.640  14.244 -0.2748 -0.1696  0.1443
 4729SOL    HW125823   2.623   0.547  14.242  2.0637 -0.7246 -1.8274
 4729SOL    HW225824   2.719   0.641  14.182  0.0970  2.1338  0.6574
 4730SOL     OW25825   0.283   4.486  16.097 -0.4714 -0.1010 -0.0681
 4730SOL    HW125826   0.351   4.551  16.078  0.2364 -0.3166  1.7290
 4730SOL    HW225827   0.287   4.430  16.020 -1.9642 -1.3122  0.7384
 4731SOL     OW25828   0.527   1.678  11.877 -0.8768 -0.6554  0.3712
 4731SOL    HW125829   0.440   1.641  11.859 -1.3894 -0.1925  1.8880
 4731SOL    HW225830   0.574   1.651  11.798  0.1845  2.1942  0.0247
 4732SOL     OW25831   1.834   3.477  14.432 -0.3316  0.3242 -0.2452
 4732SOL    HW125832   1.907   3.502  14.377  1.1442 -2.1445  0.5824
 4732SOL    HW225833   1.781   3.421  14.375 -1.8365  0.3618  1.1055
 4733SOL     OW25834   3.495   3.290   3.352  1.2043  0.1030 -0.7890
 4733SOL    HW125835   3.504   3.334   3.436 -0.5475 -2.4650  0.7470
 4733SOL    HW225836   3.468   3.359   3.291  1.6299 -0.0171 -1.1162
 4734SOL     OW25837   1.289   3.181   0.340 -0.1239  0.5104  0.2227
 4734SOL    HW125838   1.350   3.179   0.266  0.0508  1.2419  0.3443
 4734SOL    HW225839   1.306   3.262   0.388 -2.3311  0.3930  1.1646
 4735SOL     OW25840   1.103   4.681   8.971 -0.2818  0.4880  0.2079
 4735SOL    HW125841   1.041   4.708   8.903 -2.2760 -3.7543  0.3152
 4735SOL    HW225842   1.065   4.724   9.048 -2.0848  0.0194 -0.4256
 4736SOL     OW25843   1.624   2.258   8.779  0.4012 -0.4026 -0.5145
 4736SOL    HW125844   1.625   2.311   8.858 -0.0717 -0.0757 -0.7221
 4736SOL    HW225845   1.707   2.290   8.743  0.0203 -0.0263 -1.0699
 4737SOL     OW25846   0.453   0.814   3.360 -0.3268  0.3507 -0.0378
 4737SOL    HW125847   0.425   0.756   3.288 -1.8250  1.7893 -0.6301
 4737SOL    HW225848   0.412   0.892   3.321 -0.4933 -0.1207 -0.8082
 4738SOL     OW25849   2.269   4.699   5.333  0.0540  0.4800 -0.8712
 4738SOL    HW125850   2.272   0.055   5.354  0.2181  0.4623 -0.8139
 4738SOL    HW225851   2.223   4.663   5.408  0.7223  2.9889  0.7199
 4739SOL     OW25852   1.718   2.612   6.254 -0.0447  1.1326 -0.1446
 4739SOL    HW125853   1.729   2.552   6.181 -0.9519 -0.3458  0.9259
 4739SOL    HW225854   1.733   2.549   6.324 -2.9321 -0.3539 -0.9012
 4740SOL     OW25855   1.452   3.319   3.099  0.5015  0.1599 -0.0252
 4740SOL    HW125856   1.371   3.367   3.083 -0.3407 -1.4456 -0.5368
 4740SOL    HW225857   1.498   3.317   3.014 -1.5032  2.4052 -1.1748
 4741SOL     OW25858   3.228   2.659   5.293 -0.2990  0.1049  0.4066
 4741SOL    HW125859   3.202   2.740   5.248  0.7718  0.3130  0.1424
 4741SOL    HW225860   3.144   2.639   5.334 -2.0516 -0.2995 -3.3140
 4742SOL     OW25861   3.049   1.897   5.793 -0.0633  0.1682 -0.1639
 4742SOL    HW125862   2.961   1.866   5.813 -0.9158  2.5077 -0.2456
 4742SOL    HW225863   3.094   1.870   5.874  0.9270 -0.7294 -1.0136
 4743SOL     OW25864   0.154   2.087  15.300 -0.5964 -0.0715  0.1341
 4743SOL    HW125865   0.244   2.054  15.303 -0.5053  0.3906  2.7883
 4743SOL    HW225866   0.160   2.161  15.240  0.9247  0.0383  0.4178
 4744SOL     OW25867   4.001   2.307   9.259 -0.1203 -0.4610  0.0701
 4744SOL    HW125868   3.925   2.343   9.213  0.0145  3.0401  2.5612
 4744SOL    HW225869   3.964   2.257   9.331 -0.5104 -1.0763 -0.5519
 4745SOL     OW25870   1.871   1.405  16.312 -0.7944  0.3690 -0.5654
 4745SOL    HW125871   1.953   1.397  16.360 -0.2606 -2.3516 -1.9194
 4745SOL    HW225872   1.893   1.489  16.273 -0.6607  1.4766  1.9509
 4746SOL     OW25873   1.514   2.098   1.896  0.6468 -0.0386 -0.0544
 4746SOL    HW125874   1.528   2.165   1.829 -0.8828  0.1711 -0.1730
 4746SOL    HW225875   1.456   2.141   1.959  0.7679 -0.9186  0.6624
 4747SOL     OW25876   1.731   1.431   6.804 -0.3428  0.5878 -0.2514
 4747SOL    HW125877   1.728   1.518   6.843  1.1807  0.6819 -0.3576
 4747SOL    HW225878   1.815   1.394   6.831 -0.5024  0.9772  0.7646
 4748SOL     OW25879   2.125   3.759  15.246  0.1404  0.2607  0.0143
 4748SOL    HW125880   2.083   3.756  15.160 -2.3635 -1.3778  1.3335
 4748SOL    HW225881   2.053   3.734  15.303 -1.4490  0.9039 -1.7391
 4749SOL     OW25882   1.977   0.156  14.405  0.1410 -0.6406  0.4433
 4749SOL    HW125883   1.908   0.216  14.434  0.2169 -0.1106 -0.4581
 4749SOL    HW225884   1.944   0.078  14.449  0.7290 -0.3683  1.3726
 4750SOL     OW25885   2.646   2.189   7.520 -0.0672  0.0625  0.2709
 4750SOL    HW125886   2.646   2.176   7.615  2.1747 -0.5373  0.2014
 4750SOL    HW225887   2.615   2.101   7.494 -0.7460  0.0979  0.9667
 4751SOL     OW25888   1.007   2.704   2.434  0.5901 -0.6594  0.1207
 4751SOL    HW125889   0.934   2.758   2.464  0.6957  0.1759 -1.1416
 4751SOL    HW225890   0.990   2.682   2.343 -1.5338  0.0151  0.3522
 4752SOL     OW25891   4.423   3.348  10.794 -0.0675 -0.1513 -0.2865
 4752SOL    HW125892   4.412   3.259  10.761 -0.8567 -0.4933  0.9090
 4752SOL    HW225893   4.416   3.334  10.888  0.9096 -0.7436 -0.3064
 4753SOL     OW25894   4.651   4.219   8.958 -0.4940  0.5602 -0.0915
 4753SOL    HW125895   4.728   4.207   9.014 -2.7802  1.6836  3.3199
 4753SOL    HW225896   4.594   4.271   9.016  2.5401  1.8699  1.7508
 4754SOL     OW25897   1.252   1.497   4.521  0.1458 -0.5169  0.4793
 4754SOL    HW125898   1.196   1.487   4.444 -1.1318 -0.2312  1.3691
 4754SOL    HW225899   1.258   1.408   4.555 -0.2926 -1.3739 -1.7081
 4755SOL     OW25900   4.447   3.114  15.894 -0.6795 -0.3173  0.6339
 4755SOL    HW125901   4.507   3.175  15.935 -1.9092 -0.9067  3.3037
 4755SOL    HW225902   4.459   3.035  15.948  0.1263 -0.0084  0.9108
 4756SOL     OW25903   2.333   1.292   3.145  0.3195  0.0674  0.0094
 4756SOL    HW125904   2.275   1.229   3.103  0.0501  1.0989 -1.1560
 4756SOL    HW225905   2.413   1.240   3.143  0.5971  0.5357 -1.0546
 4757SOL     OW25906   1.399   4.459   7.146 -0.2898  0.3270 -0.5388
 4757SOL    HW125907   1.324   4.503   7.187  1.7199  2.0589  1.2845
 4757SOL    HW225908   1.414   4.514   7.069  1.9633  1.7606  0.9469
 4758SOL     OW25909   4.039   2.177   2.757 -0.1975 -0.1627 -0.0787
 4758SOL    HW125910   4.090   2.148   2.682  1.2678  0.6354  0.6057
 4758SOL    HW225911   4.051   2.103   2.817  0.2400 -1.3308 -1.6184
 4759SOL     OW25912   2.143   4.377   5.181 -0.4932 -0.2197  0.4280
 4759SOL    HW125913   2.197   4.364   5.260  1.5621 -1.9491 -1.2483
 4759SOL    HW225914   2.058   4.407   5.213 -1.0634 -0.4732 -0.8636
 4760SOL     OW25915   3.410   3.342   6.656  0.1833 -0.1511  0.2307
 4760SOL    HW125916   3.441   3.423   6.616  0.0630  0.3222  1.0988
 4760SOL    HW225917   3.322   3.363   6.627 -0.5772 -0.6981  2.1430
 4761SOL     OW25918   2.130   1.709   6.236  0.3071 -0.2192  0.0460
 4761SOL    HW125919   2.209   1.658   6.220 -0.1551 -0.7689 -0.4799
 4761SOL    HW225920   2.176   1.773   6.289  1.9268 -1.7631  0.5014
 4762SOL     OW25921   2.871   1.313  13.890  0.3182 -0.7014 -0.4636
 4762SOL    HW125922   2.909   1.395  13.860 -0.2447 -0.3214 -0.1195
 4762SOL    HW225923   2.941   1.266  13.937 -1.0410 -1.6050  0.6730
 4763SOL     OW25924   1.668   3.079   4.540 -0.1119  0.1708 -0.5951
 4763SOL    HW125925   1.700   3.058   4.628  0.9190 -0.3587 -1.0983
 4763SOL    HW225926   1.740   3.057   4.481 -0.9697  1.4198 -2.1160
 4764SOL     OW25927   1.921   3.480   7.626  0.0040 -0.1849  0.1860
 4764SOL    HW125928   1.841   3.526   7.652 -0.3613  0.8632 -2.7590
 4764SOL    HW225929   1.995   3.501   7.683  0.0041 -1.0837  0.5151
 4765SOL     OW25930   2.934   2.678   0.380 -0.5546 -0.2967 -0.2659
 4765SOL    HW125931   2.950   2.595   0.425  1.5221 -0.1567 -0.7303
 4765SOL    HW225932   2.840   2.687   0.394 -0.5131 -1.3170  0.6521
 4766SOL     OW25933   1.606   0.422   6.529 -0.4165 -0.1844 -0.1021
 4766SOL    HW125934   1.642   0.359   6.467 -2.3231 -0.6231 -0.7733
 4766SOL    HW225935   1.615   0.369   6.608  0.9537  0.9368  0.4843
 4767SOL     OW25936   2.160   0.550   6.978 -0.5429  0.4101  0.4549
 4767SOL    HW125937   2.113   0.565   7.060  2.5658 -0.0537  2.2979
 4767SOL    HW225938   2.170   0.456   6.968 -1.7850  0.7123 -3.5229
 4768SOL     OW25939   2.590   4.180   1.958 -0.1024  0.1151 -0.0074
 4768SOL    HW125940   2.588   4.084   1.954 -2.9654  0.2021 -0.4630
 4768SOL    HW225941   2.672   4.197   2.005  0.6370  2.1928 -2.0759
 4769SOL     OW25942   1.043   3.139   6.836 -0.1137 -1.2457 -0.5000
 4769SOL    HW125943   1.003   3.144   6.923  0.4566  1.5573 -0.4258
 4769SOL    HW225944   0.968   3.133   6.777 -0.6563 -1.7797  0.2515
 4770SOL     OW25945   2.073   4.599   2.338 -0.3098 -0.1398 -0.2845
 4770SOL    HW125946   2.150   4.555   2.302  1.1596  2.3803 -0.2134
 4770SOL    HW225947   2.027   4.634   2.262 -0.4671  2.2256  0.9109
 4771SOL     OW25948   2.890   1.068   2.191  0.0571  0.5190  0.4969
 4771SOL    HW125949   2.923   1.065   2.101 -1.8397  0.1748 -0.1868
 4771SOL    HW225950   2.796   1.081   2.182  0.7057  3.0812 -2.3589
 4772SOL     OW25951   4.472   1.171   0.569  0.5083  0.6964  0.5323
 4772SOL    HW125952   4.455   1.145   0.479 -1.1842 -0.9487  1.3205
 4772SOL    HW225953   4.567   1.165   0.564  0.4180 -1.3011  1.3328
 4773SOL     OW25954   4.612   0.066   6.387 -0.0823 -0.3309 -0.2446
 4773SOL    HW125955   4.599   0.088   6.479  0.5905 -2.4489  0.3343
 4773SOL    HW225956   4.640   0.149   6.348  1.3773 -0.4962  0.4553
 4774SOL     OW25957   4.497   1.856   1.103  0.0184  0.1559  0.3442
 4774SOL    HW125958   4.477   1.810   1.184 -2.2968  2.4594  1.0664
 4774SOL    HW225959   4.517   1.779   1.051 -1.2534  0.0062  0.0675
 4775SOL     OW25960   2.386   3.045  10.228 -0.3840  0.0874  0.1443
 4775SOL    HW125961   2.299   3.026  10.192 -1.0734  1.6846  0.9722
 4775SOL    HW225962   2.441   2.980  10.184  1.2949  1.5019  0.1642
 4776SOL     OW25963   0.429   0.329   2.742 -0.1597 -0.4879 -0.0189
 4776SOL    HW125964   0.396   0.279   2.668 -3.3621 -0.0237  1.1014
 4776SOL    HW225965   0.432   0.260   2.808 -2.7108  0.9729  1.6305
 4777SOL     OW25966   2.796   3.891  10.314  1.1886  0.0459  0.2967
 4777SOL    HW125967   2.756   3.907  10.229 -0.4054 -0.4021  0.9671
 4777SOL    HW225968   2.734   3.928  10.377  0.8989  1.4556 -0.8188
 4778SOL     OW25969   0.931   0.879  16.767 -0.1503 -0.0623  0.2934
 4778SOL    HW125970   0.967   0.821  16.833 -0.2943 -1.5550 -0.9429
 4778SOL    HW225971   1.007   0.931  16.741  0.2250 -2.4991 -3.4267
 4779SOL     OW25972   1.552   0.269  16.567 -0.0288 -0.3256  0.2711
 4779SOL    HW125973   1.513   0.328  16.503  0.5430 -1.0744 -0.7781
 4779SOL    HW225974   1.632   0.319  16.582 -1.0088  1.3050  0.1171
 4780SOL     OW25975   0.709   0.015   7.785 -0.3545 -0.3023  0.1876
 4780SOL    HW125976   0.713   4.686   7.716 -0.0885 -0.0460 -0.0446
 4780SOL    HW225977   0.729   0.088   7.727  0.7162  1.4550  2.7425
 4781SOL     OW25978   2.451   0.834  16.524 -0.1382 -1.2291 -0.5956
 4781SOL    HW125979   2.385   0.843  16.593 -1.2164  1.1924 -1.9386
 4781SOL    HW225980   2.399   0.817  16.446 -0.2391 -2.1250 -0.3402
 4782SOL     OW25981   2.566   0.233   5.121 -0.1946  0.6041  0.7690
 4782SOL    HW125982   2.532   0.160   5.173  0.6952 -0.2887  0.0897
 4782SOL    HW225983   2.657   0.218   5.149 -0.0261  0.5955  0.2079
 4783SOL     OW25984   0.445   4.183  13.510  0.0925 -0.1914  0.1173
 4783SOL    HW125985   0.466   4.225  13.427  0.9564  0.1747  0.5142
 4783SOL    HW225986   0.507   4.242  13.553 -0.1301  0.5114 -0.5245
 4784SOL     OW25987   1.709   4.177  16.325 -0.0354  0.1460 -0.5938
 4784SOL    HW125988   1.671   4.241  16.386 -0.7009 -0.9939  0.1741
 4784SOL    HW225989   1.790   4.166  16.374  1.1071  0.3611 -2.4161
 4785SOL     OW25990   3.814   2.275  10.052 -0.1348 -0.1245 -0.3538
 4785SOL    HW125991   3.757   2.201  10.072 -1.1197  0.7009 -0.1245
 4785SOL    HW225992   3.859   2.297  10.134 -2.2006  0.5852  0.5887
 4786SOL     OW25993   1.997   2.559   7.403 -0.1079  0.0510  0.7569
 4786SOL    HW125994   2.091   2.562   7.421 -0.4529 -1.1292  2.6995
 4786SOL    HW225995   1.996   2.609   7.321 -0.5215 -1.5261 -0.2053
 4787SOL     OW25996   3.562   0.896   9.033  0.4606 -0.3087 -0.4200
 4787SOL    HW125997   3.487   0.941   9.071  1.2139  0.9591 -0.4376
 4787SOL    HW225998   3.623   0.961   9.069 -0.7673 -0.4500  1.9790
 4788SOL     OW25999   4.015   1.178   5.057  0.4009  0.2278 -0.8141
 4788SOL    HW126000   3.936   1.135   5.022  0.7062  0.5239 -1.8510
 4788SOL    HW226001   4.016   1.265   5.018 -0.9868 -0.0391 -1.4347
 4789SOL     OW26002   3.006   2.238  11.824 -0.1141 -0.5029 -0.1869
 4789SOL    HW126003   2.979   2.296  11.895  0.1756 -1.8189  1.0109
 4789SOL    HW226004   2.972   2.152  11.850  0.8623 -1.0887 -0.8478
 4790SOL     OW26005   1.485   3.275   2.257 -0.5010  0.6553 -0.0422
 4790SOL    HW126006   1.449   3.235   2.178  2.0348  1.3538 -1.5416
 4790SOL    HW226007   1.485   3.368   2.235 -1.8245  0.9979  1.3865
 4791SOL     OW26008   1.972   1.541   7.364 -0.1750 -0.2117  0.0110
 4791SOL    HW126009   2.045   1.497   7.320  2.0542  0.9328  2.4796
 4791SOL    HW226010   1.922   1.464   7.390 -1.5962  0.5580 -0.4468
 4792SOL     OW26011   3.929   4.235  16.569 -0.1232  0.1940 -0.3421
 4792SOL    HW126012   3.894   4.148  16.552  1.7661 -1.0828  2.2020
 4792SOL    HW226013   4.013   4.242  16.525 -0.6993  1.3415 -1.2409
 4793SOL     OW26014   4.142   3.444   5.577  0.1898  0.2469 -0.1845
 4793SOL    HW126015   4.185   3.490   5.649 -0.3671 -1.4882  1.2500
 4793SOL    HW226016   4.064   3.498   5.565 -0.9875 -1.3946  0.1028
 4794SOL     OW26017   4.585   3.946   1.795  0.1855  0.1175  0.8207
 4794SOL    HW126018   4.578   3.859   1.834 -1.6856 -0.6995 -1.3279
 4794SOL    HW226019   4.647   3.930   1.723 -0.2629  4.2210 -0.4879
 4795SOL     OW26020   2.650   1.471   4.673 -0.2325 -0.4030 -0.1879
 4795SOL    HW126021   2.619   1.394   4.720  0.6993 -0.8132 -0.2490
 4795SOL    HW226022   2.657   1.526   4.751 -2.2314 -2.2248  1.2497
 4796SOL     OW26023   0.226   1.530  12.050 -0.2584  0.3579  0.3985
 4796SOL    HW126024   0.146   1.507  12.002  0.8064  0.6033 -1.5135
 4796SOL    HW226025   0.288   1.526  11.977  1.2069 -0.6923  1.7123
 4797SOL     OW26026   3.093   1.698   4.833  0.0394 -0.2553  0.0667
 4797SOL    HW126027   3.162   1.715   4.770 -1.0221  0.6692 -0.8627
 4797SOL    HW226028   3.092   1.781   4.881  0.2035  0.1405 -0.6235
 4798SOL     OW26029   0.771   4.626   4.119  0.1944  0.0521 -0.3263
 4798SOL    HW126030   0.823   4.558   4.076 -1.5863 -1.2233 -0.4799
 4798SOL    HW226031   0.684   4.612   4.080  0.3778 -1.0664 -0.3401
 4799SOL     OW26032   1.106   3.099   7.972  0.2265 -0.1111  0.3568
 4799SOL    HW126033   1.112   3.042   8.049 -1.2897 -1.7171 -0.6857
 4799SOL    HW226034   1.098   3.037   7.899  1.4692 -0.8022  0.8171
 4800SOL     OW26035   0.677   2.635  11.050 -0.0211 -0.1858 -0.4464
 4800SOL    HW126036   0.640   2.595  11.129 -1.1700 -0.6859 -1.2273
 4800SOL    HW226037   0.625   2.585  10.987 -0.2897  0.1073 -0.4594
 4801SOL     OW26038   3.596   4.356   8.282 -0.0321  0.2095 -0.2908
 4801SOL    HW126039   3.546   4.336   8.202 -1.8953  1.0303  0.6669
 4801SOL    HW226040   3.650   4.430   8.255  0.8395  0.3644  1.9130
 4802SOL     OW26041   3.410   3.483   1.574 -0.6445  0.2000  0.0606
 4802SOL    HW126042   3.402   3.447   1.485  0.0019 -1.1455  0.5351
 4802SOL    HW226043   3.426   3.404   1.626  2.5965  0.2225 -0.9114
 4803SOL     OW26044   3.109   0.272   5.885  0.7675  0.4283  0.0169
 4803SOL    HW126045   3.090   0.250   5.976 -0.1625  0.9773 -0.0421
 4803SOL    HW226046   3.050   0.208   5.846  0.6432  1.1003 -0.8967
 4804SOL     OW26047   0.863   1.578  13.334 -0.0641 -0.2937 -0.0254
 4804SOL    HW126048   0.843   1.655  13.388  0.5738 -0.4839  0.4884
 4804SOL    HW226049   0.934   1.540  13.386 -0.2155  1.3734  1.4274
 4805SOL     OW26050   2.465   3.134   6.551 -0.6384 -0.0860 -0.1145
 4805SOL    HW126051   2.371   3.152   6.549 -0.3450  1.3656 -0.3468
 4805SOL    HW226052   2.476   3.058   6.494 -1.1413 -0.7521  0.6687
 4806SOL     OW26053   3.397   2.098   1.882  0.1810  0.0812 -0.6628
 4806SOL    HW126054   3.322   2.043   1.903 -0.8486  0.6222 -2.8621
 4806SOL    HW226055   3.379   2.128   1.793 -0.1422  0.7898 -0.3578
 4807SOL     OW26056   2.453   2.425   7.536 -0.3740  0.2923  0.1124
 4807SOL    HW126057   2.502   2.461   7.463  2.3538 -1.1429  1.2307
 4807SOL    HW226058   2.501   2.347   7.562 -0.7358  0.9811  2.9013
 4808SOL     OW26059   2.543   2.974   5.203 -0.5428  0.3334  0.2563
 4808SOL    HW126060   2.468   2.917   5.218 -0.3017 -0.1151 -0.2377
 4808SOL    HW226061   2.590   2.913   5.146 -0.6933 -0.7565  1.3040
 4809SOL     OW26062   0.383   4.394  15.382 -0.2824 -0.6250 -0.3799
 4809SOL    HW126063   0.311   4.397  15.446  1.9434  0.9592  2.0560
 4809SOL    HW226064   0.357   4.465  15.323  1.5574  1.3277  1.1787
 4810SOL     OW26065   4.527   0.334   5.268 -0.4481  0.8353  0.2440
 4810SOL    HW126066   4.601   0.286   5.306  1.1751  0.9575 -2.7122
 4810SOL    HW226067   4.464   0.264   5.283  0.8489 -0.3407  0.2152
 4811SOL     OW26068   0.376   0.186  13.154  0.0251 -0.0439  0.3463
 4811SOL    HW126069   0.379   0.090  13.147  0.4894  0.1819 -2.7471
 4811SOL    HW226070   0.419   0.212  13.235 -0.6259 -1.2846  1.1036
 4812SOL     OW26071   0.888   0.117   4.217 -0.1335  0.4430 -0.0023
 4812SOL    HW126072   0.929   0.172   4.151 -0.2211 -0.5757 -0.8967
 4812SOL    HW226073   0.867   0.045   4.159 -0.6570 -1.3430  2.3957
 4813SOL     OW26074   4.547   1.584  14.264 -0.2900  0.3914  0.2270
 4813SOL    HW126075   4.482   1.605  14.331  1.7846 -1.6033  2.8467
 4813SOL    HW226076   4.528   1.491  14.263  2.4959 -0.1872 -0.7767
 4814SOL     OW26077   0.825   3.647  11.992  0.5930  0.4395 -0.2775
 4814SOL    HW126078   0.900   3.692  12.031  1.5643 -3.3434  2.2201
 4814SOL    HW226079   0.864   3.619  11.910  2.7598 -0.1933  0.9728
 4815SOL     OW26080   4.099   3.430   4.200  0.2356 -0.5389  0.5374
 4815SOL    HW126081   4.094   3.471   4.113 -0.3271 -1.2049  0.2579
 4815SOL    HW226082   4.006   3.412   4.214  0.1463  1.3214  2.4285
 4816SOL     OW26083   2.614   2.560   7.325 -0.5515 -0.0581  0.4290
 4816SOL    HW126084   2.710   2.554   7.324 -0.5498 -0.3884  1.6085
 4816SOL    HW226085   2.600   2.654   7.338 -3.1462 -0.3627 -0.2892
 4817SOL     OW26086   3.485   3.135   5.773  0.5064  0.1897  0.8181
 4817SOL    HW126087   3.572   3.121   5.810  0.5807  0.4140  0.7306
 4817SOL    HW226088   3.494   3.069   5.705 -1.1568 -1.1575  1.9091
 4818SOL     OW26089   1.576   2.681   0.933  0.7895 -0.3343  0.2242
 4818SOL    HW126090   1.501   2.645   0.982 -1.1804 -0.2993 -2.7567
 4818SOL    HW226091   1.585   2.765   0.977  0.8215 -1.3129  2.0922
 4819SOL     OW26092   2.312   4.569   9.544 -0.1533  0.4252 -0.2143
 4819SOL    HW126093   2.367   4.498   9.513  2.1365  0.5300  3.5922
 4819SOL    HW226094   2.295   4.538   9.633  0.2407  2.3560  0.5447
 4820SOL     OW26095   2.334   1.253   2.220 -0.0917  0.0943 -0.2044
 4820SOL    HW126096   2.401   1.321   2.230  1.2039 -1.3602  0.9665
 4820SOL    HW226097   2.361   1.202   2.144 -0.6871 -1.0859  0.3838
 4821SOL     OW26098   2.118   1.258  15.698  0.0995 -0.0217 -0.1282
 4821SOL    HW126099   2.061   1.185  15.724  0.9889 -0.6216  0.1413
 4821SOL    HW226100   2.065   1.295  15.627 -0.0065  1.6277  0.8184
 4822SOL     OW26101   4.039   3.518  11.066  0.5367 -0.1546 -0.3919
 4822SOL    HW126102   4.081   3.590  11.114 -1.0778  0.6072 -0.1010
 4822SOL    HW226103   4.010   3.456  11.133 -1.2289  1.5920  0.4903
 4823SOL     OW26104   3.058   0.203   9.889  0.3773 -0.1696  0.3067
 4823SOL    HW126105   2.966   0.217   9.866 -0.0300  0.5081  2.3405
 4823SOL    HW226106   3.046   0.184   9.982 -1.2677  0.2879  0.1838
 4824SOL     OW26107   3.499   1.200   4.761  0.1137  0.9430 -0.1029
 4824SOL    HW126108   3.421   1.193   4.706  1.5798  1.7224 -2.2617
 4824SOL    HW226109   3.558   1.139   4.717  0.7848  1.3977  0.1605
 4825SOL     OW26110   1.387   2.434   7.658  0.1542 -0.1398 -0.7422
 4825SOL    HW126111   1.462   2.461   7.606 -0.1088  1.9659 -0.0327
 4825SOL    HW226112   1.419   2.399   7.741  0.9615  0.9431 -0.6063
 4826SOL     OW26113   2.024   3.873   6.633 -0.3665 -0.4173  0.4888
 4826SOL    HW126114   2.053   3.828   6.553 -1.0045  0.3713 -0.1812
 4826SOL    HW226115   1.955   3.813   6.661 -0.2932 -1.2473 -1.0823
 4827SOL     OW26116   1.535   4.700   7.776  0.2409  0.5320 -0.7132
 4827SOL    HW126117   1.500   4.697   7.687 -1.5882  1.3215 -0.0120
 4827SOL    HW226118   1.594   4.625   7.772  1.4623  1.4495  0.2014
 4828SOL     OW26119   1.309   1.991   5.811  0.8306 -0.0220 -0.7055
 4828SOL    HW126120   1.328   1.945   5.893 -0.8070  2.5272  1.1089
 4828SOL    HW226121   1.401   2.008   5.789  0.7833  1.3160  0.1169
 4829SOL     OW26122   0.468   1.874   4.041  0.2827 -0.0165  0.3875
 4829SOL    HW126123   0.451   1.892   4.133  0.1772  3.7422 -0.3604
 4829SOL    HW226124   0.450   1.952   3.988 -1.1678 -0.1965  0.6227
 4830SOL     OW26125   3.425   1.660   4.886 -0.0362  0.1617  0.0035
 4830SOL    HW126126   3.404   1.695   4.799  0.6874 -1.8124 -0.9809
 4830SOL    HW226127   3.378   1.577   4.899 -1.1423  0.8553  0.4523
 4831SOL     OW26128   0.698   2.590   2.128 -0.2711 -0.1079 -0.0369
 4831SOL    HW126129   0.726   2.513   2.079  0.4481 -0.3603  0.7898
 4831SOL    HW226130   0.607   2.572   2.150 -0.6978  0.1386 -1.5764
 4832SOL     OW26131   1.278   3.275   4.095  0.5427  0.0330  0.0856
 4832SOL    HW126132   1.237   3.359   4.117 -1.5170 -0.8052 -0.6118
 4832SOL    HW226133   1.240   3.221   4.164  0.8510  0.7920  0.8569
 4833SOL     OW26134   0.741   3.864   7.026  0.3521 -0.3069 -0.2414
 4833SOL    HW126135   0.753   3.771   7.010  0.8645 -0.4333  0.8850
 4833SOL    HW226136   0.647   3.880   7.025  0.6697  1.5861 -1.0431
 4834SOL     OW26137   1.491   2.692   7.887 -0.1807  0.1265  0.2251
 4834SOL    HW126138   1.581   2.722   7.878 -0.4698  0.7089 -0.6688
 4834SOL    HW226139   1.442   2.739   7.819  0.0231  0.6507  0.4351
 4835SOL     OW26140   2.888   2.186   6.273  0.1843  0.2527 -0.3271
 4835SOL    HW126141   2.935   2.269   6.277 -0.8810  0.8036  0.5841
 4835SOL    HW226142   2.864   2.178   6.365  0.3775  1.0541 -0.2103
 4836SOL     OW26143   1.826   2.104   2.351  0.3006  0.1496  0.0142
 4836SOL    HW126144   1.855   2.015   2.329 -1.3288 -0.4248  0.1541
 4836SOL    HW226145   1.899   2.137   2.403 -0.1522 -2.1714  2.1150
 4837SOL     OW26146   0.883   0.434   2.670  0.1602 -0.1034  0.5389
 4837SOL    HW126147   0.880   0.346   2.707 -0.7513 -0.3488 -0.0982
 4837SOL    HW226148   0.816   0.470   2.728 -0.4785  0.8490 -0.7938
 4838SOL     OW26149   3.283   1.023   6.376 -0.4828 -0.5027  0.2341
 4838SOL    HW126150   3.230   1.016   6.297 -2.1267 -1.7430  1.4368
 4838SOL    HW226151   3.244   1.096   6.424  1.8893 -0.1878  1.6785
 4839SOL     OW26152   4.104   0.340   4.605 -0.1117  0.2693  0.5060
 4839SOL    HW126153   4.193   0.311   4.624  0.3221  1.3669  0.1172
 4839SOL    HW226154   4.121   0.415   4.548 -2.2425  0.3392 -0.0688
 4840SOL     OW26155   2.764   2.718   5.418 -0.3584  0.1514 -0.2256
 4840SOL    HW126156   2.679   2.679   5.398  0.7002 -1.7300 -1.0783
 4840SOL    HW226157   2.736   2.798   5.462  1.9488  0.9209 -0.1590
 4841SOL     OW26158   4.326   0.265   0.923 -0.7714 -0.1594 -0.3435
 4841SOL    HW126159   4.377   0.345   0.915 -0.3643 -0.7040 -3.1889
 4841SOL    HW226160   4.383   0.215   0.981 -0.1158  1.6154  0.5538
 4842SOL     OW26161   3.580   3.835  10.279 -0.1731  0.3540  0.0514
 4842SOL    HW126162   3.612   3.795  10.198  2.3907  1.1233  0.6950
 4842SOL    HW226163   3.486   3.821  10.266 -0.1220 -0.3088  0.4147
 4843SOL     OW26164   3.926   4.478  11.783  0.4210  0.0435  0.0251
 4843SOL    HW126165   3.939   4.511  11.871 -0.5388 -2.1841  0.9923
 4843SOL    HW226166   3.922   4.384  11.799  0.3552 -0.1621 -1.1761
 4844SOL     OW26167   0.565   1.603  12.775 -0.3715 -0.3908  0.1197
 4844SOL    HW126168   0.619   1.655  12.835  0.8019 -2.8128  1.1603
 4844SOL    HW226169   0.625   1.539  12.736  0.5117 -0.4329  1.5449
 4845SOL     OW26170   3.573   4.649   3.499  0.1004  0.2294 -0.2829
 4845SOL    HW126171   3.656   4.666   3.454  0.4353 -3.2273 -0.9665
 4845SOL    HW226172   3.535   4.572   3.457  0.5059 -0.7111  1.0494
 4846SOL     OW26173   0.384   1.982  12.427 -0.3204 -0.4293 -0.2599
 4846SOL    HW126174   0.356   1.900  12.469  0.8753  0.4038  2.1521
 4846SOL    HW226175   0.428   1.947  12.349  0.3662 -0.4966  0.1608
 4847SOL     OW26176   4.679   3.455   5.624  0.2027 -0.4572 -0.2984
 4847SOL    HW126177   4.705   3.432   5.713 -1.4174  0.9654  0.5421
 4847SOL    HW226178   4.620   3.529   5.634  0.5850 -0.1013 -0.6871
 4848SOL     OW26179   2.915   2.838   5.918 -0.1104 -0.5303 -0.3700
 4848SOL    HW126180   2.915   2.790   5.835  0.2808  0.5988 -1.0133
 4848SOL    HW226181   2.845   2.795   5.967 -0.1747  0.9215  0.8106
 4849SOL     OW26182   3.755   0.818   5.397  0.0126  0.1224 -0.3410
 4849SOL    HW126183   3.684   0.756   5.383  0.6533 -0.9301  1.1412
 4849SOL    HW226184   3.711   0.871   5.464  2.1279  0.2410  0.9637
 4850SOL     OW26185   3.129   0.013   3.243  1.0414 -0.3851 -0.5788
 4850SOL    HW126186   3.205   0.032   3.298  0.0223 -0.3634  0.8111
 4850SOL    HW226187   3.163   4.675   3.194  0.6670 -0.4299 -0.7753
 4851SOL     OW26188   4.251   4.077  16.323  0.0866 -0.2059 -0.0132
 4851SOL    HW126189   4.256   4.170  16.347 -0.6854 -0.3514  0.6995
 4851SOL    HW226190   4.156   4.066  16.318  0.1587 -0.2109 -1.3452
 4852SOL     OW26191   3.434   3.309   7.577  0.1669 -0.8942 -0.1257
 4852SOL    HW126192   3.474   3.328   7.662 -1.5991  0.5957  0.3787
 4852SOL    HW226193   3.377   3.236   7.599 -0.2055 -0.3894  0.6186
 4853SOL     OW26194   1.956   0.850   3.842  0.1102  0.1335  0.4281
 4853SOL    HW126195   1.930   0.807   3.923 -0.7280  0.4615  0.3326
 4853SOL    HW226196   1.905   0.805   3.774 -0.8076 -0.0590  1.2506
 4854SOL     OW26197   2.105   4.011   2.078 -0.1344  0.1329 -0.1238
 4854SOL    HW126198   2.084   4.098   2.044 -1.0446  0.1136  0.3765
 4854SOL    HW226199   2.198   4.031   2.089 -0.5802  1.5903  0.9304
 4855SOL     OW26200   3.027   1.850   2.813  0.8184 -0.3362  0.2729
 4855SOL    HW126201   2.941   1.874   2.847  0.8098  0.6499 -0.4423
 4855SOL    HW226202   3.088   1.914   2.850  0.3326  0.9129 -1.0837
 4856SOL     OW26203   1.931   1.679   1.539 -0.0962 -0.0862  0.0071
 4856SOL    HW126204   1.937   1.774   1.533  0.2899 -0.3302 -3.4282
 4856SOL    HW226205   1.969   1.647   1.621  2.0456 -1.2532 -1.4182
 4857SOL     OW26206   1.682   3.484   5.424  0.1871 -0.0398  0.2097
 4857SOL    HW126207   1.724   3.408   5.465  0.5221  0.4474  0.7724
 4857SOL    HW226208   1.661   3.529   5.506 -0.1493 -0.1655  0.1930
 4858SOL     OW26209   3.553   2.692  14.434  0.4555 -0.1547 -0.3281
 4858SOL    HW126210   3.501   2.654  14.363 -0.4697  0.6973 -0.1113
 4858SOL    HW226211   3.598   2.617  14.474  1.1226  0.3662 -0.1100
 4859SOL     OW26212   1.323   4.716   3.655  0.1496  0.5987 -0.3158
 4859SOL    HW126213   1.323   0.066   3.617 -0.0647  0.6355 -0.2274
 4859SOL    HW226214   1.229   4.701   3.659  0.3061 -0.6059 -1.1341
 4860SOL     OW26215   3.610   4.201   6.359 -0.3407  0.4413 -0.1801
 4860SOL    HW126216   3.562   4.119   6.360 -0.5583  0.5697 -0.1753
 4860SOL    HW226217   3.639   4.217   6.449 -0.7966  0.9332 -0.1182
 4861SOL     OW26218   0.835   1.779   5.656 -0.2720 -0.4320  0.1154
 4861SOL    HW126219   0.888   1.818   5.726  0.7517 -0.8947 -0.4236
 4861SOL    HW226220   0.875   1.826   5.583  1.3598 -2.5597 -0.3400
 4862SOL     OW26221   2.698   2.260   0.451 -0.3343 -0.2025  0.4660
 4862SOL    HW126222   2.651   2.177   0.459  1.0153 -1.1134 -1.0935
 4862SOL    HW226223   2.623   2.320   0.453 -0.3850 -0.2419 -0.2087
 4863SOL     OW26224   1.980   3.614  13.008  0.0044  0.2518 -0.0086
 4863SOL    HW126225   1.889   3.637  12.988  0.8912  2.2017 -1.7832
 4863SOL    HW226226   2.017   3.694  13.043 -2.4103  0.4039  2.1512
 4864SOL     OW26227   3.940   3.012   4.548  0.0559 -0.4373 -0.1628
 4864SOL    HW126228   3.886   3.030   4.625  1.5655 -1.0143  1.0539
 4864SOL    HW226229   3.939   2.917   4.539 -1.2625 -0.4813  0.4185
 4865SOL     OW26230   4.228   2.713   5.733 -0.3983 -0.4146  0.1035
 4865SOL    HW126231   4.226   2.687   5.825 -0.3109 -2.5833 -0.4955
 4865SOL    HW226232   4.293   2.660   5.686  0.8649  1.0940  0.1671
 4866SOL     OW26233   2.668   1.131   5.479  0.3638 -0.7931 -0.1332
 4866SOL    HW126234   2.740   1.141   5.416  1.7325  1.7102  1.7939
 4866SOL    HW226235   2.598   1.161   5.422  0.7435 -0.2965 -0.3444
 4867SOL     OW26236   2.705   2.024   4.720  0.4764 -0.1694 -0.0452
 4867SOL    HW126237   2.700   2.074   4.802 -2.2906  0.6166 -0.7046
 4867SOL    HW226238   2.672   1.939   4.747  0.0766 -0.2457 -0.7705
 4868SOL     OW26239   2.356   2.915  10.513  0.1228  0.0715 -0.5131
 4868SOL    HW126240   2.301   2.836  10.507  1.9870 -1.2191 -0.7049
 4868SOL    HW226241   2.426   2.899  10.449  0.7342 -0.7579  0.3596
 4869SOL     OW26242   1.338   2.301   2.506  0.6286  0.1498 -0.8939
 4869SOL    HW126243   1.333   2.272   2.597 -0.6802  0.5221 -0.8531
 4869SOL    HW226244   1.272   2.370   2.507  0.5163  0.0247  0.9261
 4870SOL     OW26245   2.707   3.687  11.951 -0.0381  0.3105  0.1517
 4870SOL    HW126246   2.632   3.705  11.895 -0.3111 -2.4435 -0.3841
 4870SOL    HW226247   2.673   3.652  12.034  0.9018  0.7207  0.7116
 4871SOL     OW26248   4.058   0.729   6.626  0.1871 -0.1713 -0.4190
 4871SOL    HW126249   4.076   0.645   6.583  0.7884 -1.3939  2.2357
 4871SOL    HW226250   4.091   0.714   6.715  0.5392 -0.3699 -0.5804
 4872SOL     OW26251   2.303   1.001   2.723 -0.4317 -0.3621  0.0847
 4872SOL    HW126252   2.308   0.916   2.765 -2.8875 -1.6694 -2.2567
 4872SOL    HW226253   2.291   1.050   2.804  0.1859  1.2540 -0.7856
 4873SOL     OW26254   4.007   4.230  11.831 -0.4447 -0.2278 -0.5078
 4873SOL    HW126255   4.049   4.162  11.778 -0.0094  0.4017 -0.9663
 4873SOL    HW226256   3.949   4.167  11.873  0.2549 -0.0477  0.7645
 4874SOL     OW26257   1.714   1.406   5.580  0.1516  0.5215 -0.4581
 4874SOL    HW126258   1.750   1.377   5.663 -0.0211  1.3871 -0.0810
 4874SOL    HW226259   1.668   1.325   5.557  1.5134 -0.1734 -0.7046
 4875SOL     OW26260   3.599   0.710   4.879 -0.2138  0.2077  0.2154
 4875SOL    HW126261   3.664   0.767   4.837  0.2817 -0.1725  0.4596
 4875SOL    HW226262   3.642   0.630   4.849 -0.3949 -0.3320  1.3840
 4876SOL     OW26263   0.930   4.451   8.656 -0.3681  0.2401 -0.0271
 4876SOL    HW126264   1.010   4.427   8.703 -0.6310 -0.1669  0.2154
 4876SOL    HW226265   0.964   4.470   8.569  0.6454 -1.2577  0.0522
 4877SOL     OW26266   2.564   3.250   0.914 -0.6517  0.2951 -0.1596
 4877SOL    HW126267   2.599   3.315   0.974 -2.0954  0.7386  0.1893
 4877SOL    HW226268   2.608   3.169   0.941  1.1913  1.9767  1.9163
 4878SOL     OW26269   1.560   3.951   1.399  0.1661 -0.1509 -0.2328
 4878SOL    HW126270   1.482   3.904   1.431 -0.1594  0.2595 -0.4126
 4878SOL    HW226271   1.527   3.989   1.318  1.7086 -1.8642 -1.6565
 4879SOL     OW26272   1.479   2.656   2.793 -0.4442  0.2524  0.0320
 4879SOL    HW126273   1.566   2.631   2.764 -0.0644  1.7879 -0.1562
 4879SOL    HW226274   1.447   2.580   2.842 -0.2932  0.5518  0.5973
 4880SOL     OW26275   3.860   2.525  15.018  0.7113  0.1706  0.2378
 4880SOL    HW126276   3.933   2.576  14.983 -0.3998 -0.3086 -2.8056
 4880SOL    HW226277   3.904   2.457  15.068 -0.4458 -1.6758 -1.2428
 4881SOL     OW26278   4.438   4.217   0.549  0.5703  0.2035 -0.6145
 4881SOL    HW126279   4.526   4.238   0.582  1.8860 -3.2949 -1.9008
 4881SOL    HW226280   4.417   4.303   0.512 -2.1745  1.1651  3.2081
 4882SOL     OW26281   4.522   4.480  16.362 -0.1127  0.5294  0.0827
 4882SOL    HW126282   4.472   4.401  16.343  2.5528 -1.6486  2.0912
 4882SOL    HW226283   4.604   4.462  16.315 -0.8883  0.1083 -1.0925
 4883SOL     OW26284   2.321   1.505   3.754  0.1357 -0.5120  0.4622
 4883SOL    HW126285   2.385   1.484   3.686  0.8740  0.6853  0.7854
 4883SOL    HW226286   2.265   1.429   3.739 -0.0165  0.0969 -1.9302
 4884SOL     OW26287   2.062   4.032  11.360  0.0383  0.5375  1.1738
 4884SOL    HW126288   2.033   4.004  11.273 -2.6163 -2.4178  3.0417
 4884SOL    HW226289   2.153   4.001  11.367 -0.1253  0.1491  1.5749
 4885SOL     OW26290   1.579   4.193   3.663  0.3295 -0.0916  0.1463
 4885SOL    HW126291   1.625   4.277   3.656 -0.2865  0.3016  0.7275
 4885SOL    HW226292   1.560   4.173   3.754 -1.6320  1.7893  0.1608
 4886SOL     OW26293   1.791   0.921   8.396 -0.2450  0.4557 -0.1987
 4886SOL    HW126294   1.859   0.960   8.341  0.4384 -0.3817  0.0381
 4886SOL    HW226295   1.822   0.831   8.410  2.6455  1.8087  2.0438
 4887SOL     OW26296   1.561   2.991  15.393  0.0042  0.1663 -0.7243
 4887SOL    HW126297   1.618   3.023  15.463  0.5576 -0.1327 -1.0388
 4887SOL    HW226298   1.546   2.903  15.429  0.0990  0.1696 -0.6776
 4888SOL     OW26299   3.237   3.618   2.044 -0.2627  0.2809 -0.2896
 4888SOL    HW126300   3.297   3.687   2.073  1.9458 -1.2334 -1.2161
 4888SOL    HW226301   3.221   3.662   1.960 -0.1944 -2.2412 -1.6308
 4889SOL     OW26302   3.316   1.378   2.313  0.1755 -0.5703  0.2846
 4889SOL    HW126303   3.339   1.381   2.406 -0.6950  1.6696  0.4264
 4889SOL    HW226304   3.230   1.420   2.312  0.6750  0.3653 -1.9765
 4890SOL     OW26305   3.889   2.730   5.387 -0.1796  0.0660 -0.1605
 4890SOL    HW126306   3.865   2.771   5.305  0.4605  1.1116  0.1731
 4890SOL    HW226307   3.945   2.792   5.434 -1.4703 -0.5821  2.2842
 4891SOL     OW26308   2.995   0.838   5.265 -0.2776  0.1496  0.5723
 4891SOL    HW126309   3.053   0.794   5.203 -0.0151 -0.9522  1.6023
 4891SOL    HW226310   3.055   0.904   5.299 -0.4638 -0.1438  1.4715
 4892SOL     OW26311   1.507   0.039   3.836  0.3222 -0.3381  0.4396
 4892SOL    HW126312   1.590   4.728   3.828  1.0176  1.0604 -0.7584
 4892SOL    HW226313   1.448   4.722   3.784  0.4060 -0.1326  0.1272
 4893SOL     OW26314   3.005   3.526   8.771  0.2434  0.1358 -0.4149
 4893SOL    HW126315   3.014   3.550   8.864 -0.2680 -0.0218 -0.3248
 4893SOL    HW226316   3.053   3.443   8.775 -2.0704 -1.1282  1.5381
 4894SOL     OW26317   1.387   3.117  14.430 -0.1043  0.5744 -0.0541
 4894SOL    HW126318   1.371   3.118  14.335 -0.5645  1.5852  0.0365
 4894SOL    HW226319   1.320   3.179  14.459  0.3086  0.0066  2.1067
 4895SOL     OW26320   2.978   0.372   4.548  0.2897  0.2902 -0.7359
 4895SOL    HW126321   3.010   0.353   4.637 -0.3762  0.4183 -0.4720
 4895SOL    HW226322   2.887   0.396   4.563  0.5396 -0.0674  1.3609
 4896SOL     OW26323   1.854   2.700   9.080  0.0566  0.2036 -0.3388
 4896SOL    HW126324   1.763   2.722   9.064 -0.1718  0.7044  1.6907
 4896SOL    HW226325   1.888   2.789   9.073 -1.4463  0.9086  1.3249
 4897SOL     OW26326   1.867   1.578   4.158 -0.5902 -0.4873  0.6319
 4897SOL    HW126327   1.927   1.520   4.205 -0.6502 -2.3798 -1.6401
 4897SOL    HW226328   1.805   1.591   4.229 -0.7810 -1.7301  0.6841
 4898SOL     OW26329   1.174   4.437   6.258 -0.3664 -0.2443  0.3631
 4898SOL    HW126330   1.089   4.480   6.269 -0.6404 -0.9312  0.9544
 4898SOL    HW226331   1.177   4.391   6.342  1.6052  0.5624  0.7287
 4899SOL     OW26332   4.035   0.081   8.117 -0.0712  0.1402  0.4270
 4899SOL    HW126333   4.082   0.152   8.074 -1.5770  1.5629  1.1127
 4899SOL    HW226334   4.012   0.023   8.045  0.4391 -0.8232  1.0373
 4900SOL     OW26335   1.872   1.560   7.801 -0.5842 -0.0479 -0.5334
 4900SOL    HW126336   1.837   1.523   7.882  0.6252 -2.4178 -1.0672
 4900SOL    HW226337   1.957   1.592   7.831  0.7959 -3.6618 -0.4959
 4901SOL     OW26338   1.629   2.852  10.426  0.1835  0.3538  0.0497
 4901SOL    HW126339   1.675   2.802  10.359  1.7093  1.0857  0.5457
 4901SOL    HW226340   1.657   2.800  10.500 -0.3501 -2.5499 -1.7970
 4902SOL     OW26341   0.322   1.912   3.034 -0.2648 -0.5632  0.4741
 4902SOL    HW126342   0.370   1.923   2.952 -1.0893  2.4906  0.3976
 4902SOL    HW226343   0.276   1.829   3.027  2.5811 -1.8519 -2.6004
 4903SOL     OW26344   3.771   0.463   7.225  0.4807  0.1486  0.4454
 4903SOL    HW126345   3.692   0.464   7.172  0.6769  1.2057  0.1818
 4903SOL    HW226346   3.732   0.517   7.293 -1.4770  0.7682 -1.1639
 4904SOL     OW26347   0.940   2.383  11.274  0.3351  0.2408  0.0780
 4904SOL    HW126348   0.955   2.442  11.200  0.4373 -1.0000 -0.9141
 4904SOL    HW226349   0.934   2.442  11.348 -1.4163 -1.1784  1.0713
 4905SOL     OW26350   1.045   4.238  11.613  0.2105 -0.2737  0.2590
 4905SOL    HW126351   0.996   4.200  11.686 -1.4785  0.2039 -0.6141
 4905SOL    HW226352   1.114   4.285  11.658  0.6237 -1.4267  0.8134
 4906SOL     OW26353   2.319   4.194   4.985  0.5778  0.2281 -0.1461
 4906SOL    HW126354   2.287   4.265   5.041  0.2223  1.3157 -1.7350
 4906SOL    HW226355   2.303   4.115   5.036 -2.9112  0.6480 -0.6208
 4907SOL     OW26356   1.780   3.209  13.614 -0.1041  0.3427  0.1095
 4907SOL    HW126357   1.756   3.199  13.522  2.1203 -0.5527 -0.3719
 4907SOL    HW226358   1.805   3.301  13.617  1.0488 -0.0077  1.0912
 4908SOL     OW26359   1.201   3.330   6.118  0.4568 -0.3984 -0.5884
 4908SOL    HW126360   1.158   3.414   6.131  0.9797 -0.2154 -0.0831
 4908SOL    HW226361   1.186   3.317   6.024  1.7578  0.6927 -0.9419
 4909SOL     OW26362   2.823   3.927   2.910 -0.1640 -0.1816 -0.4138
 4909SOL    HW126363   2.890   3.995   2.901 -0.3349  0.4702  3.2479
 4909SOL    HW226364   2.804   3.909   2.818 -1.1892  0.4676 -0.3252
 4910SOL     OW26365   1.276   2.311   3.492 -0.0867  0.3702  0.4945
 4910SOL    HW126366   1.296   2.377   3.557 -1.7304  1.4321 -0.0748
 4910SOL    HW226367   1.345   2.328   3.428 -1.0088 -1.7491 -1.0906
 4911SOL     OW26368   1.241   3.998   8.915  0.6542  0.0698 -0.3021
 4911SOL    HW126369   1.209   4.005   9.005 -0.7391  0.9216 -0.8589
 4911SOL    HW226370   1.172   4.045   8.868 -0.5071 -0.4250  0.9131
 4912SOL     OW26371   0.362   3.681   8.222 -0.4913 -0.2300  0.0154
 4912SOL    HW126372   0.277   3.639   8.227 -1.5426  1.8378 -0.7591
 4912SOL    HW226373   0.358   3.722   8.136 -0.9056 -0.2833  0.0137
 4913SOL     OW26374   2.889   2.273   2.507  0.4187  0.7312 -0.2588
 4913SOL    HW126375   2.833   2.325   2.450  0.8841 -0.6260 -1.9568
 4913SOL    HW226376   2.909   2.202   2.446  2.2247 -0.7388  2.0156
 4914SOL     OW26377   3.228   0.083   1.939 -0.5193 -0.2661  0.1151
 4914SOL    HW126378   3.317   0.058   1.962 -0.9287  0.3489  2.3503
 4914SOL    HW226379   3.240   0.178   1.932  3.4418 -0.8299 -0.7458
 4915SOL     OW26380   2.038   4.226   1.875 -0.0396 -0.2345 -0.4693
 4915SOL    HW126381   1.988   4.286   1.928 -0.4894 -1.5608  0.6026
 4915SOL    HW226382   1.978   4.215   1.802 -0.3032 -3.6812  0.2536
 4916SOL     OW26383   3.995   3.274   6.470  0.0155 -0.0706  0.0667
 4916SOL    HW126384   3.970   3.342   6.532 -0.2363 -0.4145  0.3405
 4916SOL    HW226385   4.083   3.259   6.503  0.6653 -0.6408 -1.8947
 4917SOL     OW26386   4.100   1.370   2.586 -0.3898 -0.2418  0.6073
 4917SOL    HW126387   4.123   1.298   2.527 -1.1876 -0.3487  0.4270
 4917SOL    HW226388   4.182   1.387   2.632  0.3088 -0.4096 -0.5902
 4918SOL     OW26389   1.722   0.931  12.290  0.0942 -0.0478  0.2900
 4918SOL    HW126390   1.764   0.906  12.373  2.5651  1.3991 -0.5112
 4918SOL    HW226391   1.776   0.881  12.229 -1.9008 -0.9271 -0.7189
 4919SOL     OW26392   2.919   2.754   8.165  0.2164 -0.4481 -0.3647
 4919SOL    HW126393   2.951   2.715   8.084  1.7367  1.4003 -0.6531
 4919SOL    HW226394   2.862   2.823   8.131 -0.4222 -0.7994 -0.0064
 4920SOL     OW26395   4.463   4.674  17.112  0.5847  0.0585  0.5310
 4920SOL    HW126396   4.528   4.667  17.042  0.2137 -0.2525  0.2200
 4920SOL    HW226397   4.478   0.026  17.144 -2.0666  1.1361 -1.1797
 4921SOL     OW26398   1.181   0.163  12.054  0.0863  0.0016 -0.0786
 4921SOL    HW126399   1.207   0.103  12.124 -1.9166 -0.2454  0.4496
 4921SOL    HW226400   1.153   0.099  11.988 -0.4514  1.1490 -0.9629
 4922SOL     OW26401   3.217   2.347  11.649 -0.2527 -0.4199 -0.3407
 4922SOL    HW126402   3.156   2.341  11.722 -0.6183 -2.8382 -0.8343
 4922SOL    HW226403   3.190   2.277  11.590 -1.8405 -0.2652  0.1934
 4923SOL     OW26404   1.006   1.151   1.966  0.7039  0.2995 -0.3211
 4923SOL    HW126405   0.940   1.145   2.035  1.4486  0.3955  0.3925
 4923SOL    HW226406   1.079   1.193   2.011  0.9485 -0.8015  0.2965
 4924SOL     OW26407   4.520   0.262   7.088 -0.4659  0.0895  0.0811
 4924SOL    HW126408   4.461   0.325   7.129  1.1561  2.2931 -0.9676
 4924SOL    HW226409   4.598   0.312   7.064 -1.2040  0.9563 -0.5161
 4925SOL     OW26410   0.859   4.389   6.952 -0.1208 -0.6856 -0.0407
 4925SOL    HW126411   0.829   4.338   6.877  0.9605  2.0422 -2.3168
 4925SOL    HW226412   0.815   4.338   7.020  0.7814  0.2454  1.2564
 4926SOL     OW26413   1.927   4.130  16.462 -0.1479  0.1738  0.0118
 4926SOL    HW126414   1.986   4.076  16.409 -0.9064 -1.0988  0.4458
 4926SOL    HW226415   1.999   4.169  16.512  3.4863 -1.4166 -3.9441
 4927SOL     OW26416   1.411   4.619   2.126  0.1337 -0.2351 -0.1267
 4927SOL    HW126417   1.396   4.588   2.037  1.7801  1.1775 -0.8877
 4927SOL    HW226418   1.366   4.548   2.172 -0.8065  1.1673  1.1282
 4928SOL     OW26419   1.536   3.265   1.378  0.3817  0.5725  0.1982
 4928SOL    HW126420   1.524   3.309   1.294  1.5434  0.8947  0.2121
 4928SOL    HW226421   1.631   3.258   1.371  0.1347 -2.0068 -0.9171
 4929SOL     OW26422   4.158   3.887  10.980  0.0412 -0.3219  0.1693
 4929SOL    HW126423   4.157   3.848  10.893 -0.9253 -3.5263  1.6200
 4929SOL    HW226424   4.246   3.922  10.993  0.0039  0.9155 -2.9769
 4930SOL     OW26425   4.247   2.288  13.963 -0.2034  0.1629 -0.1060
 4930SOL    HW126426   4.341   2.304  13.975 -0.8235  0.9694  3.7833
 4930SOL    HW226427   4.230   2.313  13.873  1.7209  2.8598  0.2794
 4931SOL     OW26428   0.843   1.705   6.328 -0.6513  0.3487 -0.3154
 4931SOL    HW126429   0.781   1.735   6.394  1.0011  0.7361  1.0834
 4931SOL    HW226430   0.813   1.752   6.250  1.0078 -1.4061 -2.0245
 4932SOL     OW26431   4.666   4.600  10.690  0.1464  0.1868  0.7221
 4932SOL    HW126432   4.577   4.630  10.671  0.3987 -0.5870 -1.6940
 4932SOL    HW226433   4.715   4.682  10.697  0.6088 -0.0981  0.8413
 4933SOL     OW26434   3.797   2.560   9.567 -0.0068  0.5616  0.4283
 4933SOL    HW126435   3.742   2.624   9.613  0.7482 -1.2609  3.8816
 4933SOL    HW226436   3.866   2.553   9.634 -1.4428 -0.4538  1.7795
 4934SOL     OW26437   4.188   0.695   6.319  1.0035  0.1269 -0.0121
 4934SOL    HW126438   4.180   0.697   6.224  0.6677 -0.0924  0.0129
 4934SOL    HW226439   4.156   0.608   6.344  1.4423 -0.0268  0.0137
 4935SOL     OW26440   0.839   2.383   0.198  0.1506  0.2802 -0.2423
 4935SOL    HW126441   0.861   2.470   0.232  0.8579  0.1589 -0.4053
 4935SOL    HW226442   0.793   2.348   0.274  3.2871 -1.3779  0.8506
 4936SOL     OW26443   3.688   1.591   6.568 -0.1001  0.5085 -0.4593
 4936SOL    HW126444   3.752   1.521   6.581  0.4027  0.8756 -0.9558
 4936SOL    HW226445   3.732   1.648   6.505  0.8512  0.4188  0.1168
 4937SOL     OW26446   3.617   4.642   6.399  0.3733 -0.3506 -0.2050
 4937SOL    HW126447   3.707   4.621   6.374  0.7928 -0.8640  1.7126
 4937SOL    HW226448   3.590   4.689   6.321 -2.1154 -0.6701  0.4814
 4938SOL     OW26449   2.577   2.505   2.963 -0.0556 -0.0940 -0.1437
 4938SOL    HW126450   2.517   2.473   3.030  1.2379  0.7398  1.4391
 4938SOL    HW226451   2.605   2.586   3.005 -2.0652  0.2569  0.4929
 4939SOL     OW26452   0.515   4.585   8.253 -0.7319  0.4642  0.6752
 4939SOL    HW126453   0.537   4.588   8.160 -0.7945  0.2964  0.6553
 4939SOL    HW226454   0.598   4.600   8.299 -0.7219 -1.1859  1.2127
 4940SOL     OW26455   4.042   1.412   0.099  0.8544 -0.0258 -0.4681
 4940SOL    HW126456   3.972   1.347   0.099 -0.0071  0.8910  0.8691
 4940SOL    HW226457   4.096   1.384   0.025 -0.1268  1.6762 -1.8398
 4941SOL     OW26458   3.091   0.742   8.841  0.2769  0.1440 -0.4812
 4941SOL    HW126459   3.159   0.703   8.896  0.3652 -0.2032 -0.8412
 4941SOL    HW226460   3.101   0.833   8.870  1.6313 -0.0134 -0.4535
 4942SOL     OW26461   1.875   4.103   4.025 -0.0343 -0.5046  0.0006
 4942SOL    HW126462   1.888   4.159   4.101 -0.4871 -1.1309  0.5333
 4942SOL    HW226463   1.782   4.120   4.014  0.0957 -0.0743 -0.4419
 4943SOL     OW26464   1.363   3.234   4.964 -0.4128  0.1576  0.4196
 4943SOL    HW126465   1.418   3.156   4.964 -0.4191  0.1543 -0.0589
 4943SOL    HW226466   1.275   3.197   4.969 -0.8071  1.1361  0.6521
 4944SOL     OW26467   4.393   3.824  10.753  0.0950  0.3123  0.7701
 4944SOL    HW126468   4.314   3.874  10.728 -1.2172 -2.1504 -0.0138
 4944SOL    HW226469   4.346   3.746  10.782 -1.4364  1.0225  0.2546
 4945SOL     OW26470   0.129   4.570   2.067  0.2836 -0.2295 -0.1440
 4945SOL    HW126471   0.037   4.588   2.049  0.8043  1.2707 -1.3761
 4945SOL    HW226472   0.134   4.476   2.081  0.3384 -0.1480  0.4219
 4946SOL     OW26473   4.638   2.575   3.133 -0.7021 -0.6294  0.4290
 4946SOL    HW126474   4.553   2.556   3.173 -1.9634  2.1948 -0.9386
 4946SOL    HW226475   4.683   2.580   3.217  1.9116  2.6134 -1.1440
 4947SOL     OW26476   3.088   3.503  13.657 -0.2705  0.0292 -0.3069
 4947SOL    HW126477   3.026   3.489  13.729 -0.0119 -2.1289 -0.4938
 4947SOL    HW226478   3.050   3.568  13.598  1.0386 -0.0112 -1.2067
 4948SOL     OW26479   3.535   0.672  15.146 -0.1700  0.5752  0.0669
 4948SOL    HW126480   3.502   0.709  15.065  0.6313  0.4057 -0.3343
 4948SOL    HW226481   3.483   0.591  15.145  0.7438  0.0018 -1.0597
 4949SOL     OW26482   4.578   3.331   5.391  0.0654  0.0024  0.1921
 4949SOL    HW126483   4.635   3.349   5.466 -0.7523  0.7373  0.6275
 4949SOL    HW226484   4.490   3.322   5.426  0.1718 -0.2577  0.3961
 4950SOL     OW26485   1.462   1.228   2.346 -0.5714 -0.5109  0.1473
 4950SOL    HW126486   1.514   1.296   2.389  0.7824 -1.4153 -0.0842
 4950SOL    HW226487   1.399   1.280   2.296  0.1094  0.9020  0.7381
 4951SOL     OW26488   3.715   4.280   3.011 -0.3963 -0.3225  0.1407
 4951SOL    HW126489   3.769   4.312   3.082  0.7614  0.2738 -1.0045
 4951SOL    HW226490   3.782   4.272   2.943 -0.7905  1.7615 -0.5118
 4952SOL     OW26491   1.227   2.590   0.108 -0.1039 -0.1742 -0.0491
 4952SOL    HW126492   1.208   2.502   0.142 -0.1678 -0.5929 -1.1485
 4952SOL    HW226493   1.143   2.610   0.065 -0.1195  0.6257  0.3628
 4953SOL     OW26494   4.321   0.980   1.607 -0.6640  0.0199  0.1497
 4953SOL    HW126495   4.244   1.034   1.592 -0.3875 -0.4690 -2.8929
 4953SOL    HW226496   4.285   0.891   1.607 -1.2005  0.2495 -1.3728
 4954SOL     OW26497   3.059   0.486   6.164 -0.3353  1.1247  0.3602
 4954SOL    HW126498   3.151   0.507   6.177 -0.1699  0.6700 -0.0971
 4954SOL    HW226499   3.076   0.398   6.132  0.5914  2.3734 -2.5710
 4955SOL     OW26500   1.642   0.867  13.226  0.2258  0.5304 -0.5456
 4955SOL    HW126501   1.602   0.947  13.259 -0.4416 -0.3617  0.8001
 4955SOL    HW226502   1.566   0.812  13.244 -0.0770  0.7400 -1.1944
 4956SOL     OW26503   0.256   1.420   6.739  0.1770  0.2163  0.2994
 4956SOL    HW126504   0.230   1.481   6.670  0.8796 -0.5710 -0.6548
 4956SOL    HW226505   0.221   1.340   6.699 -0.6457  0.5473  0.3534
 4957SOL     OW26506   2.819   3.442  11.337 -0.5984 -0.2716 -0.6177
 4957SOL    HW126507   2.821   3.484  11.251 -2.1305  1.4167  0.1764
 4957SOL    HW226508   2.754   3.374  11.325  1.4172 -2.2054 -0.5653
 4958SOL     OW26509   4.656   4.282   0.722 -0.7890  0.3411  0.1324
 4958SOL    HW126510   4.680   4.190   0.733  0.8300  0.6058 -1.1125
 4958SOL    HW226511   4.685   4.321   0.804 -0.4749 -0.4057  0.3814
 4959SOL     OW26512   3.558   4.526   6.916 -0.2197  0.0086 -0.2261
 4959SOL    HW126513   3.605   4.547   6.996  1.4463  1.2198 -1.5362
 4959SOL    HW226514   3.467   4.558   6.922 -0.3333 -0.2150 -0.7391
 4960SOL     OW26515   3.913   2.844   5.137 -0.2212  0.5340 -0.4935
 4960SOL    HW126516   3.998   2.813   5.103  0.0047 -3.3820  3.7065
 4960SOL    HW226517   3.851   2.780   5.102 -0.3144 -0.0517  0.7541
 4961SOL     OW26518   1.448   2.539   6.518 -0.0300  0.5176  0.2842
 4961SOL    HW126519   1.475   2.482   6.447 -0.0753 -1.0582  1.5376
 4961SOL    HW226520   1.401   2.602   6.464 -0.9724 -1.9167 -1.6963
 4962SOL     OW26521   0.155   1.964  16.591 -0.2176 -0.0748  0.1343
 4962SOL    HW126522   0.199   1.950  16.674  1.2519  0.4990 -0.5430
 4962SOL    HW226523   0.077   1.910  16.605  0.2286 -0.6204  0.5226
 4963SOL     OW26524   2.198   0.427   4.351  0.3700 -1.1452 -0.3297
 4963SOL    HW126525   2.219   0.394   4.438 -0.2660 -0.3805  0.1068
 4963SOL    HW226526   2.283   0.402   4.313  0.7637 -0.2729 -0.0325
 4964SOL     OW26527   0.892   1.042   4.395 -0.4099  0.3167  0.9531
 4964SOL    HW126528   0.884   1.099   4.319 -1.0809 -2.4652 -1.0130
 4964SOL    HW226529   0.808   0.998   4.389  0.2698 -0.1688 -4.7172
 4965SOL     OW26530   0.710   1.926   2.782 -0.5360 -0.1713  0.1422
 4965SOL    HW126531   0.749   1.931   2.694 -0.6417 -0.9123  0.0523
 4965SOL    HW226532   0.690   1.832   2.786  1.1441 -0.5620 -0.4838
 4966SOL     OW26533   3.039   1.541   2.845  0.2876  0.4300  0.0446
 4966SOL    HW126534   2.956   1.513   2.884  0.7916 -1.9639 -0.6058
 4966SOL    HW226535   3.083   1.578   2.922  2.2297 -0.1526 -0.7945
 4967SOL     OW26536   4.648   3.702   1.933  0.5491  0.4012 -0.0511
 4967SOL    HW126537   4.585   3.681   2.002  0.5866 -0.3699 -0.2560
 4967SOL    HW226538   4.709   3.630   1.948  0.3273 -0.1330 -1.7178
 4968SOL     OW26539   3.835   1.093  11.984  0.3341  0.0954 -0.8950
 4968SOL    HW126540   3.831   1.021  12.047 -0.7391  2.1959  1.4239
 4968SOL    HW226541   3.913   1.141  12.010 -1.1351  0.7699  2.2343
 4969SOL     OW26542   4.041   2.917   5.602  0.1889 -0.7085 -0.0291
 4969SOL    HW126543   4.032   2.988   5.665 -2.2715 -0.7854 -0.2806
 4969SOL    HW226544   4.067   2.842   5.655  0.2429  0.1679  1.1862
 4970SOL     OW26545   0.175   3.670   9.974  0.3369  0.6915 -0.1132
 4970SOL    HW126546   0.154   3.586  10.015 -0.0942  0.0441 -1.6889
 4970SOL    HW226547   0.258   3.650   9.930 -1.8412 -3.4793 -2.2780
 4971SOL     OW26548   4.430   2.549   8.254  0.6384  0.3371 -0.4085
 4971SOL    HW126549   4.391   2.622   8.204  1.5929  0.5397 -0.8526
 4971SOL    HW226550   4.366   2.479   8.267 -1.0453  1.7294 -1.0827
 4972SOL     OW26551   2.749   0.185   9.869 -0.8979 -0.4013  0.4020
 4972SOL    HW126552   2.745   0.106   9.923 -2.2328 -1.4043 -1.1751
 4972SOL    HW226553   2.776   0.155   9.782 -1.2731 -0.7179  0.3964
 4973SOL     OW26554   1.548   1.192  13.498  0.1933 -0.1957  0.4898
 4973SOL    HW126555   1.636   1.185  13.535  0.1815  3.4460  1.1752
 4973SOL    HW226556   1.522   1.278  13.532  0.5185  0.6079 -1.2967
 4974SOL     OW26557   3.224   2.661  12.379  0.6756  0.1627 -0.2901
 4974SOL    HW126558   3.233   2.746  12.421 -0.2889 -0.0061  0.2730
 4974SOL    HW226559   3.248   2.597  12.447 -0.0553  0.2265  0.0261
 4975SOL     OW26560   4.659   0.795   4.857 -0.0726 -0.2691 -0.2254
 4975SOL    HW126561   4.655   0.865   4.922 -0.4180 -0.2017 -0.3167
 4975SOL    HW226562   4.730   0.825   4.800 -1.5526  3.3116 -0.1744
 4976SOL     OW26563   0.199   0.685  17.675  0.1541 -0.0711  0.1478
 4976SOL    HW126564   0.221   0.638  17.594  0.9828  0.1256  0.2585
 4976SOL    HW226565   0.289   0.699  17.704 -0.0822  1.9166 -0.0913
 4977SOL     OW26566   4.377   3.891   3.025  0.0880 -0.9261  0.6334
 4977SOL    HW126567   4.400   3.871   2.934  1.2838 -2.2914  1.2298
 4977SOL    HW226568   4.381   3.808   3.071  0.1681  0.2020  2.6444
 4978SOL     OW26569   3.916   4.456   4.909 -0.0119  0.9789  0.5628
 4978SOL    HW126570   3.950   4.472   4.997 -1.0587  0.4098  1.0812
 4978SOL    HW226571   3.821   4.462   4.918 -0.0926 -0.3510  0.6629
 4979SOL     OW26572   3.299   2.721  16.306  0.1674 -0.3454 -0.2472
 4979SOL    HW126573   3.312   2.641  16.356  0.9419  0.2150  0.4395
 4979SOL    HW226574   3.324   2.782  16.375  1.5641  1.2006 -2.0937
 4980SOL     OW26575   1.774   0.349  15.567 -0.3076 -0.0074  0.5103
 4980SOL    HW126576   1.845   0.413  15.556 -1.3633  0.5648 -2.7382
 4980SOL    HW226577   1.794   0.305  15.650 -0.5751  2.0122  1.6666
 4981SOL     OW26578   3.313   0.784  16.984 -0.5944  0.1692  0.3211
 4981SOL    HW126579   3.333   0.877  16.977  0.6112 -0.0385  0.8951
 4981SOL    HW226580   3.240   0.766  16.925 -1.3345 -0.8031  1.5451
 4982SOL     OW26581   0.233   1.768   4.082 -0.3335 -0.1079 -0.1386
 4982SOL    HW126582   0.220   1.749   3.989  1.0080  0.8779 -0.5310
 4982SOL    HW226583   0.322   1.802   4.074 -0.4858  0.8687  2.2064
 4983SOL     OW26584   4.656   4.271  13.659  0.2505 -0.2596  0.2098
 4983SOL    HW126585   4.685   4.347  13.708  2.4273 -0.6873 -0.4221
 4983SOL    HW226586   4.732   4.261  13.602  0.4870 -1.3635  0.7286
 4984SOL     OW26587   3.760   4.233   5.176  0.3212  0.2869 -0.1395
 4984SOL    HW126588   3.681   4.182   5.193  0.0834  0.1794 -1.4985
 4984SOL    HW226589   3.722   4.307   5.128 -1.7798  0.9556  2.5284
 4985SOL     OW26590   1.523   2.403   0.193  0.1700  0.1694 -0.1656
 4985SOL    HW126591   1.613   2.375   0.176  0.0492  0.1758 -0.7975
 4985SOL    HW226592   1.524   2.498   0.185 -0.2086 -0.0673 -2.9427
 4986SOL     OW26593   0.807   3.857  17.689 -0.3643  0.1735  0.7029
 4986SOL    HW126594   0.865   3.793  17.648 -0.5269 -0.9482  2.2217
 4986SOL    HW226595   0.788   3.916  17.616 -0.8430 -0.9763 -0.0994
 4987SOL     OW26596   3.728   1.255   6.070  0.0272 -0.5374  0.5260
 4987SOL    HW126597   3.823   1.248   6.057  0.2376  1.4798  0.8864
 4987SOL    HW226598   3.724   1.340   6.114  0.8071 -1.4747  2.4037
 4988SOL     OW26599   1.952   2.414   6.868  0.0276 -0.5358  0.0638
 4988SOL    HW126600   1.910   2.405   6.783  0.9144 -2.8113 -0.1506
 4988SOL    HW226601   1.902   2.491   6.895  2.1991  1.1878 -0.8825
 4989SOL     OW26602   3.982   2.480   4.351 -0.6033  0.5566  0.1245
 4989SOL    HW126603   4.007   2.516   4.437 -3.6072 -0.9698  1.6570
 4989SOL    HW226604   4.046   2.521   4.294 -1.9457  1.8688 -0.4451
 4990SOL     OW26605   0.107   4.667  14.694 -0.1798 -0.6529  0.5664
 4990SOL    HW126606   0.146   4.682  14.608 -3.9079 -0.3427 -1.1072
 4990SOL    HW226607   0.064   0.013  14.712 -0.3118 -0.9222  1.4640
 4991SOL     OW26608   1.278   4.067   0.964 -0.7140 -0.0007  0.1961
 4991SOL    HW126609   1.202   4.026   0.923 -2.5215  0.5478  3.0237
 4991SOL    HW226610   1.258   4.156   0.935 -0.1535  0.2545  0.5881
 4992SOL     OW26611   3.627   2.459   7.043  0.0314  0.2351 -0.0816
 4992SOL    HW126612   3.655   2.423   7.127 -0.8219  1.2384  0.6286
 4992SOL    HW226613   3.677   2.540   7.039  1.3025 -0.5264  0.5056
 4993SOL     OW26614   0.222   1.635   7.594 -0.0376  1.2036  0.3442
 4993SOL    HW126615   0.154   1.680   7.645  0.9319  1.7523  1.1591
 4993SOL    HW226616   0.296   1.695   7.598 -2.0374  3.8191 -1.8004
 4994SOL     OW26617   2.290   2.639   2.947 -0.1393  0.2081 -0.0067
 4994SOL    HW126618   2.321   2.549   2.940 -1.4824 -0.1342 -1.5565
 4994SOL    HW226619   2.300   2.657   3.040  0.5853  1.1550 -0.2695
 4995SOL     OW26620   0.006   3.253   2.634 -0.2352  0.5721 -0.1928
 4995SOL    HW126621   0.100   3.237   2.623 -0.2892 -0.0967  0.2803
 4995SOL    HW226622   4.715   3.245   2.543  1.8540 -1.6896 -0.6555
 4996SOL     OW26623   3.426   3.581   7.431 -0.2429  0.2852 -0.0414
 4996SOL    HW126624   3.432   3.517   7.501 -0.5108 -0.5444 -0.7789
 4996SOL    HW226625   3.466   3.655   7.477  2.0894 -0.4786 -0.8232
 4997SOL     OW26626   1.512   0.189   5.650 -0.2233  0.4043 -0.2933
 4997SOL    HW126627   1.590   0.157   5.695 -1.5236 -1.7217  0.4497
 4997SOL    HW226628   1.528   0.146   5.566  0.4201 -0.0654  0.0739
 4998SOL     OW26629   1.340   4.035   2.173  0.4909 -0.2434  0.5687
 4998SOL    HW126630   1.373   4.046   2.262 -0.2178 -0.7159  0.8927
 4998SOL    HW226631   1.247   4.059   2.174  0.1237 -1.7439  3.1988
 4999SOL     OW26632   4.457   0.192   6.614 -0.1267  0.2187 -0.0410
 4999SOL    HW126633   4.414   0.107   6.629 -1.1721  0.6235 -0.7318
 4999SOL    HW226634   4.423   0.242   6.688  0.3376 -1.4502  1.3123
 5000SOL     OW26635   2.409   2.955   8.209 -0.2754  0.0872  0.0612
 5000SOL    HW126636   2.330   2.980   8.161  0.0965  2.1349  0.4857
 5000SOL    HW226637   2.413   2.872   8.163  0.3935  1.1764 -1.8613
 5001SOL     OW26638   4.723   1.898   1.977 -0.3244  0.0660  0.1266
 5001SOL    HW126639   0.070   1.858   1.955 -0.0295  0.1946  1.0519
 5001SOL    HW226640   0.007   1.989   1.956 -0.0759  0.3218  1.4890
 5002SOL     OW26641   4.035   2.953   9.057  0.4508 -0.1349 -0.4038
 5002SOL    HW126642   4.077   2.882   9.008  2.5235 -0.0957  1.3422
 5002SOL    HW226643   4.111   3.000   9.089  0.7364  0.7841 -2.4670
 5003SOL     OW26644   2.754   0.539   8.453  0.2226  0.1839  0.7861
 5003SOL    HW126645   2.776   0.483   8.528 -0.4224 -1.6944 -0.4422
 5003SOL    HW226646   2.845   0.560   8.432 -0.2380  0.0772 -1.2947
 5004SOL     OW26647   1.312   0.641  11.059  0.2231  0.2214 -0.0332
 5004SOL    HW126648   1.347   0.695  10.989 -1.1665 -1.3555 -1.9341
 5004SOL    HW226649   1.382   0.647  11.125  0.1556  0.9977 -0.0282
 5005SOL     OW26650   1.657   0.421   4.135  0.4964 -0.6488  0.4404
 5005SOL    HW126651   1.683   0.454   4.221  1.1101 -1.1142  0.4356
 5005SOL    HW226652   1.618   0.337   4.158 -0.6164 -0.5020 -0.9077
 5006SOL     OW26653   4.447   0.977   8.378  0.4346  0.1877 -0.0873
 5006SOL    HW126654   4.538   0.961   8.402  0.0867  0.0129  1.0942
 5006SOL    HW226655   4.432   1.040   8.448  0.9693  1.3663 -1.0196
 5007SOL     OW26656   4.667   0.031   1.902 -0.0731  0.0240  0.1420
 5007SOL    HW126657   4.627   0.017   1.817  0.7221  0.1200 -0.2431
 5007SOL    HW226658   4.651   4.681   1.937  1.0693 -0.0759  0.4115
 5008SOL     OW26659   2.118   1.355   5.111 -0.5422 -0.4113 -0.2521
 5008SOL    HW126660   2.066   1.330   5.035 -1.5720 -1.0919  0.6776
 5008SOL    HW226661   2.108   1.275   5.162  0.7560  0.0601  0.7521
 5009SOL     OW26662   2.607   3.230   9.466 -0.0182  0.3937  0.3900
 5009SOL    HW126663   2.529   3.185   9.435 -0.7854  1.9245  0.0995
 5009SOL    HW226664   2.657   3.233   9.384 -2.6829 -0.2535 -1.2602
 5010SOL     OW26665   4.322   2.235   8.614  0.2002 -0.0200 -0.0168
 5010SOL    HW126666   4.407   2.279   8.609  0.1848  0.1769  1.4167
 5010SOL    HW226667   4.319   2.224   8.709 -0.8658 -0.7831 -0.1400
 5011SOL     OW26668   2.324   2.524   2.107 -0.3120  0.6682  0.6580
 5011SOL    HW126669   2.292   2.520   2.198 -2.7169 -0.6290 -0.2409
 5011SOL    HW226670   2.258   2.494   2.044  2.5456  1.9228 -2.9290
 5012SOL     OW26671   0.022   0.432   2.506 -0.0915 -0.4977  0.6009
 5012SOL    HW126672   0.117   0.420   2.518 -0.4515 -1.5966  2.4161
 5012SOL    HW226673   0.017   0.455   2.413 -0.2924 -1.0375  0.4786
 5013SOL     OW26674   4.373   1.912   8.961 -0.1655 -0.0245 -0.2589
 5013SOL    HW126675   4.400   1.836   8.909  2.4201  0.4198  0.4558
 5013SOL    HW226676   4.402   1.881   9.046  0.2154  0.8292 -0.0806
 5014SOL     OW26677   2.007   2.197  13.104  0.1072  0.7934  0.2407
 5014SOL    HW126678   1.990   2.109  13.140 -0.3101  0.5786 -0.4718
 5014SOL    HW226679   2.014   2.253  13.182 -0.0509  2.7602 -1.1700
 5015SOL     OW26680   4.723   2.900   4.663 -0.0186  0.3958 -0.0629
 5015SOL    HW126681   0.006   2.875   4.753  1.7086  1.6032 -0.1169
 5015SOL    HW226682   4.701   2.993   4.671 -2.0991 -0.1788  1.1014
 5016SOL     OW26683   3.744   0.270   6.554  0.3465 -0.0127  0.0187
 5016SOL    HW126684   3.769   0.294   6.465 -1.1728  0.6090 -0.2521
 5016SOL    HW226685   3.829   0.276   6.596  0.1368  1.3455  0.2306
 5017SOL     OW26686   3.301   4.212   2.848 -0.5598 -0.0633  0.0993
 5017SOL    HW126687   3.385   4.166   2.844  0.2877  1.1680  3.8125
 5017SOL    HW226688   3.270   4.197   2.759 -2.2883 -2.8295  1.1669
 5018SOL     OW26689   2.409   1.642   5.397  0.3402  0.1641  0.1043
 5018SOL    HW126690   2.323   1.606   5.374  1.3592 -1.3292 -1.4268
 5018SOL    HW226691   2.405   1.658   5.491 -1.0663 -0.4926  0.1512
 5019SOL     OW26692   1.548   3.881   2.110  0.1592  0.1319  0.2871
 5019SOL    HW126693   1.592   3.930   2.179  0.6034 -1.0085  0.8181
 5019SOL    HW226694   1.465   3.928   2.117 -0.0022  0.1295 -1.6062
 5020SOL     OW26695   1.821   1.178   6.042  0.0288  0.0028 -0.1280
 5020SOL    HW126696   1.778   1.139   6.118  1.7325 -1.9361 -0.1517
 5020SOL    HW226697   1.886   1.110   6.027 -1.2440 -1.2604  0.0804
 5021SOL     OW26698   1.799   0.092   2.346 -0.0369  0.3832  0.1830
 5021SOL    HW126699   1.839   0.055   2.267  2.4263  1.2186  1.0157
 5021SOL    HW226700   1.844   0.174   2.364 -1.6187  0.9342  1.6575
 5022SOL     OW26701   2.197   1.492  17.309  0.0464 -0.1669  0.3514
 5022SOL    HW126702   2.199   1.463  17.400  0.9469 -0.3012  0.2901
 5022SOL    HW226703   2.104   1.513  17.302  0.2991  0.7547 -0.3673
 5023SOL     OW26704   1.367   0.199   5.910  0.5174 -0.0048  0.1538
 5023SOL    HW126705   1.280   0.186   5.872  0.7297 -2.1611  0.4389
 5023SOL    HW226706   1.425   0.217   5.836 -0.8712 -1.1566 -1.2030
 5024SOL     OW26707   2.146   3.249   3.941  0.0210 -0.4648 -0.7643
 5024SOL    HW126708   2.091   3.300   4.001  1.6788  2.2662 -1.6000
 5024SOL    HW226709   2.093   3.216   3.868  0.6105 -1.1603 -0.8822
 5025SOL     OW26710   4.149   1.288   5.383  0.3680 -0.0923 -0.1498
 5025SOL    HW126711   4.162   1.360   5.321 -1.1508 -0.0266 -0.3940
 5025SOL    HW226712   4.064   1.259   5.350 -0.1000  0.2793  0.7468
 5026SOL     OW26713   4.420   2.279   2.676 -0.0134  0.0474  0.9485
 5026SOL    HW126714   4.396   2.329   2.754 -1.7746 -0.8367  0.9772
 5026SOL    HW226715   4.483   2.227   2.726  0.0818 -0.7156  0.0407
 5027SOL     OW26716   4.226   2.419   5.600 -0.3129 -0.0149 -0.1611
 5027SOL    HW126717   4.285   2.480   5.556 -2.0498  2.9588  1.6358
 5027SOL    HW226718   4.287   2.349   5.620 -0.4255 -0.2871 -0.7674
 5028SOL     OW26719   0.329   0.197  16.462  0.0485  0.2129 -0.0135
 5028SOL    HW126720   0.414   0.154  16.454  0.3114  0.6109  0.6446
 5028SOL    HW226721   0.356   0.282  16.497 -0.1266 -0.0159  0.6778
 5029SOL     OW26722   4.057   0.975   9.485 -0.3053 -0.6546 -0.2573
 5029SOL    HW126723   4.045   0.888   9.449  1.4945 -0.8720 -0.3290
 5029SOL    HW226724   4.148   0.991   9.463 -0.0720 -0.4483  0.8646
 5030SOL     OW26725   2.208   3.473   1.168  0.3010 -0.7418  0.3600
 5030SOL    HW126726   2.235   3.464   1.077  0.9617  1.8873  0.2676
 5030SOL    HW226727   2.295   3.477   1.209 -0.7446  0.1255  2.4826
 5031SOL     OW26728   3.148   0.278   1.519 -0.3978 -0.2326 -0.4995
 5031SOL    HW126729   3.094   0.328   1.459 -0.3966  0.6159  0.2133
 5031SOL    HW226730   3.119   0.187   1.507 -1.0922 -0.0558 -0.1341
 5032SOL     OW26731   2.448   4.586  16.602  0.6231  0.4602  0.8490
 5032SOL    HW126732   2.527   4.640  16.611  0.9895 -0.1392  1.2490
 5032SOL    HW226733   2.461   4.521  16.671  1.8938 -1.8895 -1.6074
 5033SOL     OW26734   0.359   1.780   8.384 -0.0184 -0.2801 -0.1837
 5033SOL    HW126735   0.270   1.811   8.370  0.3097  0.4957 -0.5628
 5033SOL    HW226736   0.366   1.700   8.331  3.4031  0.0883 -0.3070
 5034SOL     OW26737   3.561   1.205   5.502 -0.0442 -0.0463 -0.3458
 5034SOL    HW126738   3.655   1.194   5.486  0.4186 -1.2615  3.1752
 5034SOL    HW226739   3.521   1.208   5.415  0.5367 -1.0385 -0.6417
 5035SOL     OW26740   2.027   3.909   9.856  0.1819  0.9260  0.2138
 5035SOL    HW126741   1.969   3.973   9.897  0.5461 -0.9415  3.6180
 5035SOL    HW226742   2.103   3.963   9.835  1.1192 -0.6639 -0.5219
 5036SOL     OW26743   2.884   3.220   5.696 -0.1353  0.3787  0.9191
 5036SOL    HW126744   2.977   3.209   5.672 -1.2705 -0.7323 -2.9425
 5036SOL    HW226745   2.839   3.202   5.614  1.4432  1.9053 -0.2623
 5037SOL     OW26746   4.725   0.983   6.229 -0.1781  0.0414  0.0003
 5037SOL    HW126747   0.018   1.050   6.168  0.8445 -0.7484 -0.3480
 5037SOL    HW226748   0.060   0.921   6.232 -1.1719 -1.1063  0.2627
 5038SOL     OW26749   1.936   3.701   1.358  0.1006  0.0659  0.0681
 5038SOL    HW126750   1.845   3.714   1.331  0.6436 -0.7736 -2.1928
 5038SOL    HW226751   1.953   3.790   1.387  0.2219 -0.3214  1.1653
 5039SOL     OW26752   0.679   2.165   2.513  0.4737  0.6724  0.1832
 5039SOL    HW126753   0.697   2.180   2.606 -1.5162 -2.3764  1.0726
 5039SOL    HW226754   0.676   2.070   2.516 -1.9818  0.7525  0.1040
 5040SOL     OW26755   1.991   2.494   4.592  0.3818 -0.6538  0.0434
 5040SOL    HW126756   2.037   2.425   4.544  0.8735 -1.9121  2.3774
 5040SOL    HW226757   1.914   2.450   4.627  0.0911  0.6546  1.0542
 5041SOL     OW26758   4.131   4.086   5.606  0.1911 -0.4530  0.0759
 5041SOL    HW126759   4.213   4.040   5.627  0.3548  0.4688  1.5089
 5041SOL    HW226760   4.065   4.022   5.582 -0.1565  0.6234 -1.8246
 5042SOL     OW26761   2.353   2.180  16.165 -0.2595 -0.2737 -0.1628
 5042SOL    HW126762   2.370   2.273  16.182 -4.2793  0.7831 -2.0440
 5042SOL    HW226763   2.258   2.169  16.163 -0.0995 -1.3595 -1.3471
 5043SOL     OW26764   4.463   3.381   2.308 -0.1569 -0.0625 -0.4933
 5043SOL    HW126765   4.519   3.322   2.257  2.2010 -0.7953  2.9834
 5043SOL    HW226766   4.394   3.318   2.329 -0.2953  0.3327  0.2468
 5044SOL     OW26767   3.230   1.138   1.711  0.0641 -0.0645 -0.4715
 5044SOL    HW126768   3.320   1.117   1.684 -0.4971  1.1609 -3.2954
 5044SOL    HW226769   3.184   1.164   1.631 -0.9420 -0.7010 -0.0853
 5045SOL     OW26770   1.697   3.592   3.622  0.2056  0.3772  0.4854
 5045SOL    HW126771   1.652   3.511   3.601 -0.1732  1.1877 -1.9100
 5045SOL    HW226772   1.652   3.619   3.702 -1.5419  1.2887 -0.7922
 5046SOL     OW26773   4.062   0.073   6.842 -0.2601 -0.2483 -0.3516
 5046SOL    HW126774   4.041   0.117   6.760 -2.1549  1.4165  1.0262
 5046SOL    HW226775   4.023   4.724   6.824  2.2456 -1.1697 -1.2805
 5047SOL     OW26776   0.721   2.566  17.660  0.3788 -0.6461 -0.0037
 5047SOL    HW126777   0.697   2.651  17.623 -1.4842 -1.3039 -0.3576
 5047SOL    HW226778   0.635   2.524  17.667 -1.2472  2.5173 -1.1073
 5048SOL     OW26779   0.240   0.272  13.685  0.2261 -0.2388 -0.1653
 5048SOL    HW126780   0.220   0.298  13.595  0.9013 -1.4166 -0.6583
 5048SOL    HW226781   0.206   0.350  13.729  0.3470  0.3862 -1.1944
 5049SOL     OW26782   2.967   3.387   4.299 -0.8137  0.2710 -0.1649
 5049SOL    HW126783   2.971   3.416   4.390 -1.8205 -0.4564  0.1127
 5049SOL    HW226784   2.952   3.471   4.256  2.5300  0.7596 -0.3732
 5050SOL     OW26785   0.138   4.257   2.109  0.0483 -0.7403 -0.7369
 5050SOL    HW126786   0.057   4.288   2.150 -0.4352 -1.9176 -0.7913
 5050SOL    HW226787   0.144   4.169   2.144 -1.3157 -0.6226 -0.1850
 5051SOL     OW26788   1.744   3.240   3.991  0.1005 -0.8361  0.4937
 5051SOL    HW126789   1.816   3.195   3.948  0.8625  0.6817  0.1700
 5051SOL    HW226790   1.727   3.175   4.059 -1.7138  0.3169  1.1300
 5052SOL     OW26791   3.585   3.313   5.058 -0.2222  0.2259 -0.0897
 5052SOL    HW126792   3.653   3.333   5.121 -0.0518 -0.6771  0.0171
 5052SOL    HW226793   3.560   3.398   5.022 -1.5298 -0.2039 -0.1931
 5053SOL     OW26794   0.852   3.194  13.597  0.5575  0.0812 -0.3549
 5053SOL    HW126795   0.823   3.205  13.687  1.5983  0.8325 -0.1113
 5053SOL    HW226796   0.775   3.168  13.546 -1.0276  0.0963  2.0421
 5054SOL     OW26797   3.009   1.707  13.556  0.4914 -0.7592  0.3992
 5054SOL    HW126798   2.962   1.721  13.638  0.5522 -0.6172  0.4100
 5054SOL    HW226799   2.966   1.624  13.536  1.7658 -1.7881  1.9490
 5055SOL     OW26800   4.068   0.957   5.744  0.1816  0.1376 -0.6208
 5055SOL    HW126801   4.033   0.929   5.659 -0.5145 -0.1446 -0.2349
 5055SOL    HW226802   4.023   1.042   5.740  2.7390  1.4474 -2.2932
 5056SOL     OW26803   0.690   2.541   1.372 -0.4413 -0.1694 -0.2024
 5056SOL    HW126804   0.678   2.598   1.448 -0.6842 -0.3820 -0.0815
 5056SOL    HW226805   0.778   2.509   1.394 -0.8948 -0.3642  1.3425
 5057SOL     OW26806   4.263   4.097   1.447 -0.0003  0.2735 -0.3885
 5057SOL    HW126807   4.338   4.059   1.401  0.5564  0.8601  0.0359
 5057SOL    HW226808   4.307   4.138   1.521  1.2912  0.6968 -1.3955
 5058SOL     OW26809   1.093   4.568   2.060 -0.2078  0.1997  0.8241
 5058SOL    HW126810   1.096   4.558   2.156  1.4103 -0.6818  0.6768
 5058SOL    HW226811   1.102   4.479   2.026 -1.7191  0.5014 -0.3374
 5059SOL     OW26812   1.668   3.882  10.475 -0.9944 -0.6432  0.3769
 5059SOL    HW126813   1.608   3.856  10.545  0.5300 -1.0596  1.5239
 5059SOL    HW226814   1.611   3.937  10.421  1.0719 -0.2456 -1.3634
 5060SOL     OW26815   0.321   2.964   9.986  0.5532  0.0089 -0.0933
 5060SOL    HW126816   0.321   3.001  10.075  1.8588  2.5477 -1.1497
 5060SOL    HW226817   0.247   2.903   9.987  2.0906 -1.8670 -1.9325
 5061SOL     OW26818   3.361   0.331   4.201 -0.4030 -0.4465  0.3088
 5061SOL    HW126819   3.432   0.329   4.264 -0.3422  0.0621  0.2590
 5061SOL    HW226820   3.291   0.358   4.261 -1.8244 -2.3130 -0.5275
 5062SOL     OW26821   2.950   0.724   6.036 -0.4208 -0.2914  0.2761
 5062SOL    HW126822   3.011   0.710   5.963 -2.0538 -3.2499 -0.5146
 5062SOL    HW226823   2.988   0.664   6.100  0.1903  1.6159  1.7237
 5063SOL     OW26824   0.747   2.830  13.565 -0.3399  0.2198 -0.8013
 5063SOL    HW126825   0.679   2.796  13.508  0.0532  2.0396 -2.3694
 5063SOL    HW226826   0.823   2.775  13.548  1.3043  2.0108  0.6868
 5064SOL     OW26827   0.157   2.595   2.402 -0.1201  0.1512 -0.3110
 5064SOL    HW126828   0.101   2.534   2.449  0.8660  0.6919  1.5653
 5064SOL    HW226829   0.106   2.603   2.321 -0.1001 -0.0839 -0.3476
 5065SOL     OW26830   1.620   4.160  15.393  1.0131 -0.5182 -0.2977
 5065SOL    HW126831   1.665   4.241  15.418 -2.7192  1.0603  1.3300
 5065SOL    HW226832   1.558   4.193  15.328  1.4310  1.6786  0.3892
 5066SOL     OW26833   0.561   3.232   8.575  0.4428 -0.2834 -0.4767
 5066SOL    HW126834   0.578   3.305   8.516  0.3558  1.2915  1.4506
 5066SOL    HW226835   0.626   3.167   8.550 -0.6246 -1.0586 -1.2405
 5067SOL     OW26836   4.084   2.398   2.359  0.2057  0.0747 -0.6282
 5067SOL    HW126837   4.005   2.348   2.337 -1.5157  1.4594  2.3202
 5067SOL    HW226838   4.126   2.341   2.423 -0.3861  2.7798  2.1888
 5068SOL     OW26839   0.173   3.924   7.835  0.3912 -0.0535 -0.8369
 5068SOL    HW126840   0.190   3.996   7.775  0.2445 -0.1825 -1.0344
 5068SOL    HW226841   0.211   3.949   7.919 -0.1691 -3.1746  0.3509
 5069SOL     OW26842   3.623   2.688   9.114  0.3516  0.0289 -0.2970
 5069SOL    HW126843   3.617   2.607   9.065 -2.0613 -0.2712  0.5128
 5069SOL    HW226844   3.678   2.740   9.055 -0.9491 -0.4384 -1.8926
 5070SOL     OW26845   4.316   0.576  17.414 -0.3414  0.0573 -0.1022
 5070SOL    HW126846   4.321   0.659  17.366  0.6625  1.9939  3.2912
 5070SOL    HW226847   4.389   0.598  17.472 -1.0655  0.2347  0.7511
 5071SOL     OW26848   2.830   1.929   5.457 -0.2745 -0.2869  0.1172
 5071SOL    HW126849   2.857   1.933   5.365  3.2978  0.9098  1.2275
 5071SOL    HW226850   2.893   1.983   5.504 -1.5333  0.8501  0.5102
 5072SOL     OW26851   3.420   2.264  10.939  0.8208  0.1173 -0.0667
 5072SOL    HW126852   3.343   2.318  10.923  0.5976 -0.2093 -0.1000
 5072SOL    HW226853   3.472   2.315  11.000  1.3177 -1.4426  0.8276
 5073SOL     OW26854   0.101   0.842   7.356 -0.3892 -0.4074  0.0352
 5073SOL    HW126855   0.119   0.771   7.295  0.6326  1.0312 -1.3593
 5073SOL    HW226856   0.143   0.919   7.317  0.1409 -1.4721 -1.4830
 5074SOL     OW26857   1.656   4.601   8.097  0.0944 -0.2974 -0.1785
 5074SOL    HW126858   1.647   4.681   8.148 -0.0868 -0.6076  0.2682
 5074SOL    HW226859   1.733   4.558   8.136  1.3170  1.2922 -0.8136
 5075SOL     OW26860   3.537   2.746  10.953  0.0795  0.4792 -0.5991
 5075SOL    HW126861   3.506   2.833  10.925 -4.8502 -0.7652  0.9717
 5075SOL    HW226862   3.628   2.753  10.925  0.1534  0.4667 -0.3613
 5076SOL     OW26863   4.256   1.405   4.215 -0.1548  0.2428 -0.5941
 5076SOL    HW126864   4.177   1.411   4.268 -2.6066 -0.2128 -4.2078
 5076SOL    HW226865   4.246   1.319   4.175  0.7398  0.0051 -0.2972
 5077SOL     OW26866   1.846   2.867   8.789  0.2017  0.4975  0.0174
 5077SOL    HW126867   1.810   2.925   8.857  1.2230 -0.1320  1.0924
 5077SOL    HW226868   1.933   2.904   8.777  0.7726  0.1719  3.0942
 5078SOL     OW26869   3.242   1.311   2.906  0.1685 -0.1516  0.0969
 5078SOL    HW126870   3.213   1.388   2.857  1.6895  0.6024  0.3757
 5078SOL    HW226871   3.338   1.312   2.897  0.1498  0.6495 -0.0292
 5079SOL     OW26872   4.416   0.182   5.688 -0.5010  0.3812 -0.0174
 5079SOL    HW126873   4.334   0.133   5.678  0.8138 -2.3245  2.4387
 5079SOL    HW226874   4.393   0.262   5.641 -1.2026 -0.1988 -0.6624
 5080SOL     OW26875   0.221   3.646   7.394  0.1866 -0.2264 -0.2324
 5080SOL    HW126876   0.262   3.697   7.464 -1.0130 -0.0979  0.3773
 5080SOL    HW226877   0.136   3.690   7.387  0.1888 -0.5411 -2.3859
 5081SOL     OW26878   3.162   4.736   8.071  0.0199 -0.0407  0.7168
 5081SOL    HW126879   3.190   0.066   8.133  0.4510  0.7449 -0.3386
 5081SOL    HW226880   3.223   0.023   8.001  0.9103  0.5289  1.6841
 5082SOL     OW26881   0.317   0.959   3.996  0.2813  0.5316  0.7626
 5082SOL    HW126882   0.326   1.024   3.926  3.1395 -2.6111 -1.7681
 5082SOL    HW226883   0.224   0.937   4.008  0.1839 -0.4034 -1.6877
 5083SOL     OW26884   3.013   2.456   3.907 -0.0178  0.6142  0.2273
 5083SOL    HW126885   3.024   2.499   3.991 -1.2883  1.7257 -0.1541
 5083SOL    HW226886   2.922   2.430   3.919  0.4984 -1.1828  0.1620
 5084SOL     OW26887   2.599   3.486   6.428  0.3120 -0.4337 -0.1353
 5084SOL    HW126888   2.687   3.449   6.435  0.5768  0.1772 -0.1690
 5084SOL    HW226889   2.617   3.580   6.430 -1.0707 -0.1846  0.7152
 5085SOL     OW26890   3.397   2.381   8.495  0.4264  0.5281 -0.0391
 5085SOL    HW126891   3.376   2.444   8.564 -1.6907  0.7341 -0.8819
 5085SOL    HW226892   3.491   2.390   8.508  0.3848  0.4194  0.3485
 5086SOL     OW26893   0.666   3.396   8.383  0.5937  0.5311  0.5091
 5086SOL    HW126894   0.707   3.336   8.321 -0.8879  0.8268 -0.7515
 5086SOL    HW226895   0.649   3.471   8.325  0.3471  0.5185  0.5680
 5087SOL     OW26896   2.918   4.191   9.666  0.1877 -0.4161  0.2283
 5087SOL    HW126897   2.853   4.232   9.724  0.3903  1.0223 -0.5490
 5087SOL    HW226898   2.904   4.219   9.575 -0.6025 -1.1700  0.1172
 5088SOL     OW26899   2.099   1.668   9.507 -0.1909 -0.2446  0.1140
 5088SOL    HW126900   2.088   1.617   9.587  0.7976 -0.9989 -0.2430
 5088SOL    HW226901   2.027   1.627   9.459  1.3303  0.2988 -2.6148
 5089SOL     OW26902   2.780   4.004   2.348  0.1615  0.3974  0.0779
 5089SOL    HW126903   2.716   4.007   2.420 -0.0264 -2.4427  0.0326
 5089SOL    HW226904   2.783   3.909   2.334 -0.2924  0.3686  0.1693
 5090SOL     OW26905   3.771   1.288  10.616 -0.0614 -0.0382 -0.1920
 5090SOL    HW126906   3.862   1.315  10.619 -0.1153  0.1716 -0.4940
 5090SOL    HW226907   3.745   1.313  10.705 -0.0746 -1.9318  0.3301
 5091SOL     OW26908   2.844   2.493   3.409 -0.1226  0.0572  0.4632
 5091SOL    HW126909   2.841   2.448   3.493  4.2224 -4.3588 -1.7071
 5091SOL    HW226910   2.826   2.585   3.427  1.2065  0.1621  1.2442
 5092SOL     OW26911   3.762   3.951   2.902 -0.2687 -0.2267 -0.3672
 5092SOL    HW126912   3.773   3.930   2.995 -2.5004  1.6717  0.3120
 5092SOL    HW226913   3.836   4.009   2.885  1.0467 -1.6924  0.3521
 5093SOL     OW26914   4.591   0.730   5.920  0.0166 -0.4556 -0.4087
 5093SOL    HW126915   4.544   0.740   6.002 -0.8539 -1.6067 -0.7732
 5093SOL    HW226916   4.559   0.799   5.862 -0.0052  1.5297  2.0032
 5094SOL     OW26917   1.440   4.189   8.426  0.1072  0.9352  0.5944
 5094SOL    HW126918   1.490   4.206   8.506  1.7600  0.9851 -0.4337
 5094SOL    HW226919   1.484   4.254   8.370 -1.3090  2.0347  0.7607
 5095SOL     OW26920   1.729   1.766   6.655 -0.1389 -0.1685 -0.2934
 5095SOL    HW126921   1.823   1.769   6.637  0.1190  2.0629  1.4453
 5095SOL    HW226922   1.729   1.742   6.747  0.3617 -1.5967 -0.6554
 5096SOL     OW26923   1.311   2.270   8.128  0.5474  0.4398  0.0181
 5096SOL    HW126924   1.276   2.359   8.134  0.9248  0.4065  2.4711
 5096SOL    HW226925   1.400   2.295   8.101  1.0332 -1.3251 -0.0636
 5097SOL     OW26926   4.423   1.499   4.005  0.6117  0.8178  0.3741
 5097SOL    HW126927   4.508   1.486   4.047  0.9329  1.1549 -0.1656
 5097SOL    HW226928   4.361   1.489   4.077 -0.0126  2.4422  0.0760
 5098SOL     OW26929   3.006   4.607   5.991 -0.8326 -0.1984  0.0339
 5098SOL    HW126930   3.052   4.579   6.069 -0.2812 -0.2445 -0.3071
 5098SOL    HW226931   2.921   4.630   6.028 -0.0285  2.7576  0.1130
 5099SOL     OW26932   3.433   3.357   5.635  0.0776 -0.2543  0.9740
 5099SOL    HW126933   3.434   3.338   5.541 -1.5866  3.4166  0.1886
 5099SOL    HW226934   3.447   3.268   5.668 -1.0687 -1.0931 -0.7609
 5100SOL     OW26935   1.262   4.131   4.956  0.5324 -0.2556  0.3327
 5100SOL    HW126936   1.356   4.136   4.942  0.7303  0.5153  1.9735
 5100SOL    HW226937   1.255   4.073   5.032  1.1162  2.0731  2.1455
 5101SOL     OW26938   0.169   0.706   5.380  0.6829  0.0587 -0.0483
 5101SOL    HW126939   0.088   0.696   5.429  0.9285  1.1187  0.5654
 5101SOL    HW226940   0.221   0.743   5.452  1.7480 -0.2495 -0.6560
 5102SOL     OW26941   0.044   2.606  16.853 -0.2160  0.2371 -0.0460
 5102SOL    HW126942   4.717   2.558  16.801 -0.7909  0.4051  0.5018
 5102SOL    HW226943   0.124   2.604  16.801  1.4862 -1.1965  2.5827
 5103SOL     OW26944   3.924   0.286   6.026 -0.3358  0.0683  0.4077
 5103SOL    HW126945   3.832   0.275   6.050 -0.0386  0.1739  1.5912
 5103SOL    HW226946   3.915   0.330   5.942 -0.4663 -0.6600  0.0358
 5104SOL     OW26947   1.245   0.184   7.685 -0.7120 -0.2851 -0.2268
 5104SOL    HW126948   1.169   0.229   7.649  0.8731  1.0034 -1.9967
 5104SOL    HW226949   1.198   0.111   7.725  1.7681 -0.6130  2.1075
 5105SOL     OW26950   4.357   0.381   5.503  0.1499 -0.2739  0.0619
 5105SOL    HW126951   4.347   0.331   5.423  1.5638  0.6669 -0.6955
 5105SOL    HW226952   4.413   0.452   5.473 -2.7617  0.8514 -2.7733
 5106SOL     OW26953   0.098   1.509   5.410  0.3703 -0.0071  0.6155
 5106SOL    HW126954   0.115   1.489   5.503  1.3907 -0.7931  0.2576
 5106SOL    HW226955   0.190   1.521   5.389  0.0410  0.3566 -0.6134
 5107SOL     OW26956   3.533   3.768   4.830  0.1115  0.7122  0.1899
 5107SOL    HW126957   3.624   3.787   4.806  0.4274 -1.1453 -0.0584
 5107SOL    HW226958   3.500   3.760   4.741 -2.8144 -0.1789  1.3571
 5108SOL     OW26959   0.027   0.013   4.875  0.2017 -0.4778 -0.7707
 5108SOL    HW126960   0.120   0.034   4.864  0.0048 -0.5602 -2.6368
 5108SOL    HW226961   0.027   4.706   4.960 -1.4437  2.0957  0.5696
 5109SOL     OW26962   0.738   4.302   2.391 -0.1611  0.3979 -0.4579
 5109SOL    HW126963   0.795   4.262   2.457  0.2739  0.5131 -0.7558
 5109SOL    HW226964   0.770   4.269   2.307 -1.8534 -2.8971  0.2320
 5110SOL     OW26965   3.957   2.772  14.490 -0.0970  0.4616  0.1040
 5110SOL    HW126966   3.899   2.845  14.509 -0.4140 -0.0992  1.2901
 5110SOL    HW226967   3.926   2.751  14.402 -0.8974 -0.2857  0.5700
 5111SOL     OW26968   1.341   3.674   7.768 -0.3670  0.4457  0.2558
 5111SOL    HW126969   1.247   3.655   7.778 -0.0718 -0.3096  1.6473
 5111SOL    HW226970   1.345   3.730   7.846 -2.1476  1.8367 -0.6398
 5112SOL     OW26971   0.575   0.415   1.851 -0.5894  0.2483  0.0873
 5112SOL    HW126972   0.538   0.497   1.881 -1.7963  0.2057 -1.2479
 5112SOL    HW226973   0.494   0.382   1.812 -1.1630  1.0851  0.6123
 5113SOL     OW26974   1.455   4.140   6.267 -0.0507  0.9951 -0.1422
 5113SOL    HW126975   1.432   4.049   6.286 -2.0725  1.5462  0.0516
 5113SOL    HW226976   1.489   4.167   6.353 -0.0749 -0.4055  0.3016
 5114SOL     OW26977   2.772   1.672   2.631 -0.0344 -0.2525 -0.8948
 5114SOL    HW126978   2.759   1.766   2.616 -0.2757 -0.5189 -2.2940
 5114SOL    HW226979   2.720   1.663   2.711  0.8166 -0.7476 -0.3852
 5115SOL     OW26980   3.732   1.446  13.604 -0.3868 -0.2080 -0.0984
 5115SOL    HW126981   3.647   1.488  13.602 -0.2544  0.1248  1.5343
 5115SOL    HW226982   3.709   1.356  13.580  2.9159 -1.4475  1.3013
 5116SOL     OW26983   3.072   4.142   8.586 -0.6448  0.2476  0.7564
 5116SOL    HW126984   3.007   4.210   8.567 -1.9188 -0.8545  1.1312
 5116SOL    HW226985   3.095   4.126   8.495 -1.0654  3.4009  0.0806
 5117SOL     OW26986   4.521   1.496   8.700 -0.1309 -0.4352  0.5206
 5117SOL    HW126987   4.590   1.480   8.636 -0.4946 -1.2049  0.3174
 5117SOL    HW226988   4.576   1.478   8.776 -1.1275 -0.2921  1.2755
 5118SOL     OW26989   2.976   0.141   5.575 -0.1799 -0.3195  0.3020
 5118SOL    HW126990   2.994   0.235   5.582 -0.1516 -0.3168  0.1969
 5118SOL    HW226991   2.962   0.122   5.667 -0.1131  0.4181  0.4648
 5119SOL     OW26992   1.198   3.858  10.534  0.0934  0.0047  0.2647
 5119SOL    HW126993   1.212   3.782  10.477  0.0760  1.0657 -1.1633
 5119SOL    HW226994   1.263   3.830  10.598 -1.6791 -2.8053  0.8266
 5120SOL     OW26995   2.821   2.376  12.016 -0.7496  0.7390  0.0002
 5120SOL    HW126996   2.750   2.314  11.996  0.4805 -0.2248 -1.3458
 5120SOL    HW226997   2.824   2.357  12.110 -0.0193 -0.3478 -0.2427
 5121SOL     OW26998   0.793   1.360   7.716  0.1645 -0.1998  0.7601
 5121SOL    HW126999   0.828   1.385   7.631  1.7656 -2.3781  0.7712
 5121SOL    HW227000   0.874   1.334   7.761  0.9220 -0.2381 -0.6329
 5122SOL     OW27001   4.331   0.865  11.867  0.5995  0.1476 -0.3090
 5122SOL    HW127002   4.312   0.860  11.773  1.7750 -0.0757 -0.5394
 5122SOL    HW227003   4.423   0.890  11.859  0.4448  1.1775  1.2768
 5123SOL     OW27004   1.969   2.872   4.830  0.4356 -0.2969  0.2423
 5123SOL    HW127005   1.906   2.802   4.848 -0.8735  1.1320  1.2084
 5123SOL    HW227006   2.023   2.830   4.764 -0.6730 -1.8542  0.3142
 5124SOL     OW27007   4.346   1.556   6.942 -0.2992  1.0400  0.0834
 5124SOL    HW127008   4.301   1.484   6.987 -0.2646  1.5181  0.8739
 5124SOL    HW227009   4.283   1.627   6.955  0.7900  2.1795 -0.8757
 5125SOL     OW27010   0.795   1.029  13.879  0.3377  0.1706  0.2983
 5125SOL    HW127011   0.782   1.064  13.791  1.0365  1.3802  0.6740
 5125SOL    HW227012   0.870   1.073  13.919  1.1620 -0.9312 -0.0621
 5126SOL     OW27013   0.288   4.619   6.177 -0.1203 -0.1078  0.1712
 5126SOL    HW127014   0.225   4.663   6.120  1.7261  2.5042  0.1605
 5126SOL    HW227015   0.359   4.596   6.116  0.2203 -0.9189  0.8698
 5127SOL     OW27016   0.270   1.912   3.794 -0.1012 -0.2834 -0.3595
 5127SOL    HW127017   0.353   1.869   3.772  0.5752 -0.3124  2.3309
 5127SOL    HW227018   0.282   2.005   3.780  1.7577 -0.6147 -0.9283
 5128SOL     OW27019   1.823   1.449   3.425 -0.0179 -0.4568 -0.5139
 5128SOL    HW127020   1.881   1.415   3.493 -2.0047 -0.9362  0.9375
 5128SOL    HW227021   1.766   1.373   3.413 -0.9944  0.0475  0.8742
 5129SOL     OW27022   1.658   1.975   5.132  0.1054  0.0519  0.1095
 5129SOL    HW127023   1.749   1.946   5.129 -0.2147 -0.7605 -2.1303
 5129SOL    HW227024   1.612   1.892   5.143 -0.0822  0.2209  0.5853
 5130SOL     OW27025   1.873   4.227   2.473  0.1482  0.4931 -0.0485
 5130SOL    HW127026   1.931   4.274   2.413 -2.1872  0.6441 -2.2124
 5130SOL    HW227027   1.894   4.272   2.555  0.9005  0.3098 -0.1489
 5131SOL     OW27028   2.721   2.095   3.513  0.3463  0.0300  0.2523
 5131SOL    HW127029   2.672   2.033   3.459  2.2555 -0.9424 -0.4000
 5131SOL    HW227030   2.672   2.177   3.512  0.6906  0.2564  2.2887
 5132SOL     OW27031   4.696   0.884   1.630 -0.2706 -0.0148  1.1458
 5132SOL    HW127032   4.732   0.848   1.548 -0.8615 -0.5314  1.1185
 5132SOL    HW227033   4.637   0.813   1.654 -1.6199  0.3940 -0.9528
 5133SOL     OW27034   1.081   2.345  15.897  0.6465  0.4810 -0.3266
 5133SOL    HW127035   1.005   2.361  15.951  1.4489  1.5958  0.4701
 5133SOL    HW227036   1.088   2.250  15.898  1.5670  0.5675  1.3658
 5134SOL     OW27037   3.665   1.804   7.560  0.6285  0.0194 -0.2252
 5134SOL    HW127038   3.654   1.717   7.599  0.5540  0.8390  1.6275
 5134SOL    HW227039   3.618   1.794   7.478  0.8223 -1.1436 -0.1942
 5135SOL     OW27040   0.319   3.073  11.919 -0.3048 -0.1463  0.0516
 5135SOL    HW127041   0.265   3.146  11.951 -1.4542 -0.4243 -1.2399
 5135SOL    HW227042   0.351   3.110  11.837  0.1293  3.9084  2.0359
 5136SOL     OW27043   1.069   2.031   2.410  0.0414 -0.2317 -0.3402
 5136SOL    HW127044   1.003   2.087   2.368 -0.9527 -2.7982 -2.2072
 5136SOL    HW227045   1.144   2.041   2.350 -0.7614 -0.8676 -1.4632
 5137SOL     OW27046   1.347   2.492   1.786  0.0130  0.7291 -0.4290
 5137SOL    HW127047   1.388   2.407   1.774 -2.5044 -1.2870  5.3975
 5137SOL    HW227048   1.419   2.554   1.797  0.6748 -0.4924  2.0412
 5138SOL     OW27049   3.700   3.836   4.003 -0.1347 -0.1971  0.2348
 5138SOL    HW127050   3.729   3.922   4.035  1.4928 -0.9188  0.7359
 5138SOL    HW227051   3.607   3.844   3.984 -0.4831 -0.9019  1.6386
 5139SOL     OW27052   3.296   3.827  12.710  0.2454 -0.1752 -0.0954
 5139SOL    HW127053   3.248   3.872  12.641 -1.0179  0.7874  1.4146
 5139SOL    HW227054   3.316   3.887  12.782 -0.6428  0.2929 -0.2460
 5140SOL     OW27055   0.267   3.911   4.244 -0.0935  0.2294 -0.2102
 5140SOL    HW127056   0.362   3.910   4.236 -0.1262 -1.5001 -0.3160
 5140SOL    HW227057   0.255   4.006   4.244 -2.1514 -0.0104  3.0785
 5141SOL     OW27058   4.425   0.033   6.196 -0.2320  0.1175  0.3155
 5141SOL    HW127059   4.371   0.101   6.238 -2.5310 -1.3465 -0.2589
 5141SOL    HW227060   4.485   0.029   6.270  1.2889 -2.1483 -1.0288
 5142SOL     OW27061   0.236   3.236   8.331 -0.2966  0.4373 -0.1389
 5142SOL    HW127062   0.319   3.285   8.325  0.0755 -0.3519 -1.4309
 5142SOL    HW227063   0.186   3.296   8.386  1.1300  0.7115  0.8958
 5143SOL     OW27064   3.980   2.952   6.575  0.0671  0.5697 -0.3668
 5143SOL    HW127065   3.961   3.040   6.543  1.0103  1.3820  1.3382
 5143SOL    HW227066   3.891   2.923   6.595  0.0530  1.8901  1.4592
 5144SOL     OW27067   2.604   3.392  11.084  0.3375 -0.4564 -0.0776
 5144SOL    HW127068   2.606   3.354  11.172 -1.5749 -0.3651 -0.0090
 5144SOL    HW227069   2.546   3.326  11.046  1.6284 -0.1952 -2.5022
 5145SOL     OW27070   3.135   1.895  14.663  0.6022 -0.3490 -0.3085
 5145SOL    HW127071   3.067   1.924  14.723  1.7564 -1.0584  1.3565
 5145SOL    HW227072   3.087   1.830  14.612 -1.6778  0.8402  0.3664
 5146SOL     OW27073   2.009   4.077  11.102 -0.3027  0.3902 -0.5562
 5146SOL    HW127074   1.947   4.150  11.104  0.4657  1.1147 -3.5730
 5146SOL    HW227075   1.968   4.031  11.029 -0.4944 -0.7303  0.2487
 5147SOL     OW27076   3.292   0.306   9.776 -0.2675 -0.5573  0.2947
 5147SOL    HW127077   3.226   0.262   9.830 -0.9937  0.2490  0.0529
 5147SOL    HW227078   3.253   0.392   9.757  2.8418  0.7875  0.0302
 5148SOL     OW27079   1.291   4.679   3.276  0.4201  0.0058  0.0512
 5148SOL    HW127080   1.219   4.647   3.331  1.7983 -2.0332  0.6995
 5148SOL    HW227081   1.366   4.627   3.304 -0.9641 -1.0243  1.9164
 5149SOL     OW27082   3.483   2.424   9.830  0.0904 -0.2634  0.1992
 5149SOL    HW127083   3.564   2.472   9.848  0.1256 -0.3694  0.3260
 5149SOL    HW227084   3.523   2.362   9.768  0.7852  0.8854 -0.4953
 5150SOL     OW27085   1.702   1.700   6.923 -0.0996 -0.6379  0.4783
 5150SOL    HW127086   1.759   1.659   6.987  1.2540 -3.0321 -2.2386
 5150SOL    HW227087   1.619   1.695   6.970  0.4332 -1.4993  1.3159
 5151SOL     OW27088   3.541   2.115   7.117 -0.1473  0.6864 -0.2520
 5151SOL    HW127089   3.508   2.199   7.150  2.1710  1.2456  0.6828
 5151SOL    HW227090   3.459   2.065   7.116  0.8075 -0.8736 -0.1400
 5152SOL     OW27091   4.559   0.854  12.139 -0.7174  0.0949 -0.5372
 5152SOL    HW127092   4.582   0.825  12.050  2.4436 -1.0922  0.6703
 5152SOL    HW227093   4.642   0.886  12.174 -0.5388 -0.9552  0.0160
 5153SOL     OW27094   0.710   1.683   8.754  0.1612 -0.1496 -0.1698
 5153SOL    HW127095   0.797   1.723   8.753  0.6916 -1.2885  0.4689
 5153SOL    HW227096   0.665   1.747   8.699 -1.2395 -1.1664 -0.1984
 5154SOL     OW27097   1.726   1.767   2.917  0.2188  0.2611  0.5650
 5154SOL    HW127098   1.648   1.760   2.863  1.4706 -2.3793 -0.8678
 5154SOL    HW227099   1.793   1.796   2.855  1.3399 -3.2060  0.1767
 5155SOL     OW27100   3.584   3.394   7.811 -0.1886  0.2773 -0.1204
 5155SOL    HW127101   3.584   3.437   7.897  2.3520 -1.1870  0.6287
 5155SOL    HW227102   3.678   3.381   7.795 -0.3267  0.4031 -1.0169
 5156SOL     OW27103   2.795   1.616  14.991 -0.4074 -0.4637  0.3619
 5156SOL    HW127104   2.800   1.660  14.906  0.8452  2.8554  2.1758
 5156SOL    HW227105   2.844   1.673  15.050  0.0892  0.1832 -0.6708
 5157SOL     OW27106   1.120   2.271   4.451  0.6426 -0.0410  0.7813
 5157SOL    HW127107   1.148   2.236   4.535 -2.4061  0.6201  2.0899
 5157SOL    HW227108   1.031   2.235   4.448 -0.7385  3.4115  0.2545
 5158SOL     OW27109   3.360   2.408   3.231  0.2455 -0.0154 -0.1211
 5158SOL    HW127110   3.345   2.384   3.140 -1.6134  0.2406  0.1084
 5158SOL    HW227111   3.445   2.366   3.247  0.3650  0.2923  0.0429
 5159SOL     OW27112   0.481   1.582   4.183  0.6099 -0.0005  0.1922
 5159SOL    HW127113   0.548   1.623   4.237  1.7397 -2.8424  0.9646
 5159SOL    HW227114   0.400   1.570   4.234 -0.2555  1.3779 -0.8499
 5160SOL     OW27115   0.238   2.167   0.238 -0.3782 -0.0067 -0.4878
 5160SOL    HW127116   0.235   2.222   0.159  0.7359  0.7962  0.0266
 5160SOL    HW227117   0.144   2.154   0.245 -0.1645 -0.7567  0.8952
 5161SOL     OW27118   3.463   1.775  16.137  0.0733  0.1387 -0.1821
 5161SOL    HW127119   3.548   1.808  16.167  0.3033 -0.2935 -0.3587
 5161SOL    HW227120   3.430   1.841  16.076  0.6463 -0.3205 -0.9818
 5162SOL     OW27121   0.286   4.703   1.023 -0.2298 -0.0706 -0.6006
 5162SOL    HW127122   0.328   0.051   1.016  0.6286 -0.5273 -0.9700
 5162SOL    HW227123   0.276   4.690   1.117  1.8041 -0.6503 -0.4835
 5163SOL     OW27124   2.529   1.100   8.482 -0.1742 -0.5938  0.4653
 5163SOL    HW127125   2.500   1.135   8.567  1.0641 -0.8118  0.9824
 5163SOL    HW227126   2.574   1.019   8.505 -0.5557 -0.8296  0.3753
 5164SOL     OW27127   2.943   3.121  14.903 -0.1679 -0.2852  1.1005
 5164SOL    HW127128   2.870   3.169  14.864  1.0838  1.7518  1.2830
 5164SOL    HW227129   2.896   3.081  14.976 -0.3752 -2.3789 -0.2023
 5165SOL     OW27130   1.962   2.559   2.911  0.0202  0.0309 -0.5435
 5165SOL    HW127131   2.034   2.614   2.881  0.4534 -0.7401 -0.9284
 5165SOL    HW227132   1.998   2.477   2.878 -0.4119  0.3538 -1.8360
 5166SOL     OW27133   3.387   2.354   6.582 -0.2484  0.2053  0.2222
 5166SOL    HW127134   3.363   2.308   6.663  0.2951  0.5091  0.5606
 5166SOL    HW227135   3.403   2.437   6.627  0.8272 -0.5447  1.2158
 5167SOL     OW27136   0.188   4.526   8.429 -0.5286 -0.3892  1.2042
 5167SOL    HW127137   0.246   4.460   8.467  0.7613 -0.0867 -0.2560
 5167SOL    HW227138   0.109   4.531   8.483 -1.3639  1.0750 -0.1660
 5168SOL     OW27139   0.964   0.407   8.256  0.1044 -0.0757 -0.0983
 5168SOL    HW127140   1.018   0.396   8.178  0.3478  0.0178  0.0548
 5168SOL    HW227141   0.965   0.317   8.287 -0.0453 -0.0636 -0.0566
 5169SOL     OW27142   3.577   2.317   4.565 -0.1181 -0.7056  0.4659
 5169SOL    HW127143   3.518   2.389   4.543  1.2396  0.7521  1.6529
 5169SOL    HW227144   3.630   2.318   4.485 -0.4299  0.8455  0.2773
 5170SOL     OW27145   2.889   1.669   5.949  0.2909  0.1393 -0.1158
 5170SOL    HW127146   2.813   1.683   5.893  0.0163 -2.9394 -0.5037
 5170SOL    HW227147   2.882   1.576   5.971  1.4919  0.3178  1.0118
 5171SOL     OW27148   0.385   0.122   9.042  0.6537 -0.0585 -0.0862
 5171SOL    HW127149   0.429   0.066   8.978  1.4730 -0.1559  0.5505
 5171SOL    HW227150   0.293   0.097   9.040  0.4643  0.7770 -1.3909
 5172SOL     OW27151   3.775   1.710   2.974  0.1570 -0.3109 -0.0206
 5172SOL    HW127152   3.868   1.734   2.974 -0.3895  1.7656 -0.3097
 5172SOL    HW227153   3.738   1.786   3.018 -0.3948 -0.8951  0.5191
 5173SOL     OW27154   3.005   1.387   1.759  0.1401 -0.7585 -0.2863
 5173SOL    HW127155   3.074   1.433   1.807  0.1655 -1.8702  0.7409
 5173SOL    HW227156   3.046   1.302   1.743 -1.0356 -1.0270 -1.8698
 5174SOL     OW27157   0.469   3.332  11.008 -0.3511  0.3422 -0.6078
 5174SOL    HW127158   0.460   3.242  10.979  1.9985 -0.7646  2.0931
 5174SOL    HW227159   0.510   3.321  11.094 -1.0014  0.0644 -0.3352
 5175SOL     OW27160   1.098   4.409   3.009  0.1983 -0.0314  0.2834
 5175SOL    HW127161   1.053   4.347   3.066  0.7161 -1.9427 -1.3949
 5175SOL    HW227162   1.025   4.430   2.951 -1.5119 -2.6822  1.4858
 5176SOL     OW27163   2.165   3.297  11.981  0.8586 -0.0996  0.8847
 5176SOL    HW127164   2.228   3.225  11.989 -1.5021 -2.5413 -2.5219
 5176SOL    HW227165   2.103   3.268  12.048  0.9091 -1.7369  0.2357
 5177SOL     OW27166   4.533   3.494  12.272  0.1433  0.4256 -0.1455
 5177SOL    HW127167   4.507   3.491  12.180 -2.4458 -0.0055  0.5991
 5177SOL    HW227168   4.469   3.555  12.310  0.2698  1.0343 -0.9212
 5178SOL     OW27169   2.215   3.038   5.438  0.5780  0.3581  0.2849
 5178SOL    HW127170   2.230   3.026   5.345  1.0570 -0.7156  0.4964
 5178SOL    HW227171   2.120   3.040   5.439  0.5820  0.8827 -0.4949
 5179SOL     OW27172   3.960   0.985  10.409  0.4985 -0.1573 -0.1045
 5179SOL    HW127173   3.971   1.078  10.389  0.2380 -0.1958 -0.4207
 5179SOL    HW227174   3.990   0.946  10.327 -3.5142 -1.9447 -0.6811
 5180SOL     OW27175   1.819   1.250   4.301  0.0991 -0.1285  0.1040
 5180SOL    HW127176   1.734   1.294   4.311  0.0693 -0.1099 -0.2476
 5180SOL    HW227177   1.878   1.323   4.284  1.5916 -1.5975 -0.9068
 5181SOL     OW27178   2.011   1.721   8.302 -0.4523  0.5316 -0.0608
 5181SOL    HW127179   2.076   1.790   8.319  1.2486 -1.1177  0.1340
 5181SOL    HW227180   1.966   1.751   8.223 -0.0725  1.8275  0.2229
 5182SOL     OW27181   2.859   2.317  14.720  0.0418  0.1511 -0.1285
 5182SOL    HW127182   2.931   2.267  14.759 -1.2741  0.0925  2.2240
 5182SOL    HW227183   2.788   2.257  14.740  0.1868  0.2479  0.6727
 5183SOL     OW27184   2.280   4.556  14.775  0.1006 -0.3469  0.0728
 5183SOL    HW127185   2.306   4.641  14.741 -0.7710  0.2644  0.9143
 5183SOL    HW227186   2.288   4.573  14.869  0.7165  1.2210 -0.2585
 5184SOL     OW27187   2.194   2.837  17.723  0.1593 -0.1185 -0.4767
 5184SOL    HW127188   2.212   2.743  17.729  0.5373  0.0606  1.0547
 5184SOL    HW227189   2.099   2.839  17.711 -0.4097 -1.9201  3.7765
 5185SOL     OW27190   2.717   3.022   4.978 -0.8016  0.5811  0.0262
 5185SOL    HW127191   2.653   3.082   5.015 -0.4436  0.9650  0.0199
 5185SOL    HW227192   2.722   3.048   4.886 -1.5882  0.0078 -0.1801
 5186SOL     OW27193   1.768   0.228  16.928 -0.0011 -0.0007  0.0309
 5186SOL    HW127194   1.678   0.254  16.942 -0.3316 -2.3915  2.3200
 5186SOL    HW227195   1.738   0.157  16.871  0.5619  0.5858 -0.9960
 5187SOL     OW27196   2.385   1.505   6.775  0.6561 -0.1214  0.0623
 5187SOL    HW127197   2.380   1.570   6.705 -0.1861 -1.2973 -0.9605
 5187SOL    HW227198   2.301   1.462   6.757  0.5008 -0.1797  0.9145
 5188SOL     OW27199   1.258   4.574   9.519 -0.0108 -0.2647 -0.4390
 5188SOL    HW127200   1.346   4.550   9.490  0.5073 -0.1079  1.0462
 5188SOL    HW227201   1.216   4.593   9.435  2.0522 -0.3261 -1.4911
 5189SOL     OW27202   3.663   2.474  11.649  0.0665 -0.5350 -0.1101
 5189SOL    HW127203   3.695   2.548  11.702 -0.2222 -0.7249  0.3207
 5189SOL    HW227204   3.582   2.514  11.617 -0.3372 -0.5765  0.8538
 5190SOL     OW27205   0.626   2.006   6.218  0.5899  0.2546 -0.1923
 5190SOL    HW127206   0.532   1.995   6.199  0.4582  1.1410 -0.0484
 5190SOL    HW227207   0.661   1.941   6.157  0.1281 -1.2193  1.1111
 5191SOL     OW27208   0.253   4.030   8.409 -0.0017  0.5288  0.3893
 5191SOL    HW127209   0.190   3.959   8.394  0.1261  0.6108 -0.5799
 5191SOL    HW227210   0.228   4.079   8.330 -0.9188 -1.1962 -0.4145
 5192SOL     OW27211   3.323   3.662  10.233 -0.2790  0.5026  0.4505
 5192SOL    HW127212   3.383   3.596  10.267  1.9612  1.2606 -2.1058
 5192SOL    HW227213   3.262   3.677  10.306 -0.3128 -1.0942  0.7576
 5193SOL     OW27214   0.317   4.323   8.558  0.3548 -0.1638 -0.3338
 5193SOL    HW127215   0.396   4.280   8.525 -0.4280 -1.5345 -0.4229
 5193SOL    HW227216   0.301   4.290   8.647 -0.4692  0.1307 -0.3686
 5194SOL     OW27217   1.469   4.192  11.873 -0.7883 -0.3213 -0.6517
 5194SOL    HW127218   1.421   4.129  11.928  1.0691  0.4736  1.8326
 5194SOL    HW227219   1.516   4.250  11.932 -3.0859  1.0734 -0.1813
 5195SOL     OW27220   0.100   4.732  14.426 -0.0047  0.1956 -0.7414
 5195SOL    HW127221   0.009   0.006  14.401 -0.9485  1.0371  3.2367
 5195SOL    HW227222   0.125   4.706  14.337 -1.3116 -0.1295 -1.0058
 5196SOL     OW27223   1.331   4.109   2.481  0.0318  0.6428  0.3248
 5196SOL    HW127224   1.414   4.063   2.466 -0.6846 -0.9301  1.2526
 5196SOL    HW227225   1.295   4.065   2.558 -1.1476  1.7167  0.3947
 5197SOL     OW27226   2.856   3.609   5.314 -0.4003 -0.1020 -0.4017
 5197SOL    HW127227   2.854   3.644   5.225 -1.0247  0.2844 -0.2369
 5197SOL    HW227228   2.895   3.525   5.289 -0.6078 -0.3224  0.0083
 5198SOL     OW27229   1.749   0.363  12.993 -0.1768  0.3137  0.1674
 5198SOL    HW127230   1.746   0.455  13.018  0.4306  0.6567 -1.0295
 5198SOL    HW227231   1.843   0.348  12.988 -0.9113 -4.3701  0.6652
 5199SOL     OW27232   1.769   4.619   2.537 -0.2367 -0.5566 -0.4448
 5199SOL    HW127233   1.728   4.678   2.601 -0.1744 -1.8622  0.8112
 5199SOL    HW227234   1.784   4.686   2.471 -0.4218 -0.5308 -0.4609
 5200SOL     OW27235   0.077   2.319   4.850  0.0756  0.0488  0.8048
 5200SOL    HW127236   0.047   2.410   4.853 -0.2439 -0.0357  0.0768
 5200SOL    HW227237   0.065   2.307   4.944  1.0378  1.5948  1.1336
 5201SOL     OW27238   4.002   1.494  16.414 -0.3269  0.0166 -0.3429
 5201SOL    HW127239   4.084   1.542  16.417 -1.7342  2.4458 -0.6749
 5201SOL    HW227240   3.972   1.507  16.505 -1.6301  1.9025 -1.0295
 5202SOL     OW27241   1.346   4.214  15.534 -0.0539 -0.2174  0.1351
 5202SOL    HW127242   1.362   4.165  15.454  1.0651  0.5058 -0.0825
 5202SOL    HW227243   1.302   4.154  15.594 -0.0212 -0.3668  0.0094
 5203SOL     OW27244   3.829   0.831   4.751  0.0597 -0.5288 -0.0301
 5203SOL    HW127245   3.894   0.886   4.707  0.7889 -1.2624  0.1366
 5203SOL    HW227246   3.877   0.750   4.764  0.3100 -0.3726  0.0043
 5204SOL     OW27247   3.058   4.645   7.632 -0.1124  0.5521  0.4343
 5204SOL    HW127248   3.133   4.698   7.603  0.3075 -1.4771 -2.2824
 5204SOL    HW227249   3.005   4.702   7.687  0.5809  1.6191  0.0047
 5205SOL     OW27250   2.517   3.227   5.406  0.4075  0.0926  0.1901
 5205SOL    HW127251   2.427   3.218   5.375 -0.1961 -0.3414  2.0377
 5205SOL    HW227252   2.517   3.322   5.417  1.1846  0.1680 -0.4753
 5206SOL     OW27253   3.696   2.554   7.498  0.1178 -0.3104  0.2511
 5206SOL    HW127254   3.621   2.565   7.440  0.3635 -1.3708 -0.2595
 5206SOL    HW227255   3.701   2.644   7.532 -1.3749 -0.3703  0.6341
 5207SOL     OW27256   0.834   3.739   3.820 -0.0316 -0.1430 -0.1339
 5207SOL    HW127257   0.915   3.724   3.772  1.5499  0.5190  2.3128
 5207SOL    HW227258   0.810   3.826   3.788  1.2334  0.0776 -0.4685
 5208SOL     OW27259   3.786   2.026   3.388 -0.3128  0.3751 -0.2023
 5208SOL    HW127260   3.876   2.002   3.409 -0.5846  0.7348  1.3608
 5208SOL    HW227261   3.798   2.089   3.316 -0.7153  0.1305 -0.4845
 5209SOL     OW27262   4.471   3.280   4.766  0.2228  0.6768  0.1404
 5209SOL    HW127263   4.381   3.253   4.747  0.5608 -0.5318  0.2441
 5209SOL    HW227264   4.467   3.373   4.744  0.1108  1.0711  1.7894
 5210SOL     OW27265   2.059   3.155  13.919  0.2778  0.0162 -0.1623
 5210SOL    HW127266   2.085   3.089  13.983 -0.2359  0.7447  0.7902
 5210SOL    HW227267   1.976   3.186  13.955  0.6702  0.7026  0.1481
 5211SOL     OW27268   2.020   0.617   4.551 -0.0334 -0.2145  0.1706
 5211SOL    HW127269   2.080   0.615   4.476 -0.6670  3.5895 -0.3942
 5211SOL    HW227270   2.066   0.547   4.599  1.0246  0.0430 -0.4648
 5212SOL     OW27271   3.934   1.406   7.231 -0.2151 -0.0191 -0.1445
 5212SOL    HW127272   4.015   1.356   7.240 -0.5297 -0.3198  0.9821
 5212SOL    HW227273   3.958   1.471   7.164 -1.1840 -0.8094 -1.2383
 5213SOL     OW27274   2.696   0.808   2.774  0.2687  0.0171  0.6964
 5213SOL    HW127275   2.717   0.816   2.867  3.4278 -1.2296  0.0815
 5213SOL    HW227276   2.683   0.713   2.772 -0.4759  0.1535 -1.1015
 5214SOL     OW27277   2.825   2.782  10.835 -0.1149 -0.0329  0.5038
 5214SOL    HW127278   2.838   2.691  10.808  0.6124  0.1228  0.3139
 5214SOL    HW227279   2.754   2.802  10.775 -0.7069 -3.2688  0.1391
 5215SOL     OW27280   0.030   4.358   9.334  0.2947  0.1372 -0.1294
 5215SOL    HW127281   4.702   4.334   9.399  0.3597 -1.1301 -0.5241
 5215SOL    HW227282   4.728   4.443   9.315  0.3253  0.1129 -0.3049
 5216SOL     OW27283   0.947   3.629   6.873  0.1158  0.2292  0.1816
 5216SOL    HW127284   0.985   3.637   6.786  1.0554 -1.2635  0.4304
 5216SOL    HW227285   0.987   3.708   6.908 -0.2070  0.9627 -1.1236
 5217SOL     OW27286   4.478   2.141   6.123 -0.0311  0.0037  0.5800
 5217SOL    HW127287   4.435   2.219   6.161 -0.3612 -0.9968  2.2673
 5217SOL    HW227288   4.424   2.072   6.162  1.7029 -0.6432  1.8266
 5218SOL     OW27289   2.236   4.308   1.710  0.3321  0.4663 -0.4489
 5218SOL    HW127290   2.272   4.220   1.706  1.0665  0.7503 -0.1653
 5218SOL    HW227291   2.150   4.300   1.753  0.6685 -2.4811 -0.3675
 5219SOL     OW27292   4.174   3.824   6.751 -0.0595  0.0598  0.0347
 5219SOL    HW127293   4.194   3.750   6.694  0.5203  1.0448 -1.0352
 5219SOL    HW227294   4.121   3.782   6.819  0.3170  2.4566  1.7836
 5220SOL     OW27295   2.239   0.168   8.358  0.3025 -0.2353 -0.4259
 5220SOL    HW127296   2.224   0.129   8.444  0.6481  1.5459  0.4467
 5220SOL    HW227297   2.325   0.206   8.374  0.6705 -1.9069  1.5866
 5221SOL     OW27298   1.637   3.912   6.515  0.1433  0.0877 -0.4411
 5221SOL    HW127299   1.665   3.985   6.460 -0.2861  0.7193  0.1789
 5221SOL    HW227300   1.543   3.930   6.518 -0.2068 -1.5762 -1.7014
 5222SOL     OW27301   3.329   4.404   1.772 -0.7655 -0.0128 -0.1653
 5222SOL    HW127302   3.277   4.472   1.816 -2.2851 -0.3542 -1.4177
 5222SOL    HW227303   3.408   4.423   1.823 -0.6728 -0.4099 -0.1648
 5223SOL     OW27304   3.389   1.611   6.555  0.8938 -0.2031 -0.1502
 5223SOL    HW127305   3.477   1.575   6.566  0.4323 -0.9186  1.1380
 5223SOL    HW227306   3.362   1.585   6.467 -1.1285  0.7521  0.1946
 5224SOL     OW27307   1.217   4.619   1.706 -0.6586 -0.4852 -0.3675
 5224SOL    HW127308   1.212   4.663   1.791 -0.4706  0.3013 -0.7588
 5224SOL    HW227309   1.287   4.553   1.711 -0.9814 -0.6105  2.5190
 5225SOL     OW27310   1.431   2.579   4.483  0.2786  0.1806  0.0368
 5225SOL    HW127311   1.340   2.555   4.502  0.8925 -1.9912  0.3248
 5225SOL    HW227312   1.420   2.674   4.483  1.4305  0.3119  1.5185
 5226SOL     OW27313   3.053   3.188   3.984 -0.0138 -0.0015  0.2113
 5226SOL    HW127314   3.112   3.210   4.056 -1.7046  0.3314  1.4981
 5226SOL    HW227315   3.091   3.105   3.955  1.4908  0.6688  0.2992
 5227SOL     OW27316   4.650   0.518   5.766  0.8647  0.1874 -0.3876
 5227SOL    HW127317   4.630   0.599   5.815 -0.6569 -0.3232 -0.1767
 5227SOL    HW227318   4.633   0.453   5.834 -1.5529  0.6970 -0.5150
 5228SOL     OW27319   3.282   3.692   7.186  0.3925 -0.2844  0.4395
 5228SOL    HW127320   3.342   3.636   7.136  1.2128 -0.8447  2.0571
 5228SOL    HW227321   3.303   3.658   7.273  1.2679 -3.4516 -0.9992
 5229SOL     OW27322   2.955   0.810   7.180  0.3436  0.3863 -0.0652
 5229SOL    HW127323   2.951   0.905   7.169 -0.5855  0.4504  0.9243
 5229SOL    HW227324   3.050   0.797   7.171  0.3394  0.5373 -0.3160
 5230SOL     OW27325   3.588   3.236   3.856  0.3498  0.0260 -0.4950
 5230SOL    HW127326   3.673   3.280   3.860  0.7401 -0.6774 -1.0450
 5230SOL    HW227327   3.562   3.287   3.932 -2.1263  0.5492 -1.6959
 5231SOL     OW27328   1.688   3.310  14.231 -0.0468  0.2156  0.2391
 5231SOL    HW127329   1.600   3.330  14.201  0.5755 -0.3871 -1.9611
 5231SOL    HW227330   1.723   3.285  14.145  0.2498 -0.9956  0.7040
 5232SOL     OW27331   2.112   4.169   7.114 -0.4196  0.5707 -0.3424
 5232SOL    HW127332   2.059   4.205   7.042  0.1821  0.1188 -1.0174
 5232SOL    HW227333   2.084   4.078   7.120 -1.4696  0.9077 -0.2626
 5233SOL     OW27334   2.968   2.622  13.694  0.2128  0.1634  0.2723
 5233SOL    HW127335   2.937   2.556  13.632 -1.7940 -1.5033  3.0721
 5233SOL    HW227336   3.063   2.609  13.695  0.1770 -0.0631  0.6085
 5234SOL     OW27337   2.244   4.160  17.048  0.6078 -0.3039  0.0066
 5234SOL    HW127338   2.153   4.150  17.076  0.4508 -0.6024 -0.6165
 5234SOL    HW227339   2.264   4.250  17.076 -0.6045  0.8130 -2.7052
 5235SOL     OW27340   0.608   3.904   2.615 -0.0028  0.0559 -0.4543
 5235SOL    HW127341   0.622   3.809   2.612 -1.3199 -0.1849  0.9562
 5235SOL    HW227342   0.538   3.916   2.550 -1.7158 -0.5867  1.2696
 5236SOL     OW27343   4.511   2.531   6.820  0.5287 -0.2707 -0.7380
 5236SOL    HW127344   4.481   2.621   6.829  1.2987 -0.4771  3.8757
 5236SOL    HW227345   4.474   2.501   6.737  0.8322 -0.3930 -0.8275
 5237SOL     OW27346   0.969   2.994   8.592 -0.8785 -0.2206 -0.3141
 5237SOL    HW127347   0.928   2.908   8.605  0.8137 -1.1955 -1.4590
 5237SOL    HW227348   0.940   3.045   8.668 -0.3908  1.1494 -1.0486
 5238SOL     OW27349   0.683   4.250   7.155 -0.4933 -0.2708  0.6868
 5238SOL    HW127350   0.620   4.194   7.201 -1.8179  0.3057 -0.4278
 5238SOL    HW227351   0.651   4.340   7.165  0.6941  0.2987 -0.6556
 5239SOL     OW27352   0.154   3.255   6.106  0.0769 -0.4614  0.2660
 5239SOL    HW127353   0.243   3.219   6.110  0.4903  0.5006 -0.1573
 5239SOL    HW227354   0.129   3.244   6.198 -2.2615  1.2151 -0.1753
 5240SOL     OW27355   4.359   2.432   0.346 -0.0722 -0.0387  0.2160
 5240SOL    HW127356   4.433   2.372   0.359 -1.0617 -1.3266 -0.0513
 5240SOL    HW227357   4.366   2.445   0.252 -0.9626 -3.3810 -0.3016
 5241SOL     OW27358   2.173   3.483   7.794  0.0813 -0.0958  0.0123
 5241SOL    HW127359   2.142   3.394   7.777 -0.6164  0.4626 -1.7507
 5241SOL    HW227360   2.256   3.466   7.838  0.3649 -1.2165 -0.9417
 5242SOL     OW27361   2.955   0.828  13.786 -0.3306  0.0179  0.3666
 5242SOL    HW127362   2.863   0.802  13.785 -0.7988  1.6394  0.8644
 5242SOL    HW227363   3.003   0.756  13.827  0.5077 -0.7671 -2.0201
 5243SOL     OW27364   0.702   4.174   3.404  0.0516 -0.2736 -0.7450
 5243SOL    HW127365   0.659   4.129   3.331  1.2509 -0.1331 -1.5429
 5243SOL    HW227366   0.694   4.264   3.370 -2.1608  1.3033  3.9973
 5244SOL     OW27367   2.919   1.411  11.037 -0.4610 -0.0941  0.1767
 5244SOL    HW127368   2.889   1.461  10.961 -0.3344 -0.2373  0.0328
 5244SOL    HW227369   2.880   1.465  11.106 -1.9010  1.1596 -1.6137
 5245SOL     OW27370   2.868   2.860  15.561 -0.1257  0.7074 -0.4810
 5245SOL    HW127371   2.824   2.936  15.521  0.1516  2.0510  1.7953
 5245SOL    HW227372   2.958   2.889  15.548 -0.0489  0.5215 -0.3596
 5246SOL     OW27373   4.252   2.803   3.311  0.2232  0.6771  0.3825
 5246SOL    HW127374   4.173   2.749   3.322 -0.0666  1.1095  0.4397
 5246SOL    HW227375   4.314   2.739   3.344 -0.0536  0.7013  0.9572
 5247SOL     OW27376   4.607   0.478   6.491 -0.6802 -0.5134 -0.4139
 5247SOL    HW127377   4.597   0.447   6.401  0.8950 -0.2189 -0.6816
 5247SOL    HW227378   4.561   0.562   6.487  1.6114  0.6338 -2.1472
 5248SOL     OW27379   4.094   1.063  16.783 -0.6465  0.3482  0.2763
 5248SOL    HW127380   4.030   1.088  16.716 -1.2391 -0.5545  0.5059
 5248SOL    HW227381   4.131   1.151  16.790 -1.9661  0.9146  0.0512
 5249SOL     OW27382   0.933   3.542   9.440 -0.1166 -0.0834  0.1833
 5249SOL    HW127383   0.860   3.589   9.481  0.3484 -0.3670  1.3344
 5249SOL    HW227384   0.935   3.454   9.478  0.6773 -0.0152  0.2863
 5250SOL     OW27385   0.367   0.761   1.527  0.1367 -0.1726  0.1092
 5250SOL    HW127386   0.358   0.819   1.602 -0.2585 -1.5608  1.1158
 5250SOL    HW227387   0.462   0.767   1.518  0.3649  0.3038  3.0774
 5251SOL     OW27388   3.624   2.827   4.310 -0.1370 -0.3587 -0.0811
 5251SOL    HW127389   3.693   2.886   4.282  0.5178 -1.2210 -0.3028
 5251SOL    HW227390   3.664   2.740   4.300 -1.9937 -0.9452 -2.3551
 5252SOL     OW27391   1.306   4.413   3.668 -0.2801  0.1603 -0.2503
 5252SOL    HW127392   1.326   4.502   3.640  0.3427 -0.2751 -1.1959
 5252SOL    HW227393   1.363   4.369   3.605 -0.9934 -1.7122  0.3942
 5253SOL     OW27394   0.974   2.216   3.286 -0.6873  0.2776 -0.3959
 5253SOL    HW127395   0.927   2.299   3.279  0.3558  0.7418 -1.7936
 5253SOL    HW227396   1.025   2.233   3.207  1.5500  0.8740  1.1993
 5254SOL     OW27397   3.391   3.891   5.025 -0.2182 -0.5430 -0.2151
 5254SOL    HW127398   3.441   3.851   4.955 -1.7159 -0.9354 -1.0667
 5254SOL    HW227399   3.390   3.826   5.096 -4.1452 -1.1205 -0.7759
 5255SOL     OW27400   0.265   3.621   4.674 -0.0869 -0.1283  0.5845
 5255SOL    HW127401   0.170   3.628   4.663  0.2082 -0.4994 -2.1948
 5255SOL    HW227402   0.294   3.657   4.590  0.2718  0.2804  0.8814
 5256SOL     OW27403   0.975   4.177   3.858  0.3707 -0.3861 -0.0399
 5256SOL    HW127404   0.998   4.136   3.775  1.6370 -2.9328  1.5676
 5256SOL    HW227405   1.048   4.152   3.913  0.6952 -2.6149 -1.4976
 5257SOL     OW27406   3.870   3.219  14.030 -0.1469  0.3943 -0.2970
 5257SOL    HW127407   3.802   3.284  14.015  0.2611  0.9467  0.2123
 5257SOL    HW227408   3.936   3.243  13.965  0.9567  0.8016  0.9478
 5258SOL     OW27409   0.731   4.026  15.717  0.3298  0.0941  0.7139
 5258SOL    HW127410   0.761   3.943  15.679  3.6610  2.8425 -2.7370
 5258SOL    HW227411   0.664   3.996  15.779  0.5954 -0.3828  0.7673
 5259SOL     OW27412   0.923   1.229   4.601  0.2740 -0.4264  0.5434
 5259SOL    HW127413   0.837   1.271   4.593 -0.1658 -1.3498  0.3547
 5259SOL    HW227414   0.916   1.171   4.525 -0.6382 -0.5202  0.6931
 5260SOL     OW27415   0.824   2.465   2.976  0.1251 -0.3066  0.4622
 5260SOL    HW127416   0.864   2.378   2.981 -1.3793 -1.1720 -2.6348
 5260SOL    HW227417   0.737   2.439   3.008  0.6273 -1.8009  0.5827
 5261SOL     OW27418   3.007   1.561  13.837 -0.0432 -0.5279 -0.9034
 5261SOL    HW127419   3.079   1.622  13.853 -1.6022  1.4669 -1.5033
 5261SOL    HW227420   2.942   1.608  13.889  0.4847 -0.6826 -0.1102
 5262SOL     OW27421   0.241   3.541   1.862  0.5357 -0.0762 -0.1719
 5262SOL    HW127422   0.198   3.559   1.945  2.2089 -0.4134  0.7576
 5262SOL    HW227423   0.322   3.504   1.897 -0.0747 -0.1014  1.2215
 5263SOL     OW27424   1.504   0.264   9.199 -0.4509 -0.6337  0.0153
 5263SOL    HW127425   1.579   0.303   9.154 -1.5163  0.2971 -0.9749
 5263SOL    HW227426   1.553   0.203   9.254  1.8142  0.2361 -1.0488
 5264SOL     OW27427   1.101   0.866   4.943 -0.3032 -0.0516  0.5033
 5264SOL    HW127428   1.008   0.889   4.940 -0.0726  0.5778 -1.5564
 5264SOL    HW227429   1.114   0.871   4.849  0.0810  0.9457  0.6143
 5265SOL     OW27430   4.409   3.697  11.116 -0.2356 -0.1253 -0.3475
 5265SOL    HW127431   4.404   3.665  11.027  0.6762 -0.6000 -0.2293
 5265SOL    HW227432   4.502   3.697  11.140 -0.0276 -0.3750 -1.1633
 5266SOL     OW27433   0.682   2.983   8.340  0.3511  0.3907  0.2494
 5266SOL    HW127434   0.654   2.920   8.405 -1.4318  0.1388 -0.7630
 5266SOL    HW227435   0.662   2.953   8.251 -0.2116 -0.5482  0.6984
 5267SOL     OW27436   3.505   4.121   8.096 -0.7064 -0.5399 -0.8082
 5267SOL    HW127437   3.461   4.044   8.061 -1.8464 -0.8814  1.3604
 5267SOL    HW227438   3.594   4.087   8.106 -0.4810 -0.0098 -1.0024
 5268SOL     OW27439   2.406   0.315   2.762  0.0633  0.4228  0.3708
 5268SOL    HW127440   2.403   0.220   2.772  2.8236  0.2388 -0.5092
 5268SOL    HW227441   2.313   0.334   2.774  0.8853  3.0996  2.6443
 5269SOL     OW27442   0.917   0.648   0.717  0.2661  0.2143 -0.1251
 5269SOL    HW127443   0.895   0.672   0.627  0.1323 -0.4483 -0.2698
 5269SOL    HW227444   1.005   0.686   0.717 -0.3476  1.6471 -0.3118
 5270SOL     OW27445   3.627   0.302   1.918  0.2259  0.5376  0.4121
 5270SOL    HW127446   3.684   0.281   1.844 -0.8102 -1.2601  0.1146
 5270SOL    HW227447   3.584   0.217   1.917 -1.1982  1.2636 -0.0627
 5271SOL     OW27448   2.141   0.298   6.121  0.2645  0.0736 -0.0984
 5271SOL    HW127449   2.086   0.226   6.153 -1.0932 -0.2286 -3.1187
 5271SOL    HW227450   2.176   0.256   6.043 -1.4717 -1.7238  0.0903
 5272SOL     OW27451   2.643   1.175  11.555  0.5263  1.0462 -0.0598
 5272SOL    HW127452   2.619   1.099  11.609 -0.7259  2.6037  1.5840
 5272SOL    HW227453   2.580   1.239  11.588 -0.9778 -1.1051  1.2217
 5273SOL     OW27454   1.179   2.108   5.088  0.6458 -0.0669  0.1520
 5273SOL    HW127455   1.197   2.034   5.029  2.6406  0.2227  0.3711
 5273SOL    HW227456   1.218   2.075   5.169  1.6995  0.6255 -0.0714
 5274SOL     OW27457   0.696   3.225   5.999 -0.0253  0.1011 -0.2013
 5274SOL    HW127458   0.775   3.277   6.016 -0.2686  0.4846 -0.2394
 5274SOL    HW227459   0.636   3.300   5.999 -1.1962 -0.8471 -0.5932
 5275SOL     OW27460   2.579   3.082   7.967  0.1810 -0.2749 -0.0834
 5275SOL    HW127461   2.597   3.134   8.045  2.1779 -0.0662 -0.6887
 5275SOL    HW227462   2.662   3.036   7.963 -0.3197 -1.0290 -2.1809
 5276SOL     OW27463   1.960   3.377   4.612  0.1425 -0.1897  0.2737
 5276SOL    HW127464   1.881   3.387   4.664 -0.5425 -0.9712 -0.6237
 5276SOL    HW227465   1.919   3.408   4.531 -2.9288  0.7210  2.1852
 5277SOL     OW27466   0.160   0.628  17.379 -0.1990 -0.3238  0.9673
 5277SOL    HW127467   0.154   0.538  17.347  1.1870  1.4847 -4.3140
 5277SOL    HW227468   0.074   0.664  17.358  0.3855  0.9676  0.7994
 5278SOL     OW27469   2.363   1.295   7.935  0.0262  0.1464 -0.4240
 5278SOL    HW127470   2.321   1.209   7.948  1.6843 -0.9095 -2.1045
 5278SOL    HW227471   2.386   1.302   7.842  0.8730 -2.7243 -0.4386
 5279SOL     OW27472   2.057   0.201   4.813  0.2294  0.6688 -0.3825
 5279SOL    HW127473   2.069   0.186   4.907 -1.9396  0.7623 -0.0971
 5279SOL    HW227474   1.963   0.186   4.812  0.2604  0.2925  2.3396
 5280SOL     OW27475   0.608   4.288   1.881 -0.1145 -0.2859 -0.2229
 5280SOL    HW127476   0.695   4.329   1.886  0.2063 -0.8186 -1.4277
 5280SOL    HW227477   0.604   4.239   1.963 -0.6627 -0.8904 -0.6123
 5281SOL     OW27478   2.050   3.980   3.609  0.0828 -0.0374 -0.3520
 5281SOL    HW127479   2.044   3.951   3.517  1.4245 -0.3773 -0.3292
 5281SOL    HW227480   2.085   3.897   3.642 -0.5239 -0.1382  0.0240
 5282SOL     OW27481   4.502   1.600   3.256  0.0099  0.3703 -0.4487
 5282SOL    HW127482   4.560   1.662   3.300 -1.3178  0.8144  0.6865
 5282SOL    HW227483   4.477   1.651   3.179 -1.2715 -0.9018 -0.8791
 5283SOL     OW27484   1.848   1.916   7.589  0.0529 -0.2073 -0.1267
 5283SOL    HW127485   1.866   1.988   7.529  0.8555 -2.5311 -2.6503
 5283SOL    HW227486   1.915   1.864   7.544  2.1470  1.3873  1.1545
 5284SOL     OW27487   1.196   2.685   7.969  0.0485 -0.4082 -0.2433
 5284SOL    HW127488   1.195   2.725   7.882  1.7008  1.6170  0.6422
 5284SOL    HW227489   1.288   2.658   7.975  0.0030  0.0423  2.5948
 5285SOL     OW27490   3.713   2.351   7.277 -0.0643  0.4502 -0.0898
 5285SOL    HW127491   3.729   2.291   7.350 -0.0909 -0.8430 -1.1594
 5285SOL    HW227492   3.762   2.429   7.304  0.0039 -0.0706  1.2748
 5286SOL     OW27493   3.044   1.057  16.804  0.4483  0.4858  0.2711
 5286SOL    HW127494   3.005   1.088  16.722  0.8217  0.8266  0.2224
 5286SOL    HW227495   3.070   1.143  16.838  1.1539  0.5333 -0.3809
 5287SOL     OW27496   3.428   2.190   2.879  0.4319 -0.0617  0.1491
 5287SOL    HW127497   3.366   2.127   2.844  0.2441 -0.2031  0.7362
 5287SOL    HW227498   3.422   2.163   2.970 -0.4057  0.0467  0.1258
 5288SOL     OW27499   0.051   1.514   7.120 -0.0599  0.0278  0.3387
 5288SOL    HW127500   0.143   1.532   7.099  0.6041 -3.5309  0.2660
 5288SOL    HW227501   0.045   1.423   7.092  2.2374  0.9830 -3.2967
 5289SOL     OW27502   2.766   1.571  10.865 -0.2071  0.2480 -0.4504
 5289SOL    HW127503   2.784   1.527  10.782 -1.1348 -1.1889  0.1072
 5289SOL    HW227504   2.795   1.658  10.839 -1.0222  0.4543 -0.6643
 5290SOL     OW27505   2.330   3.880   5.822 -0.2352 -0.2626  0.4247
 5290SOL    HW127506   2.403   3.841   5.774  0.0591 -0.1116  0.7456
 5290SOL    HW227507   2.254   3.844   5.777 -0.1882 -1.1431  1.0433
 5291SOL     OW27508   3.932   3.979   6.162 -0.2634 -0.4283 -0.1739
 5291SOL    HW127509   3.897   3.912   6.103 -2.1717  0.5059 -0.1276
 5291SOL    HW227510   4.000   4.015   6.104  2.6795 -1.5273  2.6301
 5292SOL     OW27511   3.363   2.731   9.849 -0.6273  0.4317 -0.7718
 5292SOL    HW127512   3.321   2.668   9.790  0.2474  0.2913 -1.2355
 5292SOL    HW227513   3.309   2.712   9.926  0.9311 -1.3747 -0.1357
 5293SOL     OW27514   3.244   0.842   5.823  0.5644  0.7241  0.1809
 5293SOL    HW127515   3.266   0.892   5.745 -0.9988 -1.2898 -1.5748
 5293SOL    HW227516   3.332   0.839   5.859  0.8469 -0.9683 -0.6247
 5294SOL     OW27517   0.585   3.238  11.245  0.0254  0.3568  0.0054
 5294SOL    HW127518   0.640   3.315  11.262  0.3966  0.4275 -1.5637
 5294SOL    HW227519   0.646   3.172  11.278  0.1228 -0.0578 -1.0218
 5295SOL     OW27520   0.564   2.077   0.192  0.1843 -0.7026  0.0877
 5295SOL    HW127521   0.555   2.121   0.107  1.6747  0.6818  0.6358
 5295SOL    HW227522   0.473   2.064   0.218 -0.2378 -0.9884 -1.5311
 5296SOL     OW27523   4.415   0.137  11.971  0.2831  0.3451 -0.3779
 5296SOL    HW127524   4.481   0.115  11.904  0.9719 -1.2501  0.8213
 5296SOL    HW227525   4.346   0.075  11.949  0.0689  1.1777 -2.0501
 5297SOL     OW27526   0.319   1.590   8.185 -0.0766  0.6241 -0.1972
 5297SOL    HW127527   0.341   1.500   8.209  0.5810 -0.0012 -3.2143
 5297SOL    HW227528   0.224   1.593   8.176  0.2072  3.2736 -2.2144
 5298SOL     OW27529   0.633   1.609  11.644 -0.3848  0.0282 -0.8221
 5298SOL    HW127530   0.714   1.633  11.598  0.7671 -1.9980  0.1764
 5298SOL    HW227531   0.593   1.541  11.590 -2.3777 -1.3756  2.4779
 5299SOL     OW27532   0.881   4.374   2.812  0.2802  0.2456 -0.2236
 5299SOL    HW127533   0.895   4.436   2.740 -0.4130 -0.6203 -1.1092
 5299SOL    HW227534   0.814   4.309   2.789 -0.2315 -0.2191  2.5945
 5300SOL     OW27535   0.667   0.381   8.383  0.1484 -0.0463  0.1797
 5300SOL    HW127536   0.757   0.388   8.350  0.3268 -0.8196  0.4990
 5300SOL    HW227537   0.669   0.302   8.437  2.0388 -0.2450 -0.1703
 5301SOL     OW27538   3.191   2.661   7.306  0.3140  0.0453  0.6181
 5301SOL    HW127539   3.160   2.714   7.232  0.4726 -0.9010 -0.1392
 5301SOL    HW227540   3.141   2.580   7.312 -1.2225  0.9416 -0.1133
 5302SOL     OW27541   4.305   4.298   6.884  0.1198 -0.0994 -0.2895
 5302SOL    HW127542   4.224   4.313   6.932 -0.2937 -0.5787 -0.8449
 5302SOL    HW227543   4.273   4.239   6.816 -0.8478  1.0490 -0.8099
 5303SOL     OW27544   1.814   0.336   3.883  0.8156  0.3381 -0.0630
 5303SOL    HW127545   1.756   0.292   3.946  0.6592  2.7915  1.5290
 5303SOL    HW227546   1.876   0.267   3.859  0.3434  0.3724 -1.3788
 5304SOL     OW27547   2.575   3.061   3.867  0.0604 -0.3393  0.2572
 5304SOL    HW127548   2.625   2.995   3.820  1.0823 -0.0501  0.9614
 5304SOL    HW227549   2.505   3.015   3.914  0.6669 -1.0160  0.4898
 5305SOL     OW27550   4.272   1.884  10.736 -0.1720 -0.2563  0.3986
 5305SOL    HW127551   4.245   1.797  10.704 -0.1760 -0.3418  0.6310
 5305SOL    HW227552   4.338   1.851  10.797 -2.5172  0.2367  3.1945
 5306SOL     OW27553   1.072   1.757   4.763  0.1910 -0.0355 -0.4646
 5306SOL    HW127554   1.038   1.701   4.694 -0.4344  0.4027 -0.5139
 5306SOL    HW227555   1.161   1.725   4.779  1.3917  3.8028  0.7761
 5307SOL     OW27556   3.361   2.422   7.119 -0.1149 -0.1987 -0.5115
 5307SOL    HW127557   3.448   2.398   7.087  0.0635  0.3097 -0.4062
 5307SOL    HW227558   3.378   2.517   7.116 -1.2182  0.0728  1.8673
 5308SOL     OW27559   1.926   4.555  13.697 -0.7121  0.0250  0.1097
 5308SOL    HW127560   1.852   4.512  13.739  0.0612 -2.0195 -0.6000
 5308SOL    HW227561   1.921   4.526  13.606  0.4249  0.4745 -0.1027
 5309SOL     OW27562   0.621   3.275  10.637  0.1255  0.4600  0.0668
 5309SOL    HW127563   0.683   3.262  10.710 -1.5629  0.0631  1.4341
 5309SOL    HW227564   0.598   3.368  10.640  1.3794  0.7343  1.3207
 5310SOL     OW27565   4.008   4.474  14.947 -0.1551 -0.0146  0.0558
 5310SOL    HW127566   3.916   4.492  14.927 -0.1107  2.1316  1.7568
 5310SOL    HW227567   4.007   4.381  14.924  0.3028 -0.5597  2.2121
 5311SOL     OW27568   3.341   1.226   3.677 -0.0323 -0.6556 -0.4600
 5311SOL    HW127569   3.349   1.148   3.732  0.0608 -0.8433 -0.7399
 5311SOL    HW227570   3.283   1.285   3.725 -0.4512  0.0695 -1.8603
 5312SOL     OW27571   0.733   3.713  16.473 -0.1545  0.3535 -0.1457
 5312SOL    HW127572   0.740   3.808  16.480  2.1568  0.3957 -2.8905
 5312SOL    HW227573   0.663   3.715  16.408  0.0618  0.9946 -0.3537
 5313SOL     OW27574   2.297   2.424   2.367 -0.3252  0.0768  0.1903
 5313SOL    HW127575   2.302   2.501   2.424 -0.0847 -0.9658  1.5661
 5313SOL    HW227576   2.342   2.354   2.414 -0.4608 -1.3762 -1.8604
 5314SOL     OW27577   0.517   2.665   3.218  0.5298  0.4739 -0.0514
 5314SOL    HW127578   0.544   2.736   3.160 -0.8313  0.8835 -0.1802
 5314SOL    HW227579   0.549   2.588   3.171  1.1234  0.7200 -0.0452
 5315SOL     OW27580   0.674   0.415   1.453  0.2181  0.2560  0.3092
 5315SOL    HW127581   0.666   0.322   1.472  3.2947 -0.0875 -0.0184
 5315SOL    HW227582   0.659   0.410   1.359  1.7810  0.5536  0.0492
 5316SOL     OW27583   4.455   4.526   3.264  0.1049 -0.3944  0.8484
 5316SOL    HW127584   4.404   4.500   3.341 -0.8627 -1.1334 -0.0430
 5316SOL    HW227585   4.511   4.598   3.294 -1.2136  0.9129  0.1658
 5317SOL     OW27586   4.419   3.745   8.257  0.7889  0.2550 -0.3761
 5317SOL    HW127587   4.446   3.803   8.329 -1.3356 -0.2687  0.8441
 5317SOL    HW227588   4.327   3.737   8.284  0.7840 -0.4571 -0.6087
 5318SOL     OW27589   3.964   3.390  15.319 -0.4147  0.0718  0.3604
 5318SOL    HW127590   3.883   3.354  15.283 -1.2400  1.0268  1.2883
 5318SOL    HW227591   3.941   3.483  15.319 -1.4095 -0.1857  2.7733
 5319SOL     OW27592   3.437   4.007  15.881 -0.1021  0.3383  0.0290
 5319SOL    HW127593   3.473   4.037  15.797  0.9172 -1.8407 -0.2996
 5319SOL    HW227594   3.349   3.982  15.851 -0.3014  0.4457  0.5229
 5320SOL     OW27595   1.417   3.413   0.172 -0.8388  0.2114 -0.5683
 5320SOL    HW127596   1.329   3.451   0.170 -1.1432 -0.3894  1.8886
 5320SOL    HW227597   1.470   3.490   0.150 -0.4359  0.1425  0.1535
 5321SOL     OW27598   3.586   3.510   2.937 -0.4258 -0.2166  0.0450
 5321SOL    HW127599   3.649   3.551   2.996  0.4447 -0.3882 -0.7579
 5321SOL    HW227600   3.642   3.438   2.908 -2.1555 -1.8666  0.8074
 5322SOL     OW27601   0.198   0.928   2.873 -0.4194 -0.0437 -0.2583
 5322SOL    HW127602   0.267   0.878   2.829  0.0307  1.4140 -1.1906
 5322SOL    HW227603   0.230   1.016   2.855  1.3395 -0.5293  0.5100
 5323SOL     OW27604   3.497   3.533   0.638 -0.2466  0.1695  0.2513
 5323SOL    HW127605   3.528   3.486   0.561 -0.7849 -1.6112  1.1395
 5323SOL    HW227606   3.462   3.601   0.581  3.6276  2.4374  0.5637
 5324SOL     OW27607   4.353   4.698   6.659  0.7256 -0.1996 -0.2097
 5324SOL    HW127608   4.404   4.655   6.728  0.2489 -0.7943 -0.2298
 5324SOL    HW227609   4.363   4.626   6.597  0.7682 -0.0838 -0.3387
 5325SOL     OW27610   4.701   0.341   8.544  0.2512  0.3224 -1.0238
 5325SOL    HW127611   4.635   0.397   8.583  1.7223  0.5222  1.1381
 5325SOL    HW227612   4.715   0.281   8.617 -2.6228 -1.6493 -2.0794
 5326SOL     OW27613   3.991   2.450   5.776 -0.2404  0.1874  0.0509
 5326SOL    HW127614   4.060   2.406   5.725 -1.0189 -0.4883 -0.4262
 5326SOL    HW227615   4.008   2.399   5.856  1.2116 -2.0970 -1.7094
 5327SOL     OW27616   1.824   4.542   2.937 -0.2389 -0.0550  0.2502
 5327SOL    HW127617   1.847   4.619   2.989 -0.5874 -0.4528  0.9797
 5327SOL    HW227618   1.760   4.496   2.991 -0.2443 -0.0944  0.2105
 5328SOL     OW27619   1.548   0.745  17.154 -0.0490 -0.1759  0.1719
 5328SOL    HW127620   1.577   0.835  17.139  0.4952 -0.5094 -0.7975
 5328SOL    HW227621   1.471   0.756  17.208  1.7207 -0.2739  2.7108
 5329SOL     OW27622   2.483   4.493   1.749  0.2984 -0.2028  0.6452
 5329SOL    HW127623   2.504   4.551   1.822  0.9003 -1.0126  1.1120
 5329SOL    HW227624   2.390   4.506   1.731  0.8826 -0.0978 -2.3844
 5330SOL     OW27625   1.499   1.393   4.857 -0.0292 -0.2065 -0.4015
 5330SOL    HW127626   1.439   1.326   4.888  4.7096 -1.8701  5.0808
 5330SOL    HW227627   1.437   1.442   4.803 -0.4808 -0.8824 -0.4872
 5331SOL     OW27628   2.171   3.694   5.375 -0.6146 -0.0404  0.1944
 5331SOL    HW127629   2.267   3.700   5.366 -0.4777  1.0279  2.2873
 5331SOL    HW227630   2.160   3.603   5.348 -0.1604  0.2625 -1.0243
 5332SOL     OW27631   1.347   4.463   7.739 -0.3883 -0.3133 -0.3270
 5332SOL    HW127632   1.382   4.459   7.828 -0.0121 -1.1064 -0.5094
 5332SOL    HW227633   1.273   4.520   7.759  0.4058  1.4764 -2.3830
 5333SOL     OW27634   0.951   3.296   9.199  0.0265 -0.0284  0.5836
 5333SOL    HW127635   1.022   3.273   9.258 -0.2001 -1.2447  0.3847
 5333SOL    HW227636   0.907   3.211   9.191 -1.1084  0.7282 -1.4690
 5334SOL     OW27637   0.542   1.990   4.614  0.0792  0.1739 -0.1676
 5334SOL    HW127638   0.554   2.083   4.635 -0.7210 -0.0593  1.2979
 5334SOL    HW227639   0.471   1.965   4.673  0.5849 -1.1006 -0.0952
 5335SOL     OW27640   2.522   1.437  10.868 -0.4278 -0.2217 -0.2883
 5335SOL    HW127641   2.611   1.474  10.866  0.4565 -2.3515 -0.7138
 5335SOL    HW227642   2.515   1.429  10.963  0.8880 -2.2929 -0.3589
 5336SOL     OW27643   2.553   3.889   6.301 -0.1872  0.0218  0.3785
 5336SOL    HW127644   2.484   3.913   6.240 -1.0870  0.1279  1.4318
 5336SOL    HW227645   2.483   3.861   6.361 -0.7569 -0.8210 -0.6939
 5337SOL     OW27646   1.627   1.545   5.356 -0.1895 -0.4945  0.4621
 5337SOL    HW127647   1.659   1.482   5.292 -1.1552  0.1733 -0.7053
 5337SOL    HW227648   1.619   1.487   5.431 -1.5434 -0.4051  0.3899
 5338SOL     OW27649   2.095   4.623   9.910  0.1412  0.1469 -0.0757
 5338SOL    HW127650   2.064   4.552   9.965  2.3251  1.2518  2.5835
 5338SOL    HW227651   2.139   4.685   9.968  0.8744 -1.5725  1.1698
 5339SOL     OW27652   1.377   3.316   8.015  0.5909 -0.4275 -0.1551
 5339SOL    HW127653   1.448   3.335   7.954  2.5186 -0.4605  2.0687
 5339SOL    HW227654   1.413   3.240   8.062  1.8530  0.3714  0.1365
 5340SOL     OW27655   2.206   4.723   4.668  0.4625 -0.6127  0.2858
 5340SOL    HW127656   2.265   4.698   4.739  1.3091  2.0329  0.5164
 5340SOL    HW227657   2.164   0.050   4.725  1.9662 -0.5644  1.3458
 5341SOL     OW27658   3.695   1.066   6.610  0.1232 -0.0588  0.7072
 5341SOL    HW127659   3.680   0.984   6.565  0.0424  1.0880 -1.3376
 5341SOL    HW227660   3.652   1.120   6.544  0.2026 -0.3837  0.3907
 5342SOL     OW27661   4.563   3.495   8.925 -0.0512  0.4020 -0.1037
 5342SOL    HW127662   4.548   3.508   9.019 -1.8996  3.0457 -0.7591
 5342SOL    HW227663   4.615   3.574   8.909  0.4017 -0.3928 -2.6096
 5343SOL     OW27664   3.555   0.255   3.236  0.0182 -0.0623 -0.0348
 5343SOL    HW127665   3.526   0.168   3.208  0.0118 -0.7066  1.9480
 5343SOL    HW227666   3.645   0.242   3.265 -0.4976  0.4236  1.7879
 5344SOL     OW27667   3.199   0.110  12.129  0.2015  0.1228 -0.1412
 5344SOL    HW127668   3.253   0.189  12.130  2.4969 -1.4697  1.1390
 5344SOL    HW227669   3.114   0.150  12.117 -0.3002 -1.4958 -2.1595
 5345SOL     OW27670   1.150   4.017   3.655  0.0559 -0.0232 -0.2185
 5345SOL    HW127671   1.212   4.021   3.582 -0.9468  1.6724 -0.9760
 5345SOL    HW227672   1.069   4.019   3.603 -1.4487  0.6694  2.1399
 5346SOL     OW27673   1.267   0.114   4.562  0.0495 -0.0761 -0.2339
 5346SOL    HW127674   1.270   0.206   4.534  1.0084 -0.3781 -1.1060
 5346SOL    HW227675   1.184   0.085   4.524 -0.0351 -0.7899  0.5077
 5347SOL     OW27676   0.955   3.262  12.800  0.7112 -0.0790  0.5457
 5347SOL    HW127677   0.940   3.195  12.867 -0.6632 -1.2679 -0.9497
 5347SOL    HW227678   0.871   3.307  12.801  0.6430 -0.2228  1.5222
 5348SOL     OW27679   2.893   4.338   9.431  0.4097  0.0902  0.2622
 5348SOL    HW127680   2.839   4.360   9.355  2.5244  0.0681 -1.2518
 5348SOL    HW227681   2.949   4.279   9.380 -0.2659  1.2491 -1.8073
 5349SOL     OW27682   2.837   0.809   8.777 -0.3736  0.5163 -0.2713
 5349SOL    HW127683   2.925   0.771   8.785 -1.0949 -0.8835  1.1145
 5349SOL    HW227684   2.819   0.830   8.868  0.7813 -0.0932  0.1061
 5350SOL     OW27685   0.676   3.237  17.361  0.7047 -0.3714  0.1577
 5350SOL    HW127686   0.582   3.229  17.345  0.5546 -0.1864  0.9639
 5350SOL    HW227687   0.707   3.248  17.271  1.1558  0.5843  0.4258
 5351SOL     OW27688   0.286   4.286   9.681  0.1331 -0.1155  0.8471
 5351SOL    HW127689   0.257   4.237   9.758 -0.3853 -0.3917  0.4775
 5351SOL    HW227690   0.338   4.348   9.732 -0.3285 -1.1371  2.5506
 5352SOL     OW27691   0.691   4.225  10.977  0.1453 -0.4400 -0.7404
 5352SOL    HW127692   0.721   4.310  10.943 -0.5807 -0.6503 -1.9209
 5352SOL    HW227693   0.597   4.236  10.964  0.1902 -2.8313 -3.0798
 5353SOL     OW27694   1.979   1.980   9.540  0.0432 -0.3972 -0.5800
 5353SOL    HW127695   1.911   1.935   9.491  1.3965 -0.4781 -2.3683
 5353SOL    HW227696   2.018   1.918   9.601  0.4409 -1.3925 -1.8728
 5354SOL     OW27697   1.231   3.980   7.666 -0.1596 -0.6695  0.0717
 5354SOL    HW127698   1.164   4.008   7.603  1.3825 -1.6450 -1.9935
 5354SOL    HW227699   1.276   4.062   7.684 -0.0914 -1.2045  2.2690
 5355SOL     OW27700   1.921   3.116   9.423 -1.1186  0.5855 -0.1910
 5355SOL    HW127701   1.962   3.104   9.509 -1.8190  0.3368  0.1076
 5355SOL    HW227702   1.994   3.095   9.365 -1.2090 -0.4154  0.0413
 5356SOL     OW27703   4.390   1.958  11.816  1.0274  0.3923 -0.6317
 5356SOL    HW127704   4.372   1.894  11.747  0.6343 -0.0049 -0.1534
 5356SOL    HW227705   4.312   1.946  11.870  0.9492 -0.3114 -0.8984
 5357SOL     OW27706   3.346   3.706   5.239  0.4176  0.1724 -0.1391
 5357SOL    HW127707   3.402   3.689   5.314 -0.4298  1.5886  0.8188
 5357SOL    HW227708   3.288   3.769   5.283 -0.0029 -0.2608 -0.0762
 5358SOL     OW27709   2.765   0.811   3.409  0.4463 -0.0297 -0.0528
 5358SOL    HW127710   2.739   0.816   3.501 -0.9148  1.3529 -0.5246
 5358SOL    HW227711   2.821   0.889   3.406 -0.1186  0.3145 -1.6846
 5359SOL     OW27712   2.042   0.704   6.275  0.0209 -0.0267 -0.1032
 5359SOL    HW127713   2.136   0.700   6.289 -0.3075  0.4274  2.1999
 5359SOL    HW227714   2.012   0.618   6.307  2.4204 -0.6532  0.4027
 5360SOL     OW27715   4.643   0.856  10.938  0.1817  0.2883  0.3090
 5360SOL    HW127716   4.597   0.789  10.988  0.8601  0.0681  0.6323
 5360SOL    HW227717   4.734   0.833  10.918 -0.3777 -2.3500  0.8848
 5361SOL     OW27718   0.521   2.609  16.105  0.7876  0.5428  0.0092
 5361SOL    HW127719   0.573   2.622  16.184 -2.4291 -1.7393  2.5298
 5361SOL    HW227720   0.575   2.645  16.034  0.4224 -0.8266 -0.9516
 5362SOL     OW27721   3.224   1.439   6.724 -0.7788 -0.4234  0.6662
 5362SOL    HW127722   3.280   1.490   6.783  0.2075  0.1770 -0.7769
 5362SOL    HW227723   3.229   1.498   6.649 -2.3109 -0.2412  0.7175
 5363SOL     OW27724   2.173   2.422   9.046 -0.1816 -0.2103  0.1615
 5363SOL    HW127725   2.198   2.512   9.024 -1.9676  0.3972  0.5777
 5363SOL    HW227726   2.225   2.370   8.985  0.1497  1.6296 -1.1397
 5364SOL     OW27727   3.355   0.316   5.468  0.2612 -0.1059  0.1469
 5364SOL    HW127728   3.324   0.327   5.379  1.1532  0.6439 -0.0673
 5364SOL    HW227729   3.448   0.297   5.458  0.4635 -1.0743  3.7142
 5365SOL     OW27730   0.146   1.175  17.052 -0.2221 -0.3294 -0.0279
 5365SOL    HW127731   0.175   1.261  17.023  0.0749 -1.2668 -2.5618
 5365SOL    HW227732   0.226   1.131  17.079 -0.7007 -0.4628  1.1812
 5366SOL     OW27733   0.801   2.227   5.707 -0.3842 -0.4359 -0.0622
 5366SOL    HW127734   0.706   2.236   5.706 -0.3088  0.4659  0.7910
 5366SOL    HW227735   0.810   2.178   5.789 -2.9206  1.4083  1.3182
 5367SOL     OW27736   3.027   2.675   9.010  0.0984  0.1445  0.3559
 5367SOL    HW127737   3.103   2.699   8.958 -2.0272  3.8211 -1.1293
 5367SOL    HW227738   3.000   2.753   9.058 -2.9649  0.3190 -1.6247
 5368SOL     OW27739   1.355   4.045  10.037 -0.2448  0.2054 -0.4128
 5368SOL    HW127740   1.387   4.018  10.123  0.5852  1.1134 -0.4345
 5368SOL    HW227741   1.279   4.098  10.061 -0.7671 -1.4545  1.6247
 5369SOL     OW27742   0.037   3.208  17.381 -0.1159  0.2425  0.5325
 5369SOL    HW127743   0.033   3.277  17.315 -0.8031 -1.2761 -1.0118
 5369SOL    HW227744   4.711   3.234  17.448  0.3687  1.5623  0.4756
 5370SOL     OW27745   0.658   0.589  11.430  0.2177 -0.9232 -0.3683
 5370SOL    HW127746   0.681   0.659  11.370  1.8781 -0.0671  1.2399
 5370SOL    HW227747   0.732   0.597  11.491  0.1157 -0.5815 -0.2892
 5371SOL     OW27748   0.766   2.139   5.223  0.6001  0.1262  0.0179
 5371SOL    HW127749   0.812   2.197   5.283 -0.7674  0.0723  1.1166
 5371SOL    HW227750   0.798   2.159   5.135  1.6072  1.4967  0.7005
 5372SOL     OW27751   4.615   3.753   3.329 -0.1797  0.3926 -0.2374
 5372SOL    HW127752   4.623   3.838   3.287  1.2166 -0.0302 -0.8205
 5372SOL    HW227753   4.535   3.714   3.293  0.3353 -0.7795 -0.1379
 5373SOL     OW27754   3.649   1.248   1.085  0.1427 -0.4414  0.0882
 5373SOL    HW127755   3.725   1.229   1.030 -0.3840  1.4288 -1.2618
 5373SOL    HW227756   3.679   1.236   1.175  2.6299 -0.1952 -0.6940
 5374SOL     OW27757   2.703   3.107  15.469  0.2735  0.5769 -0.0182
 5374SOL    HW127758   2.644   3.155  15.527  0.2149  1.6108 -0.9450
 5374SOL    HW227759   2.749   3.167  15.411 -0.9541  0.5433 -1.0390
 5375SOL     OW27760   1.274   2.487   4.197 -0.0929 -0.0055 -0.1996
 5375SOL    HW127761   1.248   2.397   4.177  2.9498 -0.8973 -0.1173
 5375SOL    HW227762   1.226   2.499   4.279 -0.8825 -2.0186 -0.3502
 5376SOL     OW27763   1.200   1.211   3.017  0.4087 -0.3098 -0.3682
 5376SOL    HW127764   1.221   1.304   3.015 -1.4420  0.0748 -1.8040
 5376SOL    HW227765   1.190   1.195   3.111  0.3026 -2.3593 -0.7180
 5377SOL     OW27766   4.123   0.928  17.249  0.0912  0.5525  0.2280
 5377SOL    HW127767   4.065   0.929  17.172 -1.0192  2.3043  1.0692
 5377SOL    HW227768   4.193   0.870  17.220  0.1548  0.7243  0.0332
 5378SOL     OW27769   0.048   1.828  17.009 -0.3525 -0.3156  0.0235
 5378SOL    HW127770   0.116   1.858  16.949  0.9856  2.0750  2.7674
 5378SOL    HW227771   0.078   1.842  17.098 -0.6645  1.5134 -0.1709
 5379SOL     OW27772   1.906   1.091  16.699  0.0677  0.6675 -0.1338
 5379SOL    HW127773   1.968   1.019  16.693 -0.3575  0.0649  2.6021
 5379SOL    HW227774   1.827   1.036  16.697  0.0280  0.6460  1.6476
 5380SOL     OW27775   4.440   1.551   4.370  0.0500  0.3560 -0.2495
 5380SOL    HW127776   4.391   1.477   4.334 -1.0738  0.9417  0.0628
 5380SOL    HW227777   4.402   1.622   4.318 -1.4088  0.1244  0.4947
 5381SOL     OW27778   2.781   2.594   9.220  0.3790  0.3238  0.5788
 5381SOL    HW127779   2.853   2.533   9.202 -0.6455 -2.3715  5.5454
 5381SOL    HW227780   2.817   2.612   9.307  0.4550 -1.8281  1.0095
 5382SOL     OW27781   2.481   1.513  14.018  0.5521  0.0299 -0.1775
 5382SOL    HW127782   2.534   1.443  13.979  1.9161 -0.0678  1.8595
 5382SOL    HW227783   2.432   1.468  14.087 -1.4759 -0.2749 -1.8157
 5383SOL     OW27784   0.363   3.642   3.735  0.2087 -0.4398  0.1839
 5383SOL    HW127785   0.438   3.599   3.777 -0.5357 -4.0572 -2.1988
 5383SOL    HW227786   0.298   3.584   3.775  0.6116 -0.7493  0.3979
 5384SOL     OW27787   1.100   3.711  17.258  0.2399 -0.1964  0.0126
 5384SOL    HW127788   1.116   3.755  17.175  0.5045 -1.7274 -0.7299
 5384SOL    HW227789   1.010   3.678  17.260  0.4257 -0.6364  1.2305
 5385SOL     OW27790   0.845   3.946   4.515 -0.3846 -0.3138 -0.1031
 5385SOL    HW127791   0.939   3.962   4.503 -0.1421 -1.9062 -0.3654
 5385SOL    HW227792   0.812   4.033   4.538  0.8042  0.1751 -0.2206
 5386SOL     OW27793   0.768   3.166   8.979  0.1781  0.2751  0.1988
 5386SOL    HW127794   0.708   3.104   8.939 -0.6232  0.9157  0.4179
 5386SOL    HW227795   0.785   3.113   9.057  1.3499  0.0075 -0.2414
 5387SOL     OW27796   1.430   3.306   4.388 -0.6516  0.0327 -0.3950
 5387SOL    HW127797   1.506   3.268   4.432  0.0975 -0.5338 -2.1755
 5387SOL    HW227798   1.424   3.249   4.312  0.3246  0.4166 -0.7589
 5388SOL     OW27799   0.147   0.453  16.774 -0.3309 -0.0405  0.1831
 5388SOL    HW127800   0.165   0.489  16.861 -2.8527  0.8340  0.3494
 5388SOL    HW227801   0.218   0.481  16.717 -0.7934  1.0631  0.1613
 5389SOL     OW27802   4.202   4.370   0.558 -0.3914 -0.0811  0.4056
 5389SOL    HW127803   4.234   4.284   0.585  2.1293 -0.4718 -3.7785
 5389SOL    HW227804   4.247   4.380   0.474 -1.5259 -2.4225 -0.4845
 5390SOL     OW27805   1.860   2.188   3.712 -0.7996  0.3527 -0.4812
 5390SOL    HW127806   1.920   2.216   3.781 -0.1143  1.6763 -1.6139
 5390SOL    HW227807   1.885   2.095   3.705 -0.3714  0.4158  0.2297
 5391SOL     OW27808   3.368   2.360   8.220  0.7999  0.1068 -0.5256
 5391SOL    HW127809   3.463   2.347   8.226  0.7779 -0.7409 -2.1003
 5391SOL    HW227810   3.345   2.349   8.312 -0.4631  0.9000 -0.7501
 5392SOL     OW27811   2.314   0.250   3.064  0.1447  0.1294  0.1743
 5392SOL    HW127812   2.356   0.165   3.051  0.9517  0.4593  0.6373
 5392SOL    HW227813   2.249   0.245   2.993  2.2458  2.3364 -1.8941
 5393SOL     OW27814   3.943   3.265   6.794  0.1278  0.2527  0.2057
 5393SOL    HW127815   3.987   3.299   6.872  2.0267 -1.9725  0.0796
 5393SOL    HW227816   3.956   3.338   6.733 -1.6618  0.3076 -0.1314
 5394SOL     OW27817   4.696   3.228   5.136  0.1700  0.0623 -0.5036
 5394SOL    HW127818   4.724   3.158   5.195  1.4943  1.0347  0.0197
 5394SOL    HW227819   4.666   3.295   5.198 -2.2899 -0.0603 -1.5531
 5395SOL     OW27820   3.062   0.647   3.386 -0.1031  0.0278 -0.5302
 5395SOL    HW127821   3.096   0.733   3.409 -1.5135  0.2472  0.7787
 5395SOL    HW227822   3.038   0.615   3.473  0.2333  1.4746  0.1061
 5396SOL     OW27823   4.340   3.612   4.315  0.2616  0.2122 -0.0159
 5396SOL    HW127824   4.267   3.554   4.337 -0.0338  1.3890  2.0902
 5396SOL    HW227825   4.405   3.592   4.382 -1.0519  0.1391  1.2541
 5397SOL     OW27826   4.397   1.177   8.876  0.3077  0.4425 -0.3169
 5397SOL    HW127827   4.451   1.154   8.952  0.1202 -2.9696 -1.2559
 5397SOL    HW227828   4.348   1.095   8.877  1.2686 -0.1548 -3.1269
 5398SOL     OW27829   1.519   3.578   3.829  0.0639 -0.7555 -0.5699
 5398SOL    HW127830   1.469   3.498   3.844 -1.0334 -0.1570 -0.9914
 5398SOL    HW227831   1.477   3.625   3.901  1.1949  2.8435 -2.2065
 5399SOL     OW27832   3.214   3.631  13.279 -0.0540  0.2122  0.0579
 5399SOL    HW127833   3.266   3.554  13.257 -0.9976 -0.4239  0.0919
 5399SOL    HW227834   3.206   3.696  13.209 -0.1245 -1.2712 -1.2958
 5400SOL     OW27835   3.049   3.447   9.690  0.0942 -0.2922 -0.5187
 5400SOL    HW127836   3.057   3.352   9.685 -1.8375 -0.4191 -1.0780
 5400SOL    HW227837   3.023   3.457   9.781  0.1184  2.4930 -0.8190
 5401SOL     OW27838   3.144   2.289   2.570  0.0610  0.1982 -0.2840
 5401SOL    HW127839   3.054   2.265   2.548  0.5156 -0.4568 -1.4649
 5401SOL    HW227840   3.135   2.284   2.665  2.3781  1.4494  0.0070
 5402SOL     OW27841   2.435   4.531   4.267 -0.5614 -0.1275  0.1187
 5402SOL    HW127842   2.464   4.523   4.357 -0.6596  0.7149  0.2199
 5402SOL    HW227843   2.397   4.618   4.280  0.9811  0.6952 -0.7846
 5403SOL     OW27844   1.931   1.928   3.254  0.4316  0.0151 -0.3271
 5403SOL    HW127845   1.904   1.836   3.250 -1.4785  0.6152 -1.4640
 5403SOL    HW227846   1.846   1.970   3.266 -1.0731 -2.5495 -1.9320
 5404SOL     OW27847   1.997   2.375  11.331  0.0650 -0.0940  0.8615
 5404SOL    HW127848   1.954   2.435  11.270  2.7050 -1.4211 -2.3257
 5404SOL    HW227849   2.084   2.367  11.291 -0.5599 -0.3333 -0.4594
 5405SOL     OW27850   4.045   0.408  16.460 -0.2619  0.1916 -0.0324
 5405SOL    HW127851   4.054   0.438  16.550  0.8730 -0.7741  0.1740
 5405SOL    HW227852   4.136   0.395  16.433 -0.5782  0.0477 -1.0355
 5406SOL     OW27853   0.022   0.174   5.814 -0.3076 -0.5725  0.0488
 5406SOL    HW127854   4.737   0.127   5.734  1.3506 -0.4734 -0.4831
 5406SOL    HW227855   0.090   0.230   5.778 -0.3140  0.8020  2.1556
 5407SOL     OW27856   2.572   3.755   1.193  0.0355  0.2631  0.2005
 5407SOL    HW127857   2.613   3.841   1.205  0.5425  0.0462  0.0062
 5407SOL    HW227858   2.478   3.767   1.179 -0.2098 -1.3535  0.4603
 5408SOL     OW27859   2.694   2.419  11.589 -0.0544 -0.4660 -0.0467
 5408SOL    HW127860   2.604   2.451  11.581 -0.0832 -0.9301 -1.5159
 5408SOL    HW227861   2.718   2.461  11.671 -0.9014  0.1628 -0.1145
 5409SOL     OW27862   3.209   3.036   3.329  0.3141 -0.4984 -0.0137
 5409SOL    HW127863   3.281   3.026   3.391 -0.5368  0.3207  1.0833
 5409SOL    HW227864   3.260   3.025   3.248 -0.9370 -2.2549 -0.5735
 5410SOL     OW27865   0.855   0.178  13.897 -0.0132  0.6263 -0.0984
 5410SOL    HW127866   0.907   0.186  13.977 -2.5846  0.1545  1.6323
 5410SOL    HW227867   0.780   0.120  13.911  0.2419  0.8060  2.0016
 5411SOL     OW27868   3.299   2.639   8.120 -0.0233  0.0170  0.0292
 5411SOL    HW127869   3.288   2.551   8.156  2.2938 -0.6697 -0.9714
 5411SOL    HW227870   3.244   2.695   8.174  0.0237 -1.8921  2.0718
 5412SOL     OW27871   2.053   3.847   4.007  0.1990  0.3146  0.2180
 5412SOL    HW127872   1.990   3.795   4.056  1.3773 -1.1406  0.1939
 5412SOL    HW227873   2.010   3.932   3.995 -5.1049 -2.2835  1.2244
 5413SOL     OW27874   1.581   4.594  16.547 -0.8819  0.0333  0.3524
 5413SOL    HW127875   1.504   4.581  16.602 -0.0589  2.9234  2.1443
 5413SOL    HW227876   1.550   4.624  16.461  0.6646  0.9973  0.1161
 5414SOL     OW27877   3.356   1.855   1.117 -0.2871  0.1028  0.1868
 5414SOL    HW127878   3.436   1.865   1.168 -0.2816 -2.0864  0.6102
 5414SOL    HW227879   3.380   1.845   1.025 -0.8374 -0.9720  0.1520
 5415SOL     OW27880   3.463   2.094   0.900  0.4500  0.1318  0.2891
 5415SOL    HW127881   3.423   2.010   0.924  0.1756 -0.0959 -0.9825
 5415SOL    HW227882   3.516   2.055   0.830  0.1992 -0.4958  0.4498
 5416SOL     OW27883   4.724   0.538   3.044  0.1573 -0.3217 -0.4517
 5416SOL    HW127884   0.051   0.474   3.012  2.4919  2.1587 -0.6899
 5416SOL    HW227885   4.713   0.512   3.136  1.0122 -0.5764 -0.4208
 5417SOL     OW27886   3.738   4.231   3.862  0.0744 -0.0257 -0.8123
 5417SOL    HW127887   3.669   4.251   3.799 -0.0408 -1.2061 -1.0529
 5417SOL    HW227888   3.721   4.297   3.929  0.7799 -0.9402  0.2720
 5418SOL     OW27889   3.050   0.427   9.304 -0.1836 -0.6188  0.1571
 5418SOL    HW127890   3.049   0.420   9.399  0.2939 -0.1407  0.2031
 5418SOL    HW227891   3.140   0.458   9.289 -0.1590 -0.7916 -0.0539
 5419SOL     OW27892   4.729   3.758   5.405 -0.0796  0.2627  0.5106
 5419SOL    HW127893   4.675   3.705   5.346 -0.3129 -0.5268  1.4160
 5419SOL    HW227894   4.688   3.727   5.486  4.1226  0.6573  2.7626
 5420SOL     OW27895   0.552   3.704   1.940 -0.1302 -0.1436 -0.1330
 5420SOL    HW127896   0.577   3.620   1.902 -1.1245 -0.4589 -0.0991
 5420SOL    HW227897   0.613   3.757   1.890 -1.5407  1.8847  0.3147
 5421SOL     OW27898   3.239   1.266  16.615 -0.1506 -0.1298 -0.0631
 5421SOL    HW127899   3.200   1.291  16.699 -1.2097 -2.4029  0.1315
 5421SOL    HW227900   3.164   1.268  16.556 -1.1230  0.5330  1.1953
 5422SOL     OW27901   1.731   4.490   5.533  0.1658  0.0601 -0.2468
 5422SOL    HW127902   1.733   4.396   5.551  0.1520 -0.0191 -0.6526
 5422SOL    HW227903   1.640   4.516   5.540  0.5112  1.5974 -1.3976
 5423SOL     OW27904   3.910   1.460   3.737  0.3287  0.1388 -0.0296
 5423SOL    HW127905   3.824   1.498   3.718 -0.3102 -2.1688 -1.7975
 5423SOL    HW227906   3.909   1.382   3.681  2.1675  0.1600 -0.0822
 5424SOL     OW27907   2.461   2.300  17.398  0.0446  0.3026  0.3435
 5424SOL    HW127908   2.425   2.386  17.419  1.5892  1.2485 -0.8716
 5424SOL    HW227909   2.465   2.311  17.303  0.5494 -1.7299  0.1354
 5425SOL     OW27910   3.746   0.669   1.560 -0.3025 -0.4893 -0.6324
 5425SOL    HW127911   3.681   0.599   1.550 -1.7922  0.6118  1.4838
 5425SOL    HW227912   3.828   0.644   1.518  0.9330  0.6292  1.1147
 5426SOL     OW27913   0.768   3.494   6.731 -0.7407  0.2351  0.0650
 5426SOL    HW127914   0.764   3.430   6.802 -0.1738  0.5717  0.4019
 5426SOL    HW227915   0.825   3.556   6.776 -0.3371  0.1848 -0.3835
 5427SOL     OW27916   0.772   0.296   1.976  0.1929 -0.3169  0.0539
 5427SOL    HW127917   0.708   0.340   1.920 -2.1422 -1.8257  1.5558
 5427SOL    HW227918   0.852   0.348   1.964 -0.6916  0.7690 -1.1954
 5428SOL     OW27919   4.735   1.528   6.086 -0.2653  0.2788  0.4817
 5428SOL    HW127920   4.709   1.453   6.141 -0.8070  0.5183  0.5536
 5428SOL    HW227921   4.671   1.592   6.116 -0.3160  0.7514 -0.6242
 5429SOL     OW27922   2.741   0.836   7.338 -0.3468  0.2327  0.1510
 5429SOL    HW127923   2.818   0.810   7.287 -0.3640  0.9020 -0.2117
 5429SOL    HW227924   2.672   0.822   7.273 -0.1702  1.0326 -0.2139
 5430SOL     OW27925   3.430   2.206  11.810  0.6535 -0.0135 -0.4598
 5430SOL    HW127926   3.367   2.137  11.827  1.8306 -0.8555  0.4811
 5430SOL    HW227927   3.386   2.254  11.739  1.4399 -1.5407 -1.9850
 5431SOL     OW27928   0.861   2.844   7.135 -0.0912  0.0268 -0.0133
 5431SOL    HW127929   0.950   2.829   7.105 -0.8476 -0.8793 -1.7643
 5431SOL    HW227930   0.831   2.756   7.159  1.5468  0.5808  4.1089
 5432SOL     OW27931   3.157   2.401  12.242  0.4252  0.2059  0.1473
 5432SOL    HW127932   3.192   2.374  12.157  0.4504  2.4375 -0.5573
 5432SOL    HW227933   3.107   2.479  12.216  0.5762  0.6876  1.2886
 5433SOL     OW27934   3.632   4.622   7.954 -0.3754  0.6566  0.3219
 5433SOL    HW127935   3.609   4.714   7.942  0.6669  1.1480  2.0004
 5433SOL    HW227936   3.563   4.577   7.905 -1.1504  0.5476  1.5204
 5434SOL     OW27937   2.915   4.733  14.421 -0.2832 -0.3546  0.6109
 5434SOL    HW127938   2.998   4.720  14.375 -0.9755 -1.4852 -0.3117
 5434SOL    HW227939   2.899   4.639  14.430  2.3225 -0.8087  0.5429
 5435SOL     OW27940   0.661   2.165   8.736 -0.3569 -0.1938 -0.6154
 5435SOL    HW127941   0.638   2.086   8.686 -1.7025 -0.4511  0.4384
 5435SOL    HW227942   0.755   2.147   8.741  0.3643  3.1670 -2.1136
 5436SOL     OW27943   0.797   3.918   5.443  0.0362 -0.0775 -0.1484
 5436SOL    HW127944   0.743   3.908   5.365  2.0844 -1.4533 -1.4012
 5436SOL    HW227945   0.869   3.974   5.414  2.0888 -1.5728  2.0672
 5437SOL     OW27946   2.927   2.072   9.916  0.4672  0.3396  0.0232
 5437SOL    HW127947   2.907   2.076  10.009  0.2815 -2.3604  0.0920
 5437SOL    HW227948   2.941   2.164   9.892 -0.5908  1.5497  4.0058
 5438SOL     OW27949   2.148   1.399   6.746 -0.5105 -0.6078  0.0755
 5438SOL    HW127950   2.110   1.312   6.750 -0.8815 -0.4633 -0.2676
 5438SOL    HW227951   2.112   1.426   6.662  1.4584 -1.6907 -1.1113
 5439SOL     OW27952   0.714   2.813  15.159  0.3905  0.5799 -0.1653
 5439SOL    HW127953   0.668   2.732  15.178 -1.1645  1.7553  1.0646
 5439SOL    HW227954   0.801   2.778  15.143  0.1894 -1.1528  2.5667
 5440SOL     OW27955   0.618   3.840   0.210 -0.5250 -0.8381  0.0865
 5440SOL    HW127956   0.642   3.828   0.118  0.2414  2.2648 -0.1305
 5440SOL    HW227957   0.672   3.914   0.237  1.9954 -0.7568 -5.1585
 5441SOL     OW27958   4.688   1.733   5.410  0.1455  0.2026  0.1340
 5441SOL    HW127959   4.737   1.652   5.427 -1.2705 -0.7817 -0.4394
 5441SOL    HW227960   4.608   1.694   5.375  1.2196 -1.7933 -0.1017
 5442SOL     OW27961   0.321   2.751   3.723 -0.6937  1.0003 -0.7370
 5442SOL    HW127962   0.284   2.781   3.806  0.2287 -0.7900  0.3204
 5442SOL    HW227963   0.313   2.837   3.681 -1.9664  1.0100 -0.4676
 5443SOL     OW27964   4.669   3.606   6.542  0.3543  0.6416  0.3443
 5443SOL    HW127965   4.730   3.593   6.469  1.4449  2.0286  0.9999
 5443SOL    HW227966   4.676   3.701   6.553 -0.8072  0.8329 -0.5764
 5444SOL     OW27967   0.340   1.725   7.947 -0.0215  0.3162 -0.2639
 5444SOL    HW127968   0.429   1.761   7.946  0.5409 -1.0028  3.0197
 5444SOL    HW227969   0.332   1.667   8.022  1.3024  0.4010 -0.0644
 5445SOL     OW27970   1.742   3.461  10.164  0.5331  0.2331  0.0078
 5445SOL    HW127971   1.717   3.408  10.239  0.1115  0.2897 -0.0921
 5445SOL    HW227972   1.784   3.400  10.103 -0.8505 -0.9891  0.2902
 5446SOL     OW27973   3.149   2.409   7.776 -0.6868 -0.3205 -0.0855
 5446SOL    HW127974   3.239   2.410   7.809 -0.4890  1.5032 -0.7191
 5446SOL    HW227975   3.167   2.381   7.686 -2.2912  1.2223 -0.8781
 5447SOL     OW27976   2.824   3.407   9.249  0.5444  0.0540 -0.0665
 5447SOL    HW127977   2.782   3.320   9.242  0.3764  0.1189  0.1475
 5447SOL    HW227978   2.749   3.462   9.228  2.3524  2.3222 -0.5193
 5448SOL     OW27979   3.965   3.625   8.462 -0.3263 -0.0734  0.2977
 5448SOL    HW127980   3.969   3.545   8.513  2.3688 -1.2839 -1.8063
 5448SOL    HW227981   3.872   3.638   8.479 -0.6129  0.2536 -1.5203
 5449SOL     OW27982   2.082   4.131   4.409  0.2405 -0.6259  0.4646
 5449SOL    HW127983   2.107   4.159   4.497 -0.0849  2.0301 -0.2974
 5449SOL    HW227984   2.140   4.185   4.355 -0.0507  0.9295  1.7205
 5450SOL     OW27985   2.357   2.770   0.666  0.4008 -0.2113  0.8545
 5450SOL    HW127986   2.415   2.818   0.725  0.6770 -0.2359  0.6053
 5450SOL    HW227987   2.282   2.830   0.661 -0.9309 -1.9591  0.1367
 5451SOL     OW27988   3.411   0.399   6.888 -0.0623  0.2035  0.1847
 5451SOL    HW127989   3.397   0.362   6.801 -0.2795 -1.8906  1.1112
 5451SOL    HW227990   3.374   0.485   6.868  1.6194  0.5154 -1.6165
 5452SOL     OW27991   3.483   3.690   7.701  0.2834  0.3674  0.3597
 5452SOL    HW127992   3.423   3.660   7.769  2.2592 -0.6931  1.6437
 5452SOL    HW227993   3.547   3.618   7.699 -0.5849 -0.3756 -0.7443
 5453SOL     OW27994   1.427   0.952   4.662  0.0732  0.4016 -0.2356
 5453SOL    HW127995   1.394   0.882   4.719  0.3084  0.6400  0.1892
 5453SOL    HW227996   1.512   0.961   4.703  0.3865  1.5596 -1.1520
 5454SOL     OW27997   2.221   2.554  13.390  0.1126 -0.0309 -0.3917
 5454SOL    HW127998   2.304   2.533  13.433 -0.3645 -0.1103  0.4971
 5454SOL    HW227999   2.247   2.511  13.309  0.3327 -0.7107  0.0410
 5455SOL     OW28000   2.387   0.426   6.210 -0.0497  0.1535 -0.0900
 5455SOL    HW128001   2.435   0.401   6.131 -3.0493  0.1584 -1.8827
 5455SOL    HW228002   2.306   0.377   6.199  0.8488 -0.9082 -2.0002
 5456SOL     OW28003   0.688   3.902  14.797  0.7865 -0.3530  0.1774
 5456SOL    HW128004   0.647   3.825  14.759  1.8057 -0.1399 -1.3226
 5456SOL    HW228005   0.634   3.976  14.768  1.0532 -0.3138 -0.2093
 5457SOL     OW28006   0.349   3.726  11.003  0.6692  0.0310 -0.0986
 5457SOL    HW128007   0.444   3.710  11.006  0.5036 -0.8924  0.0344
 5457SOL    HW228008   0.339   3.761  10.915  0.3952  0.6707  0.1824
 5458SOL     OW28009   4.206   4.695  11.896 -0.1528  0.2431  0.7730
 5458SOL    HW128010   4.127   0.011  11.900 -0.2289  0.2419 -0.5682
 5458SOL    HW228011   4.212   4.669  11.804  2.8613 -0.6725  1.2318
 5459SOL     OW28012   4.158   2.395   8.431  0.5887  0.1562 -0.1329
 5459SOL    HW128013   4.222   2.348   8.485 -0.2257 -0.1212  0.5710
 5459SOL    HW228014   4.131   2.467   8.488 -1.2151 -2.4051  2.1969
 5460SOL     OW28015   3.437   2.602   2.792 -0.2328  0.1620 -0.4164
 5460SOL    HW128016   3.512   2.659   2.780  0.0509 -0.1326 -0.0490
 5460SOL    HW228017   3.464   2.511   2.781  1.5626  0.5632  0.8125
 5461SOL     OW28018   3.405   3.979  12.900  0.1531  0.4888 -0.3716
 5461SOL    HW128019   3.430   4.023  12.981  0.7052 -1.0346  0.2778
 5461SOL    HW228020   3.449   4.041  12.842  0.4592  0.4902 -0.1360
 5462SOL     OW28021   3.431   3.824  13.801 -0.2326 -0.2672  0.2799
 5462SOL    HW128022   3.405   3.782  13.719 -1.0612  0.8517 -0.0421
 5462SOL    HW228023   3.348   3.869  13.818 -1.0805 -1.2272 -1.2401
 5463SOL     OW28024   1.524   0.741   0.211 -0.0548 -0.1394  0.2617
 5463SOL    HW128025   1.479   0.800   0.151  1.9956 -0.2253 -1.3502
 5463SOL    HW228026   1.536   0.662   0.158 -0.4110  0.5279 -0.8213
 5464SOL     OW28027   1.413   0.617   1.795  0.3448 -0.5772  0.3707
 5464SOL    HW128028   1.401   0.660   1.710 -0.0909 -0.2181  0.6126
 5464SOL    HW228029   1.506   0.638   1.801  0.5061 -1.5166  1.1376
 5465SOL     OW28030   4.728   1.013  17.209 -0.5311  0.0005  0.2577
 5465SOL    HW128031   0.037   1.073  17.150 -0.2159  0.6462  1.1664
 5465SOL    HW228032   4.637   1.041  17.218 -0.5956  0.3747 -1.4515
 5466SOL     OW28033   0.626   2.942   5.394  0.4566  0.7274 -0.1045
 5466SOL    HW128034   0.584   3.009   5.448  1.2172  0.4969  0.7682
 5466SOL    HW228035   0.554   2.885   5.367  1.7706 -1.6134  1.3716
 5467SOL     OW28036   3.555   1.464  13.885 -0.1803 -0.3525 -0.2199
 5467SOL    HW128037   3.505   1.490  13.807 -1.5673  0.2628  0.8834
 5467SOL    HW228038   3.616   1.537  13.897 -1.6168  0.9338 -0.6326
 5468SOL     OW28039   2.227   3.759   8.628 -0.4617  0.0932  0.0836
 5468SOL    HW128040   2.235   3.705   8.707 -0.8614 -0.4087 -0.2181
 5468SOL    HW228041   2.154   3.809   8.662 -1.4497 -1.2479 -0.0685
 5469SOL     OW28042   4.587   3.833   2.498  0.0180  0.0091 -0.1985
 5469SOL    HW128043   4.638   3.755   2.481  0.3111 -0.5263  3.2554
 5469SOL    HW228044   4.560   3.869   2.413  0.4047 -0.9415 -0.7158
 5470SOL     OW28045   0.510   0.268  15.733  0.5494 -0.7644 -0.0297
 5470SOL    HW128046   0.437   0.310  15.687  3.4371  3.2426 -0.9413
 5470SOL    HW228047   0.462   0.216  15.797 -0.5605  0.5009  0.1876
 5471SOL     OW28048   1.832   2.834  11.274  0.1625  0.0904 -0.2950
 5471SOL    HW128049   1.762   2.831  11.339  1.2150 -0.0788  0.8367
 5471SOL    HW228050   1.820   2.917  11.230  1.2285 -0.4318 -1.5749
 5472SOL     OW28051   0.059   3.970  13.549 -0.6416  0.1917 -0.0459
 5472SOL    HW128052   0.037   3.959  13.457 -0.7786 -2.0271  0.2477
 5472SOL    HW228053   0.106   4.051  13.534 -0.2324 -0.0733 -0.2003
 5473SOL     OW28054   0.172   2.012  10.835 -0.1007 -0.1830  0.5329
 5473SOL    HW128055   0.126   2.061  10.904  1.3376  3.2035 -0.9178
 5473SOL    HW228056   0.097   1.969  10.795  0.6876 -0.6853 -0.3758
 5474SOL     OW28057   1.649   0.336   6.811 -0.1743 -0.1234 -0.2845
 5474SOL    HW128058   1.601   0.260   6.777 -0.0536 -1.3176  2.1494
 5474SOL    HW228059   1.636   0.331   6.906 -1.3479  2.1992 -0.3324
 5475SOL     OW28060   3.716   4.368   8.996  0.0598  0.2188  0.2657
 5475SOL    HW128061   3.684   4.452   8.963  0.5413  0.4194  0.3189
 5475SOL    HW228062   3.642   4.345   9.053  0.8425  0.1915  1.2768
 5476SOL     OW28063   0.271   1.024   7.233  0.0634 -0.3918 -0.7549
 5476SOL    HW128064   0.290   1.098   7.291  0.9932  1.5103 -3.4919
 5476SOL    HW228065   0.296   1.053   7.145  0.3887  1.0082 -0.2096
 5477SOL     OW28066   1.808   3.046   2.888  0.2258  0.2489 -0.4389
 5477SOL    HW128067   1.831   3.134   2.917  0.7501 -0.5581  1.5923
 5477SOL    HW228068   1.812   3.054   2.793 -0.6432 -0.0354 -0.4953
 5478SOL     OW28069   3.108   1.325  14.395 -0.0013 -0.4949 -0.4646
 5478SOL    HW128070   3.123   1.314  14.489  3.3223 -0.4084 -0.9874
 5478SOL    HW228071   3.042   1.258  14.376 -1.0450  0.0152  1.3816
 5479SOL     OW28072   1.033   3.954   7.865 -0.4473  0.8171  0.3486
 5479SOL    HW128073   0.946   3.938   7.828  0.1613 -0.9201 -0.3496
 5479SOL    HW228074   1.091   3.932   7.791 -0.8519  0.0539  0.2550
 5480SOL     OW28075   2.167   3.748   2.968  0.7105 -0.9055 -0.6789
 5480SOL    HW128076   2.146   3.733   2.876 -3.2458 -1.7061  0.3889
 5480SOL    HW228077   2.201   3.661   2.989  0.3067 -1.1921 -1.2317
 5481SOL     OW28078   0.350   0.925   6.043  0.0945 -0.2814 -0.1286
 5481SOL    HW128079   0.315   0.868   6.112  1.8195 -1.6860 -0.4220
 5481SOL    HW228080   0.271   0.923   5.989  0.1535 -0.5446 -0.2026
 5482SOL     OW28081   1.586   2.235   8.167 -0.0254  0.4818 -0.2515
 5482SOL    HW128082   1.531   2.240   8.245 -1.2136  0.6861 -1.0998
 5482SOL    HW228083   1.639   2.157   8.184 -0.5170 -0.3405 -2.5444
 5483SOL     OW28084   0.025   1.349   4.723  0.1447  0.3101 -0.5058
 5483SOL    HW128085   0.093   1.303   4.674 -0.8740 -1.0545 -0.6071
 5483SOL    HW228086   0.082   1.405   4.777  1.3163 -2.3566  1.0475
 5484SOL     OW28087   0.054   0.561   9.047  0.2927 -0.2060  0.0801
 5484SOL    HW128088   0.013   0.523   9.125  1.4332 -1.1819  0.2020
 5484SOL    HW228089   0.106   0.484   9.022  1.5138  0.8488 -0.6504
 5485SOL     OW28090   0.156   1.810   2.734 -0.6082  0.4526  0.1886
 5485SOL    HW128091   0.119   1.781   2.817  0.4716  0.5464  0.6989
 5485SOL    HW228092   0.175   1.727   2.690  2.6076  0.9526  0.6245
 5486SOL     OW28093   0.942   1.456   5.180  0.6093 -0.2343 -0.0035
 5486SOL    HW128094   0.890   1.426   5.255  1.1846 -0.1010  0.4426
 5486SOL    HW228095   0.871   1.462   5.116  0.5969 -0.8235 -0.0513
 5487SOL     OW28096   3.838   0.338  13.917 -0.0911 -0.5035  0.5558
 5487SOL    HW128097   3.828   0.284  13.995  1.7017 -1.7533 -0.0898
 5487SOL    HW228098   3.931   0.327  13.900 -0.1817  3.1159 -2.3220
 5488SOL     OW28099   4.642   1.906   6.718  0.5596 -0.1577 -0.4869
 5488SOL    HW128100   4.688   1.823   6.730 -0.1643 -0.5282 -0.3097
 5488SOL    HW228101   4.617   1.915   6.810 -1.3964  2.6613 -1.2872
 5489SOL     OW28102   3.249   4.109   6.952 -0.4492 -0.0943 -0.2911
 5489SOL    HW128103   3.222   4.062   7.031 -3.1925 -1.3890 -2.0086
 5489SOL    HW228104   3.219   4.199   6.964 -0.6258 -0.1860 -0.0433
 5490SOL     OW28105   2.027   3.629   6.236  0.1297  0.0637  0.6143
 5490SOL    HW128106   2.050   3.558   6.177 -0.7045 -0.8295  1.3683
 5490SOL    HW228107   1.972   3.580   6.297  1.6020 -4.4855 -1.7432
 5491SOL     OW28108   1.302   3.974   6.967  0.2609 -0.5333  0.6665
 5491SOL    HW128109   1.287   4.039   7.035  0.3167 -0.5876  0.7306
 5491SOL    HW228110   1.384   3.927   6.983  0.2165 -1.7408 -2.6006
 5492SOL     OW28111   1.810   0.766   6.857  0.0131  0.1925  0.0817
 5492SOL    HW128112   1.869   0.841   6.864  2.6304 -2.0110  1.1616
 5492SOL    HW228113   1.830   0.716   6.936  0.4606 -1.0910 -0.8410
 5493SOL     OW28114   4.195   4.077  15.931 -0.1188  0.2335 -0.0855
 5493SOL    HW128115   4.125   4.089  15.995  0.1559 -0.9470  0.4572
 5493SOL    HW228116   4.210   3.984  15.947  0.2481  0.1568 -0.8975
 5494SOL     OW28117   0.350   4.517   4.346  0.5258 -0.1101 -0.7784
 5494SOL    HW128118   0.364   4.606   4.314 -0.1174  0.6176  0.9738
 5494SOL    HW228119   0.397   4.533   4.427  0.3885 -0.5478 -0.6124
 5495SOL     OW28120   2.256   3.853  10.592  0.5499  0.6880 -0.2606
 5495SOL    HW128121   2.330   3.795  10.571  0.6794  0.8079 -0.1316
 5495SOL    HW228122   2.296   3.936  10.618  1.8390 -0.5452  1.6815
 5496SOL     OW28123   3.378   2.143   1.631  0.2357  0.0029 -0.4198
 5496SOL    HW128124   3.473   2.137   1.624  0.3948  2.0682 -0.0426
 5496SOL    HW228125   3.370   2.182   1.544 -0.1240 -0.6453 -0.6789
 5497SOL     OW28126   3.152   3.837  13.792 -0.4775  0.1073  0.0919
 5497SOL    HW128127   3.117   3.909  13.740  0.8377  0.7835  0.1502
 5497SOL    HW228128   3.077   3.778  13.779 -1.0638  1.3935 -2.2516
 5498SOL     OW28129   3.079   1.438  15.054  0.0947 -0.5727  0.3638
 5498SOL    HW128130   3.118   1.522  15.078  0.3294 -0.0592 -1.7913
 5498SOL    HW228131   3.063   1.452  14.960  0.3901  1.3482  0.5927
 5499SOL     OW28132   1.545   4.216   8.689 -0.1867  0.2986 -0.2243
 5499SOL    HW128133   1.615   4.226   8.753 -0.6684  1.0774  0.1740
 5499SOL    HW228134   1.532   4.122   8.706 -1.5293 -0.0406 -2.9939
 5500SOL     OW28135   2.495   3.757   2.559  0.0472  0.2700 -0.0064
 5500SOL    HW128136   2.428   3.786   2.621  1.7498  3.0042  0.5695
 5500SOL    HW228137   2.542   3.840   2.546  0.2723  0.3972  1.6258
 5501SOL     OW28138   2.252   0.823   7.985 -0.2563 -0.0453 -0.0563
 5501SOL    HW128139   2.269   0.821   8.080 -0.0477  0.9712 -0.0739
 5501SOL    HW228140   2.220   0.733   7.988 -1.2529  0.3091 -0.0016
 5502SOL     OW28141   2.045   0.522   1.579  0.3110 -0.6128 -0.3629
 5502SOL    HW128142   1.980   0.571   1.630  0.8095 -0.6746  0.3362
 5502SOL    HW228143   2.114   0.585   1.557  0.3894 -0.2206  0.9853
 5503SOL     OW28144   1.417   4.003  12.711 -0.4737  0.7789 -0.1474
 5503SOL    HW128145   1.414   3.951  12.631 -0.0104  0.6300 -0.0717
 5503SOL    HW228146   1.502   3.978  12.746 -1.0575 -0.0748  0.6555
 5504SOL     OW28147   4.210   0.800   7.354 -0.9313  0.1113  0.7991
 5504SOL    HW128148   4.139   0.744   7.325  1.1635 -2.5751  0.8538
 5504SOL    HW228149   4.250   0.754   7.428  1.2040 -0.4238 -0.7011
 5505SOL     OW28150   1.577   3.745   8.167 -0.4787  0.2923 -0.0888
 5505SOL    HW128151   1.613   3.799   8.096  0.3485 -2.2262 -1.6173
 5505SOL    HW228152   1.529   3.809   8.219  0.0683 -0.2717  1.1049
 5506SOL     OW28153   2.243   2.065  14.313 -0.3151 -0.0646 -0.7179
 5506SOL    HW128154   2.214   2.012  14.239 -3.4432  1.1871 -0.3990
 5506SOL    HW228155   2.338   2.066  14.309 -0.3369  0.2229 -1.1793
 5507SOL     OW28156   3.327   3.977   8.465  0.1783 -0.8306  0.1530
 5507SOL    HW128157   3.326   4.068   8.434 -0.3534 -1.3195 -1.2489
 5507SOL    HW228158   3.315   3.992   8.559 -1.5582 -0.5460 -0.1091
 5508SOL     OW28159   0.451   1.211   6.715  0.0398  0.6229 -0.0992
 5508SOL    HW128160   0.411   1.289   6.754  1.8400  0.8951  1.2020
 5508SOL    HW228161   0.538   1.217   6.755 -0.4506  0.3897  0.9791
 5509SOL     OW28162   3.025   4.121   2.902 -0.0872  0.2566  0.3215
 5509SOL    HW128163   3.091   4.158   2.962 -1.2090  3.1609 -0.2322
 5509SOL    HW228164   3.068   4.055   2.848 -2.4414 -1.3891  0.4631
 5510SOL     OW28165   0.874   4.641   5.553  0.2175  0.0903  0.2687
 5510SOL    HW128166   0.955   4.691   5.543 -0.9123  2.2409  1.6985
 5510SOL    HW228167   0.880   4.565   5.496  1.6678 -0.0730  0.6486
 5511SOL     OW28168   1.908   3.136   8.455  0.6424  0.2378  0.0050
 5511SOL    HW128169   1.929   3.165   8.366 -1.9928 -0.4762 -0.8602
 5511SOL    HW228170   1.819   3.170   8.459 -0.6692 -3.4152  1.9307
 5512SOL     OW28171   2.946   1.607   5.211 -0.0622 -0.3826 -0.2057
 5512SOL    HW128172   2.950   1.654   5.127 -0.9555  0.8936  0.4620
 5512SOL    HW228173   3.004   1.532   5.199  0.6803  0.0202  0.8762
 5513SOL     OW28174   0.488   1.673   2.770 -0.2428 -0.5850 -0.3158
 5513SOL    HW128175   0.581   1.656   2.756  0.2236  0.3196  1.6508
 5513SOL    HW228176   0.457   1.686   2.681 -1.3967  0.1430  0.1838
 5514SOL     OW28177   3.573   3.343   6.901  0.6243 -0.4313  0.3787
 5514SOL    HW128178   3.527   3.350   6.817 -0.4039  1.1480  1.0658
 5514SOL    HW228179   3.635   3.273   6.880 -1.0320 -1.5436 -0.7760
 5515SOL     OW28180   4.021   1.044   7.357 -0.4611  0.2503 -0.0419
 5515SOL    HW128181   4.095   0.999   7.400  3.1710  4.4041 -2.0126
 5515SOL    HW228182   4.066   1.125   7.333  0.1773 -0.0241  0.2141
 5516SOL     OW28183   2.166   0.989   4.463 -0.5205 -0.1177  0.0974
 5516SOL    HW128184   2.247   0.941   4.445 -1.1684 -1.4306  0.7272
 5516SOL    HW228185   2.132   0.983   4.374  2.7403 -0.6840 -1.1189
 5517SOL     OW28186   0.518   0.577  10.685 -0.3362  0.4577 -0.1132
 5517SOL    HW128187   0.506   0.628  10.605 -1.1583  1.0687  0.4063
 5517SOL    HW228188   0.535   0.493  10.642 -0.3973 -0.3466  1.4521
 5518SOL     OW28189   1.764   3.543   4.027  0.2643  0.3274  0.4360
 5518SOL    HW128190   1.699   3.574   3.964 -0.5190  1.7400  1.9575
 5518SOL    HW228191   1.750   3.449   4.015 -2.2635  1.0027 -1.8519
 5519SOL     OW28192   3.997   0.596   7.480 -0.0412  0.1202  0.0038
 5519SOL    HW128193   3.989   0.623   7.571 -1.3920  0.2679 -0.1519
 5519SOL    HW228194   3.947   0.668   7.442 -1.6187 -1.7902 -1.5748
 5520SOL     OW28195   4.546   1.803   8.297 -0.4087 -0.1621 -0.5899
 5520SOL    HW128196   4.497   1.838   8.371  1.9414 -0.4605  1.1095
 5520SOL    HW228197   4.619   1.865   8.288 -0.4178 -0.2032 -0.9594
 5521SOL     OW28198   2.691   0.094   3.628  0.0336 -0.5278 -0.1510
 5521SOL    HW128199   2.735   0.021   3.671  2.2868  1.9653  1.7864
 5521SOL    HW228200   2.706   0.084   3.534  0.5250  1.0065 -0.2456
 5522SOL     OW28201   1.752   3.508   6.953 -0.1608  0.1965  0.0396
 5522SOL    HW128202   1.754   3.412   6.949 -1.1369  0.1029  1.6818
 5522SOL    HW228203   1.733   3.515   7.046 -0.2612 -0.6511  0.0823
 5523SOL     OW28204   0.534   2.876   0.466 -0.1302  0.1057  0.4920
 5523SOL    HW128205   0.544   2.791   0.510  1.6683 -1.3995 -2.7927
 5523SOL    HW228206   0.439   2.889   0.470 -0.0611  0.8219 -0.2721
 5524SOL     OW28207   0.579   2.286   6.149 -0.6568 -0.8152 -0.4619
 5524SOL    HW128208   0.512   2.327   6.204 -0.7402  0.7103 -1.6807
 5524SOL    HW228209   0.587   2.201   6.192  3.9142 -0.0486  0.1415
 5525SOL     OW28210   1.108   0.780   8.904  0.6353 -0.3320  0.4560
 5525SOL    HW128211   1.050   0.749   8.974 -0.4086  0.0320 -0.2539
 5525SOL    HW228212   1.115   0.704   8.846 -0.3585  1.4946 -2.0301
 5526SOL     OW28213   2.198   2.248   1.593 -0.1768  0.1435 -0.1149
 5526SOL    HW128214   2.291   2.269   1.590 -0.0378  0.0499  2.8909
 5526SOL    HW228215   2.199   2.183   1.664 -3.5775  0.9162  0.6490
 5527SOL     OW28216   0.695   4.173   3.864 -0.1148 -0.3866 -0.2996
 5527SOL    HW128217   0.789   4.155   3.866  0.1019  0.6191 -1.5993
 5527SOL    HW228218   0.694   4.249   3.922  2.3390 -0.5982 -0.0047
 5528SOL     OW28219   1.515   1.175   2.730  0.6157 -0.2965  0.3663
 5528SOL    HW128220   1.594   1.201   2.682 -0.0856 -0.6793 -0.9856
 5528SOL    HW228221   1.535   1.212   2.816 -0.0519  0.1166  0.3409
 5529SOL     OW28222   1.113   1.221   4.095 -0.3289  0.0026 -0.0253
 5529SOL    HW128223   1.199   1.185   4.076 -0.3244  0.9830 -1.8060
 5529SOL    HW228224   1.120   1.309   4.059 -0.8976  0.5723  1.2530
 5530SOL     OW28225   1.046   1.673   6.544 -0.0535  0.1767  0.2560
 5530SOL    HW128226   1.079   1.749   6.591  0.5774 -0.7562  1.3182
 5530SOL    HW228227   0.990   1.705   6.473 -0.2975  1.6306  1.1110
 5531SOL     OW28228   1.103   3.144  13.518  0.2814  0.1849  0.5094
 5531SOL    HW128229   1.069   3.069  13.469  1.1179 -1.3008  2.2058
 5531SOL    HW228230   1.020   3.168  13.559 -0.8163 -0.5288 -1.2944
 5532SOL     OW28231   0.641   3.566   2.944  0.4278  0.7196  0.2224
 5532SOL    HW128232   0.643   3.518   2.860 -0.5783  3.0018 -1.0894
 5532SOL    HW228233   0.661   3.486   2.994  2.0759  0.6046 -0.6102
 5533SOL     OW28234   3.565   0.631  14.191 -0.7640 -0.4083 -0.1783
 5533SOL    HW128235   3.471   0.632  14.173 -0.2878  3.0784 -2.2903
 5533SOL    HW228236   3.574   0.726  14.199 -0.9528 -0.1021 -3.7450
 5534SOL     OW28237   2.686   4.471   5.500  0.0846 -0.5762  0.3632
 5534SOL    HW128238   2.757   4.531   5.524 -1.3773  1.0059  0.7625
 5534SOL    HW228239   2.694   4.477   5.405 -0.5697 -0.6429  0.2994
 5535SOL     OW28240   0.450   3.791   2.876 -0.3805 -0.5223  0.4276
 5535SOL    HW128241   0.506   3.715   2.890 -1.0893 -0.8792  1.2952
 5535SOL    HW228242   0.513   3.862   2.870  0.7545 -1.6522 -0.9214
 5536SOL     OW28243   3.532   4.005   9.556 -0.3495 -0.5120 -0.4895
 5536SOL    HW128244   3.625   3.983   9.562 -0.2103  0.4059  0.9997
 5536SOL    HW228245   3.496   3.922   9.526  0.9523 -0.5585 -1.8924
 5537SOL     OW28246   1.598   2.053   6.801  0.9669  0.0100  0.1095
 5537SOL    HW128247   1.646   2.053   6.884  1.1442 -2.3336 -0.0157
 5537SOL    HW228248   1.616   1.965   6.770  1.3239  0.9070 -2.2675
 5538SOL     OW28249   3.499   1.348   4.161  0.0705  0.3295 -0.4018
 5538SOL    HW128250   3.501   1.316   4.251 -0.6981  0.1232 -0.4571
 5538SOL    HW228251   3.404   1.352   4.153 -0.0936 -1.8835  0.3291
 5539SOL     OW28252   2.950   0.548  12.190  0.0889  0.7240  0.5205
 5539SOL    HW128253   3.016   0.612  12.163 -2.0233  1.7544 -2.1982
 5539SOL    HW228254   3.007   0.491  12.242 -0.8772 -2.0627 -1.4714
 5540SOL     OW28255   0.141   0.248   4.570  0.2731  0.1035  0.1142
 5540SOL    HW128256   0.062   0.250   4.624  1.1522 -0.9711  1.4371
 5540SOL    HW228257   0.139   0.152   4.568  0.8132  0.0956  0.0685
 5541SOL     OW28258   2.836   4.070   5.198 -0.0268  0.0393 -0.2703
 5541SOL    HW128259   2.897   4.110   5.261  2.3546 -1.5579 -1.5710
 5541SOL    HW228260   2.835   4.134   5.126  0.7555 -0.2670 -0.5571
 5542SOL     OW28261   2.091   2.029   6.128 -0.3116 -0.1463  0.6898
 5542SOL    HW128262   2.049   1.996   6.208  1.4054 -0.0989  1.6143
 5542SOL    HW228263   2.018   2.040   6.067  1.4319 -1.8668 -1.7228
 5543SOL     OW28264   1.904   4.215  16.804 -0.3960  0.3223 -0.3301
 5543SOL    HW128265   1.900   4.180  16.715  2.4107  0.3841 -0.4953
 5543SOL    HW228266   1.927   4.136  16.852  0.6710  0.0421 -1.3062
 5544SOL     OW28267   3.139   1.061   3.404 -0.2750  0.0137  0.1711
 5544SOL    HW128268   3.168   1.112   3.329 -0.3871  1.4434  1.1109
 5544SOL    HW228269   3.205   0.992   3.412 -0.1494  0.1559  0.3328
 5545SOL     OW28270   4.403   0.415  16.541 -0.0238 -0.3586 -0.5377
 5545SOL    HW128271   4.375   0.335  16.585 -0.3913  0.2124  0.2752
 5545SOL    HW228272   4.495   0.421  16.567  0.0681  1.7348 -1.3031
 5546SOL     OW28273   3.235   2.390   5.641 -0.2130 -0.2028  0.2209
 5546SOL    HW128274   3.241   2.475   5.598 -2.4393  0.1123  0.5223
 5546SOL    HW228275   3.180   2.405   5.719  0.4861 -0.0223  0.6759
 5547SOL     OW28276   1.772   2.214   0.703  0.0300 -0.0248 -0.2019
 5547SOL    HW128277   1.735   2.167   0.779  1.6598 -1.9168 -0.5867
 5547SOL    HW228278   1.703   2.280   0.700  0.2865  0.2113 -0.7292
 5548SOL     OW28279   2.042   0.863  16.646  0.2394 -0.6151  1.0293
 5548SOL    HW128280   2.131   0.827  16.648  1.1641  1.6034 -1.7682
 5548SOL    HW228281   2.019   0.844  16.555  0.7361  0.0331  0.7676
 5549SOL     OW28282   1.910   3.756   4.830 -0.2525 -0.0146 -0.7253
 5549SOL    HW128283   1.980   3.756   4.764  0.4897  1.4296  0.0455
 5549SOL    HW228284   1.922   3.677   4.882 -1.0286  0.7247  0.5834
 5550SOL     OW28285   3.482   3.972   5.911 -0.1022 -0.0956  0.1048
 5550SOL    HW128286   3.575   3.990   5.904  0.3305 -2.4379 -0.3629
 5550SOL    HW228287   3.463   4.019   5.992  0.2237  1.0636 -0.4946
 5551SOL     OW28288   1.368   2.841  13.299 -0.2783  0.1610  0.2262
 5551SOL    HW128289   1.355   2.929  13.333 -1.3567  0.4434 -0.9501
 5551SOL    HW228290   1.300   2.833  13.233  0.3611 -2.1535 -0.1748
 5552SOL     OW28291   2.558   2.718   9.533  0.4889  0.1680 -0.2998
 5552SOL    HW128292   2.535   2.626   9.548 -0.9097  0.6200  0.3403
 5552SOL    HW228293   2.605   2.732   9.616 -2.8644  2.7878  1.1438
 5553SOL     OW28294   2.099   3.813   4.626  0.0069 -0.4612  0.1417
 5553SOL    HW128295   2.140   3.728   4.614  0.1307 -0.5184  0.9844
 5553SOL    HW228296   2.168   3.877   4.611  1.2325 -1.7484  0.3783
 5554SOL     OW28297   1.467   4.153   4.201  0.0016 -0.0894 -0.2125
 5554SOL    HW128298   1.419   4.100   4.137 -0.9866 -0.5604  0.9372
 5554SOL    HW228299   1.472   4.088   4.270 -1.0513  0.0324 -0.0093
 5555SOL     OW28300   1.298   4.609   3.010  0.0259 -0.1290  0.1314
 5555SOL    HW128301   1.233   4.540   2.998 -0.2961  0.2115 -0.0828
 5555SOL    HW228302   1.281   4.624   3.103 -0.8726 -2.9124  0.4177
 5556SOL     OW28303   4.702   4.503  15.272  0.4451 -0.1685  0.5713
 5556SOL    HW128304   0.003   4.574  15.220  0.7570 -1.3550 -0.7949
 5556SOL    HW228305   4.611   4.489  15.246  1.3270 -1.0760 -1.9995
 5557SOL     OW28306   4.109   0.679   0.801 -0.2559 -0.0110  1.0628
 5557SOL    HW128307   4.113   0.714   0.712  2.2981 -0.8151  0.8743
 5557SOL    HW228308   4.021   0.642   0.805  0.7219 -2.5438 -0.7907
 5558SOL     OW28309   3.486   3.391   4.076 -0.6806  0.1664 -0.4493
 5558SOL    HW128310   3.447   3.465   4.030 -1.7982  0.7487  1.4197
 5558SOL    HW228311   3.430   3.386   4.154  0.5138  1.8659  0.5160
 5559SOL     OW28312   0.482   2.974   3.947  0.2581 -0.0558  0.3343
 5559SOL    HW128313   0.475   3.004   4.037 -1.6396  3.4822 -0.9902
 5559SOL    HW228314   0.572   2.940   3.948  0.5951  0.8792  1.8521
 5560SOL     OW28315   0.853   1.208   3.490 -0.1309 -0.0101 -0.0821
 5560SOL    HW128316   0.931   1.153   3.484 -0.4388 -0.3152 -1.2490
 5560SOL    HW228317   0.792   1.148   3.533  0.7006 -1.3420 -0.7659
 5561SOL     OW28318   3.312   2.374   7.403 -0.2264  0.1197 -0.5333
 5561SOL    HW128319   3.364   2.338   7.474 -2.6215 -1.6210  0.3567
 5561SOL    HW228320   3.371   2.436   7.360  0.7850 -0.0811  0.5722
 5562SOL     OW28321   4.118   1.433   4.904  0.2226  0.0807  0.2428
 5562SOL    HW128322   4.081   1.493   4.840 -0.7687 -0.2026  0.5545
 5562SOL    HW228323   4.122   1.493   4.978  0.2205 -0.5551  0.7618
 5563SOL     OW28324   4.057   4.708   3.527 -0.2024 -0.0895  0.0247
 5563SOL    HW128325   4.060   0.056   3.482  0.1995 -0.1917 -0.1441
 5563SOL    HW228326   4.004   4.653   3.469 -1.0519 -0.3535  1.0684
 5564SOL     OW28327   3.668   1.703   6.115  0.3323  0.1947  0.5993
 5564SOL    HW128328   3.664   1.683   6.022 -0.2673 -3.5932  1.4753
 5564SOL    HW228329   3.721   1.783   6.106  1.8735 -0.9892 -0.9424
 5565SOL     OW28330   2.509   3.409  12.002  0.1032  1.1792  0.0369
 5565SOL    HW128331   2.541   3.337  12.055  0.0598  0.8473 -0.3874
 5565SOL    HW228332   2.515   3.480  12.066  0.9977  0.4274  0.7798
 5566SOL     OW28333   3.028   1.328   5.425  0.5242 -0.3698 -0.5651
 5566SOL    HW128334   3.085   1.404   5.440 -2.8042  2.1504 -0.5701
 5566SOL    HW228335   2.995   1.331   5.515  1.7713 -2.5988 -0.0317
 5567SOL     OW28336   2.473   0.397   3.802  0.4038 -0.1752 -0.5159
 5567SOL    HW128337   2.422   0.469   3.766 -0.6932  0.6177  2.7160
 5567SOL    HW228338   2.422   0.358   3.872  0.2159  1.9201  0.5100
 5568SOL     OW28339   2.897   0.988  14.007 -0.2951  0.4827 -0.3261
 5568SOL    HW128340   2.916   0.914  13.949 -3.9316 -0.0702 -0.7645
 5568SOL    HW228341   2.867   0.937  14.082  0.6604  1.2366  0.5712
 5569SOL     OW28342   0.341   4.269   8.812  0.1955  0.0911  0.3185
 5569SOL    HW128343   0.409   4.241   8.873  0.3363  0.2175  0.2196
 5569SOL    HW228344   0.274   4.206   8.838  0.4459 -0.5595 -0.5860
 5570SOL     OW28345   0.373   4.071   5.496  0.3381  0.4811 -0.7739
 5570SOL    HW128346   0.390   4.119   5.414  2.3296  0.2339 -0.4998
 5570SOL    HW228347   0.458   4.077   5.538 -1.2329 -0.7761  2.5934
 5571SOL     OW28348   0.941   3.333   9.597 -0.4805  0.3314 -0.3558
 5571SOL    HW128349   0.876   3.371   9.655 -1.1008  0.2842 -1.0122
 5571SOL    HW228350   0.999   3.295   9.663  1.2017 -0.6643 -2.3782
 5572SOL     OW28351   2.841   0.500   2.788 -0.1234 -0.3155 -0.0784
 5572SOL    HW128352   2.891   0.482   2.867 -0.6155 -0.9739  0.0801
 5572SOL    HW228353   2.802   0.414   2.775  2.0949 -1.2962 -0.1548
 5573SOL     OW28354   3.791   2.202   5.639  0.3353  0.0237  0.8299
 5573SOL    HW128355   3.768   2.271   5.577  1.4229  0.0828  0.4853
 5573SOL    HW228356   3.703   2.173   5.663  0.8515 -1.0769  1.3689
 5574SOL     OW28357   3.086   1.844   6.373 -0.6259 -0.0447  0.2755
 5574SOL    HW128358   3.015   1.859   6.434  0.0913  0.6824  0.9287
 5574SOL    HW228359   3.149   1.916   6.379  0.4312 -1.0492  1.2133
 5575SOL     OW28360   1.704   2.572   3.967 -0.5943  0.3618  0.4262
 5575SOL    HW128361   1.695   2.479   3.947 -0.0347  0.5014 -0.4769
 5575SOL    HW228362   1.794   2.580   3.936 -1.3900  0.5221 -1.8620
 5576SOL     OW28363   1.352   2.761   3.612 -0.4983 -0.0701 -0.1826
 5576SOL    HW128364   1.431   2.797   3.573 -0.4064  0.3318  0.3700
 5576SOL    HW228365   1.302   2.770   3.531  1.3370 -1.6617 -1.5001
 5577SOL     OW28366   2.589   4.453  17.038  0.4618  0.1316  0.3556
 5577SOL    HW128367   2.519   4.414  17.090  0.7796 -1.1404 -0.1777
 5577SOL    HW228368   2.612   4.516  17.107 -0.5973 -0.0168  0.8496
 5578SOL     OW28369   1.486   4.246   5.541  0.0151  0.0880 -0.1033
 5578SOL    HW128370   1.474   4.337   5.514 -1.4661  0.1747  0.8185
 5578SOL    HW228371   1.547   4.214   5.475 -0.8812  1.0040 -1.3865
 5579SOL     OW28372   1.813   4.364   9.850 -0.3256  0.2570 -0.1033
 5579SOL    HW128373   1.727   4.332   9.878  0.7875 -1.0345  1.8409
 5579SOL    HW228374   1.785   4.416   9.775  0.4797 -0.1117 -0.6533
 5580SOL     OW28375   0.838   0.718   6.835 -0.1790  0.3143  0.3014
 5580SOL    HW128376   0.809   0.804   6.868  0.9041 -0.0212  2.1042
 5580SOL    HW228377   0.914   0.743   6.783 -1.3341  1.4241 -0.8675
 5581SOL     OW28378   0.802   2.543   7.049 -0.4405  0.0715 -0.2692
 5581SOL    HW128379   0.847   2.484   6.988 -2.2548 -2.8681  1.2034
 5581SOL    HW228380   0.780   2.619   6.996  1.2404  1.8486  1.5671
 5582SOL     OW28381   3.136   4.565   1.932  0.1799 -0.0909 -0.2724
 5582SOL    HW128382   3.191   4.576   2.010 -1.7428 -2.8734  1.4795
 5582SOL    HW228383   3.160   4.650   1.894 -0.1021  0.2630  0.3337
 5583SOL     OW28384   2.906   2.764   6.354  0.2674  0.3853 -0.1472
 5583SOL    HW128385   2.825   2.788   6.309  0.0747  0.0833  0.0382
 5583SOL    HW228386   2.872   2.680   6.384  1.5471  0.4917  1.5401
 5584SOL     OW28387   4.174   0.278   0.472  0.4665  0.1861  0.2222
 5584SOL    HW128388   4.172   0.330   0.552  0.3699 -0.1188  0.4172
 5584SOL    HW228389   4.099   0.225   0.497 -0.0206 -0.6976 -3.2019
 5585SOL     OW28390   1.985   0.386   1.025  0.9609  0.3163 -0.6046
 5585SOL    HW128391   2.021   0.349   0.944  2.4693 -2.8802  1.5171
 5585SOL    HW228392   1.892   0.406   1.015  0.6419  0.0074  1.7856
 5586SOL     OW28393   1.262   3.396  13.620  0.2148 -0.2842 -0.6944
 5586SOL    HW128394   1.226   3.312  13.592 -1.5967  0.3534 -0.2519
 5586SOL    HW228395   1.181   3.444  13.637  0.4860 -0.0988  0.0690
 5587SOL     OW28396   2.474   0.349   6.756  0.5759 -0.5499  0.1375
 5587SOL    HW128397   2.484   0.261   6.721 -1.3617  0.2110 -2.3577
 5587SOL    HW228398   2.462   0.390   6.670 -1.2087 -0.6409  0.3280
 5588SOL     OW28399   0.478   1.199   5.948  0.0448  0.3098  0.0057
 5588SOL    HW128400   0.424   1.206   6.027  2.2126  4.0294  1.1345
 5588SOL    HW228401   0.450   1.111   5.920  1.9213 -0.4173  0.4118
 5589SOL     OW28402   3.033   3.930   9.716  0.3716 -0.5355 -0.4617
 5589SOL    HW128403   3.042   4.025   9.716 -2.2070 -0.2736  0.9975
 5589SOL    HW228404   3.119   3.905   9.750  0.3912  0.2856  0.0900
 5590SOL     OW28405   0.241   2.794  12.222 -0.5399  0.4049 -0.0371
 5590SOL    HW128406   0.147   2.779  12.216 -0.2779 -0.0959 -3.0492
 5590SOL    HW228407   0.279   2.715  12.184 -2.0125  0.1014 -0.8778
 5591SOL     OW28408   0.745   4.672   8.639  0.3288 -0.9504  0.2163
 5591SOL    HW128409   0.802   4.598   8.659 -1.3507 -1.7335  2.1295
 5591SOL    HW228410   0.664   4.621   8.638 -1.0572  1.2146  1.3064
 5592SOL     OW28411   2.685   4.571   3.034  0.3935 -0.2695 -0.1969
 5592SOL    HW128412   2.657   4.494   2.985  1.8612 -1.2178  0.4750
 5592SOL    HW228413   2.744   4.536   3.101  0.1591 -1.1940 -0.4729
 5593SOL     OW28414   0.353   0.498  11.813 -0.0396 -0.0594 -0.2219
 5593SOL    HW128415   0.427   0.550  11.845 -1.0198  0.7937  0.6500
 5593SOL    HW228416   0.373   0.493  11.719  1.3691 -1.8956  0.1665
 5594SOL     OW28417   0.182   2.459   5.899  0.4839  0.5540  0.5656
 5594SOL    HW128418   0.140   2.502   5.824 -1.4372  1.6678  2.2823
 5594SOL    HW228419   0.225   2.541   5.925  1.6547 -0.4891  1.8832
 5595SOL     OW28420   3.496   0.128   7.366 -0.3826  0.2644  0.1647
 5595SOL    HW128421   3.468   0.039   7.345 -0.7988 -0.3137  3.1426
 5595SOL    HW228422   3.586   0.120   7.336 -1.7477 -1.2594 -3.4525
 5596SOL     OW28423   2.833   4.121   1.756 -0.2777 -0.3048 -0.1608
 5596SOL    HW128424   2.887   4.121   1.677  0.1588 -1.9221  0.1300
 5596SOL    HW228425   2.778   4.197   1.738 -0.4065 -0.2108  0.6563
 5597SOL     OW28426   0.832   0.468  13.474  0.5594 -0.2446 -0.0147
 5597SOL    HW128427   0.749   0.491  13.515  0.3427  0.1006 -0.6486
 5597SOL    HW228428   0.854   0.393  13.530  0.0458 -0.9671 -0.7903
 5598SOL     OW28429   3.065   0.030   5.346 -0.4532  0.2454  0.2195
 5598SOL    HW128430   3.061   0.043   5.441  1.7706  0.7815  0.2220
 5598SOL    HW228431   3.081   0.120   5.318  0.2563  1.1144  3.3512
 5599SOL     OW28432   3.636   3.601   9.607 -0.3252 -0.9768  0.6000
 5599SOL    HW128433   3.554   3.651   9.598  2.4333  2.8829 -3.1197
 5599SOL    HW228434   3.600   3.517   9.633 -0.2485 -0.7221  1.5382
 5600SOL     OW28435   1.791   4.456   5.062 -0.0155 -0.0230  0.2683
 5600SOL    HW128436   1.828   4.448   4.974  1.6303 -0.6558  1.0065
 5600SOL    HW228437   1.697   4.459   5.048 -0.0454 -0.0138  0.4656
 5601SOL     OW28438   3.501   3.815   6.923 -0.1171 -0.6257 -0.1227
 5601SOL    HW128439   3.501   3.745   6.989  1.3648 -0.0236  0.5316
 5601SOL    HW228440   3.431   3.781   6.868 -0.7937 -1.3953  1.2180
 5602SOL     OW28441   2.628   1.906   5.651 -0.1573 -0.2856  0.2104
 5602SOL    HW128442   2.685   1.912   5.574 -0.1282  0.9299  0.3204
 5602SOL    HW228443   2.695   1.900   5.719 -0.7153 -0.4578  0.7363
 5603SOL     OW28444   4.207   4.365   1.103  0.1347  0.0033 -0.1888
 5603SOL    HW128445   4.269   4.351   1.031  0.3849  0.5167 -0.0715
 5603SOL    HW228446   4.205   4.460   1.090 -0.5163  0.2753  1.9204
 5604SOL     OW28447   1.431   0.933   5.040 -0.4049 -0.5280  0.4774
 5604SOL    HW128448   1.420   0.882   4.960 -0.8241  0.8885 -0.3762
 5604SOL    HW228449   1.358   0.899   5.091 -0.1928  0.4840  1.4588
 5605SOL     OW28450   0.553   0.446   7.008 -0.4939 -0.6544  0.4586
 5605SOL    HW128451   0.463   0.442   6.975 -0.4250 -1.5817  0.3685
 5605SOL    HW228452   0.602   0.483   6.935 -2.7577 -0.9680 -1.2176
 5606SOL     OW28453   4.098   0.276  17.723  0.2003 -0.3695 -0.8234
 5606SOL    HW128454   4.010   0.314  17.733 -0.1623 -1.4457  0.0567
 5606SOL    HW228455   4.140   0.315   0.052  1.0152  1.1318 -2.0280
 5607SOL     OW28456   0.481   1.097   3.274  0.5122 -0.1662  0.2855
 5607SOL    HW128457   0.516   1.181   3.304 -2.0892  1.3704 -0.9434
 5607SOL    HW228458   0.556   1.076   3.218 -1.0583 -1.3195 -1.4049
 5608SOL     OW28459   3.791   0.813   4.014  0.0792 -0.3568 -0.0905
 5608SOL    HW128460   3.852   0.823   4.086  1.8163 -2.0286 -1.3252
 5608SOL    HW228461   3.710   0.804   4.063 -0.7467 -2.2378 -1.8179
 5609SOL     OW28462   0.182   2.023  15.973  0.2363  0.2003 -0.2992
 5609SOL    HW128463   0.165   1.963  16.045 -0.2103 -1.0122 -1.4289
 5609SOL    HW228464   0.192   1.957  15.905  1.5966 -1.2873  1.3333
 5610SOL     OW28465   1.752   3.522   5.173  0.3157  0.0011 -0.3500
 5610SOL    HW128466   1.732   3.511   5.266 -5.9714  1.7788 -1.5048
 5610SOL    HW228467   1.689   3.589   5.147 -0.0891  0.2127  1.1475
 5611SOL     OW28468   4.011   2.697  11.049  0.2695  0.1918  0.2796
 5611SOL    HW128469   4.047   2.756  11.115 -0.5330  0.5792  0.3734
 5611SOL    HW228470   4.077   2.628  11.050  0.9993  0.8094 -4.5262
 5612SOL     OW28471   1.775   2.123   4.541  1.1094  0.3733  0.2050
 5612SOL    HW128472   1.776   2.120   4.445  0.0566 -2.6653  0.2831
 5612SOL    HW228473   1.727   2.206   4.548 -2.2084 -1.5594  0.3431
 5613SOL     OW28474   1.342   1.007   5.544 -0.1845  0.1966  0.2085
 5613SOL    HW128475   1.350   0.925   5.496 -2.3741 -1.4270  2.6120
 5613SOL    HW228476   1.269   1.042   5.492 -0.2694  0.5592  0.5684
 5614SOL     OW28477   1.052   2.224   5.534 -0.0213 -0.0993 -0.3929
 5614SOL    HW128478   1.002   2.239   5.614  0.0484 -0.4116 -0.2925
 5614SOL    HW228479   1.140   2.221   5.571 -0.7240  0.1169  1.2791
 5615SOL     OW28480   0.898   0.263   7.005  0.5877  0.6553 -0.1487
 5615SOL    HW128481   0.864   0.227   7.087 -1.1249 -1.6827 -1.9125
 5615SOL    HW228482   0.891   0.357   7.019 -0.6346  0.4000  0.9129
 5616SOL     OW28483   3.710   1.470   3.081  0.6928  0.4900  0.0261
 5616SOL    HW128484   3.722   1.554   3.036 -0.6837  0.2422 -0.8071
 5616SOL    HW228485   3.749   1.482   3.167  1.8316  1.8993 -0.7030
 5617SOL     OW28486   4.621   2.913  12.632 -0.2522  0.0618 -0.4733
 5617SOL    HW128487   4.552   2.897  12.697 -0.0929  1.2556 -0.0113
 5617SOL    HW228488   4.678   2.977  12.675 -0.8458  1.0899 -1.2055
 5618SOL     OW28489   2.615   4.176   5.426  0.2402  0.1374 -0.0334
 5618SOL    HW128490   2.700   4.174   5.382  0.8004 -1.0261  1.1052
 5618SOL    HW228491   2.647   4.198   5.513 -0.1240  0.7471 -0.0537
 5619SOL     OW28492   4.240   3.193   2.806  0.1893 -0.1541  0.3658
 5619SOL    HW128493   4.214   3.178   2.897  0.3909  1.0942  0.6269
 5619SOL    HW228494   4.218   3.105   2.775 -1.1497  1.0315 -2.0868
 5620SOL     OW28495   3.968   2.052   1.552 -0.3740 -0.1336  0.6199
 5620SOL    HW128496   3.879   2.021   1.571  0.8604 -3.0189  1.6488
 5620SOL    HW228497   3.957   2.049   1.457  0.9172 -0.3314  0.4720
 5621SOL     OW28498   3.303   4.568   8.781  0.1858 -0.4368 -0.6028
 5621SOL    HW128499   3.349   4.652   8.788  1.3463 -0.9138 -2.3975
 5621SOL    HW228500   3.314   4.558   8.686  0.3958 -0.5184 -0.5695
 5622SOL     OW28501   0.310   4.727   8.229  0.1602 -0.2142 -0.1202
 5622SOL    HW128502   0.404   4.715   8.240  0.7327  2.3578 -2.2317
 5622SOL    HW228503   0.291   4.673   8.305 -0.9522  0.3062 -0.0291
 5623SOL     OW28504   1.939   0.301   7.646  0.0045 -0.3442 -0.7785
 5623SOL    HW128505   1.924   0.378   7.702  1.0799  0.6416 -1.8616
 5623SOL    HW228506   1.849   0.269   7.637 -0.1731  0.0428 -0.4055
 5624SOL     OW28507   3.234   2.637  16.773 -0.3784  0.0923  0.0245
 5624SOL    HW128508   3.227   2.721  16.818  2.7780 -0.3827  1.3863
 5624SOL    HW228509   3.329   2.625  16.767 -0.1661  1.0448  1.6511
 5625SOL     OW28510   1.192   3.841   4.803  0.4096  0.0349 -0.0739
 5625SOL    HW128511   1.207   3.820   4.895  1.7482 -0.8445 -0.4888
 5625SOL    HW228512   1.120   3.901   4.818  0.4248 -0.8715  3.4426
 5626SOL     OW28513   3.801   1.923   5.418 -0.3266  0.5256  0.5803
 5626SOL    HW128514   3.778   2.004   5.372 -1.1767 -0.4446 -0.6740
 5626SOL    HW228515   3.790   1.853   5.355  1.5001 -0.4915  1.3683
 5627SOL     OW28516   1.717   2.956   5.659  0.1741  0.0646 -0.0870
 5627SOL    HW128517   1.642   2.966   5.718  0.7664  0.3009  0.6169
 5627SOL    HW228518   1.780   3.013   5.703 -0.6122  0.4841  0.4924
 5628SOL     OW28519   4.121   2.902   4.157 -0.7751  0.2560  0.1172
 5628SOL    HW128520   4.106   2.995   4.144  0.1355  0.2007 -1.3668
 5628SOL    HW228521   4.215   2.890   4.138 -1.3838 -2.1459 -1.4326
 5629SOL     OW28522   0.694   1.412   8.873  0.1275  0.3737  0.0039
 5629SOL    HW128523   0.712   1.497   8.834  1.6025 -1.4233 -3.2758
 5629SOL    HW228524   0.601   1.393   8.858 -0.2930  1.0245  1.7841
 5630SOL     OW28525   0.556   0.223   6.652 -0.1816  0.6147  0.2810
 5630SOL    HW128526   0.467   0.223   6.685 -0.4431  0.1488 -0.4254
 5630SOL    HW228527   0.546   0.268   6.568  0.6465  0.1409 -0.0778
 5631SOL     OW28528   2.749   1.051  14.532  0.3132  0.2989  0.1424
 5631SOL    HW128529   2.702   1.028  14.612  2.4847  0.1775  1.3917
 5631SOL    HW228530   2.719   0.970  14.490 -0.0478  1.5229 -1.9624
 5632SOL     OW28531   0.416   4.253  10.510 -0.2105 -0.0212 -0.8765
 5632SOL    HW128532   0.387   4.221  10.425  2.9865  0.7263 -2.2175
 5632SOL    HW228533   0.360   4.331  10.511  0.2477  0.3146 -2.0999
 5633SOL     OW28534   1.951   2.789   8.148  0.3545  0.2300 -0.1657
 5633SOL    HW128535   1.947   2.761   8.057  0.0941 -2.3574  0.6476
 5633SOL    HW228536   1.998   2.871   8.133 -0.3286  0.1886 -2.4658
 5634SOL     OW28537   0.034   1.295   5.230 -0.3593 -0.3063  0.2610
 5634SOL    HW128538   0.070   1.213   5.264 -3.1196 -2.6669 -2.5221
 5634SOL    HW228539   0.055   1.367   5.290 -0.6197  0.1484 -0.2012
 5635SOL     OW28540   3.701   2.433   9.343  0.7627  0.2365 -0.2725
 5635SOL    HW128541   3.731   2.485   9.418 -4.8592 -0.0558  2.1620
 5635SOL    HW228542   3.742   2.471   9.265  0.3131  1.1677 -0.0616
 5636SOL     OW28543   0.085   0.927   5.615 -0.1620  0.1479 -0.1039
 5636SOL    HW128544   0.012   0.868   5.595  1.5063 -1.9063 -0.1812
 5636SOL    HW228545   0.124   0.875   5.685  1.1667  2.2411  0.6845
 5637SOL     OW28546   2.032   2.956   2.978  0.3008  0.0070 -0.3325
 5637SOL    HW128547   2.070   2.898   2.912  2.6089 -1.2121  2.0844
 5637SOL    HW228548   1.957   2.997   2.935  0.2224  1.2063  0.9495
 5638SOL     OW28549   1.332   3.141  14.760 -0.1522 -0.1637 -0.4200
 5638SOL    HW128550   1.347   3.172  14.849 -0.3161 -3.9002  0.8709
 5638SOL    HW228551   1.396   3.197  14.716  1.4407 -1.2851  0.4971
 5639SOL     OW28552   3.188   2.829  17.374 -0.7151 -0.3976 -0.3460
 5639SOL    HW128553   3.263   2.859  17.322 -1.1811 -0.4488 -1.0442
 5639SOL    HW228554   3.194   2.733  17.377 -2.1583 -0.4458  1.2756
 5640SOL     OW28555   2.122   3.664   7.146  0.3449  0.3473 -0.0891
 5640SOL    HW128556   2.096   3.672   7.054  1.3635  1.7317 -0.2477
 5640SOL    HW228557   2.145   3.754   7.170  1.4364 -0.5601  2.2750
 5641SOL     OW28558   2.981   0.328  15.743 -0.6170  0.2595  0.1885
 5641SOL    HW128559   3.045   0.309  15.674 -2.0417 -1.6884 -0.5996
 5641SOL    HW228560   3.035   0.300  15.817 -0.9244  1.1322  0.7510
 5642SOL     OW28561   3.524   2.492  11.078 -0.5053 -0.4721  0.0096
 5642SOL    HW128562   3.516   2.579  11.038  0.1649  0.3200  1.5897
 5642SOL    HW228563   3.499   2.527  11.164 -0.7330  0.0434 -0.2679
 5643SOL     OW28564   4.310   3.165   2.519  0.1523 -0.8536  0.3675
 5643SOL    HW128565   4.312   3.072   2.496 -1.0444 -0.4041 -1.5629
 5643SOL    HW228566   4.286   3.156   2.611  0.6573 -0.8379  0.4998
 5644SOL     OW28567   1.621   3.355   8.932 -0.4591 -0.7423  0.0060
 5644SOL    HW128568   1.588   3.437   8.967  1.9545  0.3698 -0.3311
 5644SOL    HW228569   1.550   3.326   8.875  2.0868 -2.9082 -2.0492
 5645SOL     OW28570   2.411   0.134   3.621  0.0410  0.3536 -0.4229
 5645SOL    HW128571   2.397   0.226   3.642  3.4772  0.4344  1.5343
 5645SOL    HW228572   2.499   0.126   3.658 -0.5310  0.0667  0.8562
 5646SOL     OW28573   3.684   4.289  15.467  0.1737 -0.2473  0.2871
 5646SOL    HW128574   3.642   4.365  15.508  0.0157 -0.1841  0.0080
 5646SOL    HW228575   3.673   4.309  15.374  1.6108  2.2178  0.6544
 5647SOL     OW28576   4.509   1.957   8.523 -0.2372 -0.2575 -0.1001
 5647SOL    HW128577   4.505   2.047   8.554  0.1630 -0.6527  1.1041
 5647SOL    HW228578   4.516   1.909   8.606 -2.1089 -1.1094 -0.4448
 5648SOL     OW28579   3.412   4.036   6.450 -0.0962  0.0648 -0.4127
 5648SOL    HW128580   3.412   3.946   6.484 -0.8324 -0.4463 -1.7724
 5648SOL    HW228581   3.363   4.078   6.521 -0.0032 -0.6299  0.0596
 5649SOL     OW28582   1.382   1.932   6.486  0.2183  0.0816 -0.1166
 5649SOL    HW128583   1.288   1.922   6.497 -0.1196  0.6708 -2.3520
 5649SOL    HW228584   1.400   1.839   6.495 -2.3567 -0.6244 -2.1659
 5650SOL     OW28585   3.967   3.050   6.106 -0.0449 -0.3128 -0.1872
 5650SOL    HW128586   3.904   2.995   6.153  1.2057 -0.7875  0.9286
 5650SOL    HW228587   4.052   3.006   6.099 -0.5282 -1.3228  0.1839
 5651SOL     OW28588   1.070   0.539  17.221  0.2757 -0.6268 -0.5960
 5651SOL    HW128589   1.073   0.628  17.186  1.9965  0.1800  1.6405
 5651SOL    HW228590   1.156   0.513  17.189  0.3222 -1.4940  0.2274
 5652SOL     OW28591   2.947   4.331   2.715  0.0102  0.0129  0.1168
 5652SOL    HW128592   2.968   4.253   2.765  1.3318  1.0023  1.1039
 5652SOL    HW228593   3.034   4.371   2.719  0.2661 -0.3606 -1.6286
 5653SOL     OW28594   2.522   1.755   8.728  0.4247  0.1303 -0.5515
 5653SOL    HW128595   2.475   1.828   8.767  1.2140  1.2701 -1.7410
 5653SOL    HW228596   2.448   1.725   8.674  0.8881 -0.0543 -1.0925
 5654SOL     OW28597   4.039   4.455   2.744 -0.2464  0.0291 -0.5171
 5654SOL    HW128598   3.954   4.413   2.757 -1.6754  3.2145  0.5489
 5654SOL    HW228599   4.015   4.517   2.674  0.6342  1.6891  0.6569
 5655SOL     OW28600   4.519   1.655   2.447 -0.0596 -0.0852 -0.4418
 5655SOL    HW128601   4.563   1.739   2.428 -0.2583 -0.3423 -1.9984
 5655SOL    HW228602   4.455   1.653   2.377 -0.5470 -2.6956  0.0906
 5656SOL     OW28603   2.669   4.142   4.347  0.0538 -0.5773 -0.6353
 5656SOL    HW128604   2.603   4.134   4.278 -1.2596 -1.1110  0.6791
 5656SOL    HW228605   2.716   4.213   4.304  0.5870 -1.1381 -0.9778
 5657SOL     OW28606   0.932   1.866  13.603  0.1373  0.0301 -0.2806
 5657SOL    HW128607   0.853   1.881  13.656  2.9253  0.1465  3.8113
 5657SOL    HW228608   0.960   1.954  13.576 -3.7786  0.6980 -2.1687
 5658SOL     OW28609   4.185   1.634   8.481 -0.2918 -0.1517  0.7751
 5658SOL    HW128610   4.270   1.603   8.448 -0.5563 -1.8670  1.6931
 5658SOL    HW228611   4.184   1.587   8.565  0.1847  0.1651  0.9604
 5659SOL     OW28612   4.471   4.205  13.920  0.0237 -0.2249 -0.0696
 5659SOL    HW128613   4.391   4.169  13.880  0.0775 -0.9269  0.4538
 5659SOL    HW228614   4.530   4.203  13.844 -2.3317  0.3687 -1.9326
 5660SOL     OW28615   4.174   0.646   6.869 -1.1559  0.0703 -0.3880
 5660SOL    HW128616   4.155   0.717   6.930  1.9300  1.4866 -1.0745
 5660SOL    HW228617   4.253   0.609   6.906  0.6283  1.6711 -2.5682
 5661SOL     OW28618   0.338   1.815  16.432  0.1164  0.7661  0.0221
 5661SOL    HW128619   0.306   1.893  16.476 -0.4580 -1.0055  2.7638
 5661SOL    HW228620   0.276   1.745  16.455 -0.7876  0.7062 -2.5680
 5662SOL     OW28621   2.732   0.007   3.379 -0.6551  0.2760 -0.1188
 5662SOL    HW128622   2.643   0.017   3.345 -0.7281 -1.5105 -0.4434
 5662SOL    HW228623   2.753   4.653   3.357  0.6442  0.5344  0.0327
 5663SOL     OW28624   4.650   2.710  16.259 -0.3786  0.0205 -0.5663
 5663SOL    HW128625   4.625   2.657  16.184  0.5140 -0.7698 -0.3147
 5663SOL    HW228626   4.570   2.744  16.298 -2.3489 -0.3903 -4.3527
 5664SOL     OW28627   1.300   4.015  14.201 -0.2502 -0.5566  0.6189
 5664SOL    HW128628   1.356   3.957  14.151 -0.3049 -0.4954  0.4861
 5664SOL    HW228629   1.364   4.070  14.247  0.2478 -1.5306  1.0918
 5665SOL     OW28630   4.343   3.610   1.658  0.5659  0.2292  0.2304
 5665SOL    HW128631   4.430   3.585   1.691  1.0306 -0.2289 -1.3443
 5665SOL    HW228632   4.365   3.634   1.568  1.5993  1.1089  0.7045
 5666SOL     OW28633   4.314   3.363  15.075  0.8264  0.1595  0.3631
 5666SOL    HW128634   4.301   3.422  15.149 -0.4510 -0.7240  0.8439
 5666SOL    HW228635   4.247   3.394  15.014  0.0029  2.3041  2.3948
 5667SOL     OW28636   0.229   0.301   1.316  0.1038  0.3433  0.6272
 5667SOL    HW128637   0.308   0.264   1.356  0.2063  0.2352  0.3238
 5667SOL    HW228638   0.240   0.392   1.341  1.7332  0.5829 -0.9651
 5668SOL     OW28639   4.162   3.487   2.105 -0.5526 -0.3612 -0.0689
 5668SOL    HW128640   4.165   3.451   2.016 -0.8363  0.5380 -0.4421
 5668SOL    HW228641   4.107   3.421   2.147 -1.4147 -0.3025 -1.1033
 5669SOL     OW28642   0.399   2.497   7.737 -0.5637  0.1516  0.1407
 5669SOL    HW128643   0.307   2.520   7.751 -1.1077 -0.3862 -2.4651
 5669SOL    HW228644   0.430   2.498   7.827  1.5073  1.2870 -0.5858
 5670SOL     OW28645   4.484   0.629   7.800 -0.7850  0.6215 -0.4977
 5670SOL    HW128646   4.503   0.539   7.827 -1.2914  1.3766  2.3914
 5670SOL    HW228647   4.566   0.649   7.755 -1.6509 -2.1292 -3.3229
 5671SOL     OW28648   2.041   1.444   6.500  0.4247  0.0565 -0.2520
 5671SOL    HW128649   2.046   1.374   6.435 -0.0784 -1.4362  1.3049
 5671SOL    HW228650   1.948   1.463   6.498  0.1614 -1.0328  1.3143
 5672SOL     OW28651   3.661   2.457   8.555 -0.3921  0.9491  0.3575
 5672SOL    HW128652   3.683   2.504   8.635  2.4251  0.6715 -0.2381
 5672SOL    HW228653   3.740   2.402   8.546 -1.2775 -0.2911  0.1393
 5673SOL     OW28654   3.187   0.833   2.590 -0.3873  0.5465 -0.1402
 5673SOL    HW128655   3.152   0.837   2.500  1.0917 -1.1140 -0.7910
 5673SOL    HW228656   3.117   0.790   2.639 -0.6529  0.8899 -0.2117
 5674SOL     OW28657   0.739   0.079   3.565  0.4220  0.1988  0.1058
 5674SOL    HW128658   0.698   4.731   3.569  0.7648 -0.0760 -2.2431
 5674SOL    HW228659   0.662   0.132   3.548 -0.0117 -0.4558  0.0624
 5675SOL     OW28660   3.813   1.588   1.755  0.2182 -0.1533  0.1823
 5675SOL    HW128661   3.865   1.582   1.835 -0.9991  1.8308  1.1349
 5675SOL    HW228662   3.729   1.607   1.797  0.2420 -1.8246  0.9864
 5676SOL     OW28663   2.768   1.008   4.334 -0.4074 -0.3799  0.4897
 5676SOL    HW128664   2.718   0.928   4.319 -0.4259 -0.6210  1.8564
 5676SOL    HW228665   2.756   1.046   4.247 -3.0039 -0.8779  0.6361
 5677SOL     OW28666   4.141   4.235   8.933 -0.2125 -0.2790 -0.0899
 5677SOL    HW128667   4.136   4.176   9.008 -0.2850  1.6211  1.4204
 5677SOL    HW228668   4.090   4.311   8.961  1.9018  2.0327 -2.5912
 5678SOL     OW28669   2.635   3.375  17.537 -0.2968  0.6907  0.0028
 5678SOL    HW128670   2.648   3.355  17.629  0.3349  0.4633 -0.1337
 5678SOL    HW228671   2.578   3.305  17.504 -0.0083  0.9799 -1.1379
 5679SOL     OW28672   3.349   3.044  14.639  0.1548 -0.4275  0.1037
 5679SOL    HW128673   3.330   3.136  14.621 -1.9635 -0.7356  0.6634
 5679SOL    HW228674   3.283   3.043  14.709  0.8354 -0.8143  0.7360
 5680SOL     OW28675   1.183   4.713   5.934  0.6812  0.3849  0.4032
 5680SOL    HW128676   1.231   4.704   5.852  0.1082  0.8768  0.0077
 5680SOL    HW228677   1.244   4.725   6.006 -0.1982 -0.0403  1.2117
 5681SOL     OW28678   2.406   2.812   1.309  0.5526 -0.4995  0.1589
 5681SOL    HW128679   2.487   2.814   1.360  0.1153  0.8262  0.8091
 5681SOL    HW228680   2.343   2.805   1.381  0.6239 -1.5066  0.1261
 5682SOL     OW28681   0.156   1.175   6.652  0.6698 -0.4268 -0.2965
 5682SOL    HW128682   0.088   1.110   6.669 -0.1457 -0.4158 -3.4938
 5682SOL    HW228683   0.227   1.122   6.689  1.6531  0.6896 -0.5550
 5683SOL     OW28684   2.755   3.098  13.748 -0.0323 -0.5279  0.5919
 5683SOL    HW128685   2.839   3.143  13.735 -1.9312  2.4374 -1.4216
 5683SOL    HW228686   2.775   3.005  13.747  0.7047 -0.3857  2.4874
 5684SOL     OW28687   1.925   1.327   3.643  0.0258 -0.5746  0.0124
 5684SOL    HW128688   1.890   1.248   3.684  0.7320 -0.3408  1.0587
 5684SOL    HW228689   1.956   1.380   3.716 -2.2035 -1.0762  1.3393
 5685SOL     OW28690   3.453   2.586   6.707 -0.0424  0.6069 -0.2092
 5685SOL    HW128691   3.544   2.572   6.735 -0.2617  1.4491  0.9457
 5685SOL    HW228692   3.427   2.604   6.797  1.1333  1.2038  0.0088
 5686SOL     OW28693   1.061   4.658   7.498 -0.0223 -0.7900 -0.3126
 5686SOL    HW128694   1.064   4.687   7.408 -1.6294 -0.8052 -0.3674
 5686SOL    HW228695   1.007   4.582   7.476 -0.5348 -0.5964  0.2647
 5687SOL     OW28696   1.164   3.262   3.488 -0.4666 -0.5551 -0.1931
 5687SOL    HW128697   1.222   3.219   3.424 -1.0891  0.7896 -1.6562
 5687SOL    HW228698   1.176   3.199   3.559  0.0302 -0.6452 -0.3551
 5688SOL     OW28699   0.790   3.161   6.665  0.1202  0.4119  0.4646
 5688SOL    HW128700   0.801   3.256   6.668  0.1762  0.3912  0.8489
 5688SOL    HW228701   0.697   3.157   6.643  0.1469 -0.7650  0.5874
 5689SOL     OW28702   4.546   1.856  10.029  0.2757 -0.1761 -0.1781
 5689SOL    HW128703   4.476   1.825   9.972 -0.2113  1.1421 -0.2878
 5689SOL    HW228704   4.563   1.944   9.995 -1.4574  1.0718  2.2189
 5690SOL     OW28705   1.789   2.046   8.146  0.1983  0.0306 -0.4690
 5690SOL    HW128706   1.797   1.953   8.122  0.5382 -0.8479  2.9186
 5690SOL    HW228707   1.795   2.035   8.241 -0.1948 -1.4731 -0.6054
 5691SOL     OW28708   0.221   1.830   5.903 -0.0825  0.1577  0.0274
 5691SOL    HW128709   0.132   1.845   5.934 -0.1099  1.8482 -0.8751
 5691SOL    HW228710   0.251   1.761   5.962 -0.6245 -1.5556 -1.6636
 5692SOL     OW28711   3.516   0.389  16.454 -0.3474  0.2465  0.4075
 5692SOL    HW128712   3.525   0.441  16.373  1.3248 -1.1401 -0.2892
 5692SOL    HW228713   3.488   0.312  16.406 -0.4254 -0.1727  1.1360
 5693SOL     OW28714   0.608   4.103   9.866 -0.5850 -0.2193 -0.2279
 5693SOL    HW128715   0.672   4.167   9.897 -1.0381  0.2295 -0.2282
 5693SOL    HW228716   0.534   4.117   9.925  0.2739 -0.4605  0.8945
 5694SOL     OW28717   0.852   1.361   9.899 -0.5558  0.4865  0.1580
 5694SOL    HW128718   0.829   1.327   9.813 -1.0389  1.8707 -0.2461
 5694SOL    HW228719   0.941   1.396   9.892  0.0536 -1.2332 -0.8181
 5695SOL     OW28720   0.718   4.506   9.840  0.6515  0.7211 -1.1738
 5695SOL    HW128721   0.725   4.552   9.923 -1.2322 -1.0806 -0.0129
 5695SOL    HW228722   0.760   4.423   9.866  0.9040  1.2918  0.2376
 5696SOL     OW28723   2.351   3.013  13.920 -0.1774  0.0973  0.1910
 5696SOL    HW128724   2.283   3.014  13.853 -0.3280 -0.8000  0.3265
 5696SOL    HW228725   2.375   2.921  13.932  0.5363 -0.3523 -4.4836
 5697SOL     OW28726   3.011   2.145   8.660 -0.0846 -0.3556  0.3406
 5697SOL    HW128727   3.100   2.166   8.631 -1.1208 -0.9801 -3.3491
 5697SOL    HW228728   3.008   2.051   8.642 -1.3080 -0.4543  1.0602
 5698SOL     OW28729   1.878   1.933   2.738 -0.4370 -0.1294 -0.1059
 5698SOL    HW128730   1.861   1.983   2.818  0.0092  0.0061 -0.0985
 5698SOL    HW228731   1.867   2.004   2.676 -0.2793 -0.4085 -0.4497
 5699SOL     OW28732   0.618   1.678   7.583 -0.0511  0.2485 -0.4881
 5699SOL    HW128733   0.546   1.739   7.601  0.2480  0.8577 -1.3877
 5699SOL    HW228734   0.693   1.720   7.625 -0.1256 -0.6150  0.5302
 5700SOL     OW28735   3.871   0.768   8.840  0.0002  0.3380 -0.2170
 5700SOL    HW128736   3.879   0.829   8.913 -0.3128  0.9533 -0.7035
 5700SOL    HW228737   3.916   0.694   8.882  1.3179  2.3892  1.9441
 5701SOL     OW28738   1.934   1.265  13.636  0.2624 -0.0292  0.3489
 5701SOL    HW128739   1.874   1.339  13.626  2.7776  1.8581 -0.6174
 5701SOL    HW228740   2.014   1.300  13.597  0.2991 -1.0393 -0.4887
 5702SOL     OW28741   1.494   3.116   5.283 -0.4716 -0.3731  0.2386
 5702SOL    HW128742   1.569   3.065   5.313  1.3383  1.2592 -1.5253
 5702SOL    HW228743   1.484   3.177   5.356 -1.3492 -1.1200  0.7543
 5703SOL     OW28744   0.904   3.620   2.120  0.6635 -0.0373  0.0338
 5703SOL    HW128745   0.970   3.572   2.071  0.9146 -0.2148  0.5410
 5703SOL    HW228746   0.845   3.656   2.054  1.0227 -1.7922 -1.2608
 5704SOL     OW28747   3.182   3.148   7.595  0.0212 -0.3709 -0.3674
 5704SOL    HW128748   3.195   3.061   7.558 -2.0582 -1.3324  1.1268
 5704SOL    HW228749   3.237   3.149   7.674 -0.8662 -3.1447  0.2782
 5705SOL     OW28750   1.328   3.176   3.302 -0.4580  0.2549  0.2046
 5705SOL    HW128751   1.308   3.101   3.246 -0.1812 -0.1994  0.7122
 5705SOL    HW228752   1.359   3.237   3.235  1.0189  1.5044  2.0225
 5706SOL     OW28753   3.681   1.460   2.150 -0.0915  1.1244 -0.0807
 5706SOL    HW128754   3.691   1.533   2.090 -0.4567 -0.1475 -1.6980
 5706SOL    HW228755   3.615   1.411   2.100 -1.0284  1.0874  1.1905
 5707SOL     OW28756   4.469   1.929  17.216 -0.3288 -0.7438 -0.2915
 5707SOL    HW128757   4.398   1.869  17.240 -1.7721  0.6499 -1.0509
 5707SOL    HW228758   4.541   1.913  17.276 -1.2470 -0.8810  0.7816
 5708SOL     OW28759   2.214   1.718   3.377  0.0431  0.1833  0.2415
 5708SOL    HW128760   2.202   1.813   3.381  2.4248  0.4847  0.3434
 5708SOL    HW228761   2.247   1.711   3.287 -1.7402 -0.3599 -0.3755
 5709SOL     OW28762   1.644   0.027   6.083 -0.0605  0.0582 -0.2711
 5709SOL    HW128763   1.727   4.718   6.094 -0.3906  0.1615  2.8215
 5709SOL    HW228764   1.603   0.014   6.169  2.0730 -3.7073  0.1818
 5710SOL     OW28765   2.145   4.419   2.991 -0.6149 -0.5301  0.4712
 5710SOL    HW128766   2.196   4.493   2.957 -0.8846 -1.3464 -1.7132
 5710SOL    HW228767   2.067   4.463   3.022  0.7967  0.6112  2.3987
 5711SOL     OW28768   3.922   3.614   5.507 -0.1196  0.2938  0.3181
 5711SOL    HW128769   3.914   3.624   5.602  1.5714  5.6418 -0.0620
 5711SOL    HW228770   3.829   3.597   5.494 -0.0040 -0.9373  1.2004
 5712SOL     OW28771   2.509   3.181  12.965 -0.1521 -0.2734  0.2561
 5712SOL    HW128772   2.487   3.098  13.008 -1.3361 -0.0872  0.0070
 5712SOL    HW228773   2.582   3.222  13.012  1.1941 -0.0275 -2.0128
 5713SOL     OW28774   3.154   2.842   7.108  0.0250  0.1510 -0.1186
 5713SOL    HW128775   3.146   2.937   7.118 -1.5847 -0.1994  2.1365
 5713SOL    HW228776   3.069   2.822   7.068 -0.5928  0.5114  0.9859
 5714SOL     OW28777   3.020   0.907   8.526  0.2547  0.2938 -0.1017
 5714SOL    HW128778   2.980   0.950   8.601  2.6060 -2.6164  2.8674
 5714SOL    HW228779   2.997   0.966   8.455 -0.5823 -0.9704 -0.8769
 5715SOL     OW28780   0.648   0.437   9.427 -0.4418 -0.5469  0.4403
 5715SOL    HW128781   0.691   0.520   9.446  0.0100 -0.4280 -1.0734
 5715SOL    HW228782   0.706   0.386   9.370  0.9873  0.7150  0.7680
 5716SOL     OW28783   1.484   2.764  15.511  0.1497 -0.2040  0.6913
 5716SOL    HW128784   1.523   2.683  15.543  0.9642 -0.3835 -0.7457
 5716SOL    HW228785   1.393   2.733  15.515  0.7034 -1.8834  0.1200
 5717SOL     OW28786   0.231   1.197  11.924  0.3733 -0.0556  0.5197
 5717SOL    HW128787   0.186   1.281  11.913 -1.9443 -1.5457 -1.4073
 5717SOL    HW228788   0.312   1.223  11.968  0.5414  1.5273 -0.7632
 5718SOL     OW28789   2.306   1.974  15.925 -0.6511  0.1452 -0.0546
 5718SOL    HW128790   2.344   2.060  15.946  0.3665 -0.1316 -0.7405
 5718SOL    HW228791   2.215   2.004  15.919  0.1652  2.4580 -0.9877
 5719SOL     OW28792   3.510   3.027  14.391 -0.3836  0.1812  0.1549
 5719SOL    HW128793   3.519   3.106  14.444  1.2481  0.5146 -0.6204
 5719SOL    HW228794   3.526   3.071  14.308 -2.8981  0.1058 -0.3470
 5720SOL     OW28795   1.601   4.452   8.418 -0.0230  0.2741  0.8380
 5720SOL    HW128796   1.653   4.422   8.492 -0.9538  1.3352  1.9021
 5720SOL    HW228797   1.679   4.485   8.373  0.7476 -1.5870  0.7826
 5721SOL     OW28798   3.789   0.910  15.190  0.1352 -0.0019  0.1804
 5721SOL    HW128799   3.787   0.814  15.194 -1.7875  0.0341 -0.0941
 5721SOL    HW228800   3.833   0.929  15.273  1.7267  0.6635 -0.8058
 5722SOL     OW28801   4.316   1.282   5.975 -0.1820 -1.2708 -0.5800
 5722SOL    HW128802   4.294   1.342   6.046 -0.8315 -0.6714 -1.2973
 5722SOL    HW228803   4.244   1.299   5.914 -1.3233  0.7472  1.3585
 5723SOL     OW28804   1.986   4.074   5.984 -0.0132  0.4710 -0.0541
 5723SOL    HW128805   1.972   3.985   5.951  1.6588  0.3911 -0.5498
 5723SOL    HW228806   1.951   4.076   6.073  0.1044 -0.4159  0.0191
 5724SOL     OW28807   0.030   1.210   7.141 -0.5073 -0.0569  0.4434
 5724SOL    HW128808   0.079   1.226   7.221 -2.4642 -1.5816  1.9346
 5724SOL    HW228809   4.679   1.235   7.169 -0.7685 -0.3143 -0.1464
 5725SOL     OW28810   3.342   4.620   2.110  0.0836  0.1700 -0.1723
 5725SOL    HW128811   3.414   4.615   2.174 -1.5283  0.0176  1.6394
 5725SOL    HW228812   3.265   4.629   2.167  0.9526 -1.4559  1.2761
 5726SOL     OW28813   1.691   0.969   4.755 -0.6488  0.1167 -0.7398
 5726SOL    HW128814   1.726   0.995   4.670 -2.3095 -0.2823 -1.5379
 5726SOL    HW228815   1.754   0.903   4.782  0.4178  0.6932 -1.7962
 5727SOL     OW28816   1.884   0.636   8.414  0.2434 -0.3000  0.0818
 5727SOL    HW128817   1.912   0.550   8.383 -2.5517 -0.6079 -1.6157
 5727SOL    HW228818   1.847   0.608   8.498  1.9606  1.5069  1.4410
 5728SOL     OW28819   3.805   1.490   8.139  0.5378 -0.4226  0.0214
 5728SOL    HW128820   3.768   1.452   8.219  1.3497 -1.5967 -0.1560
 5728SOL    HW228821   3.895   1.508   8.166  0.4463 -1.8762  1.3622
 5729SOL     OW28822   4.512   0.878   0.605 -0.7207  0.0399  0.5409
 5729SOL    HW128823   4.525   0.847   0.516 -1.7160  0.0621  0.3816
 5729SOL    HW228824   4.513   0.974   0.605  0.9590  0.0146 -1.8268
 5730SOL     OW28825   0.004   0.167   1.280 -0.6221  0.7013  0.2061
 5730SOL    HW128826   0.018   0.122   1.363 -0.4483  0.7936  0.2250
 5730SOL    HW228827   0.084   0.219   1.285  0.7888 -1.4437 -0.3124
 5731SOL     OW28828   2.796   1.596  14.488 -0.0452 -0.0094  0.4213
 5731SOL    HW128829   2.761   1.571  14.403 -0.8074 -0.2877  0.8166
 5731SOL    HW228830   2.751   1.536  14.547  0.8686 -0.4228  0.6938
 5732SOL     OW28831   0.312   1.444   7.003 -0.2393  0.2782  0.0996
 5732SOL    HW128832   0.391   1.495   6.984 -1.2720  2.1962  0.9371
 5732SOL    HW228833   0.276   1.438   6.915  0.8395  0.0139 -0.3279
 5733SOL     OW28834   0.156   0.622   8.665 -0.2704  0.4258 -0.3615
 5733SOL    HW128835   0.225   0.601   8.728  0.3904  0.9366 -0.9084
 5733SOL    HW228836   0.160   0.717   8.678  0.6599  0.5115 -1.2108
 5734SOL     OW28837   3.889   1.475  12.501  0.8168 -0.0012 -0.2574
 5734SOL    HW128838   3.848   1.450  12.419  1.9844 -0.4910 -0.6880
 5734SOL    HW228839   3.816   1.458  12.560  0.7822  0.7654 -0.0844
 5735SOL     OW28840   2.232   0.304   6.886 -0.3443  0.1093  0.9445
 5735SOL    HW128841   2.309   0.298   6.829 -0.4949 -2.1464  1.0056
 5735SOL    HW228842   2.162   0.318   6.823 -0.2700 -0.8490  0.6599
 5736SOL     OW28843   2.702   4.233   0.090  0.4526  0.0100  0.3020
 5736SOL    HW128844   2.608   4.242   0.104  0.4493  0.8133 -0.2673
 5736SOL    HW228845   2.743   4.298   0.148  0.6616 -1.7017  2.0873
 5737SOL     OW28846   4.099   2.992   2.640 -0.0131 -0.3179 -0.2268
 5737SOL    HW128847   4.029   2.970   2.579  1.0679 -0.0379 -1.5869
 5737SOL    HW228848   4.167   2.927   2.618 -0.2727 -0.4475 -0.6503
 5738SOL     OW28849   2.207   3.619   4.910 -0.5228  0.4240  0.4324
 5738SOL    HW128850   2.204   3.713   4.927  2.0351  0.5084  0.4133
 5738SOL    HW228851   2.128   3.588   4.955 -1.0813  0.9725 -0.1623
 5739SOL     OW28852   3.148   4.734  15.948  0.2559 -0.7221  0.3793
 5739SOL    HW128853   3.055   4.734  15.969  0.3943  1.4765  1.0744
 5739SOL    HW228854   3.155   4.724  15.853 -0.8988  1.1577  0.0747
 5740SOL     OW28855   4.168   2.300   6.958  0.5307  0.1286 -0.1402
 5740SOL    HW128856   4.196   2.235   6.894  1.0159 -0.6037  0.7996
 5740SOL    HW228857   4.242   2.320   7.016 -0.5059  1.3932  0.7678
 5741SOL     OW28858   0.801   3.638   7.380 -0.1932  0.1013 -0.3903
 5741SOL    HW128859   0.870   3.631   7.314  0.8191 -0.1952  0.6947
 5741SOL    HW228860   0.795   3.545   7.401 -0.0326  0.1578 -0.0958
 5742SOL     OW28861   2.530   3.697   1.593 -0.5454  0.1642 -0.7222
 5742SOL    HW128862   2.614   3.721   1.553  0.2937 -0.4997  0.6674
 5742SOL    HW228863   2.547   3.718   1.684 -0.0359 -0.9665 -0.5590
 5743SOL     OW28864   1.011   0.062   6.852  0.2171  0.4294  0.2175
 5743SOL    HW128865   0.931   0.009   6.843  1.3425 -1.2904  0.2120
 5743SOL    HW228866   0.978   0.135   6.904  2.1339  1.6038 -0.2343
 5744SOL     OW28867   0.432   0.494  11.554 -0.7137 -0.2853 -0.2623
 5744SOL    HW128868   0.418   0.424  11.491 -0.1271 -0.4114 -0.2536
 5744SOL    HW228869   0.501   0.537  11.502 -0.5288 -1.2770 -0.8395
 5745SOL     OW28870   4.694   4.447  17.243  0.4680 -0.0044  0.4594
 5745SOL    HW128871   4.628   4.435  17.311 -0.2154 -0.3418 -0.2533
 5745SOL    HW228872   4.652   4.484  17.165  0.8489 -1.1117 -0.2727
 5746SOL     OW28873   1.086   4.605   7.770 -0.0219  0.1417  0.2597
 5746SOL    HW128874   1.060   4.645   7.687  0.5726  0.2840  0.1439
 5746SOL    HW228875   1.008   4.553   7.790  0.5178 -1.0173 -0.6346
 5747SOL     OW28876   1.890   2.417   1.315 -0.3986  0.0189  0.0365
 5747SOL    HW128877   1.936   2.500   1.329 -1.3252  0.2720  1.4583
 5747SOL    HW228878   1.961   2.352   1.319 -1.5864 -1.3186 -0.7348
 5748SOL     OW28879   3.232   4.186  16.628  0.4412  0.3109 -0.4205
 5748SOL    HW128880   3.233   4.221  16.717  1.5284  2.0698 -1.1184
 5748SOL    HW228881   3.321   4.163  16.602  0.4267 -0.1555 -0.0487
 5749SOL     OW28882   4.506   4.492   1.706 -0.3725 -0.1470 -0.3168
 5749SOL    HW128883   4.545   4.410   1.735 -1.1749 -1.1376 -2.0748
 5749SOL    HW228884   4.486   4.456   1.620 -0.8697 -2.2099  0.6635
 5750SOL     OW28885   4.190   0.645   5.284 -0.2064 -0.0604  0.3525
 5750SOL    HW128886   4.125   0.698   5.331  0.5672  0.1854  1.1474
 5750SOL    HW228887   4.185   0.680   5.195  1.0118  0.3218  0.4308
 5751SOL     OW28888   3.753   4.235   6.583  0.0061  0.1326  0.1394
 5751SOL    HW128889   3.734   4.276   6.668  1.1115 -1.3498  1.0960
 5751SOL    HW228890   3.767   4.144   6.609 -1.1330  0.2532  1.2011
 5752SOL     OW28891   2.390   3.888   6.079 -0.0091  0.4572  0.3430
 5752SOL    HW128892   2.420   3.797   6.086  0.4013  0.5120 -0.7207
 5752SOL    HW228893   2.356   3.885   5.990 -0.3162 -1.2195  0.5122
 5753SOL     OW28894   3.948   3.159   8.421 -1.3303 -0.1354 -0.1303
 5753SOL    HW128895   3.866   3.208   8.431 -1.2831 -0.6614  2.8712
 5753SOL    HW228896   3.924   3.111   8.342  3.1932 -2.0450 -0.3380
 5754SOL     OW28897   3.175   4.456   2.764 -0.2009  0.1213  0.0185
 5754SOL    HW128898   3.243   4.394   2.790  1.0488  1.7048  0.5355
 5754SOL    HW228899   3.212   4.487   2.681 -0.8112  0.6718 -0.0493
 5755SOL     OW28900   0.593   0.681   4.142  0.7180 -0.3209 -0.2083
 5755SOL    HW128901   0.584   0.677   4.238 -0.2221 -0.1053 -0.2892
 5755SOL    HW228902   0.501   0.665   4.120  1.1468 -0.7982 -1.6418
 5756SOL     OW28903   0.180   2.326   6.538  0.0289 -0.4894 -0.8245
 5756SOL    HW128904   0.147   2.290   6.455  0.4663  0.6872 -1.5042
 5756SOL    HW228905   0.104   2.318   6.596  2.1625  1.3835  2.2108
 5757SOL     OW28906   0.783   0.033   8.989 -0.4244  0.0275 -0.7040
 5757SOL    HW128907   0.704   4.727   8.957  1.8394 -2.2701 -3.2286
 5757SOL    HW228908   0.764   0.123   8.965 -0.5956 -0.0480 -0.8562
 5758SOL     OW28909   2.835   0.272   8.511 -0.6178  0.2854  0.1820
 5758SOL    HW128910   2.778   0.288   8.435  1.0174  3.1346 -0.4611
 5758SOL    HW228911   2.773   0.214   8.555 -1.4240  1.4392  0.5682
 5759SOL     OW28912   4.129   2.721   0.218  0.0695 -0.0118 -0.1442
 5759SOL    HW128913   4.040   2.736   0.252  0.3799  0.9075  0.2784
 5759SOL    HW228914   4.177   2.720   0.300  1.1559 -0.6886 -0.7957
 5760SOL     OW28915   2.299   2.242  13.631 -0.1451  0.0546 -0.4064
 5760SOL    HW128916   2.356   2.192  13.689 -3.2910 -2.4749  0.4783
 5760SOL    HW228917   2.290   2.328  13.672 -1.5733 -0.8236  1.1370
 5761SOL     OW28918   1.852   0.581  12.510  0.4844  0.4243 -0.2989
 5761SOL    HW128919   1.841   0.515  12.578  1.1654  2.0453  1.3655
 5761SOL    HW228920   1.769   0.571  12.462 -0.8602 -1.3238  2.4230
 5762SOL     OW28921   4.046   3.362  11.307 -0.0811 -0.0738 -0.5964
 5762SOL    HW128922   4.135   3.371  11.339 -0.4542 -0.9811  0.6922
 5762SOL    HW228923   3.995   3.320  11.376 -1.1043  1.6166 -0.3240
 5763SOL     OW28924   3.201   1.460   8.660 -0.3289 -0.7911 -0.0615
 5763SOL    HW128925   3.227   1.395   8.595  0.3520 -0.8605  0.2823
 5763SOL    HW228926   3.281   1.508   8.680  0.6187 -2.3159 -0.1841
 5764SOL     OW28927   3.954   1.587   1.984  0.7324  0.3801 -0.1843
 5764SOL    HW128928   3.981   1.495   1.980  1.1694  0.4523  0.9566
 5764SOL    HW228929   4.042   1.624   1.972  1.1270 -0.6282 -0.3894
 5765SOL     OW28930   0.841   3.232   3.847 -0.1398  0.1549  0.1783
 5765SOL    HW128931   0.928   3.272   3.847  0.8601 -1.9917  1.8759
 5765SOL    HW228932   0.834   3.225   3.752 -2.2159  1.5148  0.2516
 5766SOL     OW28933   1.462   2.442   2.297  0.5466  0.1703 -0.1079
 5766SOL    HW128934   1.453   2.531   2.331 -0.9827  0.0684 -0.2459
 5766SOL    HW228935   1.417   2.398   2.369  1.1302 -0.7332 -0.2965
 5767SOL     OW28936   3.184   2.120   4.178 -0.3618  0.1567  0.1701
 5767SOL    HW128937   3.118   2.180   4.213  0.3175  0.7445  0.4459
 5767SOL    HW228938   3.124   2.048   4.159  0.7057 -1.3163  2.4049
 5768SOL     OW28939   2.205   2.861   5.024 -0.3495 -0.3111 -0.0789
 5768SOL    HW128940   2.252   2.943   5.007 -0.7758 -0.7365 -3.3567
 5768SOL    HW228941   2.117   2.889   5.000  0.2590 -0.6504 -2.7449
 5769SOL     OW28942   0.427   2.935  15.342 -0.2566 -0.2874  0.0209
 5769SOL    HW128943   0.344   2.943  15.297 -1.3958 -1.3023  1.9421
 5769SOL    HW228944   0.404   2.974  15.427  0.7078 -0.9520  0.5934
 5770SOL     OW28945   3.868   4.600   5.737  0.9315  0.2683 -0.3524
 5770SOL    HW128946   3.906   4.539   5.800  0.0774  1.6831  1.5403
 5770SOL    HW228947   3.896   4.689   5.758  1.9805  0.1191 -1.1124
 5771SOL     OW28948   3.858   0.825  15.465  0.3006 -0.0017  0.6951
 5771SOL    HW128949   3.780   0.820  15.520  0.1005 -0.9524  0.3224
 5771SOL    HW228950   3.866   0.738  15.427  0.3301  0.3165 -0.0454
 5772SOL     OW28951   0.035   3.808   8.456  0.1516 -0.0857 -0.0154
 5772SOL    HW128952   4.685   3.831   8.426 -0.3096  0.5988  1.8443
 5772SOL    HW228953   0.035   3.822   8.551 -0.5780  0.1816 -0.0583
 5773SOL     OW28954   4.329   3.688   3.537 -0.0086  0.3857 -0.0751
 5773SOL    HW128955   4.403   3.700   3.597 -0.7718 -0.0701  0.9755
 5773SOL    HW228956   4.361   3.616   3.482  1.2421  0.8980 -0.0152
 5774SOL     OW28957   4.620   1.521   2.934 -0.2687 -0.3997 -0.3786
 5774SOL    HW128958   4.612   1.496   2.842 -0.9261  0.5889 -0.5899
 5774SOL    HW228959   4.567   1.601   2.928  3.9016  2.5854  2.5881
 5775SOL     OW28960   1.850   0.761   5.474  0.0749 -0.0905 -0.0219
 5775SOL    HW128961   1.784   0.773   5.542  1.0635  1.3855  0.6892
 5775SOL    HW228962   1.797   0.795   5.401  1.8633  0.0463 -1.2629
 5776SOL     OW28963   2.307   0.009  14.985 -0.3746  0.1583 -0.2492
 5776SOL    HW128964   2.303   0.102  15.007  1.2310  0.8250 -2.7319
 5776SOL    HW228965   2.361   4.719  15.059 -1.0218 -0.9789 -0.1890
 5777SOL     OW28966   0.355   4.311  10.235  0.2275  0.3679 -0.5934
 5777SOL    HW128967   0.328   4.385  10.180 -1.4362 -1.0698 -1.7152
 5777SOL    HW228968   0.269   4.272  10.253  0.9745 -0.5264  1.0499
 5778SOL     OW28969   3.401   3.025   2.755  0.0572 -0.2761 -0.0261
 5778SOL    HW128970   3.405   2.957   2.823 -0.8907 -0.5305 -0.2343
 5778SOL    HW228971   3.400   2.979   2.671  1.4660  0.9434 -0.7186
 5779SOL     OW28972   4.386   2.014   2.379  0.2769  0.4557 -0.3274
 5779SOL    HW128973   4.420   1.949   2.317  1.1335  1.3251 -0.7898
 5779SOL    HW228974   4.451   2.084   2.368  0.5108  0.0154 -1.7908
 5780SOL     OW28975   2.266   3.918   7.070 -0.6570  0.3967 -0.3328
 5780SOL    HW128976   2.334   3.975   7.034  2.0595 -1.9324  1.0894
 5780SOL    HW228977   2.218   3.910   6.988 -0.9927 -4.0244  0.2905
 5781SOL     OW28978   1.411   4.236  16.577  0.2067  1.0203  0.0737
 5781SOL    HW128979   1.375   4.228  16.489 -1.6755 -0.2428  0.9724
 5781SOL    HW228980   1.364   4.166  16.622  0.3164  1.9827  1.6895
 5782SOL     OW28981   2.501   1.096   5.085  0.1773  0.2547  0.1434
 5782SOL    HW128982   2.557   1.059   5.017  0.9634 -1.8882  1.9636
 5782SOL    HW228983   2.424   1.039   5.080  0.3368  0.1122 -0.7565
 5783SOL     OW28984   2.377   2.441   9.315 -0.0359 -0.2309 -0.7335
 5783SOL    HW128985   2.398   2.366   9.259 -1.7715 -1.6243  0.4689
 5783SOL    HW228986   2.449   2.457   9.376  0.4838  1.1400 -1.7097
 5784SOL     OW28987   4.149   1.730   8.099  0.2420 -0.5959 -0.7186
 5784SOL    HW128988   4.135   1.805   8.157  1.9006 -0.4738 -0.4722
 5784SOL    HW228989   4.224   1.770   8.056  1.2064 -0.0701  1.4211
 5785SOL     OW28990   2.631   2.714   6.594  0.1577  0.0933  0.1957
 5785SOL    HW128991   2.554   2.757   6.556 -0.3886 -1.6131 -0.6128
 5785SOL    HW228992   2.606   2.718   6.686 -1.6007  2.1064 -0.3507
 5786SOL     OW28993   1.597   4.506   4.612 -0.4477 -0.5938 -0.1904
 5786SOL    HW128994   1.629   4.445   4.546 -0.5862 -1.2907  0.3818
 5786SOL    HW228995   1.503   4.489   4.623  0.0446 -2.1750  1.6274
 5787SOL     OW28996   2.712   0.490  12.760  0.3898  0.0305 -0.2275
 5787SOL    HW128997   2.716   0.487  12.665 -0.6090 -3.3172 -0.1463
 5787SOL    HW228998   2.797   0.532  12.775  0.2330  1.2927 -2.9196
 5788SOL     OW28999   3.095   1.512  11.520  0.1780 -0.0562 -0.1181
 5788SOL    HW129000   3.107   1.479  11.609  0.0354  2.2299  0.7267
 5788SOL    HW229001   3.045   1.593  11.526  0.6909  0.2481  0.0214
 5789SOL     OW29002   0.416   4.173   5.237 -0.1538  0.1497 -0.1393
 5789SOL    HW129003   0.351   4.221   5.186 -0.5998  0.0441  0.3316
 5789SOL    HW229004   0.492   4.220   5.204  0.5298 -0.6505  0.3094
 5790SOL     OW29005   1.403   3.477   1.205  0.0303  0.5811 -0.2860
 5790SOL    HW129006   1.391   3.535   1.130  1.9348  0.8671 -0.3794
 5790SOL    HW229007   1.435   3.536   1.273  0.2300  0.8715 -0.6275
 5791SOL     OW29008   3.085   4.560   6.492  0.3148 -0.2657  0.2607
 5791SOL    HW129009   3.061   4.575   6.584 -1.0364 -1.4716  0.1093
 5791SOL    HW229010   3.180   4.553   6.488  0.4104  0.7737  0.7878
 5792SOL     OW29011   1.469   2.003   5.502 -0.8004 -0.2093 -0.2305
 5792SOL    HW129012   1.383   1.973   5.473 -0.9862 -0.9410  1.1110
 5792SOL    HW229013   1.516   1.920   5.507  0.1807  0.3430 -0.2991
 5793SOL     OW29014   1.455   2.756  13.529 -0.4760  0.1736 -0.3871
 5793SOL    HW129015   1.455   2.774  13.435  0.5300 -0.0096 -0.4183
 5793SOL    HW229016   1.430   2.841  13.565 -0.4605 -0.3416  0.8297
 5794SOL     OW29017   4.658   1.545   3.648 -0.4262  0.0992 -0.0913
 5794SOL    HW129018   4.607   1.472   3.614 -1.0039  1.7828 -2.7841
 5794SOL    HW229019   4.709   1.577   3.574 -0.0251 -1.2925 -0.4237
 5795SOL     OW29020   2.669   2.082   6.968  0.4780 -0.2080  0.0544
 5795SOL    HW129021   2.648   1.996   7.005  0.9317 -0.1145  0.5215
 5795SOL    HW229022   2.757   2.088   7.004 -0.5809  0.3913  2.5149
 5796SOL     OW29023   1.044   4.233  13.850 -0.2602 -0.1458  0.4158
 5796SOL    HW129024   1.126   4.243  13.802  1.2132 -0.6683  2.7880
 5796SOL    HW229025   1.064   4.151  13.895  3.5565  1.0823  0.9400
 5797SOL     OW29026   0.321   1.957   2.364 -0.2642 -0.5046  0.3961
 5797SOL    HW129027   0.367   1.873   2.369 -0.2735 -0.5321 -0.0063
 5797SOL    HW229028   0.332   1.991   2.453 -0.7254 -0.5001  0.4474
 5798SOL     OW29029   3.576   3.219  12.631  0.0126  0.2551 -0.0881
 5798SOL    HW129030   3.577   3.222  12.727 -0.8615  1.6646 -0.1227
 5798SOL    HW229031   3.493   3.179  12.607 -1.2741  2.0223  1.3413
 5799SOL     OW29032   3.737   2.001   6.616  0.4768 -0.1353 -0.4681
 5799SOL    HW129033   3.744   2.033   6.706 -1.4981 -1.2937  0.0927
 5799SOL    HW229034   3.645   1.976   6.609  0.6606 -1.6555  2.3976
 5800SOL     OW29035   4.460   3.983  17.686 -0.2927 -0.0429 -0.5007
 5800SOL    HW129036   4.443   3.950   0.026 -1.3578  0.1469 -0.6353
 5800SOL    HW229037   4.460   3.913  17.621  1.8065  1.0113 -1.6421
 5801SOL     OW29038   3.709   0.201   7.949  0.0920 -0.2965 -0.1393
 5801SOL    HW129039   3.791   0.211   7.998  0.0612 -1.9226  0.2305
 5801SOL    HW229040   3.730   0.262   7.878  2.2841 -0.9138 -0.0296
 5802SOL     OW29041   2.448   1.967  14.827  0.0339 -0.5889  0.2678
 5802SOL    HW129042   2.366   1.956  14.874  1.8055 -0.6234  3.3660
 5802SOL    HW229043   2.447   1.883  14.781 -0.5173 -0.5050  0.1306
 5803SOL     OW29044   2.695   3.652   5.031  0.1195 -0.0399 -0.0528
 5803SOL    HW129045   2.777   3.675   4.988  0.8692 -0.6669  1.0650
 5803SOL    HW229046   2.692   3.560   5.005 -2.6425 -1.1523  4.1930
 5804SOL     OW29047   2.870   4.348   3.739  0.1248  0.2177 -0.3016
 5804SOL    HW129048   2.822   4.296   3.674 -0.1187 -0.5303  0.4645
 5804SOL    HW229049   2.870   4.440   3.715 -1.2069  0.1717 -0.5252
 5805SOL     OW29050   3.798   1.041   4.925  0.1683 -0.3028 -0.1326
 5805SOL    HW129051   3.803   0.963   4.869  1.9435  0.7103 -1.3964
 5805SOL    HW229052   3.736   1.099   4.883  0.4239  0.2702  0.2814
 5806SOL     OW29053   3.081   2.467  16.605  0.6138 -0.7578 -0.5918
 5806SOL    HW129054   3.123   2.539  16.653  4.4857 -2.4194 -1.4935
 5806SOL    HW229055   3.028   2.436  16.679  1.0014  1.4608  0.6267
 5807SOL     OW29056   0.453   0.944   8.690 -0.6390  0.5588  0.5479
 5807SOL    HW129057   0.435   0.921   8.781 -0.5974  0.3990  0.5160
 5807SOL    HW229058   0.541   0.909   8.682 -1.2543 -1.2784  1.7959
 5808SOL     OW29059   3.021   1.672   7.427 -0.0699 -0.0466  0.2433
 5808SOL    HW129060   3.074   1.601   7.463 -1.2562 -0.6015  0.8980
 5808SOL    HW229061   2.949   1.680   7.489 -0.8466 -1.2957 -0.5001
 5809SOL     OW29062   4.561   0.572  15.112  0.2446  0.2009  0.1978
 5809SOL    HW129063   4.528   0.620  15.036  1.5166 -0.3682 -0.7171
 5809SOL    HW229064   4.647   0.546  15.079  0.2989 -1.9598  2.0703
 5810SOL     OW29065   3.197   3.725  10.728  0.0681 -0.1858  0.0070
 5810SOL    HW129066   3.271   3.681  10.770 -2.0417 -1.6335  2.2810
 5810SOL    HW229067   3.132   3.704  10.796 -1.8033  1.3612 -1.3045
 5811SOL     OW29068   0.318   2.057   7.091  0.3699  0.4485 -0.0600
 5811SOL    HW129069   0.230   2.077   7.059 -0.2059  1.1033  1.8869
 5811SOL    HW229070   0.292   2.030   7.179  3.2037 -2.2246 -0.0457
 5812SOL     OW29071   3.681   0.035  15.491 -0.2287  0.1064  0.0288
 5812SOL    HW129072   3.765   0.065  15.527 -0.8152  2.1263 -0.2635
 5812SOL    HW229073   3.636   0.120  15.494 -0.3208  0.1065 -1.4119
 5813SOL     OW29074   3.851   2.064   1.297  0.0759 -0.0194 -0.1615
 5813SOL    HW129075   3.783   2.124   1.326  1.6620  1.9525 -0.4756
 5813SOL    HW229076   3.841   2.055   1.202 -1.8311  2.0856 -0.1635
 5814SOL     OW29077   4.309   0.252   6.832  0.0971  0.3036 -0.3093
 5814SOL    HW129078   4.253   0.325   6.857  0.0971 -0.5009  2.0187
 5814SOL    HW229079   4.275   0.178   6.883  2.0715 -0.7095 -0.4503
 5815SOL     OW29080   4.617   1.934   7.002 -0.0366  0.1256  0.2255
 5815SOL    HW129081   4.613   1.845   7.036 -0.8371  0.5711  1.3035
 5815SOL    HW229082   4.684   1.972   7.059  0.4964  0.1741 -0.4429
 5816SOL     OW29083   3.970   3.903   5.208  0.6309 -0.9722  0.1021
 5816SOL    HW129084   4.034   3.832   5.208  0.5855 -1.0155  0.6517
 5816SOL    HW229085   3.982   3.939   5.295  2.1277 -1.1383 -0.0453
 5817SOL     OW29086   2.201   2.123  13.950  0.5032  0.2562 -0.2223
 5817SOL    HW129087   2.108   2.141  13.964  0.8390 -0.4587  3.0414
 5817SOL    HW229088   2.193   2.029  13.970  1.3779  0.5433  1.4721
 5818SOL     OW29089   0.168   0.311   2.964 -0.2443  0.7642 -0.4497
 5818SOL    HW129090   0.100   0.246   2.975  0.5403 -0.1737 -1.1705
 5818SOL    HW229091   0.248   0.258   2.961 -0.6521  0.2333 -1.8197
 5819SOL     OW29092   0.800   0.445   6.094  0.0092 -0.5984  0.0621
 5819SOL    HW129093   0.775   0.438   6.002 -0.6426  0.3468  0.1578
 5819SOL    HW229094   0.887   0.480   6.072  0.0174 -1.2506 -0.9551
 5820SOL     OW29095   0.220   0.332   9.423  0.2955  0.2991  0.2228
 5820SOL    HW129096   0.135   0.362   9.392 -0.6145 -1.9972  0.4813
 5820SOL    HW229097   0.208   0.240   9.400  0.7312  0.2976 -0.0069
 5821SOL     OW29098   2.992   2.425   9.110  0.4330  0.3021  0.0463
 5821SOL    HW129099   3.018   2.387   9.026 -4.9235  0.7146 -1.7893
 5821SOL    HW229100   3.034   2.510   9.103 -0.1546  0.6641  1.0226
 5822SOL     OW29101   2.031   1.764   4.409  0.3110 -0.0026 -0.0138
 5822SOL    HW129102   1.950   1.810   4.388  0.7799  1.5396  1.5007
 5822SOL    HW229103   2.000   1.675   4.425 -0.1172 -0.0358 -1.0155
 5823SOL     OW29104   3.332   3.547   2.793  0.0852  0.2171 -0.0845
 5823SOL    HW129105   3.381   3.468   2.814  0.2355  0.0035 -1.2035
 5823SOL    HW229106   3.392   3.609   2.835  1.7741 -2.1237  0.9649
 5824SOL     OW29107   4.360   2.247   6.677 -0.8313 -0.3391 -0.0975
 5824SOL    HW129108   4.380   2.184   6.608  1.3253  1.9679 -1.5566
 5824SOL    HW229109   4.363   2.181   6.746 -2.2351  0.5179  0.7869
 5825SOL     OW29110   1.275   4.271  13.698  0.0476 -0.3806  0.0307
 5825SOL    HW129111   1.349   4.275  13.759  0.1204 -1.0369 -0.0109
 5825SOL    HW229112   1.284   4.182  13.662 -0.3721  0.3228 -1.8163
 5826SOL     OW29113   3.167   3.586   6.091  0.5584  0.3758 -0.3333
 5826SOL    HW129114   3.223   3.640   6.035  0.4275 -0.3367 -1.1483
 5826SOL    HW229115   3.223   3.567   6.167 -0.3426  0.7141  0.4107
 5827SOL     OW29116   1.384   3.597   4.411 -0.4921 -0.0106  0.1158
 5827SOL    HW129117   1.414   3.510   4.387 -0.2491  0.5742 -1.6886
 5827SOL    HW229118   1.400   3.588   4.505  1.1555 -1.4219 -0.3008
 5828SOL     OW29119   3.192   3.766   9.281 -0.3976 -0.1487  0.3381
 5828SOL    HW129120   3.113   3.755   9.334 -0.3321  2.1383  0.9083
 5828SOL    HW229121   3.152   3.829   9.221 -1.0407  0.8067  1.7663
 5829SOL     OW29122   4.162   3.177   4.193 -0.6966  0.0414 -0.6749
 5829SOL    HW129123   4.160   3.182   4.289 -1.0784 -0.7362 -0.6489
 5829SOL    HW229124   4.150   3.270   4.173  1.4499  0.1255 -1.6150
 5830SOL     OW29125   3.511   4.318   4.485 -0.5886  0.2719 -0.0045
 5830SOL    HW129126   3.449   4.245   4.491 -0.2789  0.1707  2.0448
 5830SOL    HW229127   3.564   4.302   4.408  0.1852 -1.3159  0.8422
 5831SOL     OW29128   1.283   0.344   2.716 -0.0371 -0.3635  0.0035
 5831SOL    HW129129   1.282   0.328   2.811  0.7452 -0.4869 -0.0018
 5831SOL    HW229130   1.364   0.298   2.692 -0.3394 -2.1503  2.3580
 5832SOL     OW29131   3.399   0.177   7.070 -0.0123  0.8231  0.0197
 5832SOL    HW129132   3.418   0.241   7.002 -3.1310  0.4324 -1.2453
 5832SOL    HW229133   3.484   0.134   7.074 -0.1188  0.5196 -1.0066
 5833SOL     OW29134   3.954   1.858   0.605 -0.1056  0.1309  0.2128
 5833SOL    HW129135   3.964   1.919   0.531  0.1457 -0.2109 -0.0378
 5833SOL    HW229136   4.004   1.907   0.670  2.7488  1.3132 -2.8537
 5834SOL     OW29137   4.117   3.192   7.706 -0.5743  0.2372 -0.6224
 5834SOL    HW129138   4.086   3.257   7.643  0.5325 -0.3749 -1.8056
 5834SOL    HW229139   4.123   3.249   7.783  1.6563 -0.4079 -0.2990
 5835SOL     OW29140   2.915   4.602   5.571 -0.0447  0.1567 -0.4347
 5835SOL    HW129141   2.923   4.525   5.627 -2.3392  0.9517  0.9908
 5835SOL    HW229142   2.958   4.587   5.487  1.2339 -0.9464  0.4073
 5836SOL     OW29143   1.344   3.135   7.433 -0.1011 -0.4139 -0.3595
 5836SOL    HW129144   1.438   3.148   7.421 -0.0920 -0.1596 -0.0113
 5836SOL    HW229145   1.331   3.112   7.525 -0.8480 -0.3591 -0.4499
 5837SOL     OW29146   0.495   2.229  17.725  0.1530 -0.0163 -0.1794
 5837SOL    HW129147   0.473   2.206  17.634  1.2397 -1.3128 -0.1173
 5837SOL    HW229148   0.495   2.324  17.718 -1.9786  0.0897  1.3378
 5838SOL     OW29149   3.912   4.246   2.482  0.0763 -0.5705  0.1836
 5838SOL    HW129150   3.995   4.199   2.497  0.1016 -1.1646 -1.9406
 5838SOL    HW229151   3.938   4.338   2.478 -0.9166 -0.1485  3.2371
 5839SOL     OW29152   1.395   1.038  16.859 -0.5044 -0.1284  0.1785
 5839SOL    HW129153   1.360   1.126  16.875  0.1786  0.2368 -0.3348
 5839SOL    HW229154   1.471   1.057  16.804 -1.1568 -0.3003 -0.8051
 5840SOL     OW29155   0.594   3.833   5.619 -0.3619  0.2336  0.0647
 5840SOL    HW129156   0.656   3.841   5.546  1.1617  1.9630  1.5370
 5840SOL    HW229157   0.646   3.776   5.676 -0.1165 -1.0979 -1.4831
 5841SOL     OW29158   1.923   1.631   8.548  0.3006  0.0210 -0.6783
 5841SOL    HW129159   1.984   1.681   8.495  1.1666 -1.6544 -1.2359
 5841SOL    HW229160   1.957   1.625   8.637  1.9052 -1.6289 -1.4169
 5842SOL     OW29161   3.409   2.525   7.836 -0.0738 -0.2498 -0.2260
 5842SOL    HW129162   3.491   2.476   7.836  0.2494  0.2902 -4.8717
 5842SOL    HW229163   3.381   2.554   7.922 -1.2952  1.5778 -1.2367
 5843SOL     OW29164   1.532   4.561  12.665 -0.3056 -0.3389 -0.2633
 5843SOL    HW129165   1.582   4.492  12.709  2.1432  1.9633  0.4958
 5843SOL    HW229166   1.587   4.586  12.590 -0.9198  3.0118  0.4052
 5844SOL     OW29167   4.255   4.258   3.369 -0.0260  0.4513 -0.2101
 5844SOL    HW129168   4.307   4.200   3.314 -3.4548 -1.0969 -1.8419
 5844SOL    HW229169   4.317   4.292   3.433 -0.4835 -2.7877  1.9551
 5845SOL     OW29170   1.521   0.479   7.986 -0.5200  0.3847  0.6603
 5845SOL    HW129171   1.542   0.406   7.929  2.2969  1.2019  0.6429
 5845SOL    HW229172   1.460   0.439   8.048 -2.2533 -0.0640 -1.3456
 5846SOL     OW29173   4.486   0.519   0.435  0.3050  0.3985 -0.2787
 5846SOL    HW129174   4.427   0.447   0.411 -1.0992  1.2558  0.6271
 5846SOL    HW229175   4.430   0.595   0.418 -1.7537 -0.8853  0.7482
 5847SOL     OW29176   1.992   1.597  12.532 -0.0441  0.1015  0.2381
 5847SOL    HW129177   1.979   1.687  12.503 -3.2059 -0.1075  1.0042
 5847SOL    HW229178   1.937   1.598  12.610  1.4829 -0.5730  1.3240
 5848SOL     OW29179   0.779   0.243  13.016 -0.4504 -0.1509 -0.3964
 5848SOL    HW129180   0.693   0.230  12.977  0.4542  0.8720 -2.7153
 5848SOL    HW229181   0.755   0.301  13.089 -1.1553  0.5912 -1.2129
 5849SOL     OW29182   2.038   1.313   3.085  0.1387  0.5418 -0.2630
 5849SOL    HW129183   2.045   1.255   3.161  0.4688 -2.1693 -2.3883
 5849SOL    HW229184   2.069   1.396   3.121  0.9591  0.3299 -0.4969
 5850SOL     OW29185   4.365   1.080   2.826 -0.1830  0.2224  0.3344
 5850SOL    HW129186   4.338   0.989   2.814 -0.3942  0.1720  1.2095
 5850SOL    HW229187   4.282   1.111   2.861 -0.8465 -0.8263 -0.3390
 5851SOL     OW29188   4.680   4.194  10.176 -0.1567  0.2587  0.6380
 5851SOL    HW129189   4.617   4.186  10.104  0.3047  1.6011  0.0689
 5851SOL    HW229190   0.012   4.132  10.156  0.1361  0.6342  0.4884
 5852SOL     OW29191   4.189   0.701   1.326  0.0109  0.4062 -0.0387
 5852SOL    HW129192   4.194   0.793   1.301 -0.1026  0.3181 -0.3823
 5852SOL    HW229193   4.221   0.667   1.243  2.7201  0.9265  0.8058
 5853SOL     OW29194   3.169   3.918   6.124  0.1136  0.2170  0.3855
 5853SOL    HW129195   3.110   3.928   6.198 -1.7055  0.3288 -1.0846
 5853SOL    HW229196   3.239   3.983   6.136 -1.4080  1.7532  0.8386
 5854SOL     OW29197   2.362   3.076   4.976 -0.3309 -0.2893 -0.0842
 5854SOL    HW129198   2.372   3.122   4.893 -0.0904  0.3335  0.2914
 5854SOL    HW229199   2.439   3.098   5.028  1.3601  1.3125 -3.2173
 5855SOL     OW29200   3.779   1.728  12.147 -0.2555  0.5748 -0.0177
 5855SOL    HW129201   3.824   1.811  12.157 -1.4171  1.7468 -4.1841
 5855SOL    HW229202   3.693   1.745  12.186  0.0718  2.1722  0.0152
 5856SOL     OW29203   0.301   4.212   4.860  0.3655  0.1369  0.4546
 5856SOL    HW129204   0.339   4.149   4.798 -0.7672  1.4948 -1.6269
 5856SOL    HW229205   0.357   4.289   4.848 -1.7397  1.3970 -1.1659
 5857SOL     OW29206   3.274   1.469  11.732 -0.2985  0.0221 -0.5320
 5857SOL    HW129207   3.271   1.376  11.752  0.0022  0.2160  0.4262
 5857SOL    HW229208   3.336   1.457  11.660 -0.1616 -1.2672 -0.1983
 5858SOL     OW29209   3.114   0.239  17.471 -0.6926 -0.1995 -0.1763
 5858SOL    HW129210   3.133   0.316  17.417  0.0516  0.4208  0.9716
 5858SOL    HW229211   3.101   0.174  17.402 -2.4447  0.0759 -0.1180
 5859SOL     OW29212   2.959   3.934   7.358 -0.3219  0.1817  0.0182
 5859SOL    HW129213   2.990   3.997   7.424 -0.0689  0.1603 -0.0818
 5859SOL    HW229214   2.870   3.965   7.341 -0.0471  1.0797  0.1932
 5860SOL     OW29215   1.382   0.575   6.194  0.1068 -0.2300  0.0857
 5860SOL    HW129216   1.291   0.548   6.186  0.5664 -2.2454  1.6323
 5860SOL    HW229217   1.429   0.496   6.218 -0.7564 -0.1777  1.9656
 5861SOL     OW29218   2.234   2.026   7.783 -0.5287  0.0134  0.5009
 5861SOL    HW129219   2.291   1.974   7.726 -0.7927 -0.4087  0.6195
 5861SOL    HW229220   2.183   1.953   7.818 -0.2521  1.2049  3.3231
 5862SOL     OW29221   2.895   2.204  11.576 -1.0021 -0.5119 -0.0073
 5862SOL    HW129222   2.939   2.216  11.660 -0.7175  2.2327 -0.5626
 5862SOL    HW229223   2.826   2.270  11.574  0.1653  0.5603 -3.5072
 5863SOL     OW29224   1.519   4.506   3.310  0.5597 -0.0599  0.3788
 5863SOL    HW129225   1.607   4.537   3.332  1.8093 -2.9609 -0.5281
 5863SOL    HW229226   1.544   4.454   3.233 -2.2781  1.8902 -1.8683
 5864SOL     OW29227   2.257   1.981   3.694 -0.0592 -0.1673  0.1893
 5864SOL    HW129228   2.269   1.977   3.789 -1.2687  2.2858  0.4760
 5864SOL    HW229229   2.221   1.893   3.687 -0.1893 -0.2962  2.3808
 5865SOL     OW29230   1.464   4.505   5.486  0.3568  0.1671 -0.1474
 5865SOL    HW129231   1.455   4.546   5.400 -2.8403 -0.8903 -0.3276
 5865SOL    HW229232   1.429   4.575   5.541 -2.1324 -1.2416  0.0861
 5866SOL     OW29233   0.348   3.421   9.765  0.1903  0.1699 -0.7239
 5866SOL    HW129234   0.421   3.363   9.785 -0.5479  0.6039  3.2803
 5866SOL    HW229235   0.389   3.508   9.763 -0.1620  0.4135  1.7514
 5867SOL     OW29236   2.801   3.467   8.593  0.4933 -0.2893 -0.2494
 5867SOL    HW129237   2.854   3.492   8.669 -0.0245  0.0736 -0.0050
 5867SOL    HW229238   2.715   3.449   8.631  0.4300 -1.5056 -0.9756
 5868SOL     OW29239   3.568   3.536   5.840  0.0409 -0.2629  0.2775
 5868SOL    HW129240   3.613   3.483   5.907  2.7048  2.2522  0.4968
 5868SOL    HW229241   3.521   3.474   5.784  1.0465 -1.2032  0.4660
 5869SOL     OW29242   4.387   4.591   1.273 -0.4490  0.5497 -0.0417
 5869SOL    HW129243   4.318   4.610   1.210 -2.1326  0.0752  1.6541
 5869SOL    HW229244   4.326   4.569   1.344  0.4952 -2.4141 -0.1649
 5870SOL     OW29245   3.996   2.756  15.632  0.0294  0.8076 -0.2619
 5870SOL    HW129246   3.975   2.697  15.560  1.2612 -1.8106  1.5359
 5870SOL    HW229247   3.950   2.826  15.586 -2.7303 -1.9521 -1.6929
 5871SOL     OW29248   3.926   1.987   3.934  0.4434 -0.0332 -0.0065
 5871SOL    HW129249   4.011   2.029   3.948  1.1331 -1.1768 -0.7928
 5871SOL    HW229250   3.955   1.919   3.873 -1.1739 -1.5373  0.9359
 5872SOL     OW29251   4.252   2.856   5.430 -0.0089  0.0932 -0.8399
 5872SOL    HW129252   4.182   2.882   5.490  0.3331 -0.5768 -0.1416
 5872SOL    HW229253   4.330   2.860   5.487  0.0763 -3.4537 -0.7121
 5873SOL     OW29254   2.934   3.039   2.734  0.2302  0.2703  0.2664
 5873SOL    HW129255   2.841   3.058   2.727  0.7430  2.8417  0.4676
 5873SOL    HW229256   2.937   2.946   2.711 -1.1476  0.6867 -1.4953
 5874SOL     OW29257   1.641   1.189   7.937  0.3852 -0.2869 -0.3374
 5874SOL    HW129258   1.590   1.142   8.003 -0.6678  1.5568  0.1909
 5874SOL    HW229259   1.725   1.143   7.938 -0.3235 -1.5545  0.0752
 5875SOL     OW29260   1.073   3.469   8.280  0.2184 -0.7296 -0.0100
 5875SOL    HW129261   1.078   3.475   8.184  0.5284 -1.7724 -0.0633
 5875SOL    HW229262   1.039   3.557   8.295  0.3083 -0.8150  0.6937
 5876SOL     OW29263   0.205   4.626   1.266  0.1312 -0.0655  0.8978
 5876SOL    HW129264   0.225   4.565   1.336  1.2850 -1.0816 -0.3169
 5876SOL    HW229265   0.113   4.625   1.242  0.6794  2.5199 -1.3563
 5877SOL     OW29266   3.086   1.762   6.828  0.0803 -0.3041 -0.6097
 5877SOL    HW129267   3.009   1.706   6.828  0.9000 -1.4385  0.1054
 5877SOL    HW229268   3.063   1.844   6.784  2.0273  2.1111  2.8814
 5878SOL     OW29269   3.787   3.593   9.031  0.1307 -0.0972 -0.5883
 5878SOL    HW129270   3.743   3.651   9.093 -1.4880 -2.4091  0.3795
 5878SOL    HW229271   3.737   3.512   9.038 -0.4254  0.3295  0.3097
 5879SOL     OW29272   3.098   1.034   5.507  0.1744  0.2182  0.2763
 5879SOL    HW129273   3.064   1.123   5.493  1.4710  0.9259  1.7040
 5879SOL    HW229274   3.179   1.048   5.556  0.1384 -1.5837  0.8526
 5880SOL     OW29275   3.604   1.682   1.139  0.5076 -0.4203 -0.3391
 5880SOL    HW129276   3.587   1.656   1.048 -0.1186 -2.2207  0.2909
 5880SOL    HW229277   3.549   1.614   1.177 -0.6498  1.4674  1.2999
 5881SOL     OW29278   0.530   3.062   2.810  0.9257  0.1330 -0.2005
 5881SOL    HW129279   0.499   2.989   2.757 -2.3687  1.2989  0.0967
 5881SOL    HW229280   0.450   3.110   2.830  1.5560  1.2110 -0.2490
 5882SOL     OW29281   0.375   2.291  17.401 -0.2659  0.0772 -0.5601
 5882SOL    HW129282   0.437   2.311  17.331 -2.3001 -1.4382 -2.7975
 5882SOL    HW229283   0.329   2.375  17.400 -0.9604 -0.3208 -1.8911
 5883SOL     OW29284   2.458   2.502  13.497  0.7591  1.1331  0.0457
 5883SOL    HW129285   2.503   2.443  13.437 -0.6619 -0.7191  0.8010
 5883SOL    HW229286   2.521   2.520  13.566  1.4795  1.9303 -0.8155
 5884SOL     OW29287   3.147   2.139   3.204  0.4250  0.1506 -0.3628
 5884SOL    HW129288   3.156   2.184   3.288 -2.6484 -0.2414  0.1679
 5884SOL    HW229289   3.059   2.102   3.214  0.8358 -0.1015  2.3480
 5885SOL     OW29290   2.560   1.740  12.951 -0.2060  0.1976 -0.8508
 5885SOL    HW129291   2.582   1.775  12.864  0.0465 -1.5420 -1.4843
 5885SOL    HW229292   2.600   1.803  13.011  0.2083  1.2930 -2.2580
 5886SOL     OW29293   1.558   2.063   4.896 -0.0710  0.4337  0.0762
 5886SOL    HW129294   1.587   2.049   4.986 -0.5220 -0.3656  0.0996
 5886SOL    HW229295   1.496   2.135   4.904  0.9636  1.4258 -0.9054
 5887SOL     OW29296   3.310   0.536   6.254 -0.7176 -0.2257 -0.2384
 5887SOL    HW129297   3.385   0.509   6.306 -0.4809  1.2934  0.2124
 5887SOL    HW229298   3.330   0.628   6.237 -1.5395 -0.6854 -3.8044
 5888SOL     OW29299   4.198   0.791   0.078  0.3627  0.6499 -0.0073
 5888SOL    HW129300   4.240   0.863   0.126 -1.0661  0.5138  1.4354
 5888SOL    HW229301   4.266   0.724   0.075  0.5292  0.8380 -0.4543
 5889SOL     OW29302   2.566   2.496   2.489  0.1187  0.7203 -0.4345
 5889SOL    HW129303   2.488   2.553   2.484  1.2305  2.5407  2.5126
 5889SOL    HW229304   2.599   2.488   2.400  1.0092  0.3205 -0.0606
 5890SOL     OW29305   0.881   1.793   3.223 -0.1608 -0.7376  0.4724
 5890SOL    HW129306   0.802   1.751   3.189 -1.5100  0.9697  1.4695
 5890SOL    HW229307   0.842   1.821   3.306  0.2211 -1.5272  0.9211
 5891SOL     OW29308   3.775   2.196   0.770 -0.6293  0.4852  0.3735
 5891SOL    HW129309   3.731   2.277   0.745 -0.1014  1.0642  1.3522
 5891SOL    HW229310   3.711   2.132   0.738  0.8107  0.6389 -2.8262
 5892SOL     OW29311   2.557   1.574   4.933  0.0225  0.0196  0.1237
 5892SOL    HW129312   2.573   1.634   5.006  1.4743 -0.9004  0.5679
 5892SOL    HW229313   2.532   1.497   4.984 -0.5431 -0.9320 -1.6064
 5893SOL     OW29314   0.943   4.041   7.573  0.6763  0.6243 -0.0081
 5893SOL    HW129315   0.915   4.133   7.566  0.9074  0.5816 -1.5479
 5893SOL    HW229316   0.863   4.004   7.610  1.2562 -1.5560 -0.9482
 5894SOL     OW29317   3.424   3.610   3.938 -0.9030  0.0121 -0.3726
 5894SOL    HW129318   3.364   3.651   3.999 -0.7460 -0.4927  0.1150
 5894SOL    HW229319   3.418   3.671   3.864  0.7444  1.0023  0.2955
 5895SOL     OW29320   0.597   4.004  10.215 -0.2344  0.3196 -0.2791
 5895SOL    HW129321   0.549   3.984  10.296 -0.3023  0.6712 -0.2357
 5895SOL    HW229322   0.679   4.042  10.249 -0.7982  0.5463  0.8383
 5896SOL     OW29323   1.410   4.531   6.856  0.1049  0.2453  0.8242
 5896SOL    HW129324   1.370   4.539   6.769  1.2076 -1.3202  0.1633
 5896SOL    HW229325   1.412   4.436   6.870 -0.2312 -0.3297 -3.1120
 5897SOL     OW29326   4.189   0.454  12.867  0.0373  0.5942  0.1016
 5897SOL    HW129327   4.259   0.439  12.930  0.1719 -0.8603 -0.3967
 5897SOL    HW229328   4.176   0.366  12.831  2.8384  0.1650  0.1212
 5898SOL     OW29329   1.338   1.729   2.992  0.0328 -0.1756  0.2917
 5898SOL    HW129330   1.380   1.752   2.909 -1.0191 -0.3040 -0.2788
 5898SOL    HW229331   1.278   1.801   3.014  1.0016  0.6643  0.2002
 5899SOL     OW29332   1.197   3.279  16.483 -0.6236  0.1699 -0.3404
 5899SOL    HW129333   1.119   3.257  16.433  0.6821 -3.8086 -0.5663
 5899SOL    HW229334   1.244   3.196  16.481  0.9237  0.9647  4.3526
 5900SOL     OW29335   3.127   2.916   2.461 -0.3313  0.0336  0.3897
 5900SOL    HW129336   3.038   2.880   2.465 -0.3191 -0.1058 -0.4288
 5900SOL    HW229337   3.180   2.843   2.494  0.7064  2.4470  4.0964
 5901SOL     OW29338   4.419   1.391   5.663 -0.2831 -0.0647 -0.0490
 5901SOL    HW129339   4.491   1.388   5.726 -3.9017 -1.4028  4.0409
 5901SOL    HW229340   4.471   1.353   5.592  0.4362  0.2162  0.3316
 5902SOL     OW29341   2.386   3.361   4.084 -0.5380 -0.0402 -0.2951
 5902SOL    HW129342   2.346   3.440   4.047  1.1286  0.9904  0.1054
 5902SOL    HW229343   2.343   3.297   4.028 -2.4211  1.8614 -1.0298
 5903SOL     OW29344   2.655   0.111   8.630  0.3075  0.4868  0.1238
 5903SOL    HW129345   2.718   0.042   8.650  1.1259  2.0789  3.0627
 5903SOL    HW229346   2.616   0.071   8.553 -2.3765 -0.8471  2.1848
 5904SOL     OW29347   1.161   1.539   3.755  0.2875 -0.1916 -0.3266
 5904SOL    HW129348   1.188   1.602   3.688  2.2765 -0.6403  0.0597
 5904SOL    HW229349   1.235   1.480   3.752  1.8713  1.8070 -0.6589
 5905SOL     OW29350   3.306   3.939   9.765  0.0457  0.0367 -0.0248
 5905SOL    HW129351   3.365   3.901   9.700 -1.6082  0.2426 -1.6287
 5905SOL    HW229352   3.352   3.931   9.849  1.0745 -1.9020 -0.7578
 5906SOL     OW29353   1.619   3.516   7.300 -0.5833  0.3048  0.1128
 5906SOL    HW129354   1.590   3.507   7.391  1.9692  0.9064  1.0000
 5906SOL    HW229355   1.671   3.596   7.302 -0.3069  0.1579 -1.2282
 5907SOL     OW29356   0.422   1.741   3.266  0.1054 -0.1545  0.0275
 5907SOL    HW129357   0.447   1.751   3.174  1.7072 -0.9084  0.3806
 5907SOL    HW229358   0.340   1.791   3.262 -0.2598 -0.7083  0.5233
 5908SOL     OW29359   4.141   2.078  11.283 -0.0559  0.6947 -0.0153
 5908SOL    HW129360   4.150   2.059  11.189 -1.5749 -0.6621  0.1173
 5908SOL    HW229361   4.151   1.993  11.324  0.3606 -0.2562 -2.0776
 5909SOL     OW29362   1.527   3.986  16.379  0.1246 -0.7674  0.3105
 5909SOL    HW129363   1.466   4.056  16.356  0.6146 -0.1962  0.7628
 5909SOL    HW229364   1.610   4.029  16.355 -0.0679 -0.0619  0.9270
 5910SOL     OW29365   3.774   2.438   5.495  0.3605 -0.4540 -0.1844
 5910SOL    HW129366   3.755   2.491   5.417 -0.0338 -2.4617 -1.4689
 5910SOL    HW229367   3.788   2.499   5.567 -0.1115  0.9357 -1.2672
 5911SOL     OW29368   4.351   2.260  10.314 -0.5362 -0.0637  0.6202
 5911SOL    HW129369   4.426   2.288  10.366  1.5019  0.2909 -2.4825
 5911SOL    HW229370   4.323   2.176  10.351 -2.2444  0.4214  0.4500
 5912SOL     OW29371   2.395   1.025   5.988 -0.0015 -0.3649 -0.0017
 5912SOL    HW129372   2.484   1.039   5.955  0.6809 -0.1480  1.9158
 5912SOL    HW229373   2.418   0.964   6.058 -0.8061 -2.6957 -1.7601
 5913SOL     OW29374   3.396   2.527   5.448  0.5049 -0.2376  0.5017
 5913SOL    HW129375   3.427   2.606   5.493  0.8224  0.3336 -0.7294
 5913SOL    HW229376   3.335   2.570   5.388 -0.0815 -1.4501  0.2321
 5914SOL     OW29377   2.651   4.266   5.695  0.2882 -0.3048 -0.6339
 5914SOL    HW129378   2.641   4.346   5.644 -0.1537  2.0434  3.1335
 5914SOL    HW229379   2.718   4.291   5.759  0.1285 -0.6066 -0.3490
 5915SOL     OW29380   0.749   2.177   4.878 -0.6526 -0.2524 -0.2016
 5915SOL    HW129381   0.694   2.212   4.808  0.3529 -0.2074 -0.9580
 5915SOL    HW229382   0.712   2.089   4.879  0.9845 -0.9268  1.9188
 5916SOL     OW29383   2.195   1.961   6.866 -0.4602  0.2769 -0.1129
 5916SOL    HW129384   2.144   1.881   6.848  1.4604 -0.5408 -1.9364
 5916SOL    HW229385   2.222   1.949   6.957  0.5941 -1.9176 -0.6994
 5917SOL     OW29386   0.099   3.247  16.483 -0.5621 -0.0965  0.0006
 5917SOL    HW129387   0.057   3.183  16.541  0.0931 -2.4565 -2.1380
 5917SOL    HW229388   0.154   3.193  16.426 -1.0686 -1.0158  0.3860
 5918SOL     OW29389   1.474   0.323   7.475 -0.5026 -0.2774  0.2870
 5918SOL    HW129390   1.488   0.409   7.436 -1.0675 -0.2743  0.0889
 5918SOL    HW229391   1.378   0.317   7.471 -0.4949  0.3220 -0.7285
 5919SOL     OW29392   1.313   1.445   7.482 -0.4344 -0.1080  0.1229
 5919SOL    HW129393   1.336   1.441   7.574  2.4129  0.9407 -0.5269
 5919SOL    HW229394   1.348   1.530   7.454 -2.5916  0.7681  0.0630
 5920SOL     OW29395   3.651   1.834   4.108 -0.1422 -0.3485 -0.4475
 5920SOL    HW129396   3.564   1.842   4.147  0.1510 -1.1871  0.4000
 5920SOL    HW229397   3.653   1.761   4.047 -1.4150  0.2471 -1.2019
 5921SOL     OW29398   2.522   1.425   9.020 -0.5206  0.2669 -0.1719
 5921SOL    HW129399   2.604   1.467   8.994 -0.5698  0.5890  0.1952
 5921SOL    HW229400   2.495   1.482   9.091  2.8375  0.3618  1.0203
 5922SOL     OW29401   4.720   3.769   1.637 -0.7347 -0.2476 -0.0916
 5922SOL    HW129402   4.696   3.681   1.667  0.6434 -0.4471  0.4039
 5922SOL    HW229403   0.051   3.771   1.570 -0.7074  0.1298 -0.0549
 5923SOL     OW29404   3.563   0.212  12.928  0.3794 -0.2309  0.0002
 5923SOL    HW129405   3.610   0.271  12.868  1.2347  0.2710  1.1606
 5923SOL    HW229406   3.635   0.178  12.981  0.9536 -0.7816 -1.1342
 5924SOL     OW29407   3.213   4.552   5.760 -0.1902 -0.0459  0.0709
 5924SOL    HW129408   3.126   4.564   5.796  0.4333 -0.5549  1.7574
 5924SOL    HW229409   3.259   4.627   5.798 -1.4354  1.0280 -0.5680
 5925SOL     OW29410   3.154   4.019   3.604  0.0060 -0.3583  0.5141
 5925SOL    HW129411   3.101   3.970   3.667 -1.3765 -2.0173 -1.9117
 5925SOL    HW229412   3.220   4.057   3.661  0.3933  0.2365 -0.3327
 5926SOL     OW29413   3.206   1.520   1.564 -0.2940  0.3823  0.0724
 5926SOL    HW129414   3.189   1.506   1.657 -0.7651  0.4306 -0.0088
 5926SOL    HW229415   3.223   1.433   1.529 -2.0912 -0.5251  1.5083
 5927SOL     OW29416   1.257   4.451   9.014  0.1859  0.0425  0.2431
 5927SOL    HW129417   1.273   4.447   8.920  2.8584 -1.5081  0.7634
 5927SOL    HW229418   1.187   4.516   9.014  0.1094 -0.0402  1.6976
 5928SOL     OW29419   3.966   4.232   3.444 -0.0679 -0.3212  0.0416
 5928SOL    HW129420   4.062   4.227   3.443 -0.1241 -1.1901 -0.5454
 5928SOL    HW229421   3.947   4.173   3.517 -1.0542  1.3346  1.1221
 5929SOL     OW29422   1.673   4.360   6.798 -0.1732  0.6528  0.0052
 5929SOL    HW129423   1.737   4.361   6.728  0.2554  0.8503  0.4025
 5929SOL    HW229424   1.644   4.451   6.810 -0.3807  0.8129 -1.7937
 5930SOL     OW29425   1.779   2.597   9.339 -0.0651  0.1623 -0.4144
 5930SOL    HW129426   1.797   2.650   9.261 -0.6296 -2.8223 -2.5729
 5930SOL    HW229427   1.683   2.600   9.344 -0.2256  0.1321 -3.2252
 5931SOL     OW29428   3.762   0.623  15.275 -0.1169  0.5397  0.1971
 5931SOL    HW129429   3.697   0.631  15.205 -0.0830 -2.6554 -0.2230
 5931SOL    HW229430   3.714   0.570  15.339 -0.1530 -0.7506 -0.8917
 5932SOL     OW29431   2.882   3.372   3.041  0.1959  0.0272  0.2929
 5932SOL    HW129432   2.918   3.316   3.110 -0.8598 -2.2485 -0.9691
 5932SOL    HW229433   2.931   3.451   3.062  1.1063 -0.7528  1.1617
 5933SOL     OW29434   1.200   2.829   3.832  0.0201  0.3588  0.3545
 5933SOL    HW129435   1.263   2.825   3.759  1.6430  2.1039  1.6917
 5933SOL    HW229436   1.245   2.801   3.911 -1.1121  0.4647  1.0439
 5934SOL     OW29437   0.830   2.023   0.014  0.2678 -0.0663 -0.0782
 5934SOL    HW129438   0.780   2.052   0.090  1.0391 -0.6831  0.6737
 5934SOL    HW229439   0.891   2.096   0.012  0.8499 -0.5202  0.8850
 5935SOL     OW29440   0.929   3.391  13.162 -0.2552 -0.3580  0.3412
 5935SOL    HW129441   1.003   3.390  13.223  0.2511  0.7408 -0.2660
 5935SOL    HW229442   0.945   3.456  13.094 -0.9417  0.4052  0.9023
 5936SOL     OW29443   3.909   3.598   2.004 -0.4846 -0.3080 -0.2988
 5936SOL    HW129444   3.979   3.539   2.033  0.8297  1.1762 -0.4607
 5936SOL    HW229445   3.842   3.532   1.984 -0.2667 -0.1946 -1.3974
 5937SOL     OW29446   3.359   4.439   4.839  0.8366  0.0246 -0.6990
 5937SOL    HW129447   3.351   4.376   4.911 -1.5518  1.1166 -0.0129
 5937SOL    HW229448   3.342   4.386   4.762  0.0511 -2.4640  1.1899
 5938SOL     OW29449   1.008   2.903   7.456 -0.2437  0.8046 -0.0422
 5938SOL    HW129450   1.041   2.959   7.386  1.5553 -1.5152 -1.0495
 5938SOL    HW229451   1.027   2.817   7.418  0.2383  1.4754 -1.3243
 5939SOL     OW29452   0.858   3.595  10.785  0.5806  0.1908  0.0498
 5939SOL    HW129453   0.897   3.674  10.750  1.2497 -0.5651 -0.9014
 5939SOL    HW229454   0.907   3.573  10.864 -0.3114  0.6974  0.7473
 5940SOL     OW29455   3.563   1.368  17.175  0.3420 -0.1441 -0.3360
 5940SOL    HW129456   3.628   1.398  17.238  0.0784 -0.2738 -0.0058
 5940SOL    HW229457   3.524   1.295  17.223 -1.0547  0.3120 -0.7922
 5941SOL     OW29458   0.803   3.498   5.306  0.2030  0.4098  0.4288
 5941SOL    HW129459   0.744   3.536   5.241  0.9723  0.3576 -0.2905
 5941SOL    HW229460   0.759   3.417   5.332  0.0186 -0.2071 -1.8042
 5942SOL     OW29461   2.254   2.055   8.594 -0.5790 -0.1566 -0.1255
 5942SOL    HW129462   2.308   2.041   8.672  1.3679  4.0130 -0.7020
 5942SOL    HW229463   2.237   2.149   8.586 -0.2630  0.1029  2.1758
 5943SOL     OW29464   4.735   4.479  13.809  0.0960  0.1253  0.3412
 5943SOL    HW129465   0.028   4.525  13.731  2.0898  0.4631  1.3117
 5943SOL    HW229466   0.009   4.549  13.873  0.5151 -0.8027  1.2858
 5944SOL     OW29467   2.382   3.756   7.266 -0.0901  0.4083 -0.2325
 5944SOL    HW129468   2.380   3.680   7.207  2.0336  0.5320 -0.4593
 5944SOL    HW229469   2.350   3.827   7.210  1.4507  1.4997  0.2656
 5945SOL     OW29470   2.497   0.874   3.028  0.3865  0.3418  0.2029
 5945SOL    HW129471   2.467   0.785   3.007 -1.3279  1.3734 -1.7371
 5945SOL    HW229472   2.589   0.855   3.045  0.6617  0.0266 -1.7288
 5946SOL     OW29473   2.576   3.795   3.874 -0.4935 -0.1852 -0.0495
 5946SOL    HW129474   2.669   3.817   3.862 -0.3791 -0.2874  0.6337
 5946SOL    HW229475   2.590   3.717   3.928  0.9783 -0.3707 -0.6803
 5947SOL     OW29476   0.962   1.967   3.019  0.0049 -0.7603  0.2191
 5947SOL    HW129477   1.054   1.976   3.045  0.2236 -2.5608  0.0276
 5947SOL    HW229478   0.911   1.922   3.086  1.7814 -0.5188  1.7301
 5948SOL     OW29479   4.683   2.182   4.238  0.4600 -0.4905  0.8377
 5948SOL    HW129480   4.640   2.153   4.158 -3.1497  4.6632  0.9309
 5948SOL    HW229481   0.026   2.134   4.216 -0.8261 -1.9135 -0.7248
 5949SOL     OW29482   2.152   2.786   3.521  0.1200 -0.1105 -0.1384
 5949SOL    HW129483   2.176   2.764   3.431  3.4860  0.0445  0.7074
 5949SOL    HW229484   2.222   2.848   3.541  0.1504 -0.8317  1.9860
 5950SOL     OW29485   1.127   4.208   8.460  0.1785  0.7188  0.1964
 5950SOL    HW129486   1.211   4.192   8.504  0.3273  0.3658 -0.2217
 5950SOL    HW229487   1.101   4.117   8.451 -1.4726  1.5345 -3.3736
 5951SOL     OW29488   0.745   3.281   6.946  0.4585  0.7456 -0.3007
 5951SOL    HW129489   0.792   3.224   7.007 -0.0074  3.3302  2.4506
 5951SOL    HW229490   0.663   3.232   6.942  1.5015 -1.1447  1.2887
 5952SOL     OW29491   0.510   0.273  12.927 -0.2443 -0.1257  0.0475
 5952SOL    HW129492   0.462   0.249  12.848 -0.5178 -3.5676  1.2731
 5952SOL    HW229493   0.461   0.225  12.993 -3.0973  0.4242 -1.6883
 5953SOL     OW29494   1.404   0.350   4.518  0.1774 -0.8821 -0.2934
 5953SOL    HW129495   1.407   0.445   4.520 -0.6570 -0.8889  1.1302
 5953SOL    HW229496   1.492   0.335   4.483  1.5227  0.6738  2.3648
 5954SOL     OW29497   3.215   1.947   9.047 -0.5486  0.1967  0.1022
 5954SOL    HW129498   3.255   1.872   9.002  0.2363 -0.9405  2.6883
 5954SOL    HW229499   3.189   1.907   9.130  2.2581  2.4601  2.0908
 5955SOL     OW29500   2.300   1.864   4.938 -0.2988  0.2314  0.2315
 5955SOL    HW129501   2.250   1.789   4.904 -1.0492  1.0987 -0.5871
 5955SOL    HW229502   2.267   1.875   5.027  0.3728 -2.7586  0.8587
 5956SOL     OW29503   0.472   3.778   7.455 -0.0862 -0.1125  0.4962
 5956SOL    HW129504   0.566   3.779   7.436 -0.0210 -0.0777  0.8360
 5956SOL    HW229505   0.442   3.781   7.364 -1.0029  1.8034  0.8579
 5957SOL     OW29506   1.569   4.288   7.875 -0.3092 -0.4904  0.0688
 5957SOL    HW129507   1.637   4.349   7.847 -0.7509  0.4279  1.0037
 5957SOL    HW229508   1.625   4.212   7.891  1.0243  1.0469  2.9093
 5958SOL     OW29509   0.390   4.159   6.052 -0.0710  0.2225  0.5299
 5958SOL    HW129510   0.458   4.092   6.061 -1.4753 -1.4745 -1.5903
 5958SOL    HW229511   0.423   4.222   5.988  1.2193 -1.5465 -0.5262
 5959SOL     OW29512   1.441   2.981   1.688 -0.6002 -0.3434 -0.2778
 5959SOL    HW129513   1.520   3.028   1.660 -0.8172  0.3478  0.2736
 5959SOL    HW229514   1.468   2.890   1.699  0.6392 -0.0018 -0.5167
 5960SOL     OW29515   4.637   1.690   6.336 -0.4901 -0.4058  0.6116
 5960SOL    HW129516   4.582   1.702   6.259  1.9278  2.4940 -0.6533
 5960SOL    HW229517   4.575   1.636   6.385  0.1251 -2.3947 -0.8464
 5961SOL     OW29518   3.190   0.506   6.529  0.4784  0.0113 -0.2934
 5961SOL    HW129519   3.239   0.547   6.458  0.7807 -0.2794 -0.2501
 5961SOL    HW229520   3.103   0.544   6.517  0.0391 -0.3982  1.5154
 5962SOL     OW29521   4.683   3.299   4.291  0.8480  0.7236 -0.4799
 5962SOL    HW129522   4.628   3.339   4.223  0.3397  0.8178 -0.0075
 5962SOL    HW229523   0.029   3.278   4.248  2.1449  0.7770  1.9859
 5963SOL     OW29524   3.240   0.932   9.660  0.6921 -0.4347  0.3175
 5963SOL    HW129525   3.277   1.008   9.614 -1.5450  0.8449  0.6052
 5963SOL    HW229526   3.173   0.904   9.598 -0.0571 -0.6762  1.2376
 5964SOL     OW29527   3.199   0.879  14.128 -0.3454  0.1246 -0.2331
 5964SOL    HW129528   3.240   0.965  14.135 -0.3313 -0.1083  2.3954
 5964SOL    HW229529   3.106   0.903  14.119 -0.5452 -1.2428 -1.8897
 5965SOL     OW29530   2.893   0.362   7.404 -0.2717  0.6031  0.0017
 5965SOL    HW129531   2.833   0.383   7.333  0.3681  1.9449 -0.1375
 5965SOL    HW229532   2.950   0.437   7.420  0.0636  0.4773 -0.5939
 5966SOL     OW29533   2.654   3.864  16.430 -0.1132 -0.3299  0.5009
 5966SOL    HW129534   2.669   3.803  16.503 -0.0679  0.0294  0.7935
 5966SOL    HW229535   2.606   3.933  16.476 -0.6990 -2.5640  3.2618
 5967SOL     OW29536   1.038   0.225  12.970 -0.0236 -0.4806  0.6543
 5967SOL    HW129537   1.033   0.301  12.912 -1.7197 -1.2386 -0.1711
 5967SOL    HW229538   0.946   0.205  12.987 -0.6940 -0.7292 -3.2982
 5968SOL     OW29539   0.084   2.756   5.256 -0.0927  0.3029 -0.8356
 5968SOL    HW129540   0.092   2.782   5.164  0.2171  1.4764 -0.4664
 5968SOL    HW229541   4.729   2.770   5.277  0.0151  0.2539 -0.3184
 5969SOL     OW29542   1.204   1.360   7.096 -0.2288 -0.1770  0.1159
 5969SOL    HW129543   1.118   1.360   7.054 -0.3514  0.4169  0.3589
 5969SOL    HW229544   1.194   1.277   7.142 -1.8882  1.3047  2.4553
 5970SOL     OW29545   2.801   0.310   6.506 -0.2306  0.5235  0.3425
 5970SOL    HW129546   2.835   0.400   6.505 -0.6042  0.6631  0.4165
 5970SOL    HW229547   2.861   0.271   6.442 -0.1063 -1.7448  1.8478
 5971SOL     OW29548   3.614   4.675  17.644 -0.6737  0.0033  0.0099
 5971SOL    HW129549   3.580   4.736  17.710  1.5675  1.9502 -0.6137
 5971SOL    HW229550   3.568   4.710  17.568  1.3271 -4.0871 -3.0648
 5972SOL     OW29551   2.085   4.253   2.301 -0.2446 -0.2758 -0.4821
 5972SOL    HW129552   2.150   4.319   2.276  0.4781 -1.1896 -0.9919
 5972SOL    HW229553   2.138   4.175   2.286 -0.2912 -0.4689  0.3908
 5973SOL     OW29554   4.065   4.059  11.422 -0.2730 -0.4264 -0.0389
 5973SOL    HW129555   4.096   4.148  11.405  1.0241 -1.2211 -1.8471
 5973SOL    HW229556   4.149   4.018  11.440 -1.5143 -1.5423  3.2071
 5974SOL     OW29557   0.294   1.258  13.772  0.1420 -0.4596  0.0955
 5974SOL    HW129558   0.385   1.264  13.800  0.1178  0.5599 -0.0220
 5974SOL    HW229559   0.286   1.347  13.736 -0.5698 -1.9809 -3.3966
 5975SOL     OW29560   0.353   3.631  14.204  0.6660  0.1707 -0.0399
 5975SOL    HW129561   0.418   3.628  14.274 -2.6096  0.9406  3.0435
 5975SOL    HW229562   0.275   3.625  14.258 -1.0955 -2.4899 -2.8925
 5976SOL     OW29563   2.943   0.111   7.970  0.1946 -0.4173  0.1536
 5976SOL    HW129564   2.868   0.080   8.020  0.1848  0.5551  0.7482
 5976SOL    HW229565   3.004   0.041   7.993 -2.7234 -3.5077 -1.6211
 5977SOL     OW29566   4.105   0.206   1.315  0.3323  0.5584  0.0093
 5977SOL    HW129567   4.086   0.144   1.245  1.9929 -1.3964  1.2961
 5977SOL    HW229568   4.145   0.275   1.262 -1.3318 -0.1353 -2.1325
 5978SOL     OW29569   4.659   1.129   2.975  0.3074 -0.4016 -0.1742
 5978SOL    HW129570   4.589   1.066   2.992 -1.0755  0.7034 -1.9173
 5978SOL    HW229571   4.666   1.119   2.880 -0.2694 -0.4286 -0.2104
 5979SOL     OW29572   3.408   1.812   2.941  0.9373 -0.4422  0.1954
 5979SOL    HW129573   3.390   1.755   3.016  2.0573 -1.1318 -0.0694
 5979SOL    HW229574   3.326   1.861   2.950  2.9796  3.1006 -0.3633
 5980SOL     OW29575   3.036   4.570   8.250 -0.4484 -0.1947 -0.7179
 5980SOL    HW129576   2.944   4.581   8.227 -0.5773  2.5246  1.0845
 5980SOL    HW229577   3.079   4.629   8.187 -0.8938  2.5127  1.5121
 5981SOL     OW29578   3.483   4.566   7.312  0.1941 -0.0072  0.1684
 5981SOL    HW129579   3.552   4.536   7.253  0.4305 -1.2512  1.0546
 5981SOL    HW229580   3.403   4.530   7.273  1.3172 -0.6246 -1.5644
 5982SOL     OW29581   3.903   2.235   7.043  0.6280  0.2775 -0.3371
 5982SOL    HW129582   3.981   2.289   7.029 -0.8466  2.7826  1.1742
 5982SOL    HW229583   3.874   2.247   7.134 -0.8375 -1.5737 -0.5527
 5983SOL     OW29584   1.705   0.479   4.391 -0.4401 -0.1213 -0.0680
 5983SOL    HW129585   1.765   0.410   4.420  1.9250  2.1563  0.4613
 5983SOL    HW229586   1.686   0.524   4.474 -2.0588  0.7774 -0.9362
 5984SOL     OW29587   3.357   2.918   8.987  0.2929 -0.1646  0.7489
 5984SOL    HW129588   3.316   2.954   9.065 -0.8651 -0.2895  0.1941
 5984SOL    HW229589   3.437   2.970   8.976 -0.1125 -0.0593 -1.8348
 5985SOL     OW29590   1.000   4.077   5.294 -0.2061  0.3217 -0.1269
 5985SOL    HW129591   1.036   4.118   5.373 -1.5244  1.2790 -0.0158
 5985SOL    HW229592   1.075   4.077   5.234 -0.1248  1.2030 -0.0192
 5986SOL     OW29593   3.035   1.644   4.226  0.9054 -0.6535  0.1878
 5986SOL    HW129594   3.130   1.639   4.226  0.8484 -1.6964 -0.1408
 5986SOL    HW229595   3.024   1.715   4.163 -2.3295 -0.1093  1.3561
 5987SOL     OW29596   2.221   0.324  14.363  0.5964 -0.0419 -0.4273
 5987SOL    HW129597   2.148   0.269  14.393  0.4324  1.3066  1.6103
 5987SOL    HW229598   2.262   0.277  14.291  2.7962  0.2693  0.6457
 5988SOL     OW29599   3.653   1.044   2.686 -0.1273  0.1519 -0.1879
 5988SOL    HW129600   3.714   1.075   2.753  1.6415 -1.0646 -1.2276
 5988SOL    HW229601   3.695   0.968   2.646 -3.4746 -1.6589 -0.2216
 5989SOL     OW29602   1.366   3.813   2.884 -0.3504  0.5199  0.7026
 5989SOL    HW129603   1.399   3.902   2.876 -0.3775  0.4929  0.2915
 5989SOL    HW229604   1.391   3.783   2.972 -2.8132  0.4159  1.3923
 5990SOL     OW29605   4.432   4.377   7.800 -0.0878 -0.1671  0.3024
 5990SOL    HW129606   4.514   4.417   7.830 -0.1630  2.5749 -3.1038
 5990SOL    HW229607   4.432   4.414   7.711  0.2856  0.9204  0.7525
 5991SOL     OW29608   0.211   3.468   4.443  0.2938  0.3473 -0.5292
 5991SOL    HW129609   0.286   3.493   4.389  0.6490  0.0433 -0.1815
 5991SOL    HW229610   0.155   3.541   4.419  1.5051  0.9691 -1.4487
 5992SOL     OW29611   3.642   0.123   2.731  0.0131 -0.2198  0.2870
 5992SOL    HW129612   3.713   0.076   2.688 -0.4468 -2.0377  1.4809
 5992SOL    HW229613   3.569   0.066   2.706 -0.1753  0.9215 -1.7804
 5993SOL     OW29614   3.062   0.626   4.064  0.6605 -0.3956 -0.1654
 5993SOL    HW129615   3.005   0.579   4.003 -0.9311  0.5700  0.5561
 5993SOL    HW229616   2.996   0.645   4.131  1.1806 -1.7297  0.7162
 5994SOL     OW29617   4.705   0.857   2.269 -0.1832 -0.5735  0.4795
 5994SOL    HW129618   4.645   0.819   2.333  1.2031 -1.3811  1.2910
 5994SOL    HW229619   0.015   0.779   2.241  0.1609 -0.1707 -0.0722
 5995SOL     OW29620   1.442   0.273   9.864 -0.0176 -0.1326  1.1202
 5995SOL    HW129621   1.438   0.311   9.776  0.1714 -0.2594  1.0556
 5995SOL    HW229622   1.530   0.237   9.856 -0.9248 -1.7715 -1.8175
 5996SOL     OW29623   3.185   2.823  11.581 -0.2640  0.3112  0.1417
 5996SOL    HW129624   3.267   2.826  11.631 -0.0793 -2.2467 -0.0060
 5996SOL    HW229625   3.143   2.740  11.601  0.1847  0.2802  0.9807
 5997SOL     OW29626   4.008   2.207   8.292 -0.0607 -0.1269 -0.5760
 5997SOL    HW129627   4.032   2.285   8.341  0.1900 -1.4093  1.3540
 5997SOL    HW229628   3.921   2.227   8.257 -0.1719 -0.7775 -0.6689
 5998SOL     OW29629   4.418   0.860  11.320 -0.0796 -0.0047  0.5896
 5998SOL    HW129630   4.407   0.954  11.313 -1.6003 -0.3406 -1.6717
 5998SOL    HW229631   4.442   0.834  11.231  0.1916  0.7916  0.4370
 5999SOL     OW29632   1.590   0.741   6.451  0.3622  0.3833  0.5032
 5999SOL    HW129633   1.603   0.649   6.474 -1.8267  0.1880  0.9477
 5999SOL    HW229634   1.681   0.770   6.459  1.0805 -1.5002 -0.7157
 6000SOL     OW29635   4.049   0.590  17.679  0.2978  1.0918  0.4937
 6000SOL    HW129636   4.144   0.584  17.687  0.2066 -2.2800 -1.1143
 6000SOL    HW229637   4.038   0.678  17.715  0.9083  1.9074 -1.3034
 6001SOL     OW29638   0.996   3.352  10.959  0.0472  0.3466  0.4219
 6001SOL    HW129639   0.942   3.288  10.913  1.6506 -0.0062 -0.9669
 6001SOL    HW229640   0.919   3.397  10.995 -1.0569 -1.4078  0.2371
 6002SOL     OW29641   3.037   3.381   2.577  0.4345  0.3136 -0.0008
 6002SOL    HW129642   3.037   3.420   2.664  1.2944  0.6214 -0.1488
 6002SOL    HW229643   3.092   3.304   2.587 -1.5473 -1.1446 -0.1605
 6003SOL     OW29644   3.592   2.123   5.944 -0.1058 -0.0671 -0.6051
 6003SOL    HW129645   3.530   2.194   5.930 -0.7474 -0.6683 -0.8130
 6003SOL    HW229646   3.630   2.120   5.856 -0.3936  0.4209 -0.7435
 6004SOL     OW29647   0.716   4.619   6.195 -1.0856 -0.5150 -0.3354
 6004SOL    HW129648   0.662   4.645   6.120 -3.5757 -0.2401  1.5775
 6004SOL    HW229649   0.738   4.530   6.169  0.0678 -0.5522  0.8067
 6005SOL     OW29650   4.242   1.386   0.350  0.3687 -0.4887  0.3035
 6005SOL    HW129651   4.285   1.413   0.269  0.7528  2.0296  1.3441
 6005SOL    HW229652   4.186   1.311   0.332  0.5912 -0.5195 -0.2679
 6006SOL     OW29653   2.122   0.616   5.595 -0.1483  0.5595  0.4802
 6006SOL    HW129654   2.199   0.672   5.607 -0.3443  0.8437  0.4087
 6006SOL    HW229655   2.060   0.676   5.553 -0.9126 -0.4680  0.1350
 6007SOL     OW29656   2.427   0.649   5.352  0.0100  0.0129  0.2687
 6007SOL    HW129657   2.441   0.682   5.440  0.1066  2.5998 -0.7109
 6007SOL    HW229658   2.497   0.591   5.321  0.4281  1.1421 -0.8974
 6008SOL     OW29659   2.652   3.441   1.107  0.5567 -0.0573 -0.1945
 6008SOL    HW129660   2.571   3.451   1.158  0.2507  2.1803 -1.1138
 6008SOL    HW229661   2.717   3.428   1.176 -0.2174  3.7556  1.2210
 6009SOL     OW29662   4.356   1.388   4.589  1.0753  0.4173 -0.3168
 6009SOL    HW129663   4.413   1.446   4.639 -0.1046 -0.1007  1.6135
 6009SOL    HW229664   4.370   1.428   4.503 -4.7407  0.8025 -1.0462
 6010SOL     OW29665   1.904   2.342   5.238  0.4621 -0.0772  0.3901
 6010SOL    HW129666   1.821   2.294   5.244  0.7115 -0.8895 -2.8474
 6010SOL    HW229667   1.941   2.315   5.323 -0.1909 -1.6584  0.1813
 6011SOL     OW29668   4.274   3.511   2.983 -0.2149  0.1641 -0.5115
 6011SOL    HW129669   4.301   3.500   2.892  0.7355  0.2494 -0.2476
 6011SOL    HW229670   4.192   3.555   2.963 -1.6312 -2.0526  0.4974
 6012SOL     OW29671   3.036   1.667  14.539  0.2537  0.4088  0.2624
 6012SOL    HW129672   2.959   1.631  14.494  0.2613 -0.3317  0.8407
 6012SOL    HW229673   3.097   1.682  14.467 -0.4875 -1.0441 -0.6810
 6013SOL     OW29674   4.387   4.124   1.748  0.5083  0.2066  0.3186
 6013SOL    HW129675   4.359   4.131   1.839 -1.4062 -1.9488 -0.1170
 6013SOL    HW229676   4.433   4.041   1.754 -0.2478 -0.1902  0.6108
 6014SOL     OW29677   2.230   1.207   5.320  0.6440 -0.1679  0.3353
 6014SOL    HW129678   2.301   1.268   5.339  2.2701 -1.7975 -0.4443
 6014SOL    HW229679   2.276   1.123   5.328  3.5338  1.2573 -1.4699
 6015SOL     OW29680   0.252   0.168  11.509 -0.0316  0.0588  0.3251
 6015SOL    HW129681   0.183   0.166  11.576  1.0478  0.4649  1.4525
 6015SOL    HW229682   0.247   0.259  11.479  0.6782  0.2703  0.8431
 6016SOL     OW29683   2.911   0.436   5.847 -0.2351  0.1579  0.5142
 6016SOL    HW129684   2.951   0.519   5.821  1.1004 -0.2092  1.4145
 6016SOL    HW229685   2.986   0.384   5.874 -0.5610 -1.5501 -1.9103
 6017SOL     OW29686   2.253   2.568   7.399  0.3030 -0.2138 -0.3946
 6017SOL    HW129687   2.292   2.655   7.409 -0.3097  0.2385 -1.8926
 6017SOL    HW229688   2.311   2.516   7.454 -0.3314  0.3939  0.8564
 6018SOL     OW29689   0.135   1.480  17.068 -0.1674  0.1716  0.1855
 6018SOL    HW129690   0.202   1.547  17.056 -2.1661  1.5330 -3.0995
 6018SOL    HW229691   0.114   1.458  16.977  0.2311  1.0267 -0.1068
 6019SOL     OW29692   3.298   3.945  12.216 -0.0357 -0.0525  0.3997
 6019SOL    HW129693   3.258   3.995  12.287 -1.7410  0.9741 -1.2682
 6019SOL    HW229694   3.361   3.885  12.256 -0.8360  0.5825  2.6297
 6020SOL     OW29695   3.478   1.286   2.119  0.3168  0.9340 -0.5774
 6020SOL    HW129696   3.431   1.316   2.197  0.3592 -0.8851  0.1449
 6020SOL    HW229697   3.495   1.195   2.144  0.8906  0.1307 -3.8821
 6021SOL     OW29698   2.334   2.526   5.892  0.0904 -0.2234 -0.0727
 6021SOL    HW129699   2.294   2.571   5.967 -0.5135  0.9787 -1.1333
 6021SOL    HW229700   2.392   2.462   5.933 -0.0917 -0.3084  0.0520
 6022SOL     OW29701   3.027   3.262   5.022 -0.3133 -0.2017  1.0606
 6022SOL    HW129702   3.040   3.172   4.994  0.0303  0.1819 -0.0032
 6022SOL    HW229703   3.099   3.261   5.085  0.6445 -0.4099 -0.0490
 6023SOL     OW29704   2.071   3.731   1.020 -0.2297 -0.4235  0.2849
 6023SOL    HW129705   2.098   3.823   1.028 -1.7108 -0.0906  1.3411
 6023SOL    HW229706   2.133   3.695   1.085  0.3812  0.1884  0.0443
 6024SOL     OW29707   0.717   2.729  11.340  0.3646 -0.1974  0.5642
 6024SOL    HW129708   0.805   2.694  11.354 -0.2137 -1.2260  1.6704
 6024SOL    HW229709   0.676   2.648  11.309 -1.7779  1.0625  0.1637
 6025SOL     OW29710   3.287   4.691   6.941 -0.1251 -0.3982 -0.3602
 6025SOL    HW129711   3.228   4.659   7.009  0.7104 -0.8650  0.1489
 6025SOL    HW229712   3.315   0.035   6.981 -2.8167 -0.4235  1.5140
 6026SOL     OW29713   1.575   0.414   2.339 -0.4330  0.2577  0.6849
 6026SOL    HW129714   1.580   0.502   2.302  1.3886 -0.1217  0.0281
 6026SOL    HW229715   1.487   0.416   2.377 -1.2478 -0.1901 -1.2116
 6027SOL     OW29716   2.300   1.588   6.040 -0.0633 -0.7073 -0.2043
 6027SOL    HW129717   2.286   1.668   5.989  1.4615 -0.5502 -0.3793
 6027SOL    HW229718   2.251   1.519   5.996  0.4825 -0.7958 -0.6754
 6028SOL     OW29719   3.366   0.554   0.075 -0.0319 -0.1338  0.4456
 6028SOL    HW129720   3.424   0.618   0.116  1.2148  0.3032 -2.0511
 6028SOL    HW229721   3.288   0.604   0.099 -1.0448 -1.8937  0.8312
 6029SOL     OW29722   3.401   1.159   6.993  0.3298  0.0467  0.5116
 6029SOL    HW129723   3.460   1.085   7.009  0.4620  0.1326  0.4223
 6029SOL    HW229724   3.405   1.155   6.897 -2.6287 -1.0465  0.4090
 6030SOL     OW29725   2.400   1.282  10.552 -0.0338  0.1904 -0.1494
 6030SOL    HW129726   2.466   1.231  10.506 -0.2710  0.5096 -0.8548
 6030SOL    HW229727   2.426   1.357  10.498 -0.1077  1.6106  1.7677
 6031SOL     OW29728   4.611   0.359   9.128  0.0889  0.1600  0.4031
 6031SOL    HW129729   4.603   0.319   9.041  1.1154  0.7062  0.0517
 6031SOL    HW229730   4.524   0.337   9.160  0.0757  0.5753  0.6507
 6032SOL     OW29731   0.031   3.630   5.062  0.0682  0.2110  0.4652
 6032SOL    HW129732   0.044   3.546   5.019  2.6545  1.2626 -0.8070
 6032SOL    HW229733   0.119   3.668   5.071 -0.2707  0.6832  1.8024
 6033SOL     OW29734   2.882   1.071   3.483  0.1683 -0.4040 -0.2564
 6033SOL    HW129735   2.974   1.093   3.464  0.1801 -0.2832 -0.0587
 6033SOL    HW229736   2.845   1.123   3.412 -1.4047  1.0843  1.6592
 6034SOL     OW29737   3.218   0.831   6.682  0.3172  0.8120 -0.4900
 6034SOL    HW129738   3.127   0.861   6.680 -0.0204 -0.3482 -2.3546
 6034SOL    HW229739   3.265   0.868   6.607  3.6310  0.6239  1.5142
 6035SOL     OW29740   1.125   3.228   8.393  0.0400  0.6342  0.2769
 6035SOL    HW129741   1.065   3.175   8.340 -0.6182 -0.4812  2.1326
 6035SOL    HW229742   1.106   3.313   8.354  1.1950  0.2546 -1.0845
 6036SOL     OW29743   1.166   1.523  17.321  0.3827 -0.0411  0.7107
 6036SOL    HW129744   1.140   1.434  17.299  0.3422  0.3622 -0.9156
 6036SOL    HW229745   1.135   1.543  17.409 -0.3705 -1.0746  0.6783
 6037SOL     OW29746   1.874   4.301  11.877  0.2484 -0.5634 -0.1104
 6037SOL    HW129747   1.884   4.323  11.969 -0.4122  0.2864 -0.2479
 6037SOL    HW229748   1.867   4.205  11.877 -0.6505 -0.4916  0.8238
 6038SOL     OW29749   2.591   3.158   8.948 -0.8404  0.1355  0.7558
 6038SOL    HW129750   2.536   3.080   8.958 -0.8198  0.1556  1.0227
 6038SOL    HW229751   2.655   3.125   8.885  0.4937  1.5265  1.3973
 6039SOL     OW29752   0.051   0.912   4.048 -0.5789  0.4801  0.2532
 6039SOL    HW129753   0.062   0.907   4.143  0.8162  1.5087  0.1452
 6039SOL    HW229754   0.048   0.822   4.014  2.6235 -0.3015  2.0051
 6040SOL     OW29755   0.678   2.037  17.527 -0.8508  0.6909  0.1121
 6040SOL    HW129756   0.665   2.006  17.617  1.3857 -0.6797 -0.0399
 6040SOL    HW229757   0.721   2.121  17.542 -2.4794  1.6384 -0.5194
 6041SOL     OW29758   4.452   1.610  13.218 -0.0810 -0.2523  0.0734
 6041SOL    HW129759   4.462   1.563  13.301 -0.5758 -0.5125 -0.0198
 6041SOL    HW229760   4.436   1.695  13.260 -2.0459 -1.1848  1.1870
 6042SOL     OW29761   4.038   0.177  13.624  0.4543 -0.0373  0.2232
 6042SOL    HW129762   4.043   0.083  13.643 -0.9198 -0.3649 -1.1209
 6042SOL    HW229763   4.085   0.216  13.698 -0.8182  0.0155  0.9938
 6043SOL     OW29764   2.768   1.979   4.079 -0.0913 -0.5374 -0.0504
 6043SOL    HW129765   2.723   1.939   4.154  1.6208  0.8835  1.7339
 6043SOL    HW229766   2.699   1.981   4.012  0.1118  2.4702 -0.1911
 6044SOL     OW29767   3.073   1.997   1.635  0.1678  0.9750 -0.1785
 6044SOL    HW129768   3.120   1.920   1.604  0.0960  1.5468 -1.6868
 6044SOL    HW229769   3.142   2.034   1.691  2.9431 -1.2413 -2.1300
 6045SOL     OW29770   0.585   1.285   6.270  0.0681 -0.2139 -0.5225
 6045SOL    HW129771   0.571   1.196   6.239  0.7139 -0.3046 -0.5571
 6045SOL    HW229772   0.500   1.315   6.238  0.6588  1.9168 -0.1173
 6046SOL     OW29773   4.221   3.642  15.686 -0.3920 -0.1642 -0.2039
 6046SOL    HW129774   4.145   3.586  15.674 -0.2381 -0.4933  0.3362
 6046SOL    HW229775   4.274   3.615  15.611  0.4352  0.4458  0.1622
 6047SOL     OW29776   2.894   0.591   6.516 -0.0913  0.4827  0.5287
 6047SOL    HW129777   2.853   0.581   6.431  1.8980 -0.0674 -0.3778
 6047SOL    HW229778   2.818   0.627   6.562  0.0638  2.3902 -0.6970
 6048SOL     OW29779   1.886   1.835   5.125  0.2844  0.1821 -0.5928
 6048SOL    HW129780   1.944   1.760   5.134  0.7287  0.4772 -1.0249
 6048SOL    HW229781   1.926   1.895   5.188 -1.5252  1.1384 -0.3278
 6049SOL     OW29782   3.553   0.025   1.909  0.3098  0.1483 -0.3924
 6049SOL    HW129783   3.545   4.669   1.926 -0.2293  0.3454  0.4660
 6049SOL    HW229784   3.548   0.027   1.813  0.5102  4.6017 -0.2955
 6050SOL     OW29785   1.630   3.082  14.825  0.3228 -0.2123 -0.7917
 6050SOL    HW129786   1.632   3.135  14.905  0.7885 -2.1293  0.4875
 6050SOL    HW229787   1.589   2.999  14.851 -1.3174  0.3233 -1.6647
 6051SOL     OW29788   1.120   2.799   6.983  1.1860 -0.1236  0.0873
 6051SOL    HW129789   1.166   2.847   7.051  0.2040  0.5325  0.2831
 6051SOL    HW229790   1.193   2.747   6.949  2.3425  3.0874 -2.3099
 6052SOL     OW29791   1.913   0.584  16.404  0.2470  0.2192  0.3806
 6052SOL    HW129792   1.945   0.581  16.314 -1.5549  1.9618 -0.3217
 6052SOL    HW229793   2.000   0.582  16.444  1.7805  0.7122 -2.8809
 6053SOL     OW29794   3.518   0.231   5.036 -0.2392  0.2346  0.6362
 6053SOL    HW129795   3.556   0.221   4.948  0.8413 -1.7233  1.3153
 6053SOL    HW229796   3.426   0.236   5.012 -0.0277  0.2877 -0.1698
 6054SOL     OW29797   3.685   0.007   6.629 -0.2427 -0.5075 -0.1410
 6054SOL    HW129798   3.704   0.100   6.616  2.2636 -0.7732  1.6588
 6054SOL    HW229799   3.648   4.713   6.546  2.1463  0.7612 -1.7256
 6055SOL     OW29800   3.846   2.816  13.218  0.2076 -0.2207 -0.0763
 6055SOL    HW129801   3.770   2.771  13.257  0.2634  0.6848  1.0773
 6055SOL    HW229802   3.803   2.874  13.156 -0.5491  0.1635  0.7926
 6056SOL     OW29803   0.375   0.143   2.974  0.5458  0.3035  0.0274
 6056SOL    HW129804   0.402   0.056   2.943  1.2604  0.0059  1.5089
 6056SOL    HW229805   0.398   0.126   3.065  0.4697 -0.6970 -0.1460
 6057SOL     OW29806   1.244   4.603   8.593 -0.3539 -0.2029  0.4964
 6057SOL    HW129807   1.274   4.512   8.586 -1.7615 -0.6606  0.2750
 6057SOL    HW229808   1.294   4.618   8.673 -0.1780  1.1709  0.1215
 6058SOL     OW29809   3.846   2.134   9.423 -0.1005 -0.7154 -0.7031
 6058SOL    HW129810   3.879   2.058   9.471 -1.8302 -1.9926 -1.4986
 6058SOL    HW229811   3.796   2.099   9.349 -1.5674  2.2820 -1.1057
 6059SOL     OW29812   1.787   2.839   7.324  0.7929  0.1523 -0.1898
 6059SOL    HW129813   1.813   2.774   7.259 -1.5883 -0.5238 -0.4316
 6059SOL    HW229814   1.870   2.886   7.330 -0.1049  1.6328  0.5184
 6060SOL     OW29815   1.019   1.203   6.772 -0.1244 -0.1334  0.0067
 6060SOL    HW129816   1.004   1.296   6.760 -1.1189 -0.4089 -0.8627
 6060SOL    HW229817   1.113   1.203   6.750  0.4096  1.5608  2.3212
 6061SOL     OW29818   1.499   2.968   8.877  0.3160 -0.2363  0.8479
 6061SOL    HW129819   1.430   2.913   8.839 -1.3253  0.5889  2.6193
 6061SOL    HW229820   1.555   2.991   8.803 -2.4508  2.8540 -0.2692
 6062SOL     OW29821   3.924   0.539   1.401 -0.2707 -0.1495 -0.4301
 6062SOL    HW129822   3.944   0.524   1.309 -0.4602  0.0634 -0.5053
 6062SOL    HW229823   4.004   0.502   1.440  0.2038 -0.6213 -1.8565
 6063SOL     OW29824   4.054   2.236   4.136  0.5564 -0.2295  0.4383
 6063SOL    HW129825   4.108   2.255   4.214  4.4821  1.7699 -2.7525
 6063SOL    HW229826   3.986   2.303   4.145  1.0491  0.4586 -0.9483
 6064SOL     OW29827   2.892   2.748   9.426 -0.5550 -0.4259 -0.5204
 6064SOL    HW129828   2.846   2.778   9.504  0.4010 -2.2049  0.7215
 6064SOL    HW229829   2.982   2.755   9.458 -0.1636 -2.1226 -1.2189
 6065SOL     OW29830   2.491   3.774  15.125 -0.8100 -0.3067  0.3308
 6065SOL    HW129831   2.545   3.849  15.149 -0.6128 -0.2763 -0.2076
 6065SOL    HW229832   2.543   3.746  15.049  0.6221  3.1324  0.0686
 6066SOL     OW29833   1.688   4.174   5.364 -0.3928 -0.2279  0.5981
 6066SOL    HW129834   1.679   4.081   5.341 -0.2433  0.1116 -0.8153
 6066SOL    HW229835   1.778   4.191   5.338 -0.5727  1.5308  1.1220
 6067SOL     OW29836   2.339   1.354   6.256  0.2529  0.2386 -0.0680
 6067SOL    HW129837   2.280   1.328   6.185  2.2692 -0.4704 -1.4682
 6067SOL    HW229838   2.354   1.446   6.236 -1.5835  1.2118  2.9554
 6068SOL     OW29839   0.129   0.622  10.637 -0.1966  0.1345  0.2779
 6068SOL    HW129840   0.188   0.697  10.632 -1.5844  1.0580 -2.4487
 6068SOL    HW229841   0.111   0.605  10.545 -0.6383 -0.0655  0.4007
 6069SOL     OW29842   4.255   3.266   3.510  0.2402 -0.2497 -0.1436
 6069SOL    HW129843   4.289   3.274   3.421  2.7503  1.0606  0.9190
 6069SOL    HW229844   4.286   3.347   3.551 -2.0383  0.2383  0.6243
 6070SOL     OW29845   4.038   0.722   9.394  1.0374 -0.1257  0.4020
 6070SOL    HW129846   3.983   0.644   9.389  0.9867 -0.0222 -0.6799
 6070SOL    HW229847   4.099   0.695   9.462  1.9422  2.2906  0.5274
 6071SOL     OW29848   1.858   2.229  11.671  0.0402 -0.0784  0.1785
 6071SOL    HW129849   1.803   2.286  11.617 -1.2035 -1.9322 -0.4857
 6071SOL    HW229850   1.806   2.222  11.751  0.9804 -1.1532  0.6928
 6072SOL     OW29851   2.578   4.403  16.742 -0.1304  0.1601 -0.2349
 6072SOL    HW129852   2.659   4.384  16.696  0.3181 -0.4387  0.8116
 6072SOL    HW229853   2.609   4.426  16.830  3.1502 -0.5998 -1.1921
 6073SOL     OW29854   2.920   4.017   8.871  0.4791  0.2301  0.0501
 6073SOL    HW129855   2.945   3.968   8.792 -0.4355 -0.8830  0.4425
 6073SOL    HW229856   2.870   4.091   8.838  0.3492  0.6552  1.2064
 6074SOL     OW29857   2.262   3.444   2.013  0.4297 -0.1940 -0.3851
 6074SOL    HW129858   2.348   3.440   1.972 -0.1735  0.5025 -1.7319
 6074SOL    HW229859   2.289   3.400   2.094 -1.3435 -1.9094 -0.7259
 6075SOL     OW29860   3.816   1.170   5.422  0.0636  0.5133 -0.5860
 6075SOL    HW129861   3.819   1.246   5.363 -0.0056  0.0962 -1.1251
 6075SOL    HW229862   3.798   1.100   5.360  2.1088  0.6952 -1.3862
 6076SOL     OW29863   3.982   2.147   5.028 -0.2022  0.0554 -0.4859
 6076SOL    HW129864   4.050   2.083   5.048 -0.5468 -0.1001  0.1831
 6076SOL    HW229865   3.996   2.217   5.092 -1.5954 -2.0242  2.0526
 6077SOL     OW29866   3.148   1.373   1.178 -0.3829 -0.4747 -0.2342
 6077SOL    HW129867   3.218   1.355   1.241 -1.1347  0.1123  0.7464
 6077SOL    HW229868   3.157   1.466   1.158 -1.9700 -0.5051 -1.0326
 6078SOL     OW29869   3.224   3.637   9.977  0.1424  0.2795 -0.8911
 6078SOL    HW129870   3.271   3.653  10.059  0.6817  0.2561 -1.1961
 6078SOL    HW229871   3.139   3.681   9.989 -0.6328 -1.5223  0.1674
 6079SOL     OW29872   4.431   0.402  11.700  0.7737  0.3749  0.4823
 6079SOL    HW129873   4.518   0.439  11.714  0.6814  1.1721 -1.1709
 6079SOL    HW229874   4.398   0.413  11.789  2.5459 -4.0596  1.7001
 6080SOL     OW29875   0.368   0.511   1.675 -0.0840 -0.1847  0.0721
 6080SOL    HW129876   0.293   0.450   1.674 -0.6943  0.5465  1.8006
 6080SOL    HW229877   0.375   0.533   1.582 -2.5650 -2.9365 -0.8063
 6081SOL     OW29878   3.082   2.333   6.609  0.2088 -0.0295 -0.0571
 6081SOL    HW129879   3.129   2.342   6.692  1.3610 -0.6486 -0.6458
 6081SOL    HW229880   3.158   2.321   6.552  0.8436  1.7861  0.3968
 6082SOL     OW29881   0.459   2.498   6.785  0.5915  0.0089  0.7085
 6082SOL    HW129882   0.467   2.479   6.691  0.3750  2.0884  0.2515
 6082SOL    HW229883   0.418   2.585   6.788  2.2568  0.8766 -1.7343
 6083SOL     OW29884   4.581   3.960   2.248  0.4935  0.7365  0.2411
 6083SOL    HW129885   4.635   3.953   2.169  1.8258 -4.3815  1.6098
 6083SOL    HW229886   4.493   3.962   2.211 -0.0890  0.2936  1.5937
 6084SOL     OW29887   3.080   3.570   5.105 -0.0464 -0.0561 -0.3854
 6084SOL    HW129888   3.084   3.659   5.140  2.3454 -0.7075  0.9604
 6084SOL    HW229889   3.061   3.592   5.014  1.3035 -0.1418 -0.6803
 6085SOL     OW29890   2.219   0.858   8.777 -0.2444  0.4944 -0.0316
 6085SOL    HW129891   2.217   0.763   8.769 -0.5615  0.3358  1.9748
 6085SOL    HW229892   2.135   0.878   8.818 -0.2003  1.4735 -0.4099
 6086SOL     OW29893   2.594   1.748   7.876  0.4932 -0.3892 -0.1862
 6086SOL    HW129894   2.687   1.768   7.889  0.6766 -0.4361 -1.4752
 6086SOL    HW229895   2.571   1.761   7.968 -0.4369  0.4467 -0.5314
 6087SOL     OW29896   2.279   2.850   7.386 -0.1707 -0.3053 -0.2185
 6087SOL    HW129897   2.247   2.928   7.340  1.2464  1.0807  1.1517
 6087SOL    HW229898   2.371   2.860   7.361 -0.2395  1.5432  0.2501
 6088SOL     OW29899   0.552   0.681   9.697 -0.4621 -0.6340  0.2201
 6088SOL    HW129900   0.577   0.752   9.757  0.0014 -0.6531  0.0492
 6088SOL    HW229901   0.588   0.609   9.748  0.3973  0.3634  1.0294
 6089SOL     OW29902   2.700   3.449  13.898 -0.1330 -0.3561 -0.3498
 6089SOL    HW129903   2.630   3.400  13.855 -0.3770 -2.3207  2.2931
 6089SOL    HW229904   2.715   3.392  13.973  1.4427 -1.4922 -1.5182
 6090SOL     OW29905   2.930   2.733   1.887  0.2367 -0.2659  0.6531
 6090SOL    HW129906   2.981   2.772   1.958 -0.8598  1.7440  0.3385
 6090SOL    HW229907   2.845   2.720   1.929 -0.0197  3.7717  1.3754
 6091SOL     OW29908   1.689   1.657   6.396  0.0518 -0.3644  0.2428
 6091SOL    HW129909   1.737   1.576   6.411  0.3739 -0.5313 -1.7847
 6091SOL    HW229910   1.712   1.703   6.478  0.2670 -0.0270 -0.0044
 6092SOL     OW29911   1.470   2.848   7.261  0.3192 -0.4811  0.0320
 6092SOL    HW129912   1.511   2.812   7.182  0.9235  0.2058  0.0363
 6092SOL    HW229913   1.538   2.912   7.279  1.9022 -1.9326 -0.7669
 6093SOL     OW29914   1.566   2.489   7.476 -0.0602  0.7780 -0.6503
 6093SOL    HW129915   1.647   2.507   7.523 -0.6532  1.1463  0.2235
 6093SOL    HW229916   1.591   2.460   7.388  0.1837 -0.6246 -0.1178
 6094SOL     OW29917   4.445   1.400   8.115  0.2113  0.0162  0.6343
 6094SOL    HW129918   4.523   1.456   8.109  1.1916 -1.2393  1.4870
 6094SOL    HW229919   4.496   1.324   8.144  1.0187  0.3946  0.2253
 6095SOL     OW29920   4.330   0.714   9.246  0.4047 -0.3919 -0.0848
 6095SOL    HW129921   4.256   0.748   9.296  0.4282  1.8356 -1.5638
 6095SOL    HW229922   4.314   0.620   9.254 -2.2627  0.1639  1.1639
 6096SOL     OW29923   0.389   1.956  15.298  0.0258 -0.2375 -0.0523
 6096SOL    HW129924   0.429   2.000  15.223  0.2921  2.3986  1.6276
 6096SOL    HW229925   0.466   1.924  15.346 -0.4905 -1.7172 -0.2362
 6097SOL     OW29926   2.218   0.869   7.166 -0.0068 -0.7505 -0.0991
 6097SOL    HW129927   2.212   0.927   7.242  0.3577 -1.7394  0.6850
 6097SOL    HW229928   2.126   0.867   7.142 -0.0928  2.3482  0.0546
 6098SOL     OW29929   0.963   4.685   2.320 -0.3849 -0.6817 -0.2058
 6098SOL    HW129930   0.987   0.034   2.356  0.0894 -1.5601  1.5623
 6098SOL    HW229931   0.881   4.704   2.276 -0.8098 -3.3929 -0.5184
 6099SOL     OW29932   2.830   3.518  11.064 -0.1481 -0.3292 -0.9188
 6099SOL    HW129933   2.739   3.492  11.077  0.2408 -1.7064 -0.9768
 6099SOL    HW229934   2.855   3.461  10.992 -2.6039 -1.0177 -1.2307
 6100SOL     OW29935   3.767   3.496  10.658  0.3154 -0.0108 -0.0479
 6100SOL    HW129936   3.701   3.541  10.605 -2.2399 -1.9366  1.5322
 6100SOL    HW229937   3.846   3.550  10.651 -0.5342  1.2776  0.1813
 6101SOL     OW29938   2.644   0.502   5.299 -0.3670 -0.4521  0.0187
 6101SOL    HW129939   2.660   0.428   5.357 -2.4069 -0.7606  0.1713
 6101SOL    HW229940   2.722   0.555   5.313 -1.0443  0.3535  0.7376
 6102SOL     OW29941   1.010   0.875   1.407  0.0143  0.1155 -0.8436
 6102SOL    HW129942   0.946   0.822   1.360 -2.9548  0.3241  2.9667
 6102SOL    HW229943   0.974   0.875   1.496 -0.0498 -0.1721 -0.8695
 6103SOL     OW29944   4.529   1.485   7.458 -0.2989  0.5686 -0.6215
 6103SOL    HW129945   4.530   1.538   7.538 -0.2061  1.5283 -1.2611
 6103SOL    HW229946   4.623   1.480   7.443 -0.5734 -1.8433 -1.5404
 6104SOL     OW29947   4.550   2.558  13.279  0.0261 -0.0765 -0.2471
 6104SOL    HW129948   4.577   2.629  13.338 -0.0081  1.1920 -1.7627
 6104SOL    HW229949   4.582   2.475  13.315 -0.1073 -0.3051 -0.6651
 6105SOL     OW29950   1.484   3.341  13.799  0.0941 -0.3138 -0.0862
 6105SOL    HW129951   1.406   3.375  13.753  1.4556 -1.7452 -3.4553
 6105SOL    HW229952   1.510   3.261  13.754 -0.8037  0.5997 -2.2521
 6106SOL     OW29953   2.677   0.613  10.149 -0.0544 -0.0280  0.1271
 6106SOL    HW129954   2.594   0.631  10.194 -0.3906  2.3101 -1.4698
 6106SOL    HW229955   2.716   0.700  10.157  1.0487 -0.5694  0.5462
 6107SOL     OW29956   3.440   1.759   5.263  0.0401  0.4029  0.3332
 6107SOL    HW129957   3.428   1.844   5.306 -1.2838 -0.7923  2.3308
 6107SOL    HW229958   3.506   1.774   5.195  0.1914 -1.2809  0.1085
 6108SOL     OW29959   1.615   0.204  15.399 -0.1714 -0.1017  0.5940
 6108SOL    HW129960   1.658   0.273  15.449  2.3531 -0.0377 -1.6461
 6108SOL    HW229961   1.676   0.203  15.325 -1.9486 -0.9171 -0.8781
 6109SOL     OW29962   2.335   1.195   2.536  0.5419 -0.9555  0.0162
 6109SOL    HW129963   2.320   1.172   2.444  0.4320  0.8308 -0.4081
 6109SOL    HW229964   2.330   1.112   2.584 -1.2171 -1.5013 -1.1347
 6110SOL     OW29965   3.141   3.179   2.841  0.3999  0.7347  0.0803
 6110SOL    HW129966   3.065   3.153   2.790 -0.0920  0.3820  0.9986
 6110SOL    HW229967   3.212   3.160   2.780  0.3347 -0.0603  0.2547
 6111SOL     OW29968   0.441   4.462   1.359 -0.2071 -0.1438 -0.2159
 6111SOL    HW129969   0.426   4.379   1.405 -3.3790  0.4705 -0.1658
 6111SOL    HW229970   0.487   4.429   1.282  1.0534  0.1685  0.3951
 6112SOL     OW29971   4.017   2.262   4.774  0.3629 -0.5321  0.2306
 6112SOL    HW129972   3.993   2.227   4.861  0.2844 -3.3651 -0.9244
 6112SOL    HW229973   4.019   2.181   4.724 -1.5866 -0.8841  0.6920
 6113SOL     OW29974   2.865   4.261   6.807  0.5924 -0.4168  0.1021
 6113SOL    HW129975   2.900   4.174   6.787  0.1980 -0.4144 -0.5924
 6113SOL    HW229976   2.892   4.308   6.728 -0.4838 -1.3298 -0.7993
 6114SOL     OW29977   2.946   2.275   4.255  0.3924  0.1362  0.0799
 6114SOL    HW129978   2.896   2.273   4.336  0.7612 -0.1626  0.2996
 6114SOL    HW229979   3.003   2.351   4.271  1.5734 -1.0650  1.5746
 6115SOL     OW29980   4.146   4.702   6.086  1.0592  0.3296  0.7793
 6115SOL    HW129981   4.110   4.643   6.153  0.4262 -1.9792 -1.6072
 6115SOL    HW229982   4.240   4.692   6.103  1.1275  0.7158  0.6114
 6116SOL     OW29983   4.473   4.285   6.062  0.2194  0.1205 -0.0820
 6116SOL    HW129984   4.547   4.266   6.004  3.0592  1.9277  2.8892
 6116SOL    HW229985   4.410   4.295   5.991  0.7774  0.7933 -0.4894
 6117SOL     OW29986   2.383   4.584   7.229 -0.1196  0.2066 -0.5503
 6117SOL    HW129987   2.400   4.513   7.167  0.2191 -0.1677 -0.0344
 6117SOL    HW229988   2.473   4.604   7.253 -0.1626 -0.5017  0.1774
 6118SOL     OW29989   1.076   0.506  11.092 -0.7846  0.4197 -0.4522
 6118SOL    HW129990   1.101   0.446  11.022  1.9846  0.4611  0.5092
 6118SOL    HW229991   1.157   0.556  11.088 -0.6457  0.2982  0.7579
 6119SOL     OW29992   2.722   3.606  10.516  0.2645  0.5188 -0.2243
 6119SOL    HW129993   2.662   3.680  10.512 -0.3564  0.1017  1.0879
 6119SOL    HW229994   2.788   3.624  10.583 -1.4201 -2.3653  2.2589
 6120SOL     OW29995   2.423   1.406   7.028  0.0251 -0.4237  0.3113
 6120SOL    HW129996   2.368   1.328   7.034 -0.2689 -0.1521  1.1112
 6120SOL    HW229997   2.396   1.439   6.943 -0.3713  1.4271  1.1656
 6121SOL     OW29998   3.360   2.770  17.038  1.0070  0.0328  0.2594
 6121SOL    HW129999   3.264   2.765  17.040  0.7963  3.5389  0.4235
 6121SOL    HW230000   3.383   2.805  17.124  1.1496 -0.3880  0.3879
 6122SOL     OW30001   3.133   3.561  16.877 -0.2916  0.7205  0.0530
 6122SOL    HW130002   3.112   3.577  16.970  0.5848 -1.1936  0.5745
 6122SOL    HW230003   3.080   3.629  16.835  0.9410 -0.4979 -3.3694
 6123SOL     OW30004   1.876   2.987   9.067 -0.1011  0.4732  0.0512
 6123SOL    HW130005   1.931   2.987   9.145 -0.1570  1.2764  0.0906
 6123SOL    HW230006   1.888   3.074   9.030 -0.8795  0.5505 -0.0151
 6124SOL     OW30007   2.845   3.604   3.516 -0.3923  0.0617  0.3265
 6124SOL    HW130008   2.762   3.594   3.469  0.7394 -1.9078 -1.2654
 6124SOL    HW230009   2.817   3.576   3.603  1.2733  1.9343  1.4771
 6125SOL     OW30010   0.871   0.442  15.485  0.2571 -0.1224  0.3577
 6125SOL    HW130011   0.799   0.463  15.544 -1.4820 -1.7835 -1.1706
 6125SOL    HW230012   0.879   0.347  15.483  0.2710 -0.0696 -2.3153
 6126SOL     OW30013   1.139   0.968   3.244  0.7815  0.1253  0.1731
 6126SOL    HW130014   1.054   1.011   3.236 -0.5911 -2.7668 -1.0570
 6126SOL    HW230015   1.122   0.910   3.169 -2.9310  0.2055  0.9329
 6127SOL     OW30016   3.841   0.226   2.917  0.4469 -0.0333 -0.1680
 6127SOL    HW130017   3.882   0.142   2.894  1.5321  0.2773  0.6144
 6127SOL    HW230018   3.774   0.218   2.849  0.8242 -0.0097 -0.5463
 6128SOL     OW30019   0.609   0.993   1.958  0.0811 -0.2034 -0.0268
 6128SOL    HW130020   0.568   0.917   1.917 -2.0383 -0.4326  2.5039
 6128SOL    HW230021   0.538   1.032   2.009  0.8855 -0.1952  1.1002
 6129SOL     OW30022   2.903   1.769  15.208  0.4746 -0.2935  0.1757
 6129SOL    HW130023   2.862   1.806  15.287 -0.8728 -0.9500 -0.2221
 6129SOL    HW230024   2.939   1.846  15.165 -2.1919  0.4889 -0.6646
 6130SOL     OW30025   3.114   4.488   8.515  0.3748 -0.6610  0.4130
 6130SOL    HW130026   3.064   4.494   8.433 -0.4222  0.5372  0.9861
 6130SOL    HW230027   3.089   4.572   8.553  0.9623  0.2449 -1.1733
 6131SOL     OW30028   0.830   4.354  16.552 -0.0417  0.0592 -0.4829
 6131SOL    HW130029   0.840   4.287  16.486  0.0243  1.6201 -2.0549
 6131SOL    HW230030   0.765   4.323  16.616  1.0963 -2.7726 -0.7095
 6132SOL     OW30031   1.085   4.246   9.898  0.3286  0.2107 -0.1646
 6132SOL    HW130032   1.129   4.287   9.824 -0.8366 -0.7017 -1.3739
 6132SOL    HW230033   1.085   4.154   9.872  2.4540  1.7561 -5.6512
 6133SOL     OW30034   1.222   4.134  11.418  0.3361 -0.4857 -0.5918
 6133SOL    HW130035   1.159   4.147  11.489 -0.1761 -2.3100 -0.7098
 6133SOL    HW230036   1.279   4.075  11.467 -1.0311 -1.1584  0.1903
 6134SOL     OW30037   2.473   4.310   2.438  0.1693 -0.3727  0.0860
 6134SOL    HW130038   2.421   4.231   2.456 -1.6689  0.6709 -0.6717
 6134SOL    HW230039   2.466   4.363   2.517  0.2829  0.6619 -0.6075
 6135SOL     OW30040   4.211   3.338   7.290 -0.0712  0.5883  0.6544
 6135SOL    HW130041   4.196   3.433   7.288  0.3244  0.5754 -2.0634
 6135SOL    HW230042   4.126   3.300   7.312 -0.4658  1.6865  1.0607
 6136SOL     OW30043   2.255   4.190   3.080 -0.4873  0.2854  0.8520
 6136SOL    HW130044   2.208   4.251   3.023 -0.5261 -0.2676  0.2928
 6136SOL    HW230045   2.184   4.131   3.106 -0.0858 -1.1459 -1.2680
 6137SOL     OW30046   1.166   1.947   8.681  0.3922  0.3406 -0.0100
 6137SOL    HW130047   1.181   1.989   8.597 -0.8333  0.1621 -0.3133
 6137SOL    HW230048   1.245   1.979   8.725 -0.7421  0.3484  2.0073
 6138SOL     OW30049   1.068   3.806  10.143  0.0068  0.4986  0.1648
 6138SOL    HW130050   1.019   3.830  10.065 -0.6739 -0.8052  0.1863
 6138SOL    HW230051   1.153   3.779  10.110 -0.2589  0.9694 -0.9110
 6139SOL     OW30052   0.367   1.243   2.615  0.4525 -0.2681  0.0368
 6139SOL    HW130053   0.455   1.276   2.633  0.1650  2.0616 -2.8580
 6139SOL    HW230054   0.327   1.248   2.702 -1.0632  0.9517 -0.7368
 6140SOL     OW30055   4.536   4.000   9.120 -0.3027 -0.4348  0.2365
 6140SOL    HW130056   4.557   4.070   9.059 -1.5002 -1.9346 -1.8725
 6140SOL    HW230057   4.495   4.050   9.191 -2.6526  0.6957 -1.9393
 6141SOL     OW30058   2.204   4.660   7.447  0.9025 -0.9114  0.4320
 6141SOL    HW130059   2.254   4.633   7.369 -0.4522 -0.5715 -0.5420
 6141SOL    HW230060   2.183   0.012   7.421 -0.0783 -1.9574 -2.4718
 6142SOL     OW30061   4.615   4.263   1.790 -0.3689 -0.0465  0.9017
 6142SOL    HW130062   4.695   4.213   1.810  0.3159  0.0225 -1.6654
 6142SOL    HW230063   4.555   4.190   1.773 -0.3275  0.0346  0.3904
 6143SOL     OW30064   2.926   3.420   1.219  0.2636 -0.1449 -0.2178
 6143SOL    HW130065   2.914   3.361   1.293  1.1501 -0.6016 -0.4369
 6143SOL    HW230066   2.980   3.373   1.156  2.2494  0.3353  1.1509
 6144SOL     OW30067   4.292   2.965   3.834  0.0672 -0.3511 -0.4836
 6144SOL    HW130068   4.358   2.927   3.776 -1.8672 -0.2395 -2.7624
 6144SOL    HW230069   4.343   3.019   3.895 -0.1483  0.2511 -0.8395
 6145SOL     OW30070   1.295   0.559   8.528  0.0869  0.7063 -0.6506
 6145SOL    HW130071   1.380   0.535   8.490 -0.5274 -1.5102 -0.6591
 6145SOL    HW230072   1.257   0.614   8.460  1.1571  0.9395 -1.0609
 6146SOL     OW30073   3.350   3.032  12.789  0.3453 -0.1106  0.3920
 6146SOL    HW130074   3.259   3.062  12.800  0.1748  0.1307 -1.5139
 6146SOL    HW230075   3.398   3.075  12.859 -0.6911 -0.4230  1.2992
 6147SOL     OW30076   2.644   1.473   6.814  0.2529  0.3455  0.1199
 6147SOL    HW130077   2.557   1.505   6.836  0.2036  0.2912  0.0017
 6147SOL    HW230078   2.624   1.444   6.725 -3.8732  0.7017  0.9186
 6148SOL     OW30079   2.990   2.219   9.296  0.3072  0.8672 -0.1255
 6148SOL    HW130080   3.083   2.198   9.297 -0.0219 -0.6539 -0.9185
 6148SOL    HW230081   2.986   2.278   9.221  0.1637 -0.8017 -1.4264
 6149SOL     OW30082   2.512   0.302   4.721 -0.2825  0.4577 -0.3076
 6149SOL    HW130083   2.424   0.301   4.759 -0.2389  1.8126 -0.1591
 6149SOL    HW230084   2.526   0.211   4.696 -0.1013  0.9270 -1.8909
 6150SOL     OW30085   4.148   0.052   6.478 -0.3450 -0.1426 -0.1021
 6150SOL    HW130086   4.210   0.109   6.433 -0.1183 -1.7929 -1.9101
 6150SOL    HW230087   4.204   0.022   6.550 -2.2314  4.3716  3.2507
 6151SOL     OW30088   2.295   0.947  14.907 -0.1107  0.1472  0.6183
 6151SOL    HW130089   2.279   0.853  14.914 -0.0072  0.0223 -0.8518
 6151SOL    HW230090   2.352   0.950  14.984 -0.4196  0.0012  0.8538
 6152SOL     OW30091   1.825   3.708   2.831  0.3017 -0.1735  0.1019
 6152SOL    HW130092   1.824   3.627   2.781 -3.1815  0.1462 -0.3904
 6152SOL    HW230093   1.771   3.678   2.905  1.6356  1.2707  1.6841
 6153SOL     OW30094   0.419   3.793  15.079 -0.3257  0.0732 -0.3255
 6153SOL    HW130095   0.483   3.731  15.043  0.3721 -0.2868  1.5623
 6153SOL    HW230096   0.404   3.749  15.163 -0.1647  0.9213  0.1426
 6154SOL     OW30097   4.587   0.855   4.403  0.5712 -0.8621 -0.3295
 6154SOL    HW130098   4.676   0.881   4.378 -0.3942  0.8017 -2.0173
 6154SOL    HW230099   4.591   0.762   4.382  2.3680 -0.5281 -1.5085
 6155SOL     OW30100   0.858   3.583  17.319 -0.5762 -0.4634 -0.8966
 6155SOL    HW130101   0.829   3.522  17.251 -1.4384  0.3154 -1.2282
 6155SOL    HW230102   0.824   3.666  17.287 -0.3828  0.5263  1.4370
 6156SOL     OW30103   0.609   3.571   7.873  1.1961  0.2658  0.3287
 6156SOL    HW130104   0.594   3.508   7.803  1.1982  1.4280 -0.7076
 6156SOL    HW230105   0.700   3.592   7.852  1.1687 -0.2114 -0.2764
 6157SOL     OW30106   2.798   0.939   5.767  0.0631  0.0450 -0.1251
 6157SOL    HW130107   2.826   0.887   5.692  0.5297  0.7156 -0.4171
 6157SOL    HW230108   2.884   0.965   5.801 -0.4265 -2.9145  3.4375
 6158SOL     OW30109   2.265   2.469   4.750 -0.3871 -0.3629 -0.5849
 6158SOL    HW130110   2.264   2.520   4.831  1.6326 -0.2996 -0.6109
 6158SOL    HW230111   2.188   2.411   4.753 -0.9288  0.4495  1.5136
 6159SOL     OW30112   0.502   0.793   5.840  0.0901  0.5343  0.7496
 6159SOL    HW130113   0.453   0.837   5.910 -4.5684 -2.6688 -0.4800
 6159SOL    HW230114   0.555   0.860   5.797  1.5224 -0.9414  0.2261
 6160SOL     OW30115   0.213   1.977  11.265 -0.3431  0.5889  0.0593
 6160SOL    HW130116   0.151   2.014  11.202 -2.9550 -2.0743  1.0629
 6160SOL    HW230117   0.266   1.926  11.205  0.3038  0.7158  0.5178
 6161SOL     OW30118   3.489   1.048  17.711 -0.4115 -0.0025  0.2325
 6161SOL    HW130119   3.420   1.042   0.028 -1.2867 -1.1754 -0.7960
 6161SOL    HW230120   3.563   1.008   0.008 -1.3408 -0.8175  1.0257
 6162SOL     OW30121   0.170   0.314   8.953 -0.3954 -0.2987  0.4475
 6162SOL    HW130122   0.197   0.281   8.867 -0.8812 -0.0754  0.2088
 6162SOL    HW230123   0.151   0.236   9.005  0.6734 -1.7113 -1.2476
 6163SOL     OW30124   0.868   4.478   7.835  0.1182  0.1085  0.8421
 6163SOL    HW130125   0.881   4.452   7.926 -0.4576 -1.2872  0.5282
 6163SOL    HW230126   0.854   4.392   7.796 -1.8394  0.9664 -0.3608
 6164SOL     OW30127   1.118   4.320   1.956 -0.7277 -0.1989  0.5542
 6164SOL    HW130128   1.178   4.311   1.882 -1.9200  0.2002 -0.4761
 6164SOL    HW230129   1.128   4.231   1.990 -0.2415  1.0433  3.6084
 6165SOL     OW30130   1.227   3.994   6.717  0.0731  0.3605  0.4511
 6165SOL    HW130131   1.257   3.971   6.805  1.1523 -1.4181 -0.3797
 6165SOL    HW230132   1.168   4.063   6.748 -0.6149  0.4957 -1.1444
 6166SOL     OW30133   3.957   1.128  13.483 -0.1863  0.5397  0.0268
 6166SOL    HW130134   3.937   1.153  13.573 -0.0516  1.9558 -0.3342
 6166SOL    HW230135   3.878   1.163  13.441 -0.4659 -1.8158 -1.4169
 6167SOL     OW30136   3.390   4.238   9.478  0.2745 -0.2804  0.2758
 6167SOL    HW130137   3.441   4.164   9.510  3.8238  0.9657 -2.4328
 6167SOL    HW230138   3.365   4.281   9.559 -0.5226  2.3107 -1.3306
 6168SOL     OW30139   2.943   1.241   3.867 -0.3812 -0.1671 -0.0124
 6168SOL    HW130140   3.018   1.298   3.852 -0.5989 -0.0169 -0.5374
 6168SOL    HW230141   2.984   1.156   3.854  1.3816  0.7441 -0.4353
 6169SOL     OW30142   0.378   4.188   9.214 -0.2091 -0.1417  0.0741
 6169SOL    HW130143   0.356   4.179   9.306  2.2113  1.0104  0.7579
 6169SOL    HW230144   0.382   4.097   9.186  1.4624 -0.1330  0.3298
 6170SOL     OW30145   2.066   0.694   4.989 -0.4860 -0.4979 -0.1121
 6170SOL    HW130146   2.129   0.764   4.973 -1.8863  0.2364 -2.4093
 6170SOL    HW230147   2.116   0.645   5.055 -1.7793 -0.0985  1.1680
 6171SOL     OW30148   2.215   2.928  10.024  0.0079 -0.4891  0.0635
 6171SOL    HW130149   2.121   2.925  10.041 -0.5487 -2.0492 -3.1116
 6171SOL    HW230150   2.220   2.982   9.945  2.2037  0.7228  1.0611
 6172SOL     OW30151   4.424   1.859  12.141  0.0141 -0.0655  0.2208
 6172SOL    HW130152   4.340   1.846  12.095 -0.3691  2.7015  0.1317
 6172SOL    HW230153   4.406   1.830  12.230  0.6354 -0.4568  0.2157
 6173SOL     OW30154   0.850   2.980   4.514 -0.1477 -0.0152  0.0716
 6173SOL    HW130155   0.860   2.988   4.419  2.4700  2.9234  0.6035
 6173SOL    HW230156   0.864   3.073   4.530  0.0080 -0.2391  1.2203
 6174SOL     OW30157   4.668   3.749  12.992 -0.0053  0.2296 -0.3374
 6174SOL    HW130158   0.013   3.788  13.023  0.2668 -2.1204  1.9126
 6174SOL    HW230159   4.610   3.818  13.025 -1.4348 -0.8238 -0.6810
 6175SOL     OW30160   0.706   0.196  12.144  0.3812 -0.1849 -0.2357
 6175SOL    HW130161   0.707   0.136  12.069 -2.7866 -0.4098 -0.0741
 6175SOL    HW230162   0.731   0.271  12.091 -2.6128 -0.3690 -1.8970
 6176SOL     OW30163   2.523   2.344   8.568  0.1168  0.3808  0.3690
 6176SOL    HW130164   2.593   2.316   8.627 -0.9740  0.3011  1.6095
 6176SOL    HW230165   2.528   2.437   8.592 -1.8701  0.2299  1.2959
 6177SOL     OW30166   1.758   2.606  10.921  0.4157  0.2720  0.2425
 6177SOL    HW130167   1.706   2.532  10.890  1.1967 -0.3238  0.3653
 6177SOL    HW230168   1.775   2.593  11.014 -1.1281  0.6931  0.5797
 6178SOL     OW30169   1.325   3.786  10.023 -0.4070  0.2844 -0.9973
 6178SOL    HW130170   1.332   3.881  10.013  0.0004  0.7383  3.8612
 6178SOL    HW230171   1.301   3.764   9.933 -0.0093  0.2651 -1.1003
 6179SOL     OW30172   2.530   2.896   6.379 -0.1643  0.4066 -0.3359
 6179SOL    HW130173   2.551   2.962   6.312 -4.1115 -0.6246 -2.6007
 6179SOL    HW230174   2.476   2.838   6.326 -1.1756  0.2326  0.8916
 6180SOL     OW30175   0.204   2.166   3.009 -0.3044  0.2658 -0.1701
 6180SOL    HW130176   0.264   2.093   2.995  0.9716  1.1764  0.6101
 6180SOL    HW230177   0.169   2.188   2.922  0.1895 -3.3927 -1.2991
 6181SOL     OW30178   4.404   2.067   6.910  0.0315 -0.0811 -0.4184
 6181SOL    HW130179   4.488   2.022   6.924 -0.0928 -0.7802 -1.9548
 6181SOL    HW230180   4.347   2.036   6.981 -0.1823 -2.5192 -1.6596
 6182SOL     OW30181   3.546   1.632   7.800 -0.2991  0.1102  0.9229
 6182SOL    HW130182   3.489   1.587   7.863 -0.4665  0.1794  0.8198
 6182SOL    HW230183   3.524   1.578   7.724 -0.2256  1.2050  0.1220
 6183SOL     OW30184   3.420   3.750   1.549 -0.3905  0.3547  0.1844
 6183SOL    HW130185   3.327   3.766   1.539 -0.5922 -1.9527 -1.7311
 6183SOL    HW230186   3.410   3.654   1.551  1.1905  0.1185 -2.2542
 6184SOL     OW30187   3.820   1.891   5.696 -0.1609 -0.0143  0.2757
 6184SOL    HW130188   3.728   1.887   5.722  0.4785  0.6904  2.6303
 6184SOL    HW230189   3.805   1.909   5.603  2.2506 -2.2859 -0.5708
 6185SOL     OW30190   2.340   2.561   0.830  0.0302 -0.4152 -0.0187
 6185SOL    HW130191   2.391   2.571   0.910  0.5973  0.3643 -0.4685
 6185SOL    HW230192   2.345   2.648   0.789 -0.6727 -0.7823 -0.8908
 6186SOL     OW30193   1.430   1.641   6.307  0.9285  0.2920 -0.5593
 6186SOL    HW130194   1.454   1.577   6.241 -0.6191  1.0058 -1.8085
 6186SOL    HW230195   1.510   1.635   6.359 -0.9429  0.9766  2.4132
 6187SOL     OW30196   1.513   1.196   5.615 -0.1836  0.4565 -0.2501
 6187SOL    HW130197   1.451   1.123   5.613  0.0466  0.2532 -0.0146
 6187SOL    HW230198   1.500   1.225   5.705  0.0291 -1.6329  0.4506
 6188SOL     OW30199   0.950   3.263   3.258  0.2828 -0.2299 -0.2872
 6188SOL    HW130200   1.006   3.259   3.335 -0.1945 -2.7974 -0.0536
 6188SOL    HW230201   0.922   3.171   3.249 -1.2410 -0.2641  4.9337
 6189SOL     OW30202   3.549   0.380   5.259  0.6214 -0.8371  0.1979
 6189SOL    HW130203   3.595   0.315   5.313  0.5519 -0.4100  0.7684
 6189SOL    HW230204   3.547   0.339   5.173  2.7563 -1.6098  0.5191
 6190SOL     OW30205   4.423   0.384   9.463 -0.1665 -0.1991  0.3584
 6190SOL    HW130206   4.363   0.428   9.403 -0.4072 -1.5992 -0.4232
 6190SOL    HW230207   4.388   0.295   9.466  0.3691 -0.4359 -0.2942
 6191SOL     OW30208   4.166   0.680   5.026 -0.1353 -0.1635  0.5123
 6191SOL    HW130209   4.079   0.661   4.990  0.2689  1.8763 -1.5246
 6191SOL    HW230210   4.177   0.755   4.968 -0.6692 -0.8398 -0.4749
 6192SOL     OW30211   4.370   2.242   5.269  0.5268 -0.4451 -0.5237
 6192SOL    HW130212   4.434   2.308   5.241  1.0964 -1.1447 -0.8764
 6192SOL    HW230213   4.425   2.178   5.314 -0.8835  0.3368  2.3339
 6193SOL     OW30214   0.034   4.613   2.381  0.7855  0.5032 -0.0869
 6193SOL    HW130215   4.727   4.590   2.463  0.1841  0.1351 -0.5087
 6193SOL    HW230216   4.717   4.561   2.320  1.0244 -0.1423  0.2498
 6194SOL     OW30217   3.733   1.649   4.831  0.0879  0.0916 -0.1568
 6194SOL    HW130218   3.740   1.607   4.917  1.1314  0.4086 -0.0814
 6194SOL    HW230219   3.658   1.706   4.845 -0.1142  0.2677 -2.0491
 6195SOL     OW30220   3.687   4.691   3.773 -0.4403 -0.1334 -0.0957
 6195SOL    HW130221   3.770   0.002   3.774 -0.9997  0.8202 -0.2900
 6195SOL    HW230222   3.699   4.652   3.686 -1.0453  0.3240 -0.3743
 6196SOL     OW30223   2.946   1.756  11.474 -0.4171 -0.7025 -0.6637
 6196SOL    HW130224   2.983   1.763  11.386 -1.2703 -0.9371 -1.0447
 6196SOL    HW230225   2.863   1.707  11.466 -1.4471  0.7796  1.0761
 6197SOL     OW30226   1.737   2.308   3.497  0.0743 -0.4149 -0.4752
 6197SOL    HW130227   1.779   2.393   3.484  0.3258 -1.0139 -3.4103
 6197SOL    HW230228   1.774   2.289   3.584 -1.3540 -1.2119 -0.0539
 6198SOL     OW30229   1.344   1.609   8.613 -0.0852  0.5748  0.2930
 6198SOL    HW130230   1.376   1.699   8.626  0.3421  0.8825 -2.7792
 6198SOL    HW230231   1.370   1.557   8.689 -1.2149  0.9457  0.9287
 6199SOL     OW30232   2.555   0.053  10.724  0.2041  0.4385  0.5048
 6199SOL    HW130233   2.616   0.103  10.779  0.4454  1.6672 -0.8847
 6199SOL    HW230234   2.477   0.085  10.770 -0.5286  0.0411 -0.4665
 6200SOL     OW30235   3.367   3.981  15.108  0.2733  0.1685 -0.1507
 6200SOL    HW130236   3.354   4.053  15.169 -0.5884 -0.3175  0.2301
 6200SOL    HW230237   3.284   3.970  15.061 -1.1843  3.3721  1.7559
 6201SOL     OW30238   3.141   0.951   1.252 -0.3420 -0.1047 -0.3056
 6201SOL    HW130239   3.156   0.895   1.177 -0.2777 -1.9807  1.1036
 6201SOL    HW230240   3.125   1.039   1.217 -0.5560 -0.7386 -1.7560
 6202SOL     OW30241   0.573   4.104   3.142 -0.1505 -0.1115 -0.1739
 6202SOL    HW130242   0.521   4.130   3.065  0.0782 -0.7223 -0.5361
 6202SOL    HW230243   0.618   4.032   3.099 -0.7471 -0.9136  0.5412
 6203SOL     OW30244   0.503   2.584   2.608  0.2235  0.5433 -0.0475
 6203SOL    HW130245   0.465   2.571   2.695 -2.5034  0.1915 -1.2929
 6203SOL    HW230246   0.421   2.572   2.561 -0.0809 -0.7455  0.8255
 6204SOL     OW30247   2.009   0.117  16.672  0.2907 -0.1770 -0.1435
 6204SOL    HW130248   2.021   0.196  16.725  1.2990 -0.0337 -0.5821
 6204SOL    HW230249   1.954   0.062  16.727  1.4050 -1.6751 -0.5117
 6205SOL     OW30250   0.739   0.533   2.395 -0.4766 -0.5011  0.4752
 6205SOL    HW130251   0.736   0.483   2.477 -1.4923 -0.9373  0.1689
 6205SOL    HW230252   0.647   0.550   2.375 -0.7268 -1.2101  1.0234
 6206SOL     OW30253   3.246   1.394   4.902 -0.0075  0.7270  0.2995
 6206SOL    HW130254   3.229   1.299   4.903 -1.7459  1.0467  1.1699
 6206SOL    HW230255   3.158   1.426   4.920 -0.5821 -1.4634  1.4779
 6207SOL     OW30256   4.604   1.995  16.871  0.0861 -0.1471 -0.2531
 6207SOL    HW130257   4.631   1.951  16.951 -1.2041  1.1749  0.9199
 6207SOL    HW230258   4.635   1.928  16.811 -0.8084  0.0722 -0.9678
 6208SOL     OW30259   4.241   2.043  16.078 -0.4795  0.0341 -0.2869
 6208SOL    HW130260   4.228   2.032  16.172 -1.2042  0.1750 -0.3727
 6208SOL    HW230261   4.336   2.050  16.067 -0.4813 -0.8980 -0.8542
 6209SOL     OW30262   1.242   1.194   2.673 -0.1012 -0.3211  0.5211
 6209SOL    HW130263   1.336   1.195   2.658 -0.3188 -2.0500 -0.9011
 6209SOL    HW230264   1.216   1.117   2.623  0.8163 -1.4722  1.8087
 6210SOL     OW30265   0.664   1.050  14.585 -0.2252  0.0771 -0.0591
 6210SOL    HW130266   0.709   1.054  14.501 -0.7301 -1.7125 -0.4151
 6210SOL    HW230267   0.608   1.128  14.580 -0.8115 -0.5450 -3.4718
 6211SOL     OW30268   4.152   4.515   2.410  0.1508  1.2005  0.2853
 6211SOL    HW130269   4.120   4.505   2.320 -0.4994  0.5054  0.5975
 6211SOL    HW230270   4.064   4.529   2.445 -0.6305  1.3832 -1.7567
 6212SOL     OW30271   3.019   3.250   8.043  0.5489  0.2486  0.5982
 6212SOL    HW130272   2.947   3.299   8.083  0.7553 -0.6554  2.0524
 6212SOL    HW230273   3.085   3.309   8.078 -0.9347  1.8353  0.7249
 6213SOL     OW30274   0.927   1.440   6.672 -0.0733  0.4424 -0.3236
 6213SOL    HW130275   0.989   1.509   6.651  2.1173 -1.5385 -0.3829
 6213SOL    HW230276   0.872   1.450   6.594  2.6849  1.4333 -2.1144
 6214SOL     OW30277   4.665   4.580  15.683  0.1868  0.0670  0.3478
 6214SOL    HW130278   4.622   4.556  15.764 -0.7262 -1.6591 -0.6560
 6214SOL    HW230279   4.658   4.675  15.696  2.0472  0.4058 -0.8887
 6215SOL     OW30280   4.621   1.129   4.874 -0.2551 -0.2744 -0.3197
 6215SOL    HW130281   4.611   1.085   4.789  0.6938 -0.1312 -0.5015
 6215SOL    HW230282   4.648   1.213   4.837  1.8342 -0.5413  0.6414
 6216SOL     OW30283   3.438   3.918   2.633 -0.7340  0.4390 -0.2229
 6216SOL    HW130284   3.527   3.918   2.596 -1.7259 -1.3092 -2.6287
 6216SOL    HW230285   3.389   3.883   2.559 -1.0427  1.9220 -0.7123
 6217SOL     OW30286   3.854   0.074   2.502  0.3904 -0.1963  0.8738
 6217SOL    HW130287   3.765   0.097   2.477  0.9549  1.0711  0.0232
 6217SOL    HW230288   3.887   0.164   2.498  0.6876 -0.4205 -1.6879
 6218SOL     OW30289   2.710   2.780   5.078  0.8267 -0.2579  0.5201
 6218SOL    HW130290   2.651   2.724   5.027 -0.3716  0.3007  1.3145
 6218SOL    HW230291   2.712   2.859   5.024  0.4044 -2.0132 -2.0811
 6219SOL     OW30292   4.381   1.639  17.382  0.0847 -0.1871  0.0943
 6219SOL    HW130293   4.463   1.650  17.334  0.8541 -0.5185  1.3382
 6219SOL    HW230294   4.320   1.672  17.317 -0.9170 -0.8787  0.6841
 6220SOL     OW30295   2.695   4.026   7.266 -0.4342  0.2302  0.8240
 6220SOL    HW130296   2.616   4.070   7.298  0.0508  2.0110 -0.3935
 6220SOL    HW230297   2.677   3.936   7.240  0.0994 -0.1864  1.9070
 6221SOL     OW30298   1.080   2.395   3.036  0.6850 -0.0041 -0.1916
 6221SOL    HW130299   1.115   2.480   3.061 -2.8530  1.0798  1.0750
 6221SOL    HW230300   1.119   2.388   2.949 -0.5836 -1.0586 -0.6799
 6222SOL     OW30301   3.079   0.777  16.814 -0.1107 -0.3341  0.3509
 6222SOL    HW130302   2.986   0.769  16.835 -0.0926 -0.2438  0.4626
 6222SOL    HW230303   3.088   0.871  16.803  0.8955 -0.1268  3.0627
 6223SOL     OW30304   0.549   1.255  13.821 -0.0906 -0.4594 -0.5050
 6223SOL    HW130305   0.606   1.236  13.896  1.6872 -0.0800 -1.7437
 6223SOL    HW230306   0.610   1.255  13.747 -0.2125  0.1437 -0.6037
 6224SOL     OW30307   1.816   4.004   6.779  0.4403  0.0814 -0.5642
 6224SOL    HW130308   1.737   3.971   6.736  1.0420  1.0018 -2.3681
 6224SOL    HW230309   1.887   3.996   6.717  1.3179  0.3638  0.3986
 6225SOL     OW30310   1.522   4.045   1.139 -0.1253  0.5685 -0.4472
 6225SOL    HW130311   1.537   3.951   1.124  0.5011  0.5339  0.3930
 6225SOL    HW230312   1.457   4.055   1.069 -0.4566  1.2566 -0.0364
 6226SOL     OW30313   2.225   3.536   6.493 -0.1849  0.4440 -0.1561
 6226SOL    HW130314   2.265   3.509   6.576  1.2179  0.8856 -0.6837
 6226SOL    HW230315   2.169   3.460   6.476  1.5049 -1.6724  3.7495
 6227SOL     OW30316   3.067   2.331   7.518 -0.4716  0.4199  0.5847
 6227SOL    HW130317   3.011   2.311   7.444 -1.2550 -1.5280  1.7091
 6227SOL    HW230318   3.155   2.342   7.481 -1.4881  1.0039 -1.6246
 6228SOL     OW30319   0.588   1.113   4.439  0.6920 -0.1622  0.3141
 6228SOL    HW130320   0.565   1.098   4.348 -0.7165  1.3603  0.4013
 6228SOL    HW230321   0.589   1.209   4.443  0.0139 -0.1219 -0.5329
 6229SOL     OW30322   3.890   2.954  15.425 -0.3513 -0.3909  0.2649
 6229SOL    HW130323   3.796   2.953  15.406 -0.1552 -3.0551 -0.6201
 6229SOL    HW230324   3.933   2.961  15.339 -0.9687 -0.7937 -0.0777
 6230SOL     OW30325   0.871   2.237  14.728  0.0390  0.1960  0.3822
 6230SOL    HW130326   0.885   2.234  14.634  2.4616  0.5955  0.7199
 6230SOL    HW230327   0.938   2.174  14.756  0.0617 -0.3666 -0.9239
 6231SOL     OW30328   0.295   4.249   6.763 -0.7707  0.0545  1.0015
 6231SOL    HW130329   0.244   4.328   6.780  0.5478  0.3556  3.4644
 6231SOL    HW230330   0.316   4.263   6.670  0.2699  1.1351  1.4004
 6232SOL     OW30331   2.762   2.221   8.665 -0.3794  0.1175  0.4674
 6232SOL    HW130332   2.748   2.214   8.759 -2.5664  0.6291  0.1674
 6232SOL    HW230333   2.852   2.192   8.646 -0.6085  1.1808 -2.2354
 6233SOL     OW30334   3.143   2.970  14.815 -0.3492 -0.2716  0.3894
 6233SOL    HW130335   3.070   3.017  14.854 -1.5444 -1.9344  0.1563
 6233SOL    HW230336   3.104   2.907  14.753 -1.0416 -1.2287  1.8064
 6234SOL     OW30337   1.220   3.961   9.547 -0.5456 -0.7048  0.6106
 6234SOL    HW130338   1.183   4.043   9.514 -0.1330 -0.1928  1.4210
 6234SOL    HW230339   1.249   3.920   9.465 -1.4824 -0.5344  0.1939
 6235SOL     OW30340   2.244   0.009  15.935 -0.1180  0.2142 -0.2397
 6235SOL    HW130341   2.153   0.033  15.952 -0.5330 -0.8103 -0.9774
 6235SOL    HW230342   2.237   4.662  15.891 -2.0425  0.1691  0.1379
 6236SOL     OW30343   1.739   3.883   7.988  1.0259  0.2091 -0.3274
 6236SOL    HW130344   1.827   3.856   7.962  0.0988 -1.2370 -2.0167
 6236SOL    HW230345   1.752   3.977   7.985  1.6389  0.1566  0.6829
 6237SOL     OW30346   2.943   4.142  13.696 -0.1588 -0.7462 -0.4020
 6237SOL    HW130347   2.873   4.180  13.643 -0.5994 -1.0590 -0.0357
 6237SOL    HW230348   2.937   4.048  13.679 -2.2634 -0.2352 -2.5621
 6238SOL     OW30349   2.359   3.259   7.373  0.2347 -0.1489  0.0814
 6238SOL    HW130350   2.336   3.234   7.462 -1.6851 -1.1808 -0.7186
 6238SOL    HW230351   2.309   3.340   7.361  2.2246  0.8596 -1.5133
 6239SOL     OW30352   1.207   0.963  13.923 -0.4290 -0.0957  0.3699
 6239SOL    HW130353   1.172   0.990  13.838  0.5146  1.3988  0.4488
 6239SOL    HW230354   1.256   0.887  13.892 -1.2619 -0.2649 -0.5377
 6240SOL     OW30355   1.982   2.196  13.547 -0.0373 -0.7258  0.2580
 6240SOL    HW130356   2.034   2.167  13.472  0.0949 -1.2988  0.5709
 6240SOL    HW230357   1.946   2.279  13.517 -1.0089 -1.3706 -0.3829
 6241SOL     OW30358   4.144   1.593   6.441  0.1220  0.6063  0.7009
 6241SOL    HW130359   4.108   1.680   6.453 -0.5304  0.2405  1.3816
 6241SOL    HW230360   4.077   1.538   6.482 -0.0960  1.4944  1.5270
 6242SOL     OW30361   0.952   4.385   4.754  0.1113 -0.1505 -0.2879
 6242SOL    HW130362   1.017   4.455   4.742  0.7799 -0.2497  2.8426
 6242SOL    HW230363   1.004   4.307   4.735 -1.1386 -0.5273 -2.1941
 6243SOL     OW30364   1.964   3.010   6.326  0.1437  0.3932  0.3653
 6243SOL    HW130365   1.882   2.965   6.346 -0.6007  1.3426 -0.5280
 6243SOL    HW230366   1.928   3.099   6.327 -0.8377 -0.0217  1.0394
 6244SOL     OW30367   2.842   2.277   3.080 -0.9019 -0.1392  0.2868
 6244SOL    HW130368   2.874   2.344   3.140  0.6340 -0.3484 -0.3175
 6244SOL    HW230369   2.826   2.335   3.006 -0.7520 -2.3567 -1.4617
 6245SOL     OW30370   1.742   0.496   1.029 -0.1144  0.0573 -0.1260
 6245SOL    HW130371   1.735   0.584   1.067 -1.1638  0.3353 -0.9391
 6245SOL    HW230372   1.711   0.458   1.111  0.7966  0.2953  0.3237
 6246SOL     OW30373   3.074   2.469   8.210  0.6791  0.1823 -0.0033
 6246SOL    HW130374   3.087   2.527   8.285 -1.8866 -1.2121  1.5287
 6246SOL    HW230375   3.091   2.384   8.251  2.4936  0.6319  0.1867
 6247SOL     OW30376   2.777   0.616   3.223 -0.6272 -0.1453 -0.9533
 6247SOL    HW130377   2.870   0.607   3.204 -0.9753 -0.2199 -2.6431
 6247SOL    HW230378   2.781   0.661   3.307 -1.6311 -2.0955  0.1412
 6248SOL     OW30379   4.721   3.765   8.744 -0.5063 -0.1740  0.0042
 6248SOL    HW130380   4.630   3.791   8.757 -0.4970 -0.8194  1.3553
 6248SOL    HW230381   0.018   3.763   8.834  0.7458 -1.2422 -0.4925
 6249SOL     OW30382   1.379   2.431   5.821 -0.0450 -0.3249 -0.3471
 6249SOL    HW130383   1.400   2.358   5.763 -0.4886 -1.6581  1.1449
 6249SOL    HW230384   1.324   2.481   5.761 -3.1959 -0.9955  1.9796
 6250SOL     OW30385   3.678   2.793   8.409 -0.1266  0.6500  0.2276
 6250SOL    HW130386   3.631   2.762   8.486 -1.4410  2.1247  0.0319
 6250SOL    HW230387   3.611   2.773   8.343  0.0623 -0.9741  0.5379
 6251SOL     OW30388   3.835   0.450   5.540 -0.6193  0.5280 -0.2737
 6251SOL    HW130389   3.763   0.513   5.532  0.1949  1.4413 -0.4413
 6251SOL    HW230390   3.859   0.442   5.447 -0.6445 -1.7423 -0.0790
 6252SOL     OW30391   2.385   3.024   7.776 -0.0612  0.7002  0.0476
 6252SOL    HW130392   2.363   2.934   7.802 -0.5237  1.4151  2.0751
 6252SOL    HW230393   2.450   3.043   7.844  0.9047 -1.1624 -0.3256
 6253SOL     OW30394   2.175   1.875  14.045 -0.2833  0.1691  0.7202
 6253SOL    HW130395   2.094   1.824  14.040  1.4313 -2.4561 -0.4396
 6253SOL    HW230396   2.237   1.827  14.100  1.1481  1.1768 -0.0039
 6254SOL     OW30397   4.414   0.580   3.508 -0.0219  0.2463 -0.0942
 6254SOL    HW130398   4.351   0.629   3.455 -1.6247 -1.7506 -0.0530
 6254SOL    HW230399   4.377   0.493   3.494  1.1313 -0.2312 -0.1067
 6255SOL     OW30400   0.516   4.028   7.221  0.1346  0.1903 -0.3399
 6255SOL    HW130401   0.447   3.963   7.231 -0.6807  1.0365 -0.4865
 6255SOL    HW230402   0.496   4.058   7.133 -1.4695  1.4291  0.4511
 6256SOL     OW30403   1.244   3.518  16.601  0.5851  0.0519 -0.2367
 6256SOL    HW130404   1.228   3.433  16.560 -0.4480 -0.9569  2.2141
 6256SOL    HW230405   1.316   3.559  16.554  1.3481 -2.2409 -1.0233
 6257SOL     OW30406   0.598   1.386   5.795 -0.0901 -0.6431  1.2663
 6257SOL    HW130407   0.545   1.311   5.822 -1.8362 -1.3478 -4.1561
 6257SOL    HW230408   0.629   1.411   5.882  0.0122  0.4848  0.8986
 6258SOL     OW30409   1.344   1.355   5.159 -0.1011  0.2480 -0.0455
 6258SOL    HW130410   1.407   1.314   5.217 -1.1414 -1.9974 -0.5111
 6258SOL    HW230411   1.351   1.298   5.082 -1.5955  1.2290 -0.9101
 6259SOL     OW30412   4.719   4.529   6.384 -0.0257  0.2123  0.2197
 6259SOL    HW130413   4.691   4.617   6.411  0.4501  0.5106 -0.2621
 6259SOL    HW230414   4.645   4.518   6.324  1.7797 -1.5486 -1.6673
 6260SOL     OW30415   2.325   2.740   9.369  0.3805 -0.2853  0.4394
 6260SOL    HW130416   2.318   2.645   9.360 -1.2093 -0.0421 -0.8277
 6260SOL    HW230417   2.414   2.739   9.405 -0.2381  0.4497  1.9602
 6261SOL     OW30418   0.655   3.134   6.288 -0.1181 -0.0031 -0.3875
 6261SOL    HW130419   0.700   3.071   6.232  1.1037  1.4948 -1.1024
 6261SOL    HW230420   0.656   3.090   6.373 -0.3209 -1.2525 -1.0366
 6262SOL     OW30421   4.609   2.691  12.487 -0.2448  0.2984  0.5637
 6262SOL    HW130422   4.612   2.770  12.540 -0.3112 -0.0992  1.1646
 6262SOL    HW230423   4.564   2.627  12.542 -1.0114  0.7334  0.4319
 6263SOL     OW30424   1.954   3.108   6.891  0.3905  0.0795 -0.0646
 6263SOL    HW130425   1.947   3.120   6.797  0.4586 -0.9046 -0.1915
 6263SOL    HW230426   1.994   3.021   6.883 -0.6987 -0.2723 -1.5681
 6264SOL     OW30427   2.684   1.272   2.523  0.0482 -0.1428  0.9979
 6264SOL    HW130428   2.757   1.241   2.577  0.7096  0.4230  0.4425
 6264SOL    HW230429   2.615   1.212   2.551 -0.7529 -0.0432 -0.7563
 6265SOL     OW30430   1.468   0.581   0.422 -0.0334  0.1976 -0.5503
 6265SOL    HW130431   1.422   0.498   0.411  1.9694 -0.9626  0.0235
 6265SOL    HW230432   1.476   0.605   0.330 -0.6071  1.2762 -0.3291
 6266SOL     OW30433   3.142   0.510   5.076 -0.6234 -0.4134  0.4474
 6266SOL    HW130434   3.141   0.596   5.118 -0.1999 -0.2053  0.0357
 6266SOL    HW230435   3.214   0.527   5.016 -0.4486  2.6869  1.5561
 6267SOL     OW30436   2.685   3.211   6.996 -0.1521  0.1859  0.3587
 6267SOL    HW130437   2.611   3.159   6.966 -0.2604 -0.8419  2.4217
 6267SOL    HW230438   2.755   3.178   6.939 -2.1179  1.0288 -2.5257
 6268SOL     OW30439   0.796   4.205  14.725 -0.0244  0.1513  0.3681
 6268SOL    HW130440   0.703   4.224  14.732  0.5991  3.2150  0.5157
 6268SOL    HW230441   0.795   4.109  14.725 -1.9364  0.1826  0.2967
 6269SOL     OW30442   1.040   1.489   3.977 -0.1695  0.0353 -0.5210
 6269SOL    HW130443   1.105   1.534   4.031 -0.5187  1.9289 -1.6955
 6269SOL    HW230444   1.072   1.511   3.890 -0.1853  0.8770 -0.3096
 6270SOL     OW30445   1.268   2.797  12.035  0.1006 -0.4566  0.0364
 6270SOL    HW130446   1.223   2.858  11.977  2.1937  0.1048 -0.9930
 6270SOL    HW230447   1.248   2.837  12.120  0.6538 -2.1123  0.9415
 6271SOL     OW30448   3.654   0.394   2.169 -0.1520  0.9181  0.3628
 6271SOL    HW130449   3.619   0.460   2.109 -0.7551  0.3540  0.0909
 6271SOL    HW230450   3.614   0.325   2.116  0.6040  1.4111 -0.8550
 6272SOL     OW30451   1.275   2.070   7.931 -0.3554 -0.5329 -0.1771
 6272SOL    HW130452   1.190   2.071   7.887  0.0602 -1.6616 -1.0142
 6272SOL    HW230453   1.257   2.127   8.005 -0.6122 -1.1909  0.2678
 6273SOL     OW30454   4.099   0.472   6.458  0.2219 -0.1663  0.2830
 6273SOL    HW130455   4.087   0.413   6.383 -0.3342  0.8080 -0.3834
 6273SOL    HW230456   4.048   0.424   6.523 -0.1806 -2.1043 -1.4578
 6274SOL     OW30457   2.850   2.581   4.270  0.7903 -0.3298  0.7121
 6274SOL    HW130458   2.944   2.588   4.252  0.9409 -0.8355  1.3028
 6274SOL    HW230459   2.814   2.667   4.247 -2.7228 -1.3151  2.4527
 6275SOL     OW30460   1.614   2.560  12.915  0.2142  0.5798 -0.0825
 6275SOL    HW130461   1.663   2.634  12.879 -0.0399  1.5834  1.5972
 6275SOL    HW230462   1.538   2.604  12.955  0.4602 -1.2472  2.4159
 6276SOL     OW30463   4.684   1.796  11.020  0.4614 -0.6064 -0.8508
 6276SOL    HW130464   4.717   1.769  11.106 -1.3075 -1.1737 -0.3272
 6276SOL    HW230465   4.661   1.707  10.992  2.9799 -1.8461  1.0370
 6277SOL     OW30466   1.404   3.017   6.905 -0.5407 -0.0824  0.2112
 6277SOL    HW130467   1.364   3.082   6.962 -0.7965  1.4077 -1.6851
 6277SOL    HW230468   1.333   2.989   6.848 -1.9713  0.0945  1.9112
 6278SOL     OW30469   1.878   1.584   7.094  0.4068  0.0153  0.6115
 6278SOL    HW130470   1.808   1.581   7.159 -1.5485  2.6489 -1.3880
 6278SOL    HW230471   1.899   1.677   7.107 -0.3281  0.2230  0.3636
 6279SOL     OW30472   3.206   1.598   8.922 -0.0956 -0.5608  0.7873
 6279SOL    HW130473   3.145   1.661   8.884  0.8274  0.5530  1.1625
 6279SOL    HW230474   3.190   1.512   8.883  0.4434 -0.3177  0.0467
 6280SOL     OW30475   0.513   0.713  10.465  0.8522  0.1627  0.2885
 6280SOL    HW130476   0.522   0.796  10.513  1.1667 -0.4887  1.3507
 6280SOL    HW230477   0.589   0.720  10.407  0.8504 -3.5414 -0.1259
 6281SOL     OW30478   2.866   4.710   8.830 -0.2928  0.0895 -0.3353
 6281SOL    HW130479   2.795   4.677   8.774  2.2695 -1.7190 -2.5694
 6281SOL    HW230480   2.880   4.625   8.873 -1.6706 -0.3166 -0.6853
 6282SOL     OW30481   2.444   2.660   3.604 -0.2723  0.8510 -0.3993
 6282SOL    HW130482   2.515   2.640   3.665  1.2479  1.0103 -2.1137
 6282SOL    HW230483   2.472   2.606   3.530 -0.4322 -1.5908  1.3160
 6283SOL     OW30484   0.533   1.560   2.510  0.0390  0.2796 -0.1435
 6283SOL    HW130485   0.605   1.557   2.447 -0.7076  1.0437 -1.0253
 6283SOL    HW230486   0.554   1.484   2.564 -1.7573 -1.4555 -1.8733
 6284SOL     OW30487   3.721   1.856   7.045  0.1537  0.2986 -0.2297
 6284SOL    HW130488   3.637   1.896   7.070  0.0015 -0.2909  0.1943
 6284SOL    HW230489   3.699   1.816   6.960 -0.1308 -2.2645  1.0508
 6285SOL     OW30490   4.606   4.566   5.918  0.2837  0.1539 -0.1599
 6285SOL    HW130491   4.537   4.629   5.899 -0.3707 -1.3261 -2.8080
 6285SOL    HW230492   4.627   4.538   5.828 -0.8256  1.6540 -0.8783
 6286SOL     OW30493   1.854   4.354   2.040 -0.1927  0.3246  0.3950
 6286SOL    HW130494   1.764   4.332   2.064 -0.1576  1.0286  1.1645
 6286SOL    HW230495   1.877   4.402   2.120  1.3911 -1.0802  0.7862
 6287SOL     OW30496   0.179   4.625  14.178  0.1454 -0.1586 -0.3534
 6287SOL    HW130497   0.194   4.554  14.115 -0.7702 -1.0083  0.3800
 6287SOL    HW230498   0.272   4.644  14.193 -0.4574  1.5863  1.1554
 6288SOL     OW30499   3.298   4.379   9.265  0.0238  0.6001  0.2600
 6288SOL    HW130500   3.361   4.344   9.329  0.5640  0.9117 -0.1018
 6288SOL    HW230501   3.247   4.442   9.315 -0.8739  0.4628 -0.4780
 6289SOL     OW30502   0.859   2.193   4.436  0.1325  0.6552  0.6879
 6289SOL    HW130503   0.794   2.186   4.365  2.8015  1.1404 -1.7967
 6289SOL    HW230504   0.863   2.098   4.442 -0.4728  0.6182  0.5280
 6290SOL     OW30505   3.338   1.138  16.924 -0.3469 -0.2771  0.2669
 6290SOL    HW130506   3.331   1.230  16.950 -0.9943 -0.1245 -0.4401
 6290SOL    HW230507   3.379   1.156  16.840  0.3767 -3.0432  0.0224
 6291SOL     OW30508   2.192   2.988   0.603  0.2279 -0.2580  0.7124
 6291SOL    HW130509   2.227   3.062   0.652  3.3444  0.1005 -2.0173
 6291SOL    HW230510   2.161   3.033   0.525  1.8065  0.4675  0.4980
 6292SOL     OW30511   0.527   4.309   5.787 -0.7341  0.5053  0.3178
 6292SOL    HW130512   0.549   4.221   5.755  1.8331  0.5033  2.0502
 6292SOL    HW230513   0.605   4.363   5.772 -0.0434 -0.8352 -1.0128
 6293SOL     OW30514   0.569   4.564   3.581 -0.0712 -0.4958  0.0982
 6293SOL    HW130515   0.510   4.504   3.626  0.7729 -0.7002  0.9524
 6293SOL    HW230516   0.501   4.613   3.534  1.8643 -0.1637 -2.3548
 6294SOL     OW30517   3.329   0.168   6.362  0.2932 -0.6761  0.5644
 6294SOL    HW130518   3.364   0.202   6.444 -1.2525  0.7942  0.6128
 6294SOL    HW230519   3.236   0.161   6.383  0.1717  2.5485  1.0567
 6295SOL     OW30520   2.398   1.004  17.211 -0.1788  0.5293  0.1780
 6295SOL    HW130521   2.371   1.058  17.285 -0.5370  1.9508 -0.9908
 6295SOL    HW230522   2.462   0.946  17.252 -0.6330 -0.4681 -0.5272
 6296SOL     OW30523   2.084   2.247  11.550 -0.7711  0.5699 -0.0075
 6296SOL    HW130524   2.051   2.288  11.470 -0.8165  1.1856  0.3240
 6296SOL    HW230525   2.001   2.237  11.597 -0.2277 -0.6489  0.6942
 6297SOL     OW30526   3.180   2.938   9.993 -0.1652  0.2676  0.2494
 6297SOL    HW130527   3.211   2.855  10.030  1.1445  0.8785  0.5372
 6297SOL    HW230528   3.267   2.977  10.006  0.2563  0.0177 -1.7619
 6298SOL     OW30529   0.044   2.253  12.441 -0.7908  0.2652 -0.3134
 6298SOL    HW130530   4.726   2.251  12.362 -1.6763  0.4682  0.2983
 6298SOL    HW230531   0.061   2.347  12.451  1.1946 -0.0079 -1.2058
 6299SOL     OW30532   4.573   0.708   2.478  0.0026 -0.4851  0.3751
 6299SOL    HW130533   4.555   0.632   2.422  1.3265 -0.0420 -0.6452
 6299SOL    HW230534   4.486   0.746   2.463  1.1119  1.9140 -0.0913
 6300SOL     OW30535   2.996   0.220   4.798 -0.3083  0.0539  0.1706
 6300SOL    HW130536   2.902   0.229   4.813 -0.5012 -2.4196  0.5706
 6300SOL    HW230537   3.003   0.141   4.744 -0.3192  0.1232  0.0681
 6301SOL     OW30538   3.134   3.888  11.681  0.2592 -0.4182  0.4885
 6301SOL    HW130539   3.120   3.817  11.619 -1.7706 -0.3468  0.8595
 6301SOL    HW230540   3.062   3.864  11.740 -1.1994 -0.6074 -1.3908
 6302SOL     OW30541   4.414   4.598  16.797 -0.1328 -0.8296  0.3015
 6302SOL    HW130542   4.463   4.534  16.848  0.6885 -1.9387 -1.8902
 6302SOL    HW230543   4.470   4.635  16.728  0.4779 -0.1046  1.1903
 6303SOL     OW30544   2.962   4.013   6.961 -0.1979  0.1458 -0.0760
 6303SOL    HW130545   3.035   4.010   7.023 -0.7152 -1.0514  0.4670
 6303SOL    HW230546   2.915   4.081   7.007  0.0673  0.3220 -0.0655
 6304SOL     OW30547   0.832   3.222  15.876  0.3561 -0.3195 -0.0021
 6304SOL    HW130548   0.927   3.230  15.891  0.9249 -2.5735 -2.4998
 6304SOL    HW230549   0.803   3.312  15.859 -1.8538 -1.4954 -2.4539
 6305SOL     OW30550   0.106   3.008   8.448  0.3830 -0.1082 -0.3473
 6305SOL    HW130551   0.121   3.080   8.388 -0.4839  0.0332 -0.3872
 6305SOL    HW230552   0.110   3.049   8.534 -1.0790 -0.1621 -0.2606
 6306SOL     OW30553   3.187   1.354   0.801 -0.5079  0.0526  0.0330
 6306SOL    HW130554   3.195   1.396   0.887 -0.4184  1.9607 -0.9024
 6306SOL    HW230555   3.279   1.347   0.779 -0.6627 -0.8219 -0.2991
 6307SOL     OW30556   3.597   0.675   2.112 -0.2767  0.7217 -0.4241
 6307SOL    HW130557   3.589   0.712   2.200 -0.0745 -0.0079 -0.1014
 6307SOL    HW230558   3.671   0.719   2.070 -0.0647  2.0033  1.2415
 6308SOL     OW30559   3.606   0.819   2.395 -0.0460  0.6052  0.1536
 6308SOL    HW130560   3.684   0.833   2.450  1.3422  0.0481 -1.6925
 6308SOL    HW230561   3.551   0.794   2.469 -0.1955  1.7477  0.4314
 6309SOL     OW30562   0.172   3.874   2.242 -0.2870 -0.1021  0.2208
 6309SOL    HW130563   0.110   3.914   2.181  0.6590  1.0312  0.0043
 6309SOL    HW230564   0.163   3.789   2.198  1.4370 -0.9523  1.5126
 6310SOL     OW30565   3.713   3.556   2.417  0.5296 -0.0366  0.2756
 6310SOL    HW130566   3.658   3.480   2.433  1.4617 -0.5976  0.8712
 6310SOL    HW230567   3.801   3.524   2.437  0.6917  0.8812  1.0019
 6311SOL     OW30568   3.479   2.865   6.008  0.1279  0.0653 -0.1138
 6311SOL    HW130569   3.432   2.802   5.953 -0.8296  1.9015 -1.3991
 6311SOL    HW230570   3.414   2.903   6.068  1.8113 -0.7898  2.2616
 6312SOL     OW30571   3.661   2.746   2.729  0.0625  0.5238  0.2955
 6312SOL    HW130572   3.690   2.832   2.757 -1.2135  1.4498 -1.1821
 6312SOL    HW230573   3.745   2.701   2.722  0.6630  1.7588 -0.4932
 6313SOL     OW30574   2.095   3.106   0.364  0.2839 -0.7335 -0.6269
 6313SOL    HW130575   2.036   3.180   0.352  0.1987 -0.9640 -1.6645
 6313SOL    HW230576   2.182   3.139   0.338  0.3529 -1.3435 -1.1840
 6314SOL     OW30577   1.183   3.295  11.158  0.0722  0.2644  0.1243
 6314SOL    HW130578   1.135   3.284  11.076  0.3423 -2.7348  0.3981
 6314SOL    HW230579   1.185   3.391  11.158 -0.9932  0.2852  1.0178
 6315SOL     OW30580   0.674   1.925   9.131  0.5883  0.2661  0.5783
 6315SOL    HW130581   0.672   1.995   9.066  0.6556  0.4251  0.7462
 6315SOL    HW230582   0.583   1.912   9.157  0.6277 -1.1065 -0.0021
 6316SOL     OW30583   2.725   4.348   8.523  0.3981 -0.3859  0.3823
 6316SOL    HW130584   2.645   4.380   8.482  1.2065  1.7964  0.5118
 6316SOL    HW230585   2.779   4.336   8.444  1.7689 -0.9833  1.4153
 6317SOL     OW30586   0.198   3.665   6.446 -0.5233 -0.2536  0.0594
 6317SOL    HW130587   0.223   3.729   6.379 -3.4283  0.4499 -0.3709
 6317SOL    HW230588   0.257   3.595   6.417  1.3192 -0.1525  3.5459
 6318SOL     OW30589   3.331   0.636   4.379 -0.4372  0.3188  0.5695
 6318SOL    HW130590   3.299   0.689   4.306  1.6868  3.4861  1.9628
 6318SOL    HW230591   3.296   0.552   4.348  1.9819 -0.3359 -0.3863
 6319SOL     OW30592   2.697   2.331   5.833 -0.4604  0.4198 -0.3580
 6319SOL    HW130593   2.677   2.279   5.755 -0.5604  3.0043 -2.0557
 6319SOL    HW230594   2.630   2.294   5.890  0.4391  0.4460  0.7307
 6320SOL     OW30595   0.296   2.224   7.910 -0.0765 -0.4662  0.7217
 6320SOL    HW130596   0.270   2.307   7.870  2.0984 -0.0604  0.1414
 6320SOL    HW230597   0.390   2.239   7.918 -0.3242  2.3000 -1.4912
 6321SOL     OW30598   4.007   3.556   7.372 -0.4271  0.1366  0.3231
 6321SOL    HW130599   3.969   3.643   7.374  1.1484  0.7895  2.4863
 6321SOL    HW230600   4.098   3.584   7.378 -0.1789 -0.1005 -2.5746
 6322SOL     OW30601   0.057   1.516  15.289 -0.5073  0.3595  0.1585
 6322SOL    HW130602   0.098   1.446  15.340 -0.5120 -0.3602 -0.8355
 6322SOL    HW230603   0.107   1.593  15.317  0.4283 -0.4027  0.5831
 6323SOL     OW30604   2.604   1.178   9.082  0.0550  0.0280 -0.0602
 6323SOL    HW130605   2.644   1.158   8.998 -2.5762  1.5845 -1.6746
 6323SOL    HW230606   2.562   1.262   9.062  0.6907  0.4763  0.4610
 6324SOL     OW30607   0.428   4.187   8.009 -0.3029  0.1753 -0.0933
 6324SOL    HW130608   0.440   4.234   8.092  0.2245  1.2775 -0.8032
 6324SOL    HW230609   0.361   4.123   8.034  2.4708 -3.1808 -1.2180
 6325SOL     OW30610   2.690   0.311   5.493  0.0852 -0.0543  0.1290
 6325SOL    HW130611   2.665   0.353   5.575 -0.9712 -0.4069 -0.0116
 6325SOL    HW230612   2.681   0.220   5.523  3.9523 -0.3771  0.2384
 6326SOL     OW30613   0.757   0.769   6.160  0.4069  0.2463 -0.1353
 6326SOL    HW130614   0.822   0.728   6.103  0.8216  2.4928 -1.2890
 6326SOL    HW230615   0.731   0.840   6.102 -0.8080  0.6434  0.8911
 6327SOL     OW30616   0.789   1.962   9.367  0.0547 -0.7564 -0.1712
 6327SOL    HW130617   0.738   1.976   9.287  0.7676 -0.3877 -0.5678
 6327SOL    HW230618   0.814   1.871   9.350 -2.4085 -1.3621 -0.5142
 6328SOL     OW30619   2.355   1.129  11.789  0.0475 -0.1167 -0.3424
 6328SOL    HW130620   2.270   1.106  11.752  0.4673  0.3343 -1.5739
 6328SOL    HW230621   2.384   1.195  11.726 -2.0528 -0.5046 -1.7438
 6329SOL     OW30622   0.923   1.362   0.276 -0.2395 -0.3214 -0.1509
 6329SOL    HW130623   1.016   1.367   0.257 -0.2675 -1.3418 -0.5928
 6329SOL    HW230624   0.909   1.447   0.316  2.4505  0.1938 -0.3729
 6330SOL     OW30625   0.242   0.168   5.509  0.1098  0.0867  0.1768
 6330SOL    HW130626   0.283   0.172   5.595 -1.2225 -1.1565  0.8732
 6330SOL    HW230627   0.288   0.236   5.459  0.4162 -1.2602 -1.3768
 6331SOL     OW30628   2.217   4.427   8.946  0.1012  0.5198 -0.2396
 6331SOL    HW130629   2.150   4.445   9.012 -1.6768 -0.6456 -1.7291
 6331SOL    HW230630   2.246   4.342   8.979 -0.2360 -0.2023 -1.7837
 6332SOL     OW30631   4.121   0.093  10.275  0.3403 -0.2829  0.0248
 6332SOL    HW130632   4.058   0.028  10.244  0.5506 -0.5898  0.2374
 6332SOL    HW230633   4.136   0.054  10.361  1.9340 -0.8613 -0.4998
 6333SOL     OW30634   1.416   1.119   0.088  0.0808 -0.2705 -0.3630
 6333SOL    HW130635   1.452   1.183   0.026  0.5010 -0.1045  0.0508
 6333SOL    HW230636   1.497   1.079   0.120  0.3016  1.0572  0.7534
 6334SOL     OW30637   2.211   3.999  10.223  0.1203 -0.3103  0.1048
 6334SOL    HW130638   2.242   3.966  10.139  2.4428  0.6349  0.6041
 6334SOL    HW230639   2.121   3.964  10.221  0.3435 -0.9375  1.1822
 6335SOL     OW30640   3.912   3.807   1.439  0.1452 -0.2669  0.6601
 6335SOL    HW130641   3.973   3.753   1.491  2.1467  1.4032  0.0568
 6335SOL    HW230642   3.895   3.748   1.366  0.4357 -0.4887  0.7668
 6336SOL     OW30643   4.108   3.067  16.927 -0.0325 -0.3784  0.2357
 6336SOL    HW130644   4.128   3.061  17.021 -0.1000 -1.3358  0.1936
 6336SOL    HW230645   4.175   3.007  16.894 -0.4293 -1.3853  1.2679
 6337SOL     OW30646   3.125   4.203   8.321  0.0860  0.3564  0.0861
 6337SOL    HW130647   3.067   4.224   8.249 -1.7899 -0.1942  1.4304
 6337SOL    HW230648   3.184   4.278   8.325  2.3422 -1.3552 -0.9269
 6338SOL     OW30649   2.094   1.713   7.900 -0.3629 -0.1333  0.0274
 6338SOL    HW130650   2.122   1.672   7.818 -0.5641 -1.5130  0.6558
 6338SOL    HW230651   2.170   1.738   7.953 -0.7470  2.8306 -0.8422
 6339SOL     OW30652   0.342   0.129  14.375  0.0088  0.4863  0.8795
 6339SOL    HW130653   0.271   0.074  14.408 -1.7241  3.2111  1.7038
 6339SOL    HW230654   0.302   0.199  14.323  0.7115  0.0227 -0.2848
 6340SOL     OW30655   1.588   3.542   6.259 -0.3853 -0.7891  0.5717
 6340SOL    HW130656   1.510   3.491   6.278 -0.8032 -0.2926  0.1986
 6340SOL    HW230657   1.601   3.573   6.349  1.0998  0.8151 -0.1937
 6341SOL     OW30658   1.188   3.562   3.196 -0.3056 -0.0317 -1.0108
 6341SOL    HW130659   1.186   3.476   3.153 -1.6512 -1.1767  1.3436
 6341SOL    HW230660   1.105   3.570   3.242  1.8574  0.2069  2.8114
 6342SOL     OW30661   0.293   1.705   7.124 -0.1807  0.3110 -0.2688
 6342SOL    HW130662   0.264   1.773   7.185  1.1960  0.3528  0.3591
 6342SOL    HW230663   0.358   1.661   7.180 -0.0693  0.4982 -0.2526
 6343SOL     OW30664   0.468   1.721   3.733  0.9396  0.2988  1.0757
 6343SOL    HW130665   0.495   1.692   3.646  1.2090  0.1292  1.2155
 6343SOL    HW230666   0.419   1.646   3.766  1.6028 -0.1149  1.1205
 6344SOL     OW30667   0.765   3.262   2.136 -0.1036 -0.2811 -0.3762
 6344SOL    HW130668   0.859   3.270   2.149  0.0532 -0.7702 -1.2012
 6344SOL    HW230669   0.746   3.184   2.083  0.6906 -0.5704 -0.2406
 6345SOL     OW30670   4.016   4.135   1.527 -0.5737 -0.0016  0.0997
 6345SOL    HW130671   4.083   4.098   1.469 -0.2927  0.0637  0.3809
 6345SOL    HW230672   4.063   4.212   1.559  0.1483 -0.6135  0.5178
 6346SOL     OW30673   1.996   1.979   8.680 -0.4165 -0.1818 -0.1410
 6346SOL    HW130674   2.091   1.976   8.669 -0.3043 -0.3448  0.9390
 6346SOL    HW230675   1.985   2.062   8.726  2.2292  0.3786 -0.5645
 6347SOL     OW30676   3.848   0.908   0.521 -0.0596 -0.2125  0.1969
 6347SOL    HW130677   3.772   0.850   0.519 -0.4671  0.3702 -0.8261
 6347SOL    HW230678   3.810   0.965   0.588 -1.2962 -0.4891 -0.2816
 6348SOL     OW30679   0.379   1.162   3.801 -0.2106 -0.3096  0.4286
 6348SOL    HW130680   0.319   1.209   3.743  0.7749  1.0572  0.5013
 6348SOL    HW230681   0.466   1.194   3.775 -0.4539  0.6757  0.8217
 6349SOL     OW30682   1.999   1.461   8.232  0.1874 -0.3139  0.1002
 6349SOL    HW130683   2.005   1.556   8.237  1.3808 -0.3257 -1.1129
 6349SOL    HW230684   1.983   1.438   8.324  1.4576  1.4592  0.7703
 6350SOL     OW30685   4.514   4.522   0.526 -0.1414 -0.0848 -0.3841
 6350SOL    HW130686   4.448   4.549   0.462  0.3674  0.4034 -0.7106
 6350SOL    HW230687   4.592   4.553   0.480  0.8662 -2.4914 -0.2744
 6351SOL     OW30688   1.083   1.031   1.719 -0.7961 -0.0255 -0.3958
 6351SOL    HW130689   1.084   1.109   1.663  2.3636 -0.5581 -1.1172
 6351SOL    HW230690   1.053   1.059   1.806  0.0647  4.2135 -1.4813
 6352SOL     OW30691   2.564   2.900  12.261  0.2964  0.2377 -0.0346
 6352SOL    HW130692   2.625   2.917  12.332  0.3384 -1.7620  0.4205
 6352SOL    HW230693   2.509   2.828  12.293  1.0222 -0.8953 -1.3481
 6353SOL     OW30694   2.199   2.012   3.342  0.1244  0.9663 -0.1958
 6353SOL    HW130695   2.114   1.990   3.304  0.6283 -1.8939  0.3465
 6353SOL    HW230696   2.166   2.077   3.404  2.0110  0.4786  1.3107
 6354SOL     OW30697   1.248   1.114  11.773 -0.3242  0.2995  0.2858
 6354SOL    HW130698   1.261   1.051  11.843  1.4794  1.4028  0.9459
 6354SOL    HW230699   1.332   1.123  11.728 -0.9543  0.5578 -0.8501
 6355SOL     OW30700   3.428   2.910  17.248 -1.0518 -0.8077  0.4045
 6355SOL    HW130701   3.523   2.901  17.246 -0.9803 -0.4782  2.1270
 6355SOL    HW230702   3.411   2.991  17.200  3.0631  0.9538  1.9724
 6356SOL     OW30703   3.388   3.612   5.533 -0.0451  0.5662 -0.0687
 6356SOL    HW130704   3.311   3.562   5.505  0.8952  0.2775 -2.1017
 6356SOL    HW230705   3.434   3.549   5.589  0.2608  1.8748  1.1623
 6357SOL     OW30706   3.973   4.143   4.764  0.1178  0.1240  0.3332
 6357SOL    HW130707   3.884   4.176   4.749 -0.4459 -2.2420 -1.4300
 6357SOL    HW230708   3.980   4.142   4.859  2.1986 -0.5247  0.1527
 6358SOL     OW30709   4.370   3.080  10.743  0.0896 -0.4283 -0.2419
 6358SOL    HW130710   4.359   3.032  10.661  0.4889 -0.8711 -0.0414
 6358SOL    HW230711   4.358   3.006  10.803  1.0320 -1.2641 -1.0957
 6359SOL     OW30712   3.540   2.101   5.675 -0.0722  0.5998  0.2163
 6359SOL    HW130713   3.454   2.082   5.714  0.7384  0.0014  1.7341
 6359SOL    HW230714   3.524   2.155   5.598  2.0646  0.8302 -0.0692
 6360SOL     OW30715   4.452   1.162   6.993 -0.3900  0.4533  0.2775
 6360SOL    HW130716   4.429   1.069   6.999  0.9691  0.1863  1.4743
 6360SOL    HW230717   4.474   1.182   7.084  1.4410 -0.2569 -0.0082
 6361SOL     OW30718   4.192   3.839   2.657 -0.3429 -0.3527 -0.3262
 6361SOL    HW130719   4.168   3.817   2.747  0.2760  2.1582  0.4531
 6361SOL    HW230720   4.274   3.793   2.644  0.1773  0.5714 -0.3368
 6362SOL     OW30721   0.231   0.135   8.463  0.8111  0.4148  0.2702
 6362SOL    HW130722   0.286   0.164   8.390 -0.5505 -3.1040 -2.1412
 6362SOL    HW230723   0.144   0.158   8.428  0.1999 -0.3120  1.3362
 6363SOL     OW30724   0.030   0.198  11.661 -0.3244 -0.1255  0.3505
 6363SOL    HW130725   0.045   0.280  11.708 -0.8508  0.7255 -0.9590
 6363SOL    HW230726   4.711   0.146  11.717  0.4661 -3.4090 -1.9499
 6364SOL     OW30727   3.892   0.452   0.438 -0.7061 -0.0160  0.6136
 6364SOL    HW130728   3.959   0.510   0.402 -0.9178  0.2779  0.6946
 6364SOL    HW230729   3.896   0.466   0.533  3.4915  0.0119  0.4294
 6365SOL     OW30730   3.218   0.256  15.047  0.0038 -0.4859  0.2250
 6365SOL    HW130731   3.144   0.304  15.083  1.4517  1.6938  0.3112
 6365SOL    HW230732   3.196   0.249  14.954  0.3747  0.4988  0.0689
 6366SOL     OW30733   0.839   1.509   2.468  0.0270 -0.5276 -0.6395
 6366SOL    HW130734   0.923   1.549   2.445 -0.1464  1.2003  1.7709
 6366SOL    HW230735   0.828   1.453   2.392 -0.0046 -0.6196 -0.5670
 6367SOL     OW30736   1.445   2.274   0.512  0.0120 -0.5185  0.2668
 6367SOL    HW130737   1.475   2.216   0.443  1.2489  0.7800 -0.3045
 6367SOL    HW230738   1.358   2.237   0.525  0.2617 -1.7290 -1.5293
 6368SOL     OW30739   0.504   2.228   3.637  0.1721  0.0291  0.3267
 6368SOL    HW130740   0.574   2.171   3.608  0.5263  0.5229  0.2088
 6368SOL    HW230741   0.461   2.251   3.555 -2.1421 -3.4658  0.5693
 6369SOL     OW30742   0.088   2.168   6.902  0.3122 -0.3335 -0.0853
 6369SOL    HW130743   0.051   2.109   6.836 -0.1422  0.6102 -0.6876
 6369SOL    HW230744   0.073   2.251   6.855  1.5636 -0.3596 -0.5436
 6370SOL     OW30745   2.425   1.989  16.623 -0.5685 -0.2283 -0.1047
 6370SOL    HW130746   2.450   1.905  16.661 -0.3717 -1.0361 -1.9890
 6370SOL    HW230747   2.508   2.034  16.641  0.7316 -2.5614 -0.2200
 6371SOL     OW30748   1.733   2.205   9.150 -0.5965  0.0530 -0.1286
 6371SOL    HW130749   1.699   2.275   9.094  2.0939 -0.1555 -2.0073
 6371SOL    HW230750   1.656   2.184   9.203 -1.2088  2.5303 -0.0317
 6372SOL     OW30751   3.853   2.735   8.054  0.3658 -0.0251 -0.2875
 6372SOL    HW130752   3.777   2.761   8.001  0.1244 -0.6052 -0.2303
 6372SOL    HW230753   3.857   2.641   8.037  0.7444 -0.6633  3.4092
 6373SOL     OW30754   1.704   2.395   5.611 -0.4069 -0.1956 -0.5009
 6373SOL    HW130755   1.747   2.477   5.637  0.2827 -0.2230 -1.5172
 6373SOL    HW230756   1.746   2.334   5.671  0.8402  1.7822  0.6443
 6374SOL     OW30757   0.186   0.707   3.678 -0.3675 -0.2336 -0.2335
 6374SOL    HW130758   0.137   0.788   3.696 -2.6074 -1.7053  0.2617
 6374SOL    HW230759   0.154   0.694   3.588 -0.1305 -0.3969 -0.2948
 6375SOL     OW30760   1.818   3.325   6.660 -0.1142 -0.5216 -0.1234
 6375SOL    HW130761   1.819   3.229   6.658  1.2330 -0.5512  2.7593
 6375SOL    HW230762   1.729   3.331   6.694 -0.4022 -2.1490 -0.5489
 6376SOL     OW30763   2.149   1.722   3.640 -0.6836 -0.3636  0.5291
 6376SOL    HW130764   2.180   1.663   3.571  1.1066  1.3796 -0.1474
 6376SOL    HW230765   2.200   1.678   3.709  0.0629  0.7025  0.6574
 6377SOL     OW30766   1.820   0.846   2.298 -0.4218 -0.3022 -0.1524
 6377SOL    HW130767   1.912   0.842   2.270 -0.2640 -3.3040  0.7539
 6377SOL    HW230768   1.788   0.772   2.246 -0.2576  1.2535 -2.4382
 6378SOL     OW30769   1.377   0.730   2.983  0.5601  0.0406  0.3925
 6378SOL    HW130770   1.372   0.825   2.995  2.1565  0.0866  0.7384
 6378SOL    HW230771   1.343   0.716   2.895  0.2115  0.3347  0.4809
 6379SOL     OW30772   2.423   3.592   8.012  0.8250 -0.2462 -0.7280
 6379SOL    HW130773   2.439   3.506   7.974  2.0281  0.1031 -1.0225
 6379SOL    HW230774   2.457   3.641   7.937  1.6791 -1.2823 -1.0241
 6380SOL     OW30775   3.808   0.011   5.341 -0.1478 -0.0963 -0.2370
 6380SOL    HW130776   3.797   4.658   5.369  1.6374 -0.5330 -0.9024
 6380SOL    HW230777   3.894   0.036   5.375 -1.2884  1.6141  1.4109
 6381SOL     OW30778   2.511   1.106   9.485  0.1487 -0.4763  0.4200
 6381SOL    HW130779   2.459   1.102   9.406  0.9254  0.4690 -0.1435
 6381SOL    HW230780   2.568   1.032   9.463 -0.8902 -1.6302  1.6528
 6382SOL     OW30781   3.165   2.240   9.683 -0.3375 -0.6549  0.1064
 6382SOL    HW130782   3.205   2.216   9.599 -1.2979 -0.3084 -0.4527
 6382SOL    HW230783   3.225   2.193   9.740  0.2194 -0.4950 -0.3547
 6383SOL     OW30784   2.670   4.312   1.657  0.6533 -0.3156  0.1305
 6383SOL    HW130785   2.643   4.396   1.695 -0.5163 -1.1576  1.1594
 6383SOL    HW230786   2.582   4.276   1.649  0.8954 -0.9754  0.5259
 6384SOL     OW30787   3.308   2.615   8.988 -0.4545 -0.2231  0.0472
 6384SOL    HW130788   3.310   2.586   9.080  3.1234  0.4799  0.1946
 6384SOL    HW230789   3.357   2.697   8.997  0.6429 -0.8159 -0.5714
 6385SOL     OW30790   1.778   2.623   8.291 -0.3760 -0.2827  0.1293
 6385SOL    HW130791   1.863   2.659   8.266 -0.4704 -1.6716 -2.1599
 6385SOL    HW230792   1.774   2.603   8.385 -2.9019 -1.3387 -0.2210
 6386SOL     OW30793   0.912   4.149   3.565  1.0482 -0.1661 -0.0983
 6386SOL    HW130794   0.956   4.233   3.576 -2.0242  1.3512  0.7802
 6386SOL    HW230795   0.840   4.168   3.505  0.1783  0.5694  1.1657
 6387SOL     OW30796   0.972   4.341  14.893 -0.2886  0.2035  0.4881
 6387SOL    HW130797   1.053   4.361  14.846  0.5917 -0.6404  1.6682
 6387SOL    HW230798   0.919   4.303  14.823 -1.4071  1.6102  0.5659
 6388SOL     OW30799   1.144   1.396   8.257 -0.1161 -0.3644  0.2777
 6388SOL    HW130800   1.236   1.396   8.231 -1.2161 -1.1634 -3.6944
 6388SOL    HW230801   1.140   1.300   8.267  2.3998 -0.6718 -1.6087
 6389SOL     OW30802   2.344   4.609   2.922 -0.6949  0.3006  1.0816
 6389SOL    HW130803   2.344   4.641   2.832 -0.5670 -3.3094 -0.1865
 6389SOL    HW230804   2.407   4.673   2.955 -1.5752  1.2997  0.8386
 6390SOL     OW30805   1.969   3.086   2.178 -0.0428  0.0045 -0.2469
 6390SOL    HW130806   2.027   3.021   2.139 -0.2153 -0.1414 -0.2643
 6390SOL    HW230807   1.917   3.018   2.221  0.1185 -0.1126 -0.2367
 6391SOL     OW30808   4.691   4.129  14.484 -0.1533 -0.0455 -0.0938
 6391SOL    HW130809   4.725   4.199  14.540 -0.1452 -0.0483 -0.0954
 6391SOL    HW230810   4.724   4.143  14.395 -1.2751  0.9908 -0.3601
 6392SOL     OW30811   3.996   1.451   8.642  0.0627  0.4290  0.1031
 6392SOL    HW130812   4.021   1.436   8.551  0.8920  1.4608  0.1566
 6392SOL    HW230813   4.079   1.432   8.687  0.0855 -0.8983 -0.4909
 6393SOL     OW30814   0.527   2.079   8.121  0.0795  0.0678 -0.3232
 6393SOL    HW130815   0.584   2.151   8.096 -0.1057 -0.2034 -1.5148
 6393SOL    HW230816   0.587   2.011   8.149 -1.3770 -1.7256 -1.4945
 6394SOL     OW30817   4.593   4.173   8.183 -0.3991 -0.4704 -0.5032
 6394SOL    HW130818   4.545   4.186   8.265 -0.6508  1.6102 -0.9723
 6394SOL    HW230819   4.654   4.245   8.168 -1.6369  0.3140 -1.8365
 6395SOL     OW30820   3.154   1.787   3.499  0.2299 -0.4944 -0.0961
 6395SOL    HW130821   3.068   1.829   3.497  1.0742  1.1292 -3.8627
 6395SOL    HW230822   3.153   1.750   3.410  2.2540 -2.0667  0.5372
 6396SOL     OW30823   2.496   1.214  13.522  0.2675 -0.1795  0.4045
 6396SOL    HW130824   2.470   1.159  13.448  0.5737  1.6048 -1.0204
 6396SOL    HW230825   2.458   1.296  13.491  0.6007  0.1708  0.9147
 6397SOL     OW30826   0.701   1.898   4.916 -0.6462 -0.0916  0.0997
 6397SOL    HW130827   0.785   1.919   4.956 -0.8257  3.1809 -1.2283
 6397SOL    HW230828   0.648   1.861   4.986 -1.0110  0.3925  0.0839
 6398SOL     OW30829   3.597   0.854   7.723 -0.8215  0.2388 -0.5862
 6398SOL    HW130830   3.660   0.885   7.659  0.5627  1.2471  1.2499
 6398SOL    HW230831   3.612   0.760   7.716 -0.2305  0.4203 -1.6818
 6399SOL     OW30832   1.165   1.889   2.601  0.4227  0.1403 -0.3555
 6399SOL    HW130833   1.127   1.930   2.524 -2.1622 -0.1008  0.7870
 6399SOL    HW230834   1.232   1.827   2.571 -0.5150 -0.3500 -1.4274
 6400SOL     OW30835   1.286   4.008   4.044 -0.5759  0.0557 -0.2441
 6400SOL    HW130836   1.301   4.054   3.961  2.7310 -0.4029  0.1077
 6400SOL    HW230837   1.236   3.929   4.022  1.5924 -1.4383  0.1956
 6401SOL     OW30838   2.215   0.384   9.276  0.9123  0.2442  0.1545
 6401SOL    HW130839   2.141   0.349   9.226  0.7830  2.4518 -1.1800
 6401SOL    HW230840   2.248   0.448   9.213 -1.2895  0.5083 -0.7412
 6402SOL     OW30841   1.565   4.262   9.422  0.6172 -0.0300 -0.4954
 6402SOL    HW130842   1.526   4.206   9.355  1.5471 -0.1011 -0.9802
 6402SOL    HW230843   1.511   4.225   9.492  1.6711 -1.2059 -0.2896
 6403SOL     OW30844   0.526   2.533   3.641  0.2491  0.8461  0.0739
 6403SOL    HW130845   0.498   2.467   3.704  0.9261  1.0591  0.5974
 6403SOL    HW230846   0.455   2.594   3.660  0.6819  0.8502  1.7194
 6404SOL     OW30847   2.358   1.866   6.347 -0.3548  0.0681  0.3740
 6404SOL    HW130848   2.383   1.952   6.313 -0.2008  1.9418  5.1667
 6404SOL    HW230849   2.321   1.904   6.427  0.1823 -0.1459  0.7260
 6405SOL     OW30850   0.395   0.464   9.271  0.3780 -0.3700  0.7698
 6405SOL    HW130851   0.326   0.425   9.325 -0.5429 -1.7747 -1.4191
 6405SOL    HW230852   0.472   0.437   9.321  3.1841 -0.4366 -3.5656
 6406SOL     OW30853   3.557   0.312   0.435 -0.2955 -0.4113  0.1199
 6406SOL    HW130854   3.583   0.392   0.480  0.0304 -0.5837  0.2400
 6406SOL    HW230855   3.484   0.345   0.382 -0.0492 -1.1013 -0.6361
 6407SOL     OW30856   3.789   4.184   9.325 -0.0967 -0.4110 -0.6921
 6407SOL    HW130857   3.710   4.133   9.341  0.3963 -1.3710 -1.3011
 6407SOL    HW230858   3.855   4.128   9.366 -0.6563 -0.3624  0.2602
 6408SOL     OW30859   0.148   2.205   4.620  0.4455 -0.7613 -0.0624
 6408SOL    HW130860   0.127   2.235   4.709  0.0626 -1.0539 -0.0507
 6408SOL    HW230861   0.176   2.284   4.574 -0.1025 -0.6001 -0.1196
 6409SOL     OW30862   2.296   3.306   5.258  0.2479  0.0746  0.5187
 6409SOL    HW130863   2.205   3.329   5.277  0.0195 -1.6486  1.4995
 6409SOL    HW230864   2.321   3.343   5.174 -2.3354 -1.4216 -0.9004
 6410SOL     OW30865   1.831   0.600   7.079 -0.4031 -0.2639 -0.1823
 6410SOL    HW130866   1.851   0.508   7.094 -1.3887 -0.6188 -1.1138
 6410SOL    HW230867   1.779   0.627   7.155 -0.0453 -0.4117  0.1126
 6411SOL     OW30868   1.615   3.090   6.748  0.1807  0.5030 -0.5585
 6411SOL    HW130869   1.542   3.069   6.806  0.4327 -1.0193 -0.8006
 6411SOL    HW230870   1.581   3.049   6.669  0.1072  0.3404 -0.4416
 6412SOL     OW30871   3.843   4.195   5.421 -0.3266  0.5154 -0.6236
 6412SOL    HW130872   3.825   4.202   5.328  0.3022  1.2858 -0.6948
 6412SOL    HW230873   3.797   4.114   5.442 -1.2455  0.8104 -1.5106
 6413SOL     OW30874   1.996   2.519  10.165 -0.3824 -0.3673  0.1480
 6413SOL    HW130875   2.023   2.578  10.236 -2.9472 -0.1144  0.9466
 6413SOL    HW230876   1.906   2.500  10.191 -0.4915  0.2700  0.2498
 6414SOL     OW30877   1.077   2.065  10.864  0.0033 -0.2231  0.0569
 6414SOL    HW130878   1.098   1.984  10.911 -1.7498 -0.5244  0.3156
 6414SOL    HW230879   1.165   2.099  10.850 -0.9060  0.7408 -3.2733
 6415SOL     OW30880   1.960   3.639   7.939  0.0117  0.0039 -0.1717
 6415SOL    HW130881   1.974   3.733   7.952 -0.6441  0.7916 -5.2824
 6415SOL    HW230882   2.052   3.621   7.920  0.3084  1.7820 -0.3866
 6416SOL     OW30883   2.867   1.370   2.106  0.5778  0.5779 -0.1119
 6416SOL    HW130884   2.881   1.310   2.033  2.0458 -0.8903  1.3661
 6416SOL    HW230885   2.779   1.341   2.130  0.7783 -1.6523 -2.1276
 6417SOL     OW30886   0.754   1.805   4.653 -0.3401 -0.6171  0.2403
 6417SOL    HW130887   0.737   1.828   4.744 -2.2353  1.2773 -0.6060
 6417SOL    HW230888   0.679   1.859   4.629  0.7082 -0.4176 -2.5181
 6418SOL     OW30889   3.054   1.258   6.979 -0.3478 -0.0672  0.2594
 6418SOL    HW130890   3.064   1.333   6.920 -2.2327 -0.3073 -0.3429
 6418SOL    HW230891   2.959   1.252   6.988 -0.3022 -0.3355  0.5395
 6419SOL     OW30892   4.388   3.220   8.025  0.5144  0.4055  0.3798
 6419SOL    HW130893   4.300   3.206   8.059  0.3689  0.4668  0.0323
 6419SOL    HW230894   4.389   3.138   7.976 -1.4189  0.8457 -0.3872
 6420SOL     OW30895   3.883   0.060   6.331  0.6202  0.0623  0.1051
 6420SOL    HW130896   3.862   0.153   6.341 -0.5736 -0.3036  0.9638
 6420SOL    HW230897   3.948   0.059   6.401 -1.3329 -0.5739  1.9137
 6421SOL     OW30898   1.881   4.719   9.467 -0.0276  0.2783  0.7820
 6421SOL    HW130899   1.909   4.721   9.558 -1.0571  2.5576  1.0555
 6421SOL    HW230900   1.960   4.686   9.425 -0.6406  0.9780 -0.9492
 6422SOL     OW30901   1.204   1.753   4.318 -0.0471 -0.0955  0.2388
 6422SOL    HW130902   1.245   1.725   4.400 -0.4037 -1.8933 -0.1964
 6422SOL    HW230903   1.250   1.832   4.292  0.8484  0.2270  2.8579
 6423SOL     OW30904   3.490   1.310   5.000 -0.5273 -0.1013 -0.4723
 6423SOL    HW130905   3.490   1.261   4.917  0.6252 -1.6198  0.4272
 6423SOL    HW230906   3.403   1.349   4.992 -0.9526 -1.1754 -1.1435
 6424SOL     OW30907   0.568   0.918   7.139 -0.4099 -0.5093  0.6259
 6424SOL    HW130908   0.578   0.906   7.044  1.5961 -1.4347  0.9534
 6424SOL    HW230909   0.529   1.005   7.129 -0.2746 -0.6873 -1.5552
 6425SOL     OW30910   1.041   4.002   2.115  0.0849 -0.2707 -0.3815
 6425SOL    HW130911   1.067   3.960   2.197 -0.8080 -0.5907 -0.2620
 6425SOL    HW230912   1.071   3.938   2.051 -1.0833 -0.1924 -1.0129
 6426SOL     OW30913   1.393   0.856   4.400  0.3235  0.4020 -0.4174
 6426SOL    HW130914   1.407   0.892   4.487  1.5901 -0.9642 -0.0594
 6426SOL    HW230915   1.313   0.902   4.372 -0.5072 -1.5680 -1.3234
 6427SOL     OW30916   1.944   0.891  11.987 -0.6059 -0.2024 -0.2919
 6427SOL    HW130917   1.974   0.962  12.044 -1.8961 -1.4788  2.0022
 6427SOL    HW230918   1.899   0.838  12.053  0.5261 -1.1718 -0.2830
 6428SOL     OW30919   2.412   2.688   8.891  0.0768  0.0967  0.2559
 6428SOL    HW130920   2.417   2.641   8.807  0.4264 -1.1469  0.9777
 6428SOL    HW230921   2.459   2.624   8.944  1.7155  2.9717  2.2668
 6429SOL     OW30922   3.359   4.520   3.718 -0.4304  0.5559 -0.3964
 6429SOL    HW130923   3.345   4.607   3.754 -0.7117  0.4856 -0.3366
 6429SOL    HW230924   3.375   4.541   3.626  0.2646  1.5850 -0.0417
 6430SOL     OW30925   1.091   4.725  12.779 -0.2035 -0.2231 -0.1846
 6430SOL    HW130926   1.148   0.018  12.850  1.3039 -1.2064 -0.9654
 6430SOL    HW230927   1.143   4.652  12.745  0.1365 -0.5477  1.0408
 6431SOL     OW30928   4.572   4.051   7.415 -0.5336 -0.0147  0.3283
 6431SOL    HW130929   4.627   3.985   7.455  0.7369  0.2816 -0.9246
 6431SOL    HW230930   4.499   4.060   7.476 -1.3161 -0.6913 -0.5006
 6432SOL     OW30931   4.439   2.517   3.309 -0.2167  0.3159 -0.2981
 6432SOL    HW130932   4.377   2.446   3.326 -0.2519  0.4533  0.1586
 6432SOL    HW230933   4.431   2.562   3.394  0.2411 -0.9373  0.4094
 6433SOL     OW30934   3.412   4.134  15.342 -0.5053  0.2701  0.0501
 6433SOL    HW130935   3.400   4.224  15.372 -1.1131 -0.4323  1.9312
 6433SOL    HW230936   3.335   4.095  15.383 -0.2801 -1.2928 -1.0289
 6434SOL     OW30937   2.041   4.486  16.380  0.0078 -0.7011 -0.1336
 6434SOL    HW130938   2.029   4.410  16.437 -0.9742 -0.6536 -0.2739
 6434SOL    HW230939   1.985   4.468  16.305  0.0401 -1.6886  0.0884
 6435SOL     OW30940   3.601   2.003  14.302 -0.0863 -0.0853  0.2405
 6435SOL    HW130941   3.523   2.047  14.335 -0.5770  0.3016 -1.4215
 6435SOL    HW230942   3.659   2.072  14.269 -0.2538  0.0196  0.1706
 6436SOL     OW30943   0.103   0.804   0.408 -0.0804  0.3417  0.7411
 6436SOL    HW130944   0.097   0.750   0.487  0.0828 -1.9151 -0.8106
 6436SOL    HW230945   0.111   0.740   0.338 -0.1985  0.1268  0.9239
 6437SOL     OW30946   1.554   2.226  15.847  0.4202 -0.3509 -0.1055
 6437SOL    HW130947   1.622   2.282  15.811 -0.0340 -0.2049 -0.7408
 6437SOL    HW230948   1.476   2.250  15.797  1.4739  1.2590 -0.9654
 6438SOL     OW30949   4.581   2.821   5.293  0.4688 -0.2538  0.4038
 6438SOL    HW130950   4.545   2.889   5.237 -0.2416 -0.7087  0.3023
 6438SOL    HW230951   4.522   2.829   5.368  1.1912 -2.0611  1.1782
 6439SOL     OW30952   1.941   4.452   4.789 -0.6745 -0.0502 -0.4141
 6439SOL    HW130953   1.957   4.471   4.697  1.7585  1.0706  0.2318
 6439SOL    HW230954   1.944   4.357   4.785 -0.1411  0.0137 -1.6066
 6440SOL     OW30955   2.495   0.634   8.412 -0.1678  0.3467 -0.0922
 6440SOL    HW130956   2.493   0.622   8.507  0.6343 -1.5326 -0.3155
 6440SOL    HW230957   2.577   0.589   8.391 -0.6033 -0.8621  0.7602
 6441SOL     OW30958   2.050   1.041   3.552 -0.3547  0.1299 -0.0346
 6441SOL    HW130959   1.962   1.042   3.589 -0.8578 -2.7168 -1.1126
 6441SOL    HW230960   2.057   0.951   3.520  0.1099  0.0683  0.2340
 6442SOL     OW30961   0.129   0.360   0.270 -0.2659 -0.4300  0.1454
 6442SOL    HW130962   0.039   0.332   0.288 -0.3504  0.8707  1.7548
 6442SOL    HW230963   0.170   0.334   0.353  1.5606 -1.3091 -1.0269
 6443SOL     OW30964   1.012   2.344   8.916  0.3619 -0.3541 -0.4684
 6443SOL    HW130965   0.989   2.390   8.835 -1.6837 -2.9551 -1.3568
 6443SOL    HW230966   0.936   2.289   8.938 -0.3239  0.3223 -1.1202
 6444SOL     OW30967   2.430   3.304   0.052  0.2271 -0.1088 -0.1020
 6444SOL    HW130968   2.437   3.226   0.107 -1.4780  0.2742  0.6569
 6444SOL    HW230969   2.518   3.340   0.058  0.4521 -0.5275 -0.8298
 6445SOL     OW30970   1.509   1.917   2.171  0.1411 -0.4833 -0.0695
 6445SOL    HW130971   1.477   1.999   2.132 -1.3735 -0.1111  1.9249
 6445SOL    HW230972   1.511   1.938   2.264 -0.7582  1.2451 -0.4447
 6446SOL     OW30973   4.079   1.858   9.027 -0.0360  0.1092 -0.0492
 6446SOL    HW130974   4.139   1.929   9.002 -1.8886  1.4493 -0.6708
 6446SOL    HW230975   4.001   1.896   8.987  0.5623  3.6514  2.0829
 6447SOL     OW30976   3.541   1.124   1.768 -0.1272  0.0101  0.1166
 6447SOL    HW130977   3.593   1.052   1.733  1.1710  0.2834  1.4569
 6447SOL    HW230978   3.591   1.129   1.850  0.6523  2.2711 -0.4864
 6448SOL     OW30979   3.942   0.541   4.202 -0.3179 -0.6974 -0.0410
 6448SOL    HW130980   3.976   0.517   4.289  2.6234 -2.3639 -1.6482
 6448SOL    HW230981   3.953   0.636   4.207  2.8525 -1.1307  1.4522
 6449SOL     OW30982   0.311   1.514  14.546 -0.0143 -0.1685 -0.0220
 6449SOL    HW130983   0.216   1.516  14.549  0.0372  1.1293  1.0905
 6449SOL    HW230984   0.330   1.541  14.637  2.1554  0.5863 -0.6892
 6450SOL     OW30985   4.276   4.350   9.711  0.4746  0.7320 -0.4173
 6450SOL    HW130986   4.223   4.315   9.639  1.2497  0.0835 -0.6652
 6450SOL    HW230987   4.356   4.302   9.692  0.4330 -0.3269  2.0235
 6451SOL     OW30988   3.665   3.090  14.805  0.2196 -0.3872 -0.3000
 6451SOL    HW130989   3.688   3.178  14.775  1.3529 -0.7864 -0.5794
 6451SOL    HW230990   3.572   3.107  14.823  0.3339 -0.6376  0.5154
 6452SOL     OW30991   1.646   2.461  14.841  0.5797 -0.3601 -0.2191
 6452SOL    HW130992   1.643   2.523  14.769  1.0124  0.8589  0.8208
 6452SOL    HW230993   1.732   2.490  14.870 -0.9240  2.4823  1.4073
 6453SOL     OW30994   1.630   0.641   1.379  0.1357  0.0731  0.1123
 6453SOL    HW130995   1.646   0.553   1.345 -2.0235 -1.0325  1.8921
 6453SOL    HW230996   1.548   0.632   1.428  0.4958 -0.0495  0.6880
 6454SOL     OW30997   0.565   3.029  15.121  0.0325 -0.1694 -1.2215
 6454SOL    HW130998   0.626   2.956  15.116  0.2104 -0.1683  0.7699
 6454SOL    HW230999   0.513   3.000  15.196  0.7403  2.0900  0.1287
 6455SOL     OW31000   1.603   0.505  12.691 -0.6122 -0.0433  0.3791
 6455SOL    HW131001   1.543   0.445  12.735 -1.5374  0.3524 -0.3428
 6455SOL    HW231002   1.685   0.460  12.709 -1.0063 -1.2476 -0.8351
 6456SOL     OW31003   2.210   1.367   7.313  0.4237 -0.0629  0.1582
 6456SOL    HW131004   2.182   1.315   7.238 -1.4102 -1.3489  1.7148
 6456SOL    HW231005   2.283   1.315   7.349  0.4639 -0.3012 -0.2662
 6457SOL     OW31006   2.549   1.627   6.286 -0.1897  0.6220  0.4065
 6457SOL    HW131007   2.607   1.696   6.318  0.5015  0.1966  0.1002
 6457SOL    HW231008   2.521   1.674   6.207 -3.3311 -2.0518 -0.0605
 6458SOL     OW31009   4.642   1.374   4.028  0.3874  0.1653 -0.2633
 6458SOL    HW131010   4.614   1.309   3.964  2.2778 -0.1713 -0.7476
 6458SOL    HW231011   4.736   1.376   4.010  0.5179 -1.8831  0.1267
 6459SOL     OW31012   4.554   2.802   9.401  0.2189 -0.1979 -0.0919
 6459SOL    HW131013   4.608   2.762   9.469 -0.6304  0.0365  0.7013
 6459SOL    HW231014   4.483   2.738   9.405 -0.4475  0.4914 -0.8255
 6460SOL     OW31015   1.379   3.840   6.348  0.5695  0.0567  0.0044
 6460SOL    HW131016   1.394   3.780   6.421  0.4583 -1.2559 -1.0675
 6460SOL    HW231017   1.313   3.789   6.302 -0.6637 -0.0918  1.9176
 6461SOL     OW31018   0.399   3.188  11.679  0.6243  0.4290 -0.2375
 6461SOL    HW131019   0.468   3.221  11.623 -1.0143  2.3325 -1.1213
 6461SOL    HW231020   0.332   3.241  11.636  0.6419  0.1542 -0.6070
 6462SOL     OW31021   3.624   4.468   0.211  0.7504 -0.2270 -0.0533
 6462SOL    HW131022   3.615   4.537   0.276  0.4851 -0.3814  0.0762
 6462SOL    HW231023   3.532   4.440   0.208  0.8143 -0.1813 -2.5393
 6463SOL     OW31024   2.400   3.427   3.547 -0.6303  0.4248 -0.1414
 6463SOL    HW131025   2.402   3.358   3.613 -0.0406 -0.6533 -1.2769
 6463SOL    HW231026   2.347   3.394   3.474  1.4869 -0.9758 -1.0463
 6464SOL     OW31027   2.711   4.431  13.400 -0.2391 -0.1630 -0.3091
 6464SOL    HW131028   2.722   4.339  13.424  0.3635 -0.0204 -0.0577
 6464SOL    HW231029   2.773   4.472  13.460 -1.6234  0.9643  0.3631
 6465SOL     OW31030   2.624   0.135   6.631  0.1047  0.5465  0.1626
 6465SOL    HW131031   2.693   0.193   6.598 -0.0962  0.1622 -0.9382
 6465SOL    HW231032   2.598   0.086   6.553  0.1856  0.0303  0.4606
 6466SOL     OW31033   3.240   2.364   6.042  0.5204 -0.5831 -0.7457
 6466SOL    HW131034   3.190   2.292   6.080  0.9206 -0.8809 -0.7913
 6466SOL    HW231035   3.251   2.433   6.107 -1.7971 -0.7905 -0.1440
 6467SOL     OW31036   0.924   2.962  13.397  0.2398 -0.2429 -0.0383
 6467SOL    HW131037   0.863   2.903  13.352  1.5692 -2.4652  1.0660
 6467SOL    HW231038   0.891   2.940  13.485  0.2817 -1.1152 -0.2363
 6468SOL     OW31039   3.922   0.323  16.238  0.4487  0.3618 -0.0300
 6468SOL    HW131040   3.881   0.406  16.213 -0.4739  0.9590  3.4300
 6468SOL    HW231041   3.932   0.337  16.332  0.7974  0.6990 -0.1127
 6469SOL     OW31042   0.330   1.571  10.086  0.1373  0.2211  0.1060
 6469SOL    HW131043   0.410   1.591  10.039  0.5305 -0.8101  0.3375
 6469SOL    HW231044   0.322   1.478  10.065 -0.0205  0.3385 -0.3535
 6470SOL     OW31045   4.571   0.893   7.388 -0.0990 -0.3432 -0.3502
 6470SOL    HW131046   4.538   0.895   7.477 -0.5784 -0.5161 -0.5215
 6470SOL    HW231047   4.662   0.865   7.392  0.2833  0.7348 -1.5327
 6471SOL     OW31048   1.949   1.434  14.528 -0.9696  0.0384 -0.0053
 6471SOL    HW131049   1.967   1.360  14.587 -0.6108  2.1916  2.5600
 6471SOL    HW231050   1.854   1.447  14.530 -0.9500 -0.0199  1.6315
 6472SOL     OW31051   1.773   0.153   8.935 -0.5144  0.0643  0.1005
 6472SOL    HW131052   1.726   0.070   8.933 -1.5642  0.6383  1.4636
 6472SOL    HW231053   1.860   0.115   8.917 -0.7116 -0.6600  0.6871
 6473SOL     OW31054   2.469   3.587   4.786  0.0829  0.4139 -0.1973
 6473SOL    HW131055   2.385   3.615   4.822 -0.8281 -0.4079 -1.6625
 6473SOL    HW231056   2.515   3.670   4.799 -1.4655  1.3544 -0.6751
 6474SOL     OW31057   4.702   3.815   3.598 -0.1140 -0.3509  0.0516
 6474SOL    HW131058   4.660   3.747   3.651  1.5080 -0.5913  0.9971
 6474SOL    HW231059   4.678   3.802   3.506 -0.4609  0.6631  0.0017
 6475SOL     OW31060   1.645   0.647   8.203  0.0713 -0.6561 -0.6949
 6475SOL    HW131061   1.707   0.717   8.180 -1.7280  0.7739 -1.2135
 6475SOL    HW231062   1.668   0.575   8.144  0.1090 -0.6330 -0.7085
 6476SOL     OW31063   2.076   2.338   2.834 -0.4376 -0.0792  0.6691
 6476SOL    HW131064   2.004   2.308   2.779  0.1338  0.6862 -0.4979
 6476SOL    HW231065   2.144   2.270   2.826 -0.6066 -0.1426 -0.2055
 6477SOL     OW31066   0.348   1.413  12.300  0.1830 -0.3747  0.1221
 6477SOL    HW131067   0.394   1.413  12.384 -0.1118  1.8685  0.2823
 6477SOL    HW231068   0.404   1.474  12.251 -1.1318  1.9916  1.5666
 6478SOL     OW31069   2.876   0.714  14.129 -0.7960  0.0648  0.2264
 6478SOL    HW131070   2.924   0.661  14.066  0.2319  0.7331  0.4589
 6478SOL    HW231071   2.928   0.710  14.208  0.4238  1.8097 -0.4766
 6479SOL     OW31072   2.553   2.413   7.050  0.1403 -1.0468 -0.8035
 6479SOL    HW131073   2.481   2.398   7.110 -1.2942 -2.6972 -2.9119
 6479SOL    HW231074   2.590   2.325   7.041 -0.4824 -1.4578  0.7918
 6480SOL     OW31075   0.941   0.522  15.243 -0.6051  0.1025  0.3997
 6480SOL    HW131076   1.035   0.526  15.259 -0.7994  0.7020  1.3333
 6480SOL    HW231077   0.903   0.525  15.330 -1.3907  0.2530  0.0534
 6481SOL     OW31078   4.329   0.201  16.677 -0.0331  0.5567  0.2737
 6481SOL    HW131079   4.361   0.115  16.649 -1.1605  0.2614 -0.1342
 6481SOL    HW231080   4.237   0.181  16.660  0.1321  0.1414 -0.1294
 6482SOL     OW31081   4.126   1.151   8.996  0.0383  0.0418  0.2403
 6482SOL    HW131082   4.076   1.205   8.935 -0.7123 -2.6447 -1.4977
 6482SOL    HW231083   4.175   1.218   9.044 -1.4232 -0.0328  1.8314
 6483SOL     OW31084   1.603   1.485   2.707  0.1986 -0.5408  0.2692
 6483SOL    HW131085   1.588   1.443   2.792  3.2135 -1.4358  0.3821
 6483SOL    HW231086   1.677   1.432   2.675 -0.1019 -0.6238 -0.2899
 6484SOL     OW31087   0.020   1.179  12.540  0.3814 -0.1006 -0.0473
 6484SOL    HW131088   0.081   1.106  12.530  2.9825  2.2448 -1.3037
 6484SOL    HW231089   0.081   1.245  12.574 -0.3234  0.5678 -0.0947
 6485SOL     OW31090   3.581   4.222   7.488 -0.0149 -0.4884 -0.2554
 6485SOL    HW131091   3.628   4.306   7.489  1.4048 -1.2546 -1.8697
 6485SOL    HW231092   3.524   4.226   7.564  0.8144  0.4399  0.3312
 6486SOL     OW31093   3.050   0.173   8.943  0.3084  0.1412 -0.3310
 6486SOL    HW131094   2.991   0.112   8.899 -0.2674  0.1846  0.3844
 6486SOL    HW231095   3.013   0.181   9.030 -1.3220 -1.4523 -0.8971
 6487SOL     OW31096   0.142   4.543   7.006 -0.5670 -0.2135  0.0117
 6487SOL    HW131097   0.186   4.623   6.978 -1.0501  0.1329  0.2381
 6487SOL    HW231098   0.107   4.517   6.920 -1.5428  0.6481  0.1401
 6488SOL     OW31099   2.323   1.597   8.633  0.5951 -0.3501 -0.0751
 6488SOL    HW131100   2.354   1.586   8.723 -2.5175  1.0349  1.1854
 6488SOL    HW231101   2.311   1.507   8.603 -0.7048 -0.5122  0.9302
 6489SOL     OW31102   1.462   3.129   2.761  0.6551 -0.3477  0.1474
 6489SOL    HW131103   1.518   3.191   2.808 -1.6245 -0.9206  3.6538
 6489SOL    HW231104   1.490   3.141   2.671 -2.1087  0.2232 -0.6454
 6490SOL     OW31105   2.573   1.639   7.477 -0.0251 -0.7889  0.1124
 6490SOL    HW131106   2.627   1.587   7.418 -0.7996 -2.9260  1.2620
 6490SOL    HW231107   2.553   1.573   7.544  2.0938 -2.1211 -0.5348
 6491SOL     OW31108   0.002   1.966   5.288 -0.1475 -0.8550  0.1980
 6491SOL    HW131109   0.078   1.994   5.340 -0.4269  1.7426 -0.7786
 6491SOL    HW231110   4.722   1.877   5.318  3.1045 -2.4243 -2.6067
 6492SOL     OW31111   0.477   1.486  13.006 -0.1038  0.4086 -0.1199
 6492SOL    HW131112   0.572   1.483  13.017  0.1704 -1.7477 -3.0028
 6492SOL    HW231113   0.474   1.530  12.921 -1.3676  1.2228  0.3466
 6493SOL     OW31114   0.259   1.588   4.374 -0.2245 -0.0453  0.4024
 6493SOL    HW131115   0.231   1.679   4.378 -1.8157 -0.5862  1.2799
 6493SOL    HW231116   0.180   1.535   4.380 -0.0921 -0.2223  0.6017
 6494SOL     OW31117   1.400   1.365   9.496 -0.0095 -0.1870  0.2414
 6494SOL    HW131118   1.405   1.289   9.438  3.0979 -0.0583  0.3375
 6494SOL    HW231119   1.477   1.354   9.552 -0.1988  0.0583  0.5471
 6495SOL     OW31120   4.640   0.329  14.947 -0.4810 -0.1785  0.1682
 6495SOL    HW131121   4.721   0.376  14.968 -0.1861  0.3631 -2.2595
 6495SOL    HW231122   4.634   0.275  15.026 -0.2810 -0.6937 -0.1674
 6496SOL     OW31123   4.337   3.817  14.448  0.0154 -0.2052  0.3029
 6496SOL    HW131124   4.400   3.887  14.434  0.7418 -0.6498  1.3086
 6496SOL    HW231125   4.378   3.752  14.390  1.2570 -2.4288  3.6069
 6497SOL     OW31126   1.656   3.680   3.027 -0.3119  0.3649 -0.4123
 6497SOL    HW131127   1.602   3.758   3.039 -0.1221  0.2547  1.2358
 6497SOL    HW231128   1.681   3.666   3.119 -1.6796 -0.7072 -0.2103
 6498SOL     OW31129   4.449   0.888  16.981 -0.3428 -0.6168  0.1193
 6498SOL    HW131130   4.496   0.829  16.922  2.4588  0.3838  1.3520
 6498SOL    HW231131   4.501   0.966  16.966  0.2769 -1.1918 -0.7609
 6499SOL     OW31132   4.273   1.176   4.912 -0.5001  0.0014 -0.3372
 6499SOL    HW131133   4.197   1.233   4.927  0.2674  1.5841 -2.5201
 6499SOL    HW231134   4.267   1.166   4.817 -0.7462  1.2334 -0.4581
 6500SOL     OW31135   1.374   3.574   3.464 -0.2703  0.4783  0.3737
 6500SOL    HW131136   1.365   3.621   3.547  0.1205 -0.7066  1.0805
 6500SOL    HW231137   1.285   3.579   3.428  0.1541  0.4627 -0.7001
 6501SOL     OW31138   4.673   4.713   3.299 -0.3533  0.4564 -0.4810
 6501SOL    HW131139   4.725   4.633   3.304  0.6424  1.1372 -0.1494
 6501SOL    HW231140   4.706   0.018   3.219  1.2093 -0.3989 -0.2982
 6502SOL     OW31141   2.162   1.200   7.098  0.4169  0.2553 -0.0135
 6502SOL    HW131142   2.196   1.162   7.017  2.0447  1.8445 -0.0845
 6502SOL    HW231143   2.105   1.130   7.132 -0.4110  1.7000  1.5718
 6503SOL     OW31144   0.704   4.132  12.310 -0.0436 -0.4798 -0.2424
 6503SOL    HW131145   0.798   4.149  12.302 -0.4701  1.3931 -1.3370
 6503SOL    HW231146   0.677   4.208  12.362 -1.5241 -0.9675 -0.3059
 6504SOL     OW31147   1.438   0.766   5.837 -0.3422 -0.6625 -0.6227
 6504SOL    HW131148   1.498   0.749   5.765  0.8441 -0.2664  0.2836
 6504SOL    HW231149   1.497   0.773   5.911  1.1175  0.8699 -1.9401
 6505SOL     OW31150   3.166   1.310  12.518  0.2368  0.2974 -0.3180
 6505SOL    HW131151   3.127   1.262  12.446  0.8717 -1.0723  0.2568
 6505SOL    HW231152   3.151   1.401  12.492 -2.9380 -0.7211 -1.9979
 6506SOL     OW31153   0.282   1.656   2.539  0.2713 -0.1519 -0.6883
 6506SOL    HW131154   0.370   1.621   2.526  0.6050  1.7347 -3.3337
 6506SOL    HW231155   0.236   1.573   2.548  0.9178 -0.5537 -1.0987
 6507SOL     OW31156   3.766   4.467   9.341  0.3093 -0.4967 -0.1245
 6507SOL    HW131157   3.674   4.479   9.365  0.4234  1.5260 -0.7327
 6507SOL    HW231158   3.764   4.374   9.316  0.6786 -0.3323 -0.7545
 6508SOL     OW31159   0.907   0.583   9.829  0.9132 -0.0500 -0.6766
 6508SOL    HW131160   0.814   0.562   9.843  1.1263 -0.7603 -0.3545
 6508SOL    HW231161   0.943   0.501   9.861 -0.7568 -1.4339 -2.3104
 6509SOL     OW31162   2.686   0.001   5.865 -0.3185 -0.3418 -0.7654
 6509SOL    HW131163   2.674   4.666   5.926  0.3431 -1.3236 -1.8051
 6509SOL    HW231164   2.618   0.064   5.888 -1.4147 -1.3787 -1.1767
 6510SOL     OW31165   0.636   0.359   3.144  0.2885  0.2137 -0.5219
 6510SOL    HW131166   0.661   0.451   3.137  0.1990  0.4096  1.6397
 6510SOL    HW231167   0.544   0.360   3.171  0.3726  1.6088 -0.2799
 6511SOL     OW31168   2.006   2.430   2.499 -0.2773 -0.3216 -0.4212
 6511SOL    HW131169   2.045   2.355   2.544 -1.7912 -1.1182 -0.4205
 6511SOL    HW231170   1.912   2.412   2.507 -0.4245  1.0349  0.9064
 6512SOL     OW31171   3.165   1.912   7.849  0.2071 -0.1725  0.4505
 6512SOL    HW131172   3.240   1.966   7.876  0.5378  0.0417 -0.8657
 6512SOL    HW231173   3.107   1.953   7.913 -0.8632 -0.8488 -0.0993
 6513SOL     OW31174   4.086   4.354   5.583  0.4081  0.1720 -0.0747
 6513SOL    HW131175   4.133   4.286   5.631 -1.1880  0.3269  1.7343
 6513SOL    HW231176   4.063   4.300   5.507  0.8762 -0.8634  0.5124
 6514SOL     OW31177   3.952   0.380   2.197 -0.4262  0.6080  0.0555
 6514SOL    HW131178   3.892   0.347   2.264  0.0179 -1.2950 -0.4780
 6514SOL    HW231179   3.885   0.399   2.132 -1.4664 -1.6376  0.4718
 6515SOL     OW31180   2.106   2.289   9.271  0.0186 -0.0503  0.7309
 6515SOL    HW131181   2.090   2.362   9.332 -1.1601 -1.1050  1.7015
 6515SOL    HW231182   2.134   2.336   9.193  3.3673 -0.8817  1.4592
 6516SOL     OW31183   1.845   3.443   1.762 -0.0644  0.7216 -0.6185
 6516SOL    HW131184   1.770   3.405   1.807  0.6584  0.1040  0.0857
 6516SOL    HW231185   1.895   3.480   1.835 -3.7592  1.1831  1.6291
 6517SOL     OW31186   2.905   0.175   3.127 -0.1025  0.1479 -0.3016
 6517SOL    HW131187   2.987   0.134   3.155 -1.0760 -1.4356  0.2711
 6517SOL    HW231188   2.836   0.131   3.177  0.1738 -0.0849 -0.1256
 6518SOL     OW31189   2.129   0.206   1.915 -0.4764 -0.1470  0.6429
 6518SOL    HW131190   2.124   0.173   1.825 -0.3651 -0.0769  0.6119
 6518SOL    HW231191   2.054   0.264   1.899 -2.2020 -2.6185 -0.1618
 6519SOL     OW31192   3.647   1.949   0.747  0.6043  0.2644  0.2651
 6519SOL    HW131193   3.657   1.911   0.660  1.6427 -1.1263  0.9986
 6519SOL    HW231194   3.681   1.883   0.808  1.5132 -0.2490 -0.7875
 6520SOL     OW31195   2.700   2.180  13.867 -0.4375  0.0390  0.2174
 6520SOL    HW131196   2.757   2.256  13.856  0.9086 -1.0421 -0.3033
 6520SOL    HW231197   2.625   2.225  13.907 -0.7084  0.2447 -0.5180
 6521SOL     OW31198   0.812   1.185   4.900 -0.1262  0.0418 -0.2182
 6521SOL    HW131199   0.846   1.099   4.878 -1.5496 -0.5792  0.0359
 6521SOL    HW231200   0.894   1.234   4.903  0.1802 -0.6097  1.7663
 6522SOL     OW31201   2.783   4.599  11.383 -0.4768  0.1320  0.2448
 6522SOL    HW131202   2.875   4.619  11.367 -0.7446  0.3260 -1.0462
 6522SOL    HW231203   2.748   4.662  11.320 -1.6171  0.4507  1.2094
 6523SOL     OW31204   4.117   3.982   8.063  0.3481 -0.0983 -0.2670
 6523SOL    HW131205   4.206   3.974   8.031 -0.7175  0.2147 -3.3141
 6523SOL    HW231206   4.109   4.073   8.090 -1.1584  0.1906 -1.6664
 6524SOL     OW31207   0.530   3.173   6.583  1.0007 -0.0713  0.5996
 6524SOL    HW131208   0.457   3.114   6.599 -1.1146  1.7483 -2.3918
 6524SOL    HW231209   0.491   3.254   6.615 -0.5700  0.0779 -1.7014
 6525SOL     OW31210   2.232   2.902   6.598 -0.0843  0.0966  0.0192
 6525SOL    HW131211   2.234   2.994   6.573  0.3091  0.6854  2.2352
 6525SOL    HW231212   2.169   2.903   6.669 -1.1050  0.7859 -0.9039
 6526SOL     OW31213   2.712   0.232   9.279  0.2117 -0.8152 -0.3219
 6526SOL    HW131214   2.640   0.171   9.266  0.5818 -1.1433 -0.8483
 6526SOL    HW231215   2.693   0.300   9.215  0.1278 -1.3088 -0.8209
 6527SOL     OW31216   4.271   3.159   5.178  0.1772  0.1335  0.3149
 6527SOL    HW131217   4.186   3.136   5.216  0.5080 -0.4989  0.6866
 6527SOL    HW231218   4.236   3.201   5.099 -1.9226 -2.2394 -0.0294
 6528SOL     OW31219   2.010   1.016   4.711 -0.1521  0.0674 -0.1744
 6528SOL    HW131220   1.944   1.042   4.647 -0.0048 -0.2574 -0.4612
 6528SOL    HW231221   2.079   1.021   4.644  0.5078  0.4987  0.5358
 6529SOL     OW31222   4.439   1.014   4.255  0.1845 -0.3555  0.0051
 6529SOL    HW131223   4.486   0.947   4.305  1.7401  0.4749 -0.3467
 6529SOL    HW231224   4.496   1.088   4.275  1.9459 -1.6040 -0.4717
 6530SOL     OW31225   0.966   3.225   1.835 -0.4239  0.3481 -0.6566
 6530SOL    HW131226   0.958   3.146   1.888 -2.0543 -0.2987 -1.8551
 6530SOL    HW231227   1.008   3.191   1.757  0.5295 -2.1280  0.9247
 6531SOL     OW31228   1.757   4.111  12.546  0.0091  0.1822  0.1596
 6531SOL    HW131229   1.712   4.194  12.529 -0.3554 -0.1144 -0.2877
 6531SOL    HW231230   1.850   4.133  12.555  0.8260 -3.4309  0.3078
 6532SOL     OW31231   1.582   1.663   4.636 -0.1629  0.2414  0.1274
 6532SOL    HW131232   1.607   1.742   4.684 -1.8848  2.0291 -1.9086
 6532SOL    HW231233   1.630   1.596   4.685  0.7437  2.0049  1.6403
 6533SOL     OW31234   3.519   4.135   3.125 -0.8078 -0.2119  0.3807
 6533SOL    HW131235   3.585   4.173   3.069 -2.0215 -0.3688 -1.1587
 6533SOL    HW231236   3.442   4.126   3.069  0.6955 -1.8240 -1.4254
 6534SOL     OW31237   0.390   0.942   1.083  0.0957  0.0861  0.0030
 6534SOL    HW131238   0.418   0.952   0.992 -2.2861 -3.9420 -1.1485
 6534SOL    HW231239   0.450   1.007   1.121  2.5172 -0.6893 -2.4524
 6535SOL     OW31240   2.321   2.639   6.621  0.2313 -0.4727  0.6804
 6535SOL    HW131241   2.261   2.710   6.597  0.9275  0.1332  0.7532
 6535SOL    HW231242   2.353   2.680   6.701  0.6313 -0.9972  0.7924
 6536SOL     OW31243   0.454   3.162   4.489  0.1298 -0.0893 -0.2700
 6536SOL    HW131244   0.515   3.121   4.550  0.6931  1.8306  0.4627
 6536SOL    HW231245   0.385   3.098   4.505 -1.3097  1.7208  0.8506
 6537SOL     OW31246   2.515   2.549   9.818 -0.1876  0.3138 -0.5656
 6537SOL    HW131247   2.453   2.609   9.857 -0.7957  0.2629 -1.4415
 6537SOL    HW231248   2.592   2.554   9.875 -0.3757  1.1878 -0.3848
 6538SOL     OW31249   4.013   3.966   8.884  0.3741 -0.4079 -0.5139
 6538SOL    HW131250   3.941   4.003   8.935 -1.4203 -1.0593 -2.6023
 6538SOL    HW231251   4.012   4.030   8.813  1.9143  2.0663  1.6744
 6539SOL     OW31252   2.024   1.498   5.700  0.0120 -0.4639  0.7651
 6539SOL    HW131253   1.938   1.470   5.731  0.2517 -0.9644  0.9922
 6539SOL    HW231254   2.039   1.436   5.629 -2.1985  1.7111 -1.5684
 6540SOL     OW31255   3.410   0.721   1.713  0.0112 -0.2965  0.2266
 6540SOL    HW131256   3.365   0.721   1.798  2.0810  1.6427  1.3255
 6540SOL    HW231257   3.398   0.629   1.688  1.2245 -0.5519  0.6069
 6541SOL     OW31258   3.778   4.038   6.758  0.2801 -0.0437 -0.1302
 6541SOL    HW131259   3.694   3.995   6.745  0.3368  0.2170 -1.3465
 6541SOL    HW231260   3.830   3.982   6.817  0.6368  1.3284  0.8674
 6542SOL     OW31261   0.960   0.864  14.664 -0.4472 -0.4858  0.1655
 6542SOL    HW131262   0.896   0.875  14.593 -0.7939  0.6875  0.6683
 6542SOL    HW231263   1.012   0.943  14.651 -0.1290 -0.6938  0.1646
 6543SOL     OW31264   3.270   1.195   4.609  0.0485 -0.5301 -0.5798
 6543SOL    HW131265   3.217   1.217   4.532  2.0612 -0.0931 -1.8441
 6543SOL    HW231266   3.234   1.254   4.675 -0.8060  0.9284 -2.3360
 6544SOL     OW31267   1.230   2.872   3.357  1.1187  0.5521  0.1732
 6544SOL    HW131268   1.238   2.915   3.272  1.6608 -2.0476 -1.0898
 6544SOL    HW231269   1.193   2.787   3.332  0.0535  0.5469  1.7723
 6545SOL     OW31270   1.682   2.590   0.496  0.0299  0.5436 -0.5740
 6545SOL    HW131271   1.623   2.665   0.486 -0.0713  0.2832 -1.9587
 6545SOL    HW231272   1.616   2.522   0.511  1.9576 -1.5653 -1.7023
 6546SOL     OW31273   2.867   1.585   1.640  0.5009  0.6269  0.0201
 6546SOL    HW131274   2.828   1.517   1.586 -0.3041  0.6732  0.5500
 6546SOL    HW231275   2.916   1.536   1.705  1.0718  0.9987 -0.1291
 6547SOL     OW31276   0.976   2.666  15.206  0.8114 -0.3020  0.2598
 6547SOL    HW131277   0.974   2.601  15.276  1.2197 -0.0129  0.5375
 6547SOL    HW231278   0.989   2.612  15.128  2.6263 -0.3850  0.6064
 6548SOL     OW31279   2.107   2.947   2.581 -0.2160 -0.4369  0.3477
 6548SOL    HW131280   2.184   2.919   2.631  0.7062 -0.2414 -0.9881
 6548SOL    HW231281   2.048   2.872   2.571 -1.1209  0.4811 -1.3326
 6549SOL     OW31282   0.484   2.422   3.996 -0.5357  0.5635 -0.0049
 6549SOL    HW131283   0.518   2.339   3.962 -1.2700 -1.0866  3.2761
 6549SOL    HW231284   0.536   2.431   4.076  0.2745 -1.5332 -0.2879
 6550SOL     OW31285   3.434   3.276   2.788  0.4368 -0.1880 -0.0452
 6550SOL    HW131286   3.520   3.287   2.827 -0.1402 -0.3585  1.2780
 6550SOL    HW231287   3.424   3.181   2.781  0.6391 -0.2733  0.9237
 6551SOL     OW31288   2.890   4.201   7.153  0.0638  0.1871 -0.1889
 6551SOL    HW131289   2.828   4.145   7.200  0.5901 -3.3546 -3.8170
 6551SOL    HW231290   2.848   4.287   7.155  0.7498  0.4836  1.9161
 6552SOL     OW31291   1.999   0.213  11.640 -0.2075  0.3027  0.3859
 6552SOL    HW131292   2.090   0.241  11.650 -0.9422  2.1945  1.9139
 6552SOL    HW231293   1.952   0.297  11.644  0.5214  0.7019  0.5906
 6553SOL     OW31294   0.767   0.442   5.832 -0.1241 -0.2389  1.0849
 6553SOL    HW131295   0.690   0.486   5.796 -0.1840 -0.6261  0.7336
 6553SOL    HW231296   0.832   0.440   5.762 -0.3111  0.3301  0.8972
 6554SOL     OW31297   3.961   1.963   7.079 -0.4924 -0.7453 -0.1713
 6554SOL    HW131298   3.933   2.044   7.036 -0.2187 -1.1964 -1.1912
 6554SOL    HW231299   3.885   1.907   7.062  0.3308 -2.2033  0.9206
 6555SOL     OW31300   1.881   3.726   4.168  0.1425 -0.0866 -0.4352
 6555SOL    HW131301   1.800   3.772   4.191  0.8910  0.5381  0.9686
 6555SOL    HW231302   1.849   3.656   4.111 -1.1574  0.8808 -0.8784
 6556SOL     OW31303   1.236   2.022   6.937  0.2594  0.0028  0.3488
 6556SOL    HW131304   1.275   2.072   6.865 -1.6515  0.8491 -0.1031
 6556SOL    HW231305   1.291   2.052   7.010  0.7798  1.2012 -0.5271
 6557SOL     OW31306   0.407   2.956   6.024  0.0135 -0.2832  0.2740
 6557SOL    HW131307   0.502   2.957   6.032  0.0523  0.7785 -0.3456
 6557SOL    HW231308   0.386   3.023   6.089  0.2624 -1.0635  1.1562
 6558SOL     OW31309   1.015   3.731  11.210 -0.1585 -0.0373  0.5291
 6558SOL    HW131310   1.004   3.826  11.216 -1.2149 -0.1404  0.1306
 6558SOL    HW231311   0.923   3.709  11.196 -0.3266  0.9164  0.1589
 6559SOL     OW31312   4.397   0.776   8.656 -0.1094  0.3086  0.4031
 6559SOL    HW131313   4.316   0.729   8.676 -0.2190  0.2549 -0.1499
 6559SOL    HW231314   4.386   0.864   8.693 -0.1791 -0.2180  1.6139
 6560SOL     OW31315   0.992   0.255   7.605  0.4655 -0.0761 -0.0184
 6560SOL    HW131316   0.971   0.289   7.692  2.3432  2.2102 -0.4481
 6560SOL    HW231317   0.903   0.240   7.573  0.6654 -0.6259 -0.3121
 6561SOL     OW31318   3.683   1.865   4.496  0.2710 -0.3539 -0.1353
 6561SOL    HW131319   3.623   1.928   4.456  2.2347  1.0686 -0.8505
 6561SOL    HW231320   3.648   1.780   4.472 -1.3584  0.0129  0.9437
 6562SOL     OW31321   1.284   3.826   1.491 -0.3859 -0.1495  0.6597
 6562SOL    HW131322   1.284   3.734   1.517 -2.6545  0.3620  2.4773
 6562SOL    HW231323   1.239   3.810   1.408 -0.4774 -3.3928  1.3149
 6563SOL     OW31324   2.154   3.338   0.614 -0.0758  0.5593  0.2837
 6563SOL    HW131325   2.220   3.359   0.548 -0.7825  0.4272 -0.4717
 6563SOL    HW231326   2.216   3.284   0.663 -0.6996  0.0723  0.5396
 6564SOL     OW31327   1.330   4.520  17.500 -0.3735 -0.0585 -0.2130
 6564SOL    HW131328   1.350   4.471  17.420 -0.9153  0.7405 -0.8477
 6564SOL    HW231329   1.418   4.548  17.526  0.5528  0.7446 -4.0721
 6565SOL     OW31330   0.205   3.318   4.694  0.2768 -0.0393  0.5428
 6565SOL    HW131331   0.292   3.279   4.702  0.3209  0.2806  1.6292
 6565SOL    HW231332   0.230   3.394   4.642 -1.8324 -1.0377 -1.8978
 6566SOL     OW31333   2.828   1.937   1.732 -0.5289  0.7831 -0.4594
 6566SOL    HW131334   2.908   1.958   1.683 -0.8408  1.3333 -0.7366
 6566SOL    HW231335   2.762   1.947   1.664  2.3197  0.3110 -3.2569
 6567SOL     OW31336   1.098   3.315   3.840  0.3280 -0.2261  0.1193
 6567SOL    HW131337   1.128   3.398   3.805 -0.6753 -0.6996 -1.8706
 6567SOL    HW231338   1.153   3.294   3.915  0.7008  1.4184  0.2904
 6568SOL     OW31339   1.539   2.650   5.876  0.8174 -0.5626 -0.6256
 6568SOL    HW131340   1.487   2.573   5.853 -3.1652  2.8489 -2.8958
 6568SOL    HW231341   1.612   2.614   5.927  0.3510 -1.8980 -0.9003
 6569SOL     OW31342   3.903   2.708   4.113 -0.3582 -0.1584  0.2176
 6569SOL    HW131343   3.988   2.711   4.156  0.2710  1.4835 -1.1462
 6569SOL    HW231344   3.853   2.649   4.169  1.2352 -0.9828  0.7707
 6570SOL     OW31345   4.194   0.178  17.119  0.3425 -1.0576  0.1746
 6570SOL    HW131346   4.129   0.198  17.052  3.6285  2.6370 -1.9008
 6570SOL    HW231347   4.214   0.264  17.155 -0.1374 -1.0383  0.3914
 6571SOL     OW31348   2.933   0.359   8.770 -0.1146 -0.6385  0.0888
 6571SOL    HW131349   2.902   0.312   8.693  0.3679 -1.3727  0.3484
 6571SOL    HW231350   2.989   0.296   8.814 -1.0173 -0.0048  2.1352
 6572SOL     OW31351   2.935   3.033  10.824 -0.2950 -0.2351  0.2039
 6572SOL    HW131352   2.878   3.084  10.880 -0.8218 -1.4134  0.7386
 6572SOL    HW231353   2.897   2.946  10.832 -0.0037 -0.2386  1.5095
 6573SOL     OW31354   2.159   2.009   7.241 -0.0118 -0.3953  0.0816
 6573SOL    HW131355   2.237   1.959   7.218  1.1415  0.5702  1.9068
 6573SOL    HW231356   2.148   2.068   7.167 -1.5756 -0.4635  0.2595
 6574SOL     OW31357   2.768   0.555   0.644 -0.2859 -0.2188 -0.2848
 6574SOL    HW131358   2.729   0.516   0.721  2.9132  2.5919  2.7497
 6574SOL    HW231359   2.846   0.596   0.681  0.2032 -1.3455 -0.0691
 6575SOL     OW31360   3.909   3.967   6.430  0.5536 -0.2051  0.0697
 6575SOL    HW131361   3.928   4.059   6.452 -5.8042  0.6536  1.9468
 6575SOL    HW231362   3.891   3.976   6.337 -2.9693 -0.0237  0.7451
 6576SOL     OW31363   2.851   2.575  15.637 -0.5260 -0.1292 -0.1696
 6576SOL    HW131364   2.807   2.626  15.570  0.7259  1.5373  0.2611
 6576SOL    HW231365   2.940   2.583  15.602 -0.3540  2.5205  0.8933
 6577SOL     OW31366   2.440   1.672   9.965  0.1235 -0.0926 -0.2824
 6577SOL    HW131367   2.354   1.680   9.924 -0.7857 -1.7864  1.2687
 6577SOL    HW231368   2.472   1.598   9.913  0.7604  0.5787 -0.8447
 6578SOL     OW31369   1.371   0.994   9.157  0.3493 -0.0479 -0.4529
 6578SOL    HW131370   1.287   1.028   9.128  0.0541 -0.5752 -0.2145
 6578SOL    HW231371   1.363   1.026   9.247  1.5420  0.6404 -0.5961
 6579SOL     OW31372   4.024   1.942   4.249 -0.5535  0.0983 -0.3434
 6579SOL    HW131373   4.010   2.024   4.297 -0.2258 -0.2305  0.3107
 6579SOL    HW231374   3.960   1.943   4.178  0.4032 -1.8311 -1.2402
 6580SOL     OW31375   1.799   2.417   6.080  0.2893 -0.0776 -0.2803
 6580SOL    HW131376   1.876   2.381   6.123  1.1395  2.3560  0.2244
 6580SOL    HW231377   1.746   2.337   6.069 -2.7408  1.5799  2.1927
 6581SOL     OW31378   3.498   0.741   7.952 -0.7458 -0.1418 -0.2647
 6581SOL    HW131379   3.406   0.726   7.932 -1.2135  2.0421  0.2411
 6581SOL    HW231380   3.512   0.811   7.889  0.0350 -0.2429 -0.2086
 6582SOL     OW31381   0.052   1.183   8.629  0.3611 -0.3380  0.3304
 6582SOL    HW131382   0.012   1.175   8.542  0.5767  4.3875 -0.2271
 6582SOL    HW231383   4.736   1.259   8.652 -0.2997 -0.9879  0.9548
 6583SOL     OW31384   3.592   0.519   4.495  0.6037  0.0140  0.1948
 6583SOL    HW131385   3.507   0.560   4.481  1.4033  1.2171 -1.1014
 6583SOL    HW231386   3.604   0.490   4.405  0.7064 -2.7061  1.0792
 6584SOL     OW31387   4.181   1.738   6.165 -0.0272  0.4587 -0.5795
 6584SOL    HW131388   4.183   1.809   6.229  0.2276 -1.3421  1.3927
 6584SOL    HW231389   4.162   1.779   6.080  1.1510  2.7162  0.2479
 6585SOL     OW31390   1.713   1.759   8.921 -0.9593 -0.2963  0.4052
 6585SOL    HW131391   1.689   1.850   8.909  2.0553  0.6265  1.4290
 6585SOL    HW231392   1.685   1.724   8.837  3.9494 -0.6829 -1.0690
 6586SOL     OW31393   0.362   0.065   7.313 -0.1807 -0.3617 -0.8094
 6586SOL    HW131394   0.301   0.104   7.375 -0.6335 -0.0073 -1.4841
 6586SOL    HW231395   0.341   4.710   7.323  1.4986 -0.5694  0.7489
 6587SOL     OW31396   2.547   2.597   8.644  0.1232  0.5775  0.0519
 6587SOL    HW131397   2.528   2.669   8.585 -2.5352  1.5337  2.0747
 6587SOL    HW231398   2.628   2.630   8.683 -0.4991 -1.2049  2.8694
 6588SOL     OW31399   0.804   3.311   2.603 -0.5204  0.3265  0.2140
 6588SOL    HW131400   0.870   3.307   2.672  1.2324 -0.6809 -1.4987
 6588SOL    HW231401   0.847   3.374   2.545 -1.3309  1.4881  0.8825
 6589SOL     OW31402   1.889   4.413   0.183 -0.1472 -0.1870 -0.0144
 6589SOL    HW131403   1.906   4.420   0.277 -0.9265 -0.9877  0.1883
 6589SOL    HW231404   1.827   4.341   0.175 -1.3684  0.8369  0.3811
 6590SOL     OW31405   3.739   1.063   9.200  0.2136  0.1369 -0.2692
 6590SOL    HW131406   3.801   1.117   9.150  0.7201  1.6310  2.0215
 6590SOL    HW231407   3.749   1.082   9.293  1.8394 -0.2431 -0.3489
 6591SOL     OW31408   4.526   3.715   5.576 -0.1275  0.2806 -0.3022
 6591SOL    HW131409   4.528   3.708   5.672 -0.9441  1.6215 -0.1838
 6591SOL    HW231410   4.466   3.789   5.570 -0.0753  0.4176  0.8633
 6592SOL     OW31411   3.881   0.467   0.701  0.4235 -0.1090  0.1264
 6592SOL    HW131412   3.836   0.531   0.757 -0.6038 -1.4929  0.8990
 6592SOL    HW231413   3.902   0.397   0.764 -0.3748 -0.6916 -0.2611
 6593SOL     OW31414   2.220   2.888   6.323 -0.0196  0.0100 -0.0826
 6593SOL    HW131415   2.137   2.933   6.333 -1.7276 -2.9223 -0.8558
 6593SOL    HW231416   2.246   2.881   6.415 -0.7063  0.6659  0.1550
 6594SOL     OW31417   4.313   0.494   4.895  0.3593  0.5753  0.1358
 6594SOL    HW131418   4.385   0.508   4.957  0.1256 -0.7543  0.7293
 6594SOL    HW231419   4.252   0.553   4.939  1.3049  2.3236 -0.8950
 6595SOL     OW31420   3.516   0.142   3.884  0.3919  0.2183 -0.1450
 6595SOL    HW131421   3.561   0.068   3.843 -0.6308 -0.6958  0.4034
 6595SOL    HW231422   3.544   0.134   3.975 -0.7117 -0.6452  0.1206
 6596SOL     OW31423   0.370   0.487   7.242  0.9311  0.4900 -0.1118
 6596SOL    HW131424   0.445   0.476   7.183  1.5553  1.0403  0.5737
 6596SOL    HW231425   0.413   0.534   7.314 -1.7586  1.8663  0.5748
 6597SOL     OW31426   4.430   0.578   6.961 -0.2473 -0.0059  0.0161
 6597SOL    HW131427   4.488   0.559   6.887 -0.2484  0.2363 -0.0482
 6597SOL    HW231428   4.493   0.608   7.027  0.2296 -0.9433 -0.0105
 6598SOL     OW31429   4.388   0.457  12.570  0.1584  0.2213  0.1521
 6598SOL    HW131430   4.476   0.485  12.543  1.9884 -5.2231  0.4687
 6598SOL    HW231431   4.385   0.363  12.552  1.1738  0.0596  0.7624
 6599SOL     OW31432   2.877   3.455   6.397  0.5768 -0.2278  0.2190
 6599SOL    HW131433   2.888   3.368   6.359 -1.2742  0.8966 -2.8656
 6599SOL    HW231434   2.906   3.508   6.324  2.0805 -0.1765  0.8539
 6600SOL     OW31435   2.529   2.406   6.073  0.1006 -0.0829 -0.1145
 6600SOL    HW131436   2.543   2.323   6.118 -0.1639  1.9014  3.6214
 6600SOL    HW231437   2.620   2.434   6.069  0.5101 -1.0835  2.2053
 6601SOL     OW31438   2.866   0.423   5.031 -0.1099 -0.5940 -0.0482
 6601SOL    HW131439   2.952   0.449   4.998 -0.1837 -1.2894 -0.7655
 6601SOL    HW231440   2.892   0.359   5.097 -2.4015 -1.1605  0.3110
 6602SOL     OW31441   1.271   2.767   1.460  0.3494 -0.0057 -0.0289
 6602SOL    HW131442   1.177   2.767   1.476  0.1639  0.4959 -1.1268
 6602SOL    HW231443   1.274   2.771   1.364 -0.0167  0.0332 -0.0361
 6603SOL     OW31444   4.702   2.885   6.850  0.1244  0.2157 -0.5259
 6603SOL    HW131445   4.670   2.975   6.846 -1.9619 -0.4612  1.6538
 6603SOL    HW231446   4.629   2.847   6.898  0.9295  0.3576  0.8108
 6604SOL     OW31447   2.482   0.683   6.872  0.1046 -0.0343 -0.0727
 6604SOL    HW131448   2.414   0.684   6.939 -0.8513  0.0100 -1.0329
 6604SOL    HW231449   2.504   0.590   6.876 -1.1777 -0.3431 -0.2508
 6605SOL     OW31450   1.766   2.675   2.743  0.3577 -0.3528  0.3931
 6605SOL    HW131451   1.808   2.603   2.790  1.8280 -0.0258 -0.3925
 6605SOL    HW231452   1.742   2.727   2.819  1.7607 -1.0798  1.3521
 6606SOL     OW31453   1.660   4.335   4.408  0.2190  0.0614  0.1069
 6606SOL    HW131454   1.745   4.313   4.370  0.9626  2.9432  0.1092
 6606SOL    HW231455   1.600   4.284   4.354 -0.0822 -0.1490  0.6360
 6607SOL     OW31456   3.503   3.282  14.987 -0.3669  0.0229  0.4788
 6607SOL    HW131457   3.428   3.223  14.989 -2.5659  2.7829 -0.0883
 6607SOL    HW231458   3.464   3.362  14.951 -3.8005 -1.6506  0.4735
 6608SOL     OW31459   2.150   0.524  14.087  0.3451  0.2351  0.3039
 6608SOL    HW131460   2.165   0.435  14.054 -0.9713 -0.9753  2.9468
 6608SOL    HW231461   2.233   0.553  14.124  0.0779 -0.0072  1.1037
 6609SOL     OW31462   3.382   1.538   6.932 -0.3024 -0.1429 -0.2851
 6609SOL    HW131463   3.431   1.557   7.012  1.3134  0.7086 -1.4724
 6609SOL    HW231464   3.316   1.477   6.964 -1.5629  1.7926  0.8269
 6610SOL     OW31465   2.280   1.606   7.141 -0.1285 -0.0019 -0.3432
 6610SOL    HW131466   2.261   1.554   7.219  2.1655 -0.1679  0.1234
 6610SOL    HW231467   2.343   1.545   7.102  1.7390  0.1723  2.3814
 6611SOL     OW31468   1.152   3.578   9.318 -0.1012  0.2598 -0.0884
 6611SOL    HW131469   1.118   3.573   9.229 -0.3544 -0.1993  0.0323
 6611SOL    HW231470   1.072   3.570   9.370 -0.7176  1.4018 -0.8471
 6612SOL     OW31471   3.288   0.725   0.484  0.2434 -0.5333  0.5197
 6612SOL    HW131472   3.331   0.777   0.551 -1.0653 -0.3732  1.2342
 6612SOL    HW231473   3.301   0.786   0.411 -1.0538 -0.8950 -0.0163
 6613SOL     OW31474   3.791   3.518   7.191  0.2727  0.1831 -0.1869
 6613SOL    HW131475   3.851   3.511   7.266  4.3330 -0.0893 -3.4422
 6613SOL    HW231476   3.759   3.608   7.196 -0.3274 -0.0295 -0.2713
 6614SOL     OW31477   3.895   1.881   7.725 -0.1658 -0.2227  0.4304
 6614SOL    HW131478   3.819   1.874   7.669 -1.4434 -0.2891  2.1647
 6614SOL    HW231479   3.862   1.914   7.809  2.5297  1.0153  1.0046
 6615SOL     OW31480   3.415   1.831   8.902  0.1091 -0.0899  0.3931
 6615SOL    HW131481   3.425   1.744   8.864 -0.5043 -0.1742  0.4169
 6615SOL    HW231482   3.507   1.853   8.915 -0.1586  2.0788 -1.4636
 6616SOL     OW31483   0.421   0.277   2.166 -0.4810  0.1871 -0.3173
 6616SOL    HW131484   0.377   0.269   2.081 -1.0045  0.2416 -0.0554
 6616SOL    HW231485   0.453   0.187   2.169 -0.9969  0.0992  2.0900
 6617SOL     OW31486   0.636   3.977   8.003 -0.5062  0.5345  0.2099
 6617SOL    HW131487   0.563   3.916   8.018  0.0051 -0.8822 -2.9243
 6617SOL    HW231488   0.592   4.061   8.015  0.2483  1.3820 -2.8895
 6618SOL     OW31489   1.449   0.609  13.128 -0.0707  0.2293 -0.4696
 6618SOL    HW131490   1.361   0.633  13.154  0.3699 -0.0081  1.2231
 6618SOL    HW231491   1.453   0.516  13.148  0.0311  0.5654  1.0248
 6619SOL     OW31492   0.326   0.835   2.273 -0.6823  0.3272  0.0330
 6619SOL    HW131493   0.399   0.842   2.334 -0.3859 -0.8934 -0.1679
 6619SOL    HW231494   0.263   0.848   2.344 -0.5865  2.4952 -0.2902
 6620SOL     OW31495   3.627   3.691   2.154  0.3218 -0.8806 -0.6365
 6620SOL    HW131496   3.686   3.663   2.224  0.8411  0.3088 -0.5988
 6620SOL    HW231497   3.646   3.622   2.091  0.0227  0.0032 -1.7162
 6621SOL     OW31498   2.129   0.949   1.705 -0.1841  0.1299  0.2752
 6621SOL    HW131499   2.207   0.943   1.651  0.0108 -2.8870  0.8529
 6621SOL    HW231500   2.137   0.878   1.770  0.2076 -2.1808 -2.2987
 6622SOL     OW31501   2.762   2.414   9.970 -0.1031  0.9816  0.3401
 6622SOL    HW131502   2.826   2.370   9.914 -1.8915 -0.3686 -0.6523
 6622SOL    HW231503   2.707   2.339   9.995 -1.3639  2.3968  1.8138
 6623SOL     OW31504   0.400   1.738   9.175  0.3972 -0.7675  0.1261
 6623SOL    HW131505   0.472   1.678   9.192  0.6730 -0.5045 -0.1036
 6623SOL    HW231506   0.420   1.754   9.083 -2.8243  1.4677 -0.1852
 6624SOL     OW31507   3.270   1.336   7.145 -0.4638 -0.2618  0.5027
 6624SOL    HW131508   3.339   1.277   7.116 -0.4080 -0.1615  0.4351
 6624SOL    HW231509   3.185   1.309   7.110 -2.3797  3.3729  2.3249
 6625SOL     OW31510   4.427   2.262  14.620  0.3142 -0.3494  0.1497
 6625SOL    HW131511   4.448   2.344  14.575  0.3935 -0.5275 -0.1412
 6625SOL    HW231512   4.357   2.233  14.562 -2.1470  0.1419  2.8649
 6626SOL     OW31513   2.359   1.479   8.181 -0.3025  0.0520  0.2110
 6626SOL    HW131514   2.384   1.396   8.141 -0.4994 -0.8233  1.9279
 6626SOL    HW231515   2.275   1.494   8.138 -1.2553 -0.7469  1.8155
 6627SOL     OW31516   0.815   2.954   9.847  0.1856 -0.6931 -0.0527
 6627SOL    HW131517   0.879   2.912   9.905  2.1996  0.5308 -1.3674
 6627SOL    HW231518   0.742   2.963   9.908  1.7234 -1.9635  2.0045
 6628SOL     OW31519   2.636   0.376  16.449  0.1097  0.3141  0.3765
 6628SOL    HW131520   2.546   0.403  16.432 -0.5094 -1.3534  1.0377
 6628SOL    HW231521   2.690   0.447  16.414  0.3411  0.2146  0.5339
 6629SOL     OW31522   4.100   4.059  12.610  0.2125 -0.0729  0.3826
 6629SOL    HW131523   4.177   4.022  12.651 -0.1398  0.8552  1.8958
 6629SOL    HW231524   4.130   4.139  12.567 -0.1479 -0.4308 -0.5353
 6630SOL     OW31525   0.067   2.943  17.330 -1.0877 -0.4250  0.0745
 6630SOL    HW131526   0.163   2.946  17.329 -1.0560 -0.8378  1.9181
 6630SOL    HW231527   0.046   3.034  17.354 -2.0448 -1.4874  3.3060
 6631SOL     OW31528   3.036   1.990  12.471 -0.1394 -0.4436  0.4071
 6631SOL    HW131529   3.052   2.084  12.460 -3.3002  0.1761  1.2298
 6631SOL    HW231530   3.120   1.978  12.516  0.0948 -0.6855 -0.0910
 6632SOL     OW31531   2.805   1.107   1.689 -0.0965 -0.1145 -0.1244
 6632SOL    HW131532   2.740   1.177   1.697  0.0151 -0.1384  0.9562
 6632SOL    HW231533   2.834   1.087   1.778  0.0318 -1.4639 -0.4752
 6633SOL     OW31534   0.225   0.182  12.317 -0.4483  0.3911  0.2815
 6633SOL    HW131535   0.289   0.111  12.316  2.5212  3.0701 -0.0772
 6633SOL    HW231536   0.158   0.150  12.257 -0.0667 -1.3094  0.7573
 6634SOL     OW31537   3.247   4.326   6.701  0.0643 -0.4223 -0.0060
 6634SOL    HW131538   3.335   4.352   6.727 -0.1640  1.8282 -1.4992
 6634SOL    HW231539   3.203   4.344   6.784  0.2939 -0.7266  0.1832
 6635SOL     OW31540   0.607   0.292   0.980 -0.0155  0.2464  0.1858
 6635SOL    HW131541   0.511   0.301   0.976 -0.0845 -0.7477 -0.3293
 6635SOL    HW231542   0.619   0.260   1.069 -0.4297  1.4015  0.6539
 6636SOL     OW31543   0.091   3.952  10.956 -0.1686  0.1166  0.0072
 6636SOL    HW131544   0.018   3.898  10.924  1.2942 -1.0293 -1.3672
 6636SOL    HW231545   0.159   3.924  10.896  1.7911  1.9682  1.3653
 6637SOL     OW31546   0.432   4.093   2.823  0.0522  0.0131  0.0948
 6637SOL    HW131547   0.387   4.081   2.739  0.6986  0.3567 -0.2988
 6637SOL    HW231548   0.517   4.108   2.782 -0.0921  2.6523  0.8003
 6638SOL     OW31549   2.447   0.557  16.662  0.2921 -0.5901  0.4366
 6638SOL    HW131550   2.481   0.626  16.605  2.0800 -1.1601  0.8176
 6638SOL    HW231551   2.413   0.489  16.604  2.5074 -0.8962 -0.4966
 6639SOL     OW31552   3.312   2.720  12.082 -0.1192 -0.5670 -0.5970
 6639SOL    HW131553   3.254   2.774  12.136  1.4465  1.5873 -1.0614
 6639SOL    HW231554   3.314   2.642  12.136 -1.9812  0.6671  1.2888
 6640SOL     OW31555   3.719   3.325  15.239 -0.5623  0.1872 -0.2910
 6640SOL    HW131556   3.678   3.333  15.325 -1.6719 -0.6249 -0.7512
 6640SOL    HW231557   3.657   3.363  15.176 -0.7328 -1.3935 -1.0661
 6641SOL     OW31558   0.823   0.067  14.271  0.4241 -0.1841 -0.5498
 6641SOL    HW131559   0.737   0.055  14.312  0.1990  1.5071 -0.5260
 6641SOL    HW231560   0.849   4.713  14.261  0.8825  0.0040 -1.0539
 6642SOL     OW31561   3.071   1.365  11.297 -0.0973  0.3754 -0.1576
 6642SOL    HW131562   2.976   1.359  11.306 -0.1773 -0.6173 -1.5569
 6642SOL    HW231563   3.089   1.409  11.380 -0.5017  1.2100 -0.5078
 6643SOL     OW31564   2.711   2.596   3.678 -0.3888  0.4793  0.3741
 6643SOL    HW131565   2.807   2.598   3.682 -0.2687 -1.9080 -0.8917
 6643SOL    HW231566   2.702   2.501   3.671 -0.7849  0.5744 -0.3737
 6644SOL     OW31567   3.404   2.942   8.689  0.5664 -0.0334 -0.1401
 6644SOL    HW131568   3.391   3.034   8.664  1.3184  0.5433  1.5964
 6644SOL    HW231569   3.420   2.946   8.783 -3.7225 -2.1238  0.6764
 6645SOL     OW31570   0.665   0.513  12.870  0.0610  0.3357  0.1394
 6645SOL    HW131571   0.706   0.536  12.787  0.2765  0.7426  0.3590
 6645SOL    HW231572   0.646   0.419  12.869 -1.0894  0.5707 -0.8324
 6646SOL     OW31573   0.355   3.751   7.693 -0.5257  0.1400 -0.0420
 6646SOL    HW131574   0.270   3.795   7.697  0.8836  2.8665 -0.1210
 6646SOL    HW231575   0.388   3.777   7.607 -0.7512 -0.6830 -0.3838
 6647SOL     OW31576   1.818   1.621  12.729  0.8178 -0.0010 -0.6000
 6647SOL    HW131577   1.771   1.704  12.736  1.9509  0.5480  0.3577
 6647SOL    HW231578   1.769   1.570  12.793 -0.6801  1.6967 -0.4039
 6648SOL     OW31579   1.480   1.380   4.420 -0.6075  0.5780  0.3963
 6648SOL    HW131580   1.413   1.434   4.460  0.7079  2.6740 -0.2172
 6648SOL    HW231581   1.553   1.391   4.481  0.3138  1.9459 -0.9256
 6649SOL     OW31582   2.122   2.858   3.883  0.0675  0.6970 -0.1884
 6649SOL    HW131583   2.130   2.766   3.860 -0.3892  0.2861  1.3142
 6649SOL    HW231584   2.046   2.854   3.940  0.5250 -1.6929  0.2390
 6650SOL     OW31585   0.177   3.383   9.570 -0.1670 -0.3030 -0.1085
 6650SOL    HW131586   0.228   3.390   9.650  1.4002  1.3604 -1.2512
 6650SOL    HW231587   0.142   3.295   9.581  0.9403 -0.3969  2.6831
 6651SOL     OW31588   4.431   1.820   8.040  0.2294  0.2710  0.5946
 6651SOL    HW131589   4.458   1.814   8.132 -2.0115  0.0080  1.2295
 6651SOL    HW231590   4.511   1.865   8.014 -0.4689  0.6907 -0.8259
 6652SOL     OW31591   0.769   1.419   8.511 -0.0372  0.2368  0.0347
 6652SOL    HW131592   0.767   1.388   8.602 -0.8318 -0.5594 -0.2460
 6652SOL    HW231593   0.832   1.356   8.476  1.0667  1.9418 -1.0373
 6653SOL     OW31594   3.700   1.579   3.648 -0.1168  0.1772  0.6578
 6653SOL    HW131595   3.612   1.561   3.618  0.7371  1.0121 -2.3417
 6653SOL    HW231596   3.689   1.674   3.639 -2.4745 -0.3772 -2.2629
 6654SOL     OW31597   3.106   1.444   0.425 -0.0154  0.0527 -1.0026
 6654SOL    HW131598   3.052   1.514   0.464  0.1138 -1.7390  2.4282
 6654SOL    HW231599   3.183   1.496   0.405  0.7029  0.0747  1.8363
 6655SOL     OW31600   2.877   1.239   2.707  0.0173  0.2584  0.3645
 6655SOL    HW131601   2.902   1.166   2.651  0.6237  0.4019  0.4547
 6655SOL    HW231602   2.955   1.294   2.708 -1.0029  1.6766  2.5171
 6656SOL     OW31603   4.469   0.017   5.104  0.0019 -0.0800 -0.3663
 6656SOL    HW131604   4.548   4.701   5.103  0.1072  0.1403 -3.8989
 6656SOL    HW231605   4.419   4.720   5.178 -0.3813  1.0854 -0.0700
 6657SOL     OW31606   1.496   4.716  16.314  0.0466  0.4964  0.0573
 6657SOL    HW131607   1.541   4.696  16.232 -0.4828 -1.0862  0.1631
 6657SOL    HW231608   1.424   0.027  16.273 -0.0399  1.3870  1.2436
 6658SOL     OW31609   1.573   2.368   7.207 -0.7867 -0.4454 -0.6392
 6658SOL    HW131610   1.573   2.427   7.131 -2.9882 -0.1975 -0.4477
 6658SOL    HW231611   1.506   2.306   7.179 -0.1765 -1.2161 -0.4001
 6659SOL     OW31612   1.060   3.845   7.034 -0.0416 -0.1397  0.6654
 6659SOL    HW131613   1.023   3.922   7.078 -1.0941 -0.9669  1.2364
 6659SOL    HW231614   1.142   3.880   6.999 -0.6946 -1.1055 -1.8583
 6660SOL     OW31615   2.513   2.516   8.246  0.4311 -0.6366 -0.2990
 6660SOL    HW131616   2.515   2.421   8.239 -2.5664 -0.6891 -0.2571
 6660SOL    HW231617   2.591   2.531   8.299 -0.7488  1.0260  0.9624
 6661SOL     OW31618   3.314   1.637   2.041 -0.4027 -0.0639  0.1860
 6661SOL    HW131619   3.274   1.724   2.032  0.5427  0.5584  2.0577
 6661SOL    HW231620   3.266   1.600   2.115 -1.3129 -0.4006 -0.5701
 6662SOL     OW31621   0.319   3.358  16.969 -0.0274  0.5369  0.1978
 6662SOL    HW131622   0.249   3.410  16.929  0.4365  1.5403  0.7002
 6662SOL    HW231623   0.384   3.427  16.977  0.5261  0.0804 -0.4330
 6663SOL     OW31624   1.422   2.087   0.937  0.0067 -0.0792  0.5697
 6663SOL    HW131625   1.460   2.004   0.909  0.6530 -0.2751  2.0317
 6663SOL    HW231626   1.492   2.140   0.974 -0.4090  0.4048  0.6579
 6664SOL     OW31627   2.784   1.662   3.700  0.4537 -0.1962  0.2972
 6664SOL    HW131628   2.800   1.606   3.625  2.3162  1.1508 -0.3187
 6664SOL    HW231629   2.791   1.596   3.770 -0.2982  0.7372  1.2519
 6665SOL     OW31630   0.989   3.163   8.800  0.4955  0.4852  0.2668
 6665SOL    HW131631   0.945   3.172   8.885 -2.7519 -2.2460 -1.1331
 6665SOL    HW231632   1.067   3.219   8.809  0.6567 -0.2589  3.4204
 6666SOL     OW31633   3.820   1.114   6.837 -0.3884  0.1875 -0.3261
 6666SOL    HW131634   3.767   1.095   6.760 -1.8030 -0.0349  0.7092
 6666SOL    HW231635   3.908   1.107   6.801 -1.4172 -0.9744 -2.5890
 6667SOL     OW31636   3.306   0.312  12.992  0.3899 -0.1435  0.2151
 6667SOL    HW131637   3.337   0.402  12.983  4.0561 -1.3754  0.7478
 6667SOL    HW231638   3.373   0.272  12.937  1.2955  2.0557 -0.2872
 6668SOL     OW31639   1.860   2.242   5.762 -0.0603  0.2014  0.1172
 6668SOL    HW131640   1.861   2.165   5.819  0.9753  2.8924  3.6750
 6668SOL    HW231641   1.946   2.277   5.782 -0.2134  1.3771 -1.3413
 6669SOL     OW31642   3.695   3.267   8.450  0.4714 -0.5738  0.4793
 6669SOL    HW131643   3.666   3.351   8.413 -0.3992 -0.7397  0.7913
 6669SOL    HW231644   3.630   3.199   8.433 -1.2582  1.3314 -0.5500
 6670SOL     OW31645   4.646   2.218   8.520 -0.0455  0.0110 -0.3698
 6670SOL    HW131646   4.653   2.310   8.546  1.9550 -0.3983  0.5188
 6670SOL    HW231647   4.728   2.208   8.471 -1.3661 -2.6603 -2.0355
 6671SOL     OW31648   4.183   0.463  17.208  0.1309  0.3705 -0.5911
 6671SOL    HW131649   4.229   0.515  17.143  0.1326  0.7930 -0.2523
 6671SOL    HW231650   4.218   0.497  17.290 -2.1701  0.3934  0.3921
 6672SOL     OW31651   1.322   1.469  11.273 -0.2753 -0.3240  0.3510
 6672SOL    HW131652   1.411   1.502  11.283 -0.9625  1.6537  0.0790
 6672SOL    HW231653   1.307   1.476  11.179  1.0572  0.8585  0.2338
 6673SOL     OW31654   1.609   1.784   2.522 -0.2768  0.4025 -0.1680
 6673SOL    HW131655   1.684   1.728   2.502 -0.3866  0.5793 -1.0907
 6673SOL    HW231656   1.654   1.865   2.545  2.5739 -1.4509  0.7322
 6674SOL     OW31657   4.247   4.058   3.689  0.4191 -0.1972 -0.2325
 6674SOL    HW131658   4.168   4.062   3.744  0.4791  3.2298 -0.3709
 6674SOL    HW231659   4.280   4.148   3.694 -0.2508  0.1101 -1.3726
 6675SOL     OW31660   3.365   1.536   7.306 -0.6426 -0.0544 -0.3681
 6675SOL    HW131661   3.346   1.457   7.255  0.8928 -0.0810 -0.8904
 6675SOL    HW231662   3.281   1.539   7.353  0.5724  0.3271  1.7844
 6676SOL     OW31663   4.162   2.633   8.579 -0.3669 -0.0146 -0.1969
 6676SOL    HW131664   4.117   2.714   8.555 -0.4409 -0.1288 -0.4472
 6676SOL    HW231665   4.128   2.628   8.669 -2.3602  1.6858 -0.8461
 6677SOL     OW31666   0.256   3.046  16.305  0.6432 -0.1573 -0.0740
 6677SOL    HW131667   0.237   3.126  16.256  1.7352  0.4551  0.5074
 6677SOL    HW231668   0.323   3.009  16.248 -2.7181 -3.5616 -1.7569
 6678SOL     OW31669   2.923   3.905  12.096 -0.3136 -0.1106  0.3892
 6678SOL    HW131670   2.933   3.944  12.182  1.1057  2.3630 -0.8709
 6678SOL    HW231671   2.871   3.827  12.114  0.5329 -0.0514  3.1130
 6679SOL     OW31672   0.076   2.938   6.293  0.3273 -0.3216 -0.6335
 6679SOL    HW131673   0.124   2.872   6.243  0.3288 -1.0872  0.3930
 6679SOL    HW231674   0.151   2.988   6.324 -0.7634  0.7867  0.2524
 6680SOL     OW31675   1.545   1.655   7.892 -0.3018  0.1160 -0.0464
 6680SOL    HW131676   1.608   1.717   7.853 -0.7882  0.6316 -0.0134
 6680SOL    HW231677   1.596   1.604   7.955 -1.2622  1.3653  1.7328
 6681SOL     OW31678   3.991   3.339   7.048 -0.0725  0.6607 -0.1599
 6681SOL    HW131679   3.948   3.424   7.052 -2.3975 -0.6262  2.2292
 6681SOL    HW231680   4.083   3.365   7.048  0.2906 -0.5146 -2.3304
 6682SOL     OW31681   0.440   4.022   1.552 -0.3286 -0.3792 -0.2771
 6682SOL    HW131682   0.399   4.108   1.546 -0.9694 -0.7696 -1.5987
 6682SOL    HW231683   0.492   4.036   1.630 -0.8654 -0.0123  0.0138
 6683SOL     OW31684   3.509   3.094   8.098  0.4097  0.4942  0.1980
 6683SOL    HW131685   3.430   3.055   8.135  0.9753 -2.0222 -1.2263
 6683SOL    HW231686   3.542   3.135   8.177  2.0786  1.0625 -0.7908
 6684SOL     OW31687   2.767   0.652   2.469 -0.5322 -0.1610  0.3401
 6684SOL    HW131688   2.854   0.655   2.509 -0.0194 -0.4096 -0.7861
 6684SOL    HW231689   2.747   0.562   2.442 -0.3481 -0.0175 -0.2664
 6685SOL     OW31690   1.791   1.491   9.037  0.5830  0.0477 -0.5760
 6685SOL    HW131691   1.725   1.495   8.967 -1.7611  0.0412  1.6437
 6685SOL    HW231692   1.864   1.497   8.975  0.4462 -2.0044 -0.9604
 6686SOL     OW31693   1.195   2.971   6.649 -0.5372  0.5225  0.0080
 6686SOL    HW131694   1.129   2.912   6.613  1.0395 -0.8103 -0.6887
 6686SOL    HW231695   1.157   3.016   6.724 -1.4667  2.6146 -1.7389
 6687SOL     OW31696   3.815   1.128   9.456  0.0634  0.0959  0.4304
 6687SOL    HW131697   3.879   1.062   9.481 -1.3630 -1.1898  0.7298
 6687SOL    HW231698   3.747   1.112   9.522  0.2052  2.4991  1.1643
 6688SOL     OW31699   3.816   2.730   3.451  0.5898  0.4696 -0.0559
 6688SOL    HW131700   3.744   2.767   3.399  1.2694  0.1926 -1.1924
 6688SOL    HW231701   3.801   2.764   3.539 -0.9389 -2.7647  0.9422
 6689SOL     OW31702   2.930   3.994   8.105 -0.2187 -0.3905 -0.0739
 6689SOL    HW131703   2.939   4.089   8.108  0.4539 -0.4595  0.0068
 6689SOL    HW231704   2.910   3.976   8.197  1.2677  2.5326  0.8312
 6690SOL     OW31705   4.324   2.861  16.918 -0.0630 -0.2898  0.2465
 6690SOL    HW131706   4.419   2.872  16.913 -0.5106  3.6511  0.0255
 6690SOL    HW231707   4.315   2.767  16.930 -0.2253 -0.4089 -0.9096
 6691SOL     OW31708   4.293   4.060  13.747  0.0066 -0.0336  0.1495
 6691SOL    HW131709   4.326   3.976  13.778 -1.4993  0.2750  2.5923
 6691SOL    HW231710   4.226   4.035  13.682 -0.6856  0.9875  0.4719
 6692SOL     OW31711   3.777   0.455   7.803 -0.5134 -0.1876 -0.0897
 6692SOL    HW131712   3.716   0.482   7.735 -1.9730 -0.0792  1.2453
 6692SOL    HW231713   3.778   0.534   7.857 -0.1474 -0.8159  0.8396
 6693SOL     OW31714   4.464   0.257   5.950  0.1195 -0.6019  0.2007
 6693SOL    HW131715   4.539   0.213   5.989 -0.1261 -0.8693  0.3690
 6693SOL    HW231716   4.474   0.227   5.860  1.9589 -0.5523  0.3897
 6694SOL     OW31717   3.276   0.025   4.498 -0.5873 -0.3447 -0.3655
 6694SOL    HW131718   3.332   0.097   4.471 -1.9753  0.7646 -0.2623
 6694SOL    HW231719   3.193   0.048   4.455 -1.4640 -0.5921  1.2169
 6695SOL     OW31720   2.365   1.297  13.760 -0.4719 -0.0504  0.3513
 6695SOL    HW131721   2.412   1.251  13.690 -3.3571 -2.3682 -0.0855
 6695SOL    HW231722   2.436   1.334  13.812 -0.9442 -1.5917  2.1220
 6696SOL     OW31723   2.428   3.655   8.497 -0.0126  0.4465  0.0097
 6696SOL    HW131724   2.388   3.661   8.410  2.0893 -0.6822 -1.0451
 6696SOL    HW231725   2.363   3.698   8.553  0.3268  2.3024 -1.0138
 6697SOL     OW31726   0.062   4.012   5.409 -0.0828 -0.3704 -0.4111
 6697SOL    HW131727   0.027   3.923   5.410  1.1086 -0.8440 -0.7056
 6697SOL    HW231728   0.151   3.978   5.399  0.2897  0.5087 -0.1242
 6698SOL     OW31729   2.530   0.092   2.492  0.7973  0.3149 -0.0601
 6698SOL    HW131730   2.539   0.187   2.480 -1.4191  0.2120 -2.5394
 6698SOL    HW231731   2.567   0.051   2.414  4.1741 -0.3688  1.9114
 6699SOL     OW31732   0.028   1.205   6.072  0.0031  0.0013 -0.6081
 6699SOL    HW131733   4.713   1.245   6.141  0.2531 -1.1784  0.2727
 6699SOL    HW231734   4.698   1.208   6.004  1.8179  0.2615 -2.4009
 6700SOL     OW31735   1.429   0.200   5.061  0.0676 -0.4178  0.0943
 6700SOL    HW131736   1.519   0.202   5.029  0.0388 -2.7528 -0.1292
 6700SOL    HW231737   1.379   0.204   4.980 -0.0835 -1.0183  0.1569
 6701SOL     OW31738   2.212   0.995   7.779 -0.2184 -0.0541 -0.0846
 6701SOL    HW131739   2.262   0.964   7.855 -0.9692  0.5240  0.6422
 6701SOL    HW231740   2.124   0.956   7.779  0.1333 -0.8565  0.4879
 6702SOL     OW31741   0.920   3.002   6.251  0.1513  0.7972 -0.4391
 6702SOL    HW131742   0.924   2.997   6.347  1.0181 -1.3895 -0.5736
 6702SOL    HW231743   0.913   2.911   6.223 -0.9528  0.6740  0.2404
 6703SOL     OW31744   4.152   0.940   2.291  0.0789 -0.0948  0.3311
 6703SOL    HW131745   4.225   0.970   2.236  0.1174  0.2623  0.5776
 6703SOL    HW231746   4.152   0.846   2.271  3.2194  0.1121 -0.5808
 6704SOL     OW31747   3.329   3.365   2.002 -0.4389 -0.1977 -0.3877
 6704SOL    HW131748   3.321   3.455   2.034  4.8892  1.0998 -2.8381
 6704SOL    HW231749   3.247   3.323   2.028 -1.4028  1.1155 -1.3158
 6705SOL     OW31750   2.673   0.273   2.716 -0.0034  0.0658 -0.1016
 6705SOL    HW131751   2.691   0.259   2.809 -0.5314  0.2105  0.0234
 6705SOL    HW231752   2.579   0.285   2.728  0.3745  1.6858  1.1933
 6706SOL     OW31753   0.870   1.819   4.157  0.3665  0.0888  0.5958
 6706SOL    HW131754   0.915   1.735   4.165  0.2688 -0.1111 -0.9220
 6706SOL    HW231755   0.799   1.804   4.094  0.1743  0.4490  0.7254
 6707SOL     OW31756   3.245   2.052   9.493  0.1820  0.0930 -0.2666
 6707SOL    HW131757   3.339   2.040   9.507  0.0509  0.8776  1.3198
 6707SOL    HW231758   3.244   2.113   9.420 -0.8530  0.4185  0.0253
 6708SOL     OW31759   3.986   4.296  17.418  0.4912  0.0581  0.0086
 6708SOL    HW131760   3.992   4.377  17.467  1.6524 -0.2761  0.4154
 6708SOL    HW231761   4.008   4.337  17.334  0.4051 -0.3895 -0.2336
 6709SOL     OW31762   0.205   2.229   2.440  0.1530 -0.0669  0.1077
 6709SOL    HW131763   0.293   2.256   2.417 -0.4074  1.5364 -0.1104
 6709SOL    HW231764   0.220   2.150   2.492 -0.3866 -1.6371 -2.1090
 6710SOL     OW31765   1.818   3.892   5.049 -0.4371  0.0812 -0.7625
 6710SOL    HW131766   1.848   3.879   4.960 -2.2567  1.8005 -1.6203
 6710SOL    HW231767   1.883   3.952   5.085 -1.1597  1.7250 -2.2224
 6711SOL     OW31768   1.929   0.708   1.310  0.1123 -0.3113 -0.0268
 6711SOL    HW131769   1.850   0.696   1.258 -1.8551 -2.2382  3.3973
 6711SOL    HW231770   1.898   0.759   1.385  2.4388  1.2814 -0.1675
 6712SOL     OW31771   1.479   1.180   1.804  0.2861 -0.6973  0.8443
 6712SOL    HW131772   1.399   1.130   1.814  0.0538 -0.0949  2.0266
 6712SOL    HW231773   1.529   1.137   1.735  1.6067 -2.3717  2.8551
 6713SOL     OW31774   2.681   0.736   3.871  0.1126  0.3884 -0.3192
 6713SOL    HW131775   2.742   0.781   3.930  0.1916 -0.4510  0.2373
 6713SOL    HW231776   2.683   0.790   3.792  0.6561  0.9202  0.0544
 6714SOL     OW31777   3.784   3.530   6.924  0.1849 -0.0813 -0.5659
 6714SOL    HW131778   3.790   3.554   7.016  2.2063 -0.5573 -0.5813
 6714SOL    HW231779   3.723   3.456   6.933 -0.0750  0.2576  0.4428
 6715SOL     OW31780   1.740   2.467   8.045 -0.1127 -0.4441 -0.2802
 6715SOL    HW131781   1.795   2.531   7.999 -1.1679  1.4942  1.1857
 6715SOL    HW231782   1.731   2.510   8.129 -0.9413 -0.1242 -0.5296
 6716SOL     OW31783   3.751   1.519  16.067 -0.0974  0.2981 -0.7373
 6716SOL    HW131784   3.724   1.517  15.975 -1.7562  0.1440 -0.2477
 6716SOL    HW231785   3.819   1.586  16.074 -0.2320  0.4895 -1.2664
 6717SOL     OW31786   0.807   3.858   3.282 -0.0653  0.2172  0.3010
 6717SOL    HW131787   0.894   3.896   3.268 -1.0347  2.7284  1.1504
 6717SOL    HW231788   0.765   3.902   3.208 -0.5437  1.3313  1.2332
 6718SOL     OW31789   2.360   1.962   1.552 -0.4067 -0.0339  0.2209
 6718SOL    HW131790   2.317   1.974   1.467  1.9394 -0.4741 -1.0282
 6718SOL    HW231791   2.344   1.868   1.565  0.7308 -0.4109 -1.0723
 6719SOL     OW31792   1.473   0.151   6.740  0.0136 -0.0583  0.1919
 6719SOL    HW131793   1.439   0.114   6.821 -0.9911 -0.9340 -0.6182
 6719SOL    HW231794   1.391   0.188   6.705 -0.3359  1.0808  2.2434
 6720SOL     OW31795   2.664   2.927   9.360 -0.0801  0.2772  0.4413
 6720SOL    HW131796   2.647   2.879   9.441  2.0312  0.0365  0.7484
 6720SOL    HW231797   2.750   2.893   9.336 -0.2028  2.3892 -2.9372
 6721SOL     OW31798   3.613   0.757   4.207 -0.2909  0.7411  0.3760
 6721SOL    HW131799   3.621   0.678   4.261  1.2275  0.0508 -0.8515
 6721SOL    HW231800   3.623   0.823   4.275 -0.3450  1.3573 -0.2108
 6722SOL     OW31801   2.546   0.978   6.500  0.0410  0.2628  0.4525
 6722SOL    HW131802   2.495   0.926   6.561 -0.5350  2.2999  1.7027
 6722SOL    HW231803   2.476   1.017   6.447  1.5397  0.3479 -1.4773
 6723SOL     OW31804   4.622   1.555   5.811 -0.0227  0.2020  0.1067
 6723SOL    HW131805   4.701   1.558   5.758  0.2816 -1.5002  0.4475
 6723SOL    HW231806   4.665   1.547   5.896  0.4098  0.3974 -0.0919
 6724SOL     OW31807   3.523   2.692   0.184  0.0565 -0.3941  0.1977
 6724SOL    HW131808   3.465   2.622   0.215  0.6761 -0.3957  1.3380
 6724SOL    HW231809   3.602   2.639   0.175  0.9561  0.7927  1.1316
 6725SOL     OW31810   3.458   1.055   4.348 -0.3654 -0.3243  0.1822
 6725SOL    HW131811   3.543   1.023   4.318  0.2436  0.3027  1.2407
 6725SOL    HW231812   3.408   1.000   4.287 -1.6598  1.1396 -0.0699
 6726SOL     OW31813   3.214   3.893   2.801  0.3474  0.6275  0.2870
 6726SOL    HW131814   3.201   3.821   2.739 -0.2238 -0.9632  2.2847
 6726SOL    HW231815   3.302   3.919   2.772 -0.1793  0.2700 -1.6644
 6727SOL     OW31816   2.773   2.818  13.758  0.0200 -0.3947 -0.6972
 6727SOL    HW131817   2.732   2.797  13.842 -0.0427 -0.2905 -0.7018
 6727SOL    HW231818   2.780   2.728  13.725  2.8520 -0.5107  0.1908
 6728SOL     OW31819   2.857   1.961  11.762 -0.2330  0.2988  0.6340
 6728SOL    HW131820   2.930   1.904  11.786 -0.0873 -0.2287 -1.0070
 6728SOL    HW231821   2.839   1.941  11.670 -1.7904  0.8124  0.8419
 6729SOL     OW31822   2.961   0.365   7.845 -0.5011  0.6518  0.0183
 6729SOL    HW131823   2.978   0.288   7.898  0.1303  1.4007  0.8991
 6729SOL    HW231824   2.868   0.346   7.832 -0.3871  0.4942 -0.5746
 6730SOL     OW31825   3.623   0.101   5.707  0.2684 -0.9316 -0.6804
 6730SOL    HW131826   3.685   0.032   5.729  0.2076 -0.8494 -0.2522
 6730SOL    HW231827   3.562   0.094   5.781 -1.2360 -1.6842 -1.9705
 6731SOL     OW31828   4.414   1.921   4.880  0.2920 -0.4505  0.1132
 6731SOL    HW131829   4.467   1.877   4.814 -0.1222 -2.7996  1.3126
 6731SOL    HW231830   4.426   2.012   4.855  0.8918  0.0668  2.2266
 6732SOL     OW31831   0.759   4.634  10.068  0.1327 -0.5650  1.0655
 6732SOL    HW131832   0.725   4.639  10.157 -2.2250  2.2359  0.0010
 6732SOL    HW231833   0.844   4.676  10.079 -0.2489  1.3641 -3.1505
 6733SOL     OW31834   3.215   0.171  16.551  0.0042 -0.1874 -0.0986
 6733SOL    HW131835   3.268   0.227  16.607  0.4057  0.7212 -1.3867
 6733SOL    HW231836   3.261   0.173  16.467  0.4551  0.4416  0.1600
 6734SOL     OW31837   1.646   0.098   9.379 -0.2287  0.4998 -0.3020
 6734SOL    HW131838   1.615   0.080   9.468  0.2592 -0.2863 -0.2900
 6734SOL    HW231839   1.716   0.034   9.362 -0.9385 -0.8186  1.6536
 6735SOL     OW31840   0.347   2.209  16.066 -0.1574 -0.5606  0.1858
 6735SOL    HW131841   0.276   2.157  16.029 -0.1759 -0.3627 -0.0571
 6735SOL    HW231842   0.398   2.142  16.111  0.0605 -0.7532 -0.3565
 6736SOL     OW31843   3.223   1.411   3.374  0.4247 -0.1910 -1.2207
 6736SOL    HW131844   3.163   1.336   3.381 -0.3616  0.6336  0.7915
 6736SOL    HW231845   3.199   1.443   3.287  2.3761  1.0929 -1.2747
 6737SOL     OW31846   2.655   3.909   4.154 -0.0079 -0.1153  0.1128
 6737SOL    HW131847   2.654   3.914   4.058  0.1377  1.5629  0.2024
 6737SOL    HW231848   2.726   3.972   4.162  0.6661 -0.5517 -2.3443
 6738SOL     OW31849   2.787   2.546   4.534  0.4580  0.2380  0.0091
 6738SOL    HW131850   2.783   2.567   4.441 -0.7959 -1.8312 -0.3853
 6738SOL    HW231851   2.823   2.627   4.571 -2.6017  1.5336  0.1409
 6739SOL     OW31852   3.236   1.181   3.157  0.2039 -0.4244  0.2082
 6739SOL    HW131853   3.264   1.125   3.085 -0.7760 -0.8033  0.1187
 6739SOL    HW231854   3.301   1.249   3.139  0.4796  0.3250  4.0354
 6740SOL     OW31855   2.128   2.809   5.776  0.1972  0.1529 -0.5804
 6740SOL    HW131856   2.036   2.812   5.750 -0.1445 -0.2006  0.6137
 6740SOL    HW231857   2.149   2.899   5.750 -0.7410  0.9686  1.5322
 6741SOL     OW31858   2.309   1.511   1.418 -0.0876 -0.4433  0.0491
 6741SOL    HW131859   2.215   1.504   1.400 -0.1162 -0.5919  0.2514
 6741SOL    HW231860   2.349   1.436   1.375  0.3810  0.3332 -0.8360
 6742SOL     OW31861   2.898   1.385   9.275 -0.2324  0.3661 -0.3090
 6742SOL    HW131862   2.828   1.353   9.332  1.2402 -4.0100 -0.9741
 6742SOL    HW231863   2.939   1.443   9.340  5.5303 -1.6758 -2.1577
 6743SOL     OW31864   3.519   0.227   5.930  0.0145 -0.4318 -0.3297
 6743SOL    HW131865   3.451   0.286   5.897  1.5384  1.6208  0.2072
 6743SOL    HW231866   3.578   0.294   5.965 -1.1302  0.5604 -0.3136
 6744SOL     OW31867   0.845   4.047   6.857 -0.4398  0.1700 -0.8922
 6744SOL    HW131868   0.816   3.999   6.780  0.1106  0.7305 -1.4494
 6744SOL    HW231869   0.819   3.982   6.922  0.3552 -0.0528 -0.7924
 6745SOL     OW31870   1.977   2.854  15.517  0.0476  0.6358 -0.2102
 6745SOL    HW131871   2.009   2.901  15.594 -0.3158 -1.3770  1.1497
 6745SOL    HW231872   2.055   2.815  15.478  0.4046 -0.0084  1.1663
 6746SOL     OW31873   0.082   3.135   9.609  0.3073 -0.1018  0.3417
 6746SOL    HW131874   0.092   3.041   9.626 -1.1190 -0.1780  0.7438
 6746SOL    HW231875   0.008   3.158   9.666 -0.3713  0.8413 -0.9416
 6747SOL     OW31876   4.248   3.292   3.792 -0.3449 -0.3405  0.1323
 6747SOL    HW131877   4.195   3.248   3.726 -1.2962  1.6409 -0.4363
 6747SOL    HW231878   4.278   3.225   3.854  0.6677 -1.6147 -1.7379
 6748SOL     OW31879   4.183   0.498   3.058  0.1254  0.1344 -0.0175
 6748SOL    HW131880   4.157   0.492   3.150 -1.1007 -1.2390 -0.4501
 6748SOL    HW231881   4.278   0.489   3.063  0.4174  1.8621 -2.1966
 6749SOL     OW31882   2.249   0.998   5.762  0.0764  0.4419  0.5777
 6749SOL    HW131883   2.255   1.092   5.742 -2.8698  0.0290 -2.2137
 6749SOL    HW231884   2.273   0.999   5.854  1.5763 -0.6868  0.2014
 6750SOL     OW31885   1.573   4.350  13.418 -0.1474 -0.2120 -0.1768
 6750SOL    HW131886   1.552   4.441  13.438 -0.9230 -0.2393 -0.9066
 6750SOL    HW231887   1.663   4.362  13.388 -0.8787  2.5109 -1.2318
 6751SOL     OW31888   1.552   1.155  15.043  0.7928  0.0584  0.6582
 6751SOL    HW131889   1.592   1.167  14.957 -1.4866 -1.6354 -0.6490
 6751SOL    HW231890   1.607   1.221  15.085  1.8251 -1.1747  1.2499
 6752SOL     OW31891   4.014   2.698   9.400 -0.2041 -0.3200 -0.4309
 6752SOL    HW131892   3.979   2.766   9.343 -1.6560 -0.6610  0.0454
 6752SOL    HW231893   3.930   2.674   9.438  0.3976 -1.2420  0.3026
 6753SOL     OW31894   2.580   4.583   9.731  0.1783 -0.3624 -0.0753
 6753SOL    HW131895   2.608   4.630   9.809  1.6104 -1.8563  0.3160
 6753SOL    HW231896   2.504   4.536   9.764 -0.8302 -0.1615 -2.1026
 6754SOL     OW31897   2.157   0.964  12.879  0.4134 -0.0899  0.1414
 6754SOL    HW131898   2.205   0.932  12.955  0.0447  1.8663  1.2046
 6754SOL    HW231899   2.098   0.891  12.858 -0.1667 -0.0260  1.5222
 6755SOL     OW31900   0.122   1.062   5.385  0.1872  0.3442 -0.0473
 6755SOL    HW131901   0.070   1.007   5.326  0.3256 -0.3284  0.4601
 6755SOL    HW231902   0.102   1.022   5.470 -1.7213 -0.6653 -0.9737
 6756SOL     OW31903   2.033   0.036  12.843 -0.1606 -0.4168  0.3183
 6756SOL    HW131904   1.997   4.720  12.772  0.7893  0.9876 -1.2257
 6756SOL    HW231905   1.951   0.065  12.884 -0.1891 -2.8985  2.0011
 6757SOL     OW31906   2.649   1.900   3.120 -0.5020  0.1718  0.3992
 6757SOL    HW131907   2.670   1.809   3.139  0.3182  0.6679  1.8492
 6757SOL    HW231908   2.581   1.924   3.183  0.8822 -1.7106  2.5770
 6758SOL     OW31909   0.126   0.402  12.099  0.6027 -0.6209  0.1475
 6758SOL    HW131910   0.116   0.494  12.125 -1.6098 -0.3618 -1.6769
 6758SOL    HW231911   0.216   0.385  12.128 -0.0472 -3.5708  0.4930
 6759SOL     OW31912   0.664   2.959   3.580  0.4621 -0.0558 -0.0073
 6759SOL    HW131913   0.727   3.028   3.560  0.6997 -0.0360  0.7933
 6759SOL    HW231914   0.725   2.913   3.639  0.0871  1.5001  1.5990
 6760SOL     OW31915   4.013   0.365   7.327  0.0835  0.1340  0.2336
 6760SOL    HW131916   4.012   0.445   7.381  2.8382  0.3624 -0.0248
 6760SOL    HW231917   3.934   0.367   7.273 -0.2479  0.3142  0.7315
 6761SOL     OW31918   2.751   4.145   8.714 -0.0808 -0.0462  0.0484
 6761SOL    HW131919   2.755   4.222   8.657  0.4578  0.6468  1.0218
 6761SOL    HW231920   2.747   4.075   8.649 -0.0310  0.2319 -0.2548
 6762SOL     OW31921   2.828   0.225   5.242  0.3767 -0.8007  0.2424
 6762SOL    HW131922   2.784   0.260   5.319 -2.0210 -1.3334 -0.8737
 6762SOL    HW231923   2.843   0.132   5.259 -0.5474 -0.7767  1.1629
 6763SOL     OW31924   2.031   0.382   9.048 -0.4554 -0.0085  0.3482
 6763SOL    HW131925   1.978   0.321   8.996  0.7147 -1.7743  1.2077
 6763SOL    HW231926   1.996   0.462   9.009  0.1424 -0.0974 -0.3522
 6764SOL     OW31927   2.999   3.647   7.199 -0.2107 -0.5244  0.3348
 6764SOL    HW131928   3.093   3.662   7.195 -0.5214  1.5606  1.4282
 6764SOL    HW231929   2.990   3.584   7.127  0.5257  2.3958 -2.2962
 6765SOL     OW31930   1.938   0.025  13.318  0.3218 -0.4414  0.2216
 6765SOL    HW131931   2.021   0.072  13.318  1.6038 -2.6977  0.8844
 6765SOL    HW231932   1.874   0.095  13.305 -0.2659 -0.8146  1.0625
 6766SOL     OW31933   4.469   3.288   7.121 -0.1651 -0.0396 -0.1308
 6766SOL    HW131934   4.378   3.283   7.150  0.4318 -1.3526  1.5616
 6766SOL    HW231935   4.521   3.289   7.202  1.5829 -1.4608 -1.2248
 6767SOL     OW31936   3.013   4.297   5.618 -0.2673  0.4571 -0.2772
 6767SOL    HW131937   3.086   4.330   5.670 -1.3457 -0.4821  1.8335
 6767SOL    HW231938   2.987   4.217   5.663  0.9374  1.1728  1.6712
 6768SOL     OW31939   2.738   4.684   7.662  0.1634  0.0459 -0.6171
 6768SOL    HW131940   2.760   0.029   7.618  0.0260 -0.4772 -1.6567
 6768SOL    HW231941   2.734   4.628   7.584 -1.0401 -2.4732  1.2516
 6769SOL     OW31942   2.566   3.238   5.113 -0.2862  0.6376  0.7514
 6769SOL    HW131943   2.557   3.194   5.197  1.2423 -0.5800  0.2725
 6769SOL    HW231944   2.487   3.292   5.103  0.2149  0.8288 -2.1790
 6770SOL     OW31945   0.152   0.496   3.381  0.0621  0.5755  0.5788
 6770SOL    HW131946   0.102   0.415   3.394 -0.2886  1.3142  3.6419
 6770SOL    HW231947   0.090   0.566   3.400  1.3334  1.6940  0.5746
 6771SOL     OW31948   3.403   3.085   4.691 -0.0012  0.1729  0.6956
 6771SOL    HW131949   3.420   3.077   4.785 -3.3386  0.9407  1.3329
 6771SOL    HW231950   3.476   3.037   4.652 -1.5161 -4.0107  3.0410
 6772SOL     OW31951   4.359   2.391  17.023  0.3621  0.3350 -0.8274
 6772SOL    HW131952   4.358   2.296  17.010  0.9508  0.1419  0.4626
 6772SOL    HW231953   4.419   2.428  16.959  0.5875  1.8944  0.2878
 6773SOL     OW31954   0.946   3.000   8.302 -0.0801  0.0519 -0.5770
 6773SOL    HW131955   0.851   3.012   8.295 -0.1044 -0.2876 -0.8404
 6773SOL    HW231956   0.944   2.981   8.396 -1.6883 -0.0102 -0.6326
 6774SOL     OW31957   2.030   3.707   0.537 -0.5090  0.2547  0.5777
 6774SOL    HW131958   2.033   3.665   0.623 -3.1034  2.1830  1.6308
 6774SOL    HW231959   2.017   3.632   0.480  1.5553 -0.0704  0.5350
 6775SOL     OW31960   4.198   0.636   9.566 -0.2265 -0.2571 -0.0596
 6775SOL    HW131961   4.243   0.699   9.622  0.2240 -2.9368  2.6117
 6775SOL    HW231962   4.223   0.557   9.615 -2.3854 -1.0320 -0.2065
 6776SOL     OW31963   1.255   0.955   6.072 -0.4421  0.4364 -0.7216
 6776SOL    HW131964   1.284   1.022   6.009 -0.1254  0.8406 -0.1538
 6776SOL    HW231965   1.329   0.895   6.085  1.1763  2.3143 -1.2133
 6777SOL     OW31966   0.101   0.009   0.466  0.1326  0.4630  0.0723
 6777SOL    HW131967   0.024   0.001   0.410 -1.3001  1.6777  1.8907
 6777SOL    HW231968   0.113   4.654   0.488  0.1569  0.5040  0.2295
 6778SOL     OW31969   2.412   2.365   1.146 -0.1659  0.0281 -0.1629
 6778SOL    HW131970   2.468   2.366   1.224 -1.3968  0.5776  0.7027
 6778SOL    HW231971   2.419   2.457   1.121 -0.2114 -0.3129 -1.4387
 6779SOL     OW31972   1.266   3.139   7.705  0.0511  1.1303 -0.1272
 6779SOL    HW131973   1.219   3.139   7.789 -0.5066  0.2216 -0.4494
 6779SOL    HW231974   1.348   3.109   7.743 -0.2612 -0.2726 -0.5676
 6780SOL     OW31975   4.108   3.163   9.282  0.3056  0.2024  0.2479
 6780SOL    HW131976   4.018   3.166   9.247  0.7813 -1.4470 -1.1241
 6780SOL    HW231977   4.140   3.253   9.284  0.7727  0.0138  1.1041
 6781SOL     OW31978   0.965   0.210   1.433  0.0966 -0.5554  0.1295
 6781SOL    HW131979   0.987   0.218   1.525 -0.3536  0.0863  0.1874
 6781SOL    HW231980   0.880   0.167   1.442 -0.7762  1.1390  0.0367
 6782SOL     OW31981   1.567   0.547   7.679  0.2670  0.2333 -0.0455
 6782SOL    HW131982   1.557   0.459   7.715  4.1515 -0.5304 -0.8969
 6782SOL    HW231983   1.530   0.543   7.591  1.0092 -0.5046 -0.3274
 6783SOL     OW31984   2.919   0.803  12.440  0.0053 -0.3473  0.0981
 6783SOL    HW131985   2.840   0.750  12.449 -0.5259  0.8281  2.3796
 6783SOL    HW231986   2.898   0.839  12.354  1.2816  0.4789  0.1372
 6784SOL     OW31987   0.976   4.325  11.157 -0.9014 -0.5113 -0.4689
 6784SOL    HW131988   0.911   4.315  11.088 -3.3983  2.4164  1.4463
 6784SOL    HW231989   1.057   4.347  11.111 -0.6368  0.4165  0.4409
 6785SOL     OW31990   2.347   0.346   5.649 -0.6105  0.0308 -0.6553
 6785SOL    HW131991   2.318   0.437   5.636 -2.1610 -0.3702 -0.0309
 6785SOL    HW231992   2.422   0.360   5.707 -0.2048 -0.0710 -1.1613
 6786SOL     OW31993   1.928   1.083   8.767 -0.1755  0.0848 -0.3926
 6786SOL    HW131994   1.842   1.093   8.726 -0.8540 -1.6604  0.5990
 6786SOL    HW231995   1.977   1.105   8.687  3.3733  0.1655  1.8275
 6787SOL     OW31996   0.551   1.344   9.243 -1.0084 -0.6633  0.2055
 6787SOL    HW131997   0.457   1.358   9.236 -0.5410  2.1884 -0.5782
 6787SOL    HW231998   0.568   1.438   9.251 -2.1896 -0.4834  0.5355
 6788SOL     OW31999   3.797   0.245   0.315  0.0125 -0.7745  0.1292
 6788SOL    HW132000   3.717   0.255   0.366 -0.2845 -3.1829  0.1327
 6788SOL    HW232001   3.842   0.322   0.351  0.7325  0.0862 -2.6030
 6789SOL     OW32002   4.187   0.253   1.601 -0.2280 -0.0758  0.2720
 6789SOL    HW132003   4.227   0.256   1.514 -0.0086  1.4773  0.4149
 6789SOL    HW232004   4.151   0.165   1.591  1.9854 -1.0159  0.5808
 6790SOL     OW32005   4.599   1.107  16.936  0.2524  0.5283  0.0069
 6790SOL    HW132006   4.672   1.146  16.890  1.1856  2.4560  3.1696
 6790SOL    HW232007   4.586   1.155  17.018  0.7126  1.1155 -0.2704
 6791SOL     OW32008   1.592   4.420   2.497 -0.1121  0.3783  0.1637
 6791SOL    HW132009   1.523   4.485   2.487 -1.5603 -1.2989 -0.6612
 6791SOL    HW232010   1.669   4.475   2.511 -1.3544  1.6874  1.8362
 6792SOL     OW32011   1.775   4.143   8.401  0.6661 -0.5382 -0.4972
 6792SOL    HW132012   1.861   4.103   8.418  0.1176 -1.5821 -0.2276
 6792SOL    HW232013   1.769   4.201   8.477  0.7305 -0.8237 -0.2753
 6793SOL     OW32014   2.537   1.139   8.208 -0.5003 -0.3956  0.2354
 6793SOL    HW132015   2.632   1.144   8.197 -0.5547  0.3850  0.1361
 6793SOL    HW232016   2.533   1.122   8.302  1.0574 -2.1464 -0.0226
 6794SOL     OW32017   0.550   3.599  15.484 -0.5625  0.0600  0.2000
 6794SOL    HW132018   0.508   3.518  15.511  0.1898 -0.5810 -0.5456
 6794SOL    HW232019   0.635   3.577  15.446 -1.4195  0.6491 -2.0307
 6795SOL     OW32020   3.904   1.966  11.129 -0.4733 -0.0095 -0.6519
 6795SOL    HW132021   3.921   2.039  11.188 -0.4072  0.9937 -1.9211
 6795SOL    HW232022   3.810   1.953  11.136 -0.3803 -0.1304  0.3456
 6796SOL     OW32023   2.961   3.453   9.964 -0.6335 -0.4224  0.0935
 6796SOL    HW132024   2.966   3.530  10.020  0.7758 -1.4051  1.2979
 6796SOL    HW232025   3.028   3.401  10.008 -0.0748  0.7776  0.6610
 6797SOL     OW32026   2.261   3.089  12.836 -0.8329 -0.1333  0.0532
 6797SOL    HW132027   2.337   3.143  12.861 -0.6018 -0.0457 -0.8325
 6797SOL    HW232028   2.299   3.022  12.779 -1.5499  0.2362 -0.8449
 6798SOL     OW32029   2.315   3.632   8.248  0.0471 -0.3978  0.1694
 6798SOL    HW132030   2.298   3.540   8.268 -2.9522  0.2829  0.7234
 6798SOL    HW232031   2.384   3.620   8.183  0.3094  0.6344  0.2521
 6799SOL     OW32032   3.450   2.476   4.183  0.1217 -0.1619  0.2498
 6799SOL    HW132033   3.458   2.562   4.141 -0.2292 -0.6942 -0.9069
 6799SOL    HW232034   3.408   2.500   4.266 -0.7492 -0.4602 -0.0990
 6800SOL     OW32035   2.447   3.007   1.125 -0.0921  0.1293  0.5307
 6800SOL    HW132036   2.450   2.930   1.182  0.6203 -1.3823 -1.5122
 6800SOL    HW232037   2.424   3.083   1.178 -0.4001  0.8058 -0.5706
 6801SOL     OW32038   3.766   2.789   3.698 -0.4310  0.0391  0.4429
 6801SOL    HW132039   3.751   2.868   3.751  1.0792  1.9903 -2.0730
 6801SOL    HW232040   3.842   2.755   3.745 -1.0189 -1.3408  0.4045
 6802SOL     OW32041   4.069   1.740   5.007  0.3020 -0.0254  0.4069
 6802SOL    HW132042   4.094   1.741   4.914  1.0864  0.2371  0.6223
 6802SOL    HW232043   4.096   1.825   5.040  3.1341 -0.2486 -1.2928
 6803SOL     OW32044   1.469   3.804  10.654 -0.2506  0.5771 -0.0308
 6803SOL    HW132045   1.467   3.825  10.748 -1.1281 -0.0564  0.0868
 6803SOL    HW232046   1.498   3.713  10.649 -0.8424  0.4618 -1.1984
 6804SOL     OW32047   1.946   2.347   8.166  0.3746 -0.0533 -0.0393
 6804SOL    HW132048   1.866   2.359   8.116  0.9483 -0.5293 -1.0872
 6804SOL    HW232049   1.912   2.316   8.250 -1.3596  1.4652 -0.1793
 6805SOL     OW32050   0.459   4.116   3.575 -0.5894 -0.4293  0.0245
 6805SOL    HW132051   0.534   4.166   3.544  0.6462 -2.2269  0.0898
 6805SOL    HW232052   0.481   4.025   3.552 -1.6863 -1.0078  1.2897
 6806SOL     OW32053   2.054   1.147   3.296  0.5196  0.0628  0.2148
 6806SOL    HW132054   1.991   1.091   3.252  0.7919 -0.7313  0.8379
 6806SOL    HW232055   2.055   1.118   3.388  0.6858  2.8448  1.0992
 6807SOL     OW32056   3.584   0.612   9.043  0.6562 -0.4247  0.5618
 6807SOL    HW132057   3.581   0.689   8.987 -0.5868 -0.9683 -0.1257
 6807SOL    HW232058   3.654   0.642   9.101 -0.6494  2.1107  0.8147
 6808SOL     OW32059   3.910   1.245   8.795 -0.1416 -1.0031  0.2641
 6808SOL    HW132060   3.821   1.216   8.774 -0.5273 -0.3220  0.9415
 6808SOL    HW232061   3.910   1.336   8.763 -2.1500 -1.6933 -1.7491
 6809SOL     OW32062   3.815   2.404   6.805  0.6845 -0.3723  0.0153
 6809SOL    HW132063   3.764   2.366   6.877  0.5846 -1.0941 -0.4287
 6809SOL    HW232064   3.906   2.374   6.809  0.7746 -0.0716  0.1560
 6810SOL     OW32065   3.792   0.094  11.261 -0.8922 -0.2251 -0.5739
 6810SOL    HW132066   3.852   0.169  11.249  0.4669 -0.8880  2.0301
 6810SOL    HW232067   3.804   0.044  11.180  2.9957  3.2870 -2.1863
 6811SOL     OW32068   0.310   1.684  14.754  0.2545 -0.2581 -0.0803
 6811SOL    HW132069   0.387   1.738  14.738 -1.0220  1.6879  0.2861
 6811SOL    HW232070   0.316   1.680  14.850 -0.6549 -1.9262 -0.0914
 6812SOL     OW32071   3.297   4.267   5.757 -0.0534  0.3661 -0.1389
 6812SOL    HW132072   3.240   4.273   5.834  1.4940 -1.3152  1.1402
 6812SOL    HW232073   3.358   4.341   5.764  0.0563  0.3845 -1.4188
 6813SOL     OW32074   4.197   1.274  10.083  0.1107  0.3143  0.3363
 6813SOL    HW132075   4.132   1.268  10.153 -1.7740  1.6243 -1.2980
 6813SOL    HW232076   4.271   1.310  10.132  0.4952 -0.4448  0.3138
 6814SOL     OW32077   4.341   2.891  10.957  1.4370  0.2379  0.1576
 6814SOL    HW132078   4.353   2.882  11.052  0.5260  1.7752  0.4194
 6814SOL    HW232079   4.400   2.817  10.941  1.3197  0.3460 -0.7381
 6815SOL     OW32080   0.973   0.135   3.453 -0.8389  0.0803  0.5680
 6815SOL    HW132081   0.891   0.095   3.480 -1.4058 -0.1297 -1.4320
 6815SOL    HW232082   1.034   0.121   3.525 -1.2229  0.9291  1.0518
 6816SOL     OW32083   2.026   0.340  17.121  0.1313  0.1104 -0.4580
 6816SOL    HW132084   1.976   0.393  17.059  0.9803  1.9647  0.4301
 6816SOL    HW232085   2.086   0.283  17.073  2.9302  2.9613 -0.3541
 6817SOL     OW32086   4.304   2.470  15.504  0.1898  0.5253  0.0953
 6817SOL    HW132087   4.388   2.432  15.529  0.7792  2.2140  0.6783
 6817SOL    HW232088   4.241   2.411  15.545 -0.4349  3.0334  2.7707
 6818SOL     OW32089   4.578   0.694   7.168 -0.3794  1.0301 -0.1865
 6818SOL    HW132090   4.555   0.770   7.222  0.5681  1.0287  0.2169
 6818SOL    HW232091   4.673   0.701   7.164 -0.3222 -0.6738 -1.7200
 6819SOL     OW32092   0.419   0.220  11.947  0.4983 -0.2623  0.4347
 6819SOL    HW132093   0.494   0.165  11.926  0.2519  0.0669 -1.3282
 6819SOL    HW232094   0.436   0.301  11.899 -0.3669 -0.7668 -0.7276
 6820SOL     OW32095   0.371   0.063   1.666  0.0558 -0.3818  0.0585
 6820SOL    HW132096   0.422   0.082   1.744  1.6365  1.6817 -1.4746
 6820SOL    HW232097   0.290   0.042   1.711  1.9104 -0.7616  3.1591
 6821SOL     OW32098   0.205   1.755  16.078  0.1347 -0.0895 -0.0884
 6821SOL    HW132099   0.145   1.684  16.101  0.9644 -0.9404 -0.5245
 6821SOL    HW232100   0.283   1.730  16.127  1.0327 -1.4646 -2.1932
 6822SOL     OW32101   4.123   1.881   5.396  0.3302  0.3017 -0.4575
 6822SOL    HW132102   4.084   1.969   5.398 -2.1006 -0.8377  1.7980
 6822SOL    HW232103   4.047   1.823   5.400 -0.5539  1.4800 -0.2968
 6823SOL     OW32104   1.974   3.305   7.387 -0.1600 -0.4250 -0.1744
 6823SOL    HW132105   2.030   3.371   7.345  0.5494 -0.1712  1.1957
 6823SOL    HW232106   1.950   3.343   7.471 -2.6306 -0.1099 -1.0189
 6824SOL     OW32107   3.582   4.433   2.791 -0.0337 -0.4228 -0.2051
 6824SOL    HW132108   3.522   4.385   2.733 -0.7678  1.0888 -0.7065
 6824SOL    HW232109   3.652   4.369   2.802 -1.5747 -1.8081  1.5365
 6825SOL     OW32110   1.277   1.023   8.459 -0.5591  0.5142  0.3493
 6825SOL    HW132111   1.338   1.073   8.514  0.6500  0.2814 -0.7951
 6825SOL    HW232112   1.285   1.072   8.377 -0.7220  1.1371  0.6967
 6826SOL     OW32113   3.204   1.218   8.113  0.4288 -0.0618 -0.1716
 6826SOL    HW132114   3.299   1.223   8.104  0.3488  0.5598 -0.6596
 6826SOL    HW232115   3.188   1.128   8.085 -1.9598  0.2666  0.0773
 6827SOL     OW32116   2.061   2.983   8.657  0.1998  0.6867  0.1217
 6827SOL    HW132117   2.114   2.928   8.599 -0.8566  0.7589 -0.9018
 6827SOL    HW232118   2.032   3.051   8.597  1.5531  0.9566 -0.2089
 6828SOL     OW32119   0.138   2.877   3.217 -0.4465 -0.1699  0.6770
 6828SOL    HW132120   0.152   2.844   3.129  2.4109 -0.5541  1.2988
 6828SOL    HW232121   0.208   2.941   3.230 -1.8669  1.2311  1.6077
 6829SOL     OW32122   1.337   1.469   2.993  0.4828 -0.0474  0.2809
 6829SOL    HW132123   1.306   1.463   2.903 -1.6265 -0.5851  1.0337
 6829SOL    HW232124   1.326   1.563   3.008 -2.0103 -0.2436 -0.2728
 6830SOL     OW32125   0.201   2.936  11.664 -0.3254 -0.1843  0.4117
 6830SOL    HW132126   0.254   3.015  11.662  0.3281 -0.6486 -0.6440
 6830SOL    HW232127   0.217   2.901  11.751  0.8473 -0.3296  0.1397
 6831SOL     OW32128   3.595   2.216   2.225 -0.1921  0.3426 -0.2018
 6831SOL    HW132129   3.646   2.136   2.212  0.3095  0.7985 -1.0439
 6831SOL    HW232130   3.571   2.207   2.317 -0.8863 -0.5262 -0.4710
 6832SOL     OW32131   3.818   0.213   4.302  0.2240  0.9914  0.1435
 6832SOL    HW132132   3.779   0.158   4.370 -0.8478 -0.0656 -1.3253
 6832SOL    HW232133   3.910   0.211   4.328  0.2395  0.4556  0.0397
 6833SOL     OW32134   3.454   3.894   2.166 -0.3069  0.7540 -0.3358
 6833SOL    HW132135   3.521   3.828   2.149  1.6414  3.0495 -1.5811
 6833SOL    HW232136   3.423   3.879   2.255 -0.9218 -1.7781 -0.9676
 6834SOL     OW32137   2.562   0.881   6.136  0.4936  0.0640 -0.4105
 6834SOL    HW132138   2.593   0.816   6.200 -1.5775  1.7493  2.2646
 6834SOL    HW232139   2.628   0.863   6.068  2.3054  1.1963  1.0664
 6835SOL     OW32140   4.138   3.141   8.070 -0.0183  0.0893  0.4250
 6835SOL    HW132141   4.080   3.123   8.144  0.4930 -1.6084  0.4123
 6835SOL    HW232142   4.186   3.060   8.053  0.6810  1.2075 -2.9314
 6836SOL     OW32143   4.737   0.140   3.058 -0.1784 -0.5258  0.4936
 6836SOL    HW132144   4.649   0.169   3.035 -0.1485  0.0378  1.1041
 6836SOL    HW232145   0.020   0.067   2.999  0.7516  1.1803 -1.2889
 6837SOL     OW32146   3.220   4.395   6.992  0.1945 -0.9417 -0.1184
 6837SOL    HW132147   3.284   4.373   7.059  1.0649 -0.2572 -0.7179
 6837SOL    HW232148   3.173   4.461   7.044  0.3062 -0.7420 -0.2698
 6838SOL     OW32149   0.001   3.404  17.154  0.1267  0.5280 -0.4770
 6838SOL    HW132150   0.029   3.479  17.101  1.8758  0.9165  1.0158
 6838SOL    HW232151   4.656   3.442  17.186  0.8140  0.9495  0.7802
 6839SOL     OW32152   0.382   3.910  13.574  0.1659 -0.1266  0.2098
 6839SOL    HW132153   0.413   3.984  13.522  0.0492  1.4735  2.4098
 6839SOL    HW232154   0.358   3.951  13.657  0.1161  2.3064 -1.0290
 6840SOL     OW32155   0.679   0.030  15.695  0.0946 -0.3980 -0.3872
 6840SOL    HW132156   0.615   0.009  15.627  1.9664  1.5035 -2.7256
 6840SOL    HW232157   0.647   0.116  15.721 -0.0006 -0.1204 -1.4312
 6841SOL     OW32158   1.804   0.305  14.566  0.0209 -0.4000  0.3468
 6841SOL    HW132159   1.743   0.310  14.493  0.6043 -1.4744 -0.1962
 6841SOL    HW232160   1.756   0.344  14.639  1.5671 -1.5368  1.9665
 6842SOL     OW32161   1.155   0.941   4.306 -0.8096  0.1487 -0.1419
 6842SOL    HW132162   1.122   0.851   4.295 -0.3254 -0.0118 -0.2724
 6842SOL    HW232163   1.077   0.993   4.325 -3.1945 -2.5764 -2.4367
 6843SOL     OW32164   0.712   1.569  17.373  0.4147 -0.0904 -0.2744
 6843SOL    HW132165   0.754   1.594  17.291  0.6684  0.1626 -0.0644
 6843SOL    HW232166   0.765   1.597  17.448 -1.4883  0.9122  0.6974
 6844SOL     OW32167   1.728   1.740   7.341 -0.0805 -0.6237  0.1907
 6844SOL    HW132168   1.814   1.723   7.381 -1.1183 -0.7895  2.3269
 6844SOL    HW232169   1.676   1.688   7.402 -0.3908  0.3037  0.7006
 6845SOL     OW32170   2.841   0.582  15.679  0.3670  0.4209 -0.1386
 6845SOL    HW132171   2.936   0.596  15.687  0.4306 -0.7994  1.2006
 6845SOL    HW232172   2.834   0.508  15.620  2.2839 -0.1134  0.3068
 6846SOL     OW32173   2.848   3.430   4.050 -0.1765 -0.5502 -0.5224
 6846SOL    HW132174   2.940   3.407   4.055 -0.2072 -0.5887 -0.0798
 6846SOL    HW232175   2.818   3.380   3.974  2.7151  0.1855 -2.1502
 6847SOL     OW32176   2.775   1.778   8.635 -0.3645 -0.6917  0.4445
 6847SOL    HW132177   2.729   1.841   8.579  0.7526 -0.4197 -0.1719
 6847SOL    HW232178   2.706   1.771   8.700  1.2323 -2.5921  1.9341
 6848SOL     OW32179   2.334   2.807   2.734 -0.2050  0.3912 -0.7514
 6848SOL    HW132180   2.313   2.751   2.809 -0.8929  0.1754 -1.1052
 6848SOL    HW232181   2.399   2.869   2.768  1.7333 -2.4337  0.7246
 6849SOL     OW32182   1.358   2.651  14.720  0.1872  0.0126  0.2780
 6849SOL    HW132183   1.399   2.599  14.651  1.0974  1.8558 -0.5803
 6849SOL    HW232184   1.424   2.716  14.744  1.2982 -1.4962  1.2953
 6850SOL     OW32185   4.323   1.961   2.966  0.6993 -0.0370  0.2948
 6850SOL    HW132186   4.368   2.018   2.903 -0.9795  1.0107  0.0269
 6850SOL    HW232187   4.346   1.996   3.052 -1.3666  2.3427 -0.1152
 6851SOL     OW32188   1.558   0.776   6.999  0.0231  0.4954 -0.1738
 6851SOL    HW132189   1.640   0.786   6.950 -0.3369  0.2640 -0.8239
 6851SOL    HW232190   1.503   0.816   6.931  1.5125  1.3129 -0.8951
 6852SOL     OW32191   0.717   1.272   3.250  0.2649  0.0795 -0.1360
 6852SOL    HW132192   0.768   1.249   3.173 -0.5026  1.3584 -1.0314
 6852SOL    HW232193   0.756   1.242   3.332 -2.6217  0.4126  1.3803
 6853SOL     OW32194   2.316   1.903   4.370 -0.2261 -0.4600  0.1361
 6853SOL    HW132195   2.263   1.865   4.299  0.0080  0.4848 -0.5461
 6853SOL    HW232196   2.246   1.932   4.428  1.4278 -1.4160  2.6082
 6854SOL     OW32197   2.354   4.289   1.981 -0.3428  0.9710 -0.3197
 6854SOL    HW132198   2.309   4.308   1.899  1.5189  1.0515 -1.3166
 6854SOL    HW232199   2.443   4.283   1.946 -0.0358  0.7320  0.4919
 6855SOL     OW32200   1.647   0.396   1.250 -0.0068  0.0064  0.0443
 6855SOL    HW132201   1.575   0.343   1.284  1.0567 -0.8677  0.9280
 6855SOL    HW232202   1.717   0.365   1.308 -0.0807 -2.3361 -1.1046
 6856SOL     OW32203   4.317   1.770   2.559  0.0649  0.4481 -0.3706
 6856SOL    HW132204   4.375   1.707   2.516  1.1143  0.3852  1.1278
 6856SOL    HW232205   4.377   1.844   2.573 -0.4306  0.6391  0.7757
 6857SOL     OW32206   0.777   0.679  14.823  0.2501  0.2003 -0.2000
 6857SOL    HW132207   0.836   0.649  14.754 -0.5101 -0.7692 -0.4151
 6857SOL    HW232208   0.779   0.774  14.807  0.3920  0.6785  2.5436
 6858SOL     OW32209   0.487   0.105   4.564 -0.2653 -0.6704 -0.0915
 6858SOL    HW132210   0.503   0.135   4.653  0.0096  0.0564 -0.3858
 6858SOL    HW232211   0.545   0.157   4.508  1.1826 -0.9718  1.1214
 6859SOL     OW32212   3.936   3.714   8.828  0.3068  0.2527  0.0402
 6859SOL    HW132213   3.906   3.676   8.911 -2.0381 -0.3952 -1.1052
 6859SOL    HW232214   3.953   3.802   8.861 -1.8745  0.9928 -0.7796
 6860SOL     OW32215   1.472   2.922  14.599  0.0066  0.4253 -0.0515
 6860SOL    HW132216   1.495   2.964  14.682 -2.2627 -0.9112  1.2480
 6860SOL    HW232217   1.436   2.991  14.543 -0.7289 -1.1600 -1.5376
 6861SOL     OW32218   1.075   2.855   1.841  0.0207 -0.0374  0.1996
 6861SOL    HW132219   1.033   2.768   1.837  0.8674 -0.3932 -0.6931
 6861SOL    HW232220   1.026   2.896   1.913 -1.6125  0.3516 -1.1355
 6862SOL     OW32221   0.147   2.407   0.110 -0.1074 -0.1793  0.0740
 6862SOL    HW132222   0.168   2.500   0.107  0.6485 -0.4560 -2.5975
 6862SOL    HW232223   0.147   2.379   0.019  3.2415 -0.4143  0.1349
 6863SOL     OW32224   1.582   2.805   4.705 -1.8108  0.6931 -0.2210
 6863SOL    HW132225   1.634   2.761   4.638  1.6027  2.9766  0.8994
 6863SOL    HW232226   1.521   2.858   4.654  0.9428  1.2104 -2.9264
 6864SOL     OW32227   3.868   3.018   2.822  0.4509 -0.2318 -0.3130
 6864SOL    HW132228   3.959   3.012   2.791  0.6048 -0.4511  0.1832
 6864SOL    HW232229   3.833   3.043   2.736 -1.2188  0.2925  0.5316
 6865SOL     OW32230   0.424   4.646   2.810  0.0558 -0.0413 -0.2476
 6865SOL    HW132231   0.442   4.558   2.845  5.5235  1.8335  1.7195
 6865SOL    HW232232   0.468   4.648   2.725  1.6238 -0.9309  0.5340
 6866SOL     OW32233   3.208   3.446   5.341  0.4317  0.2419 -0.4796
 6866SOL    HW132234   3.139   3.380   5.337 -1.2553  1.7861  2.2276
 6866SOL    HW232235   3.180   3.505   5.271 -0.9892  0.9555  0.6852
 6867SOL     OW32236   3.489   1.744  15.689  0.1268  0.2443 -0.1841
 6867SOL    HW132237   3.516   1.809  15.624 -0.6056  0.6297 -0.0991
 6867SOL    HW232238   3.419   1.705  15.638  0.2917  1.4890 -1.3708
 6868SOL     OW32239   0.533   2.438   6.507  0.2093 -0.2768 -0.2000
 6868SOL    HW132240   0.594   2.366   6.525 -0.3760 -0.6771  0.1914
 6868SOL    HW232241   0.462   2.381   6.477 -1.9183  1.3329  1.8226
 6869SOL     OW32242   2.618   4.015   2.563 -0.2559 -0.3905 -0.5174
 6869SOL    HW132243   2.578   4.091   2.606  0.5878  0.1086 -0.6168
 6869SOL    HW232244   2.666   3.978   2.637  1.4368  1.2100 -0.8121
 6870SOL     OW32245   3.154   3.533  14.370  0.4680 -0.1244  0.6979
 6870SOL    HW132246   3.202   3.611  14.397 -0.3437  0.0285  1.6865
 6870SOL    HW232247   3.219   3.464  14.360  1.0029  0.7707 -2.0563
 6871SOL     OW32248   3.091   1.951   1.069 -0.2462 -0.5736  0.4813
 6871SOL    HW132249   3.064   1.943   1.161  2.0479  3.3030  1.4790
 6871SOL    HW232250   3.186   1.934   1.068 -0.2316 -0.6099  2.1994
 6872SOL     OW32251   3.639   4.056  14.995 -0.0183 -0.0671 -0.0369
 6872SOL    HW132252   3.551   4.061  14.958 -0.2619  0.7270  0.6481
 6872SOL    HW232253   3.626   4.026  15.085 -1.9103  1.6266  0.2585
 6873SOL     OW32254   2.398   0.434   2.496 -0.1959  0.1212  0.2185
 6873SOL    HW132255   2.319   0.488   2.506 -0.7139 -0.5946  0.0625
 6873SOL    HW232256   2.404   0.395   2.583  0.7141  1.7177  0.8594
 6874SOL     OW32257   0.978   4.006   2.758  0.5704 -0.3200  0.3300
 6874SOL    HW132258   1.036   3.934   2.733  0.0541 -0.7933  0.5155
 6874SOL    HW232259   0.996   4.010   2.852  0.6122 -0.1331  0.3149
 6875SOL     OW32260   3.175   0.869  11.931 -0.0656  0.3010  0.5018
 6875SOL    HW132261   3.178   0.947  11.985  1.7681  0.7724 -0.2646
 6875SOL    HW232262   3.117   0.901  11.862  0.5528 -0.9520 -0.6068
 6876SOL     OW32263   3.627   3.483   6.516 -0.1421 -0.2787  0.3569
 6876SOL    HW132264   3.712   3.444   6.535  0.5664  0.7006 -0.7561
 6876SOL    HW232265   3.641   3.572   6.549  0.3750 -0.0026 -0.5956
 6877SOL     OW32266   0.352   1.635  16.967 -0.1994  0.2102  0.5292
 6877SOL    HW132267   0.399   1.690  17.028  0.7557  2.2888 -2.0678
 6877SOL    HW232268   0.430   1.600  16.925 -0.8541  2.0251 -2.2233
 6878SOL     OW32269   2.910   0.016   6.990 -0.5547  0.3429 -0.2259
 6878SOL    HW132270   2.825   0.005   6.948 -0.8751 -0.7922  0.7122
 6878SOL    HW232271   2.914   0.105   7.024  0.9080  1.7177 -4.0345
 6879SOL     OW32272   0.024   2.215  13.743 -0.3157  0.0222 -0.0262
 6879SOL    HW132273   0.090   2.149  13.723 -0.4916 -0.1814  0.0767
 6879SOL    HW232274   0.071   2.287  13.786  3.6245 -2.1559 -0.7062
 6880SOL     OW32275   4.389   4.239   5.382 -0.0285  0.4120  0.2074
 6880SOL    HW132276   4.363   4.313   5.327 -0.9395  0.5899  0.8760
 6880SOL    HW232277   4.353   4.178   5.318  1.2188 -0.1906  0.0970
 6881SOL     OW32278   4.569   1.106   1.524 -0.4034  0.4586 -0.0065
 6881SOL    HW132279   4.494   1.058   1.558  2.5510 -2.4972  2.4205
 6881SOL    HW232280   4.644   1.057   1.557 -0.4390 -2.0101 -3.5470
 6882SOL     OW32281   2.667   4.129   6.602 -0.0055  0.3426 -0.1809
 6882SOL    HW132282   2.711   4.057   6.646  0.7830  0.4032 -0.8745
 6882SOL    HW232283   2.586   4.091   6.569  0.1887  0.8755 -1.2735
 6883SOL     OW32284   1.642   3.076   1.972  0.2624 -0.3973  0.3459
 6883SOL    HW132285   1.653   3.170   1.983 -0.4359 -0.3784  0.9206
 6883SOL    HW232286   1.725   3.056   1.929  0.4130  0.1563  0.3805
 6884SOL     OW32287   3.488   3.872   3.258 -0.7609 -0.2188 -0.7333
 6884SOL    HW132288   3.409   3.866   3.205  1.0461 -0.2817 -3.4214
 6884SOL    HW232289   3.517   3.956   3.221  0.0782 -0.2330 -0.1205
 6885SOL     OW32290   3.209   2.710   3.520 -0.0385  0.6768  0.5917
 6885SOL    HW132291   3.251   2.761   3.590 -2.0182  1.2354  1.3554
 6885SOL    HW232292   3.286   2.711   3.463 -0.6629 -1.8266 -0.2684
 6886SOL     OW32293   2.032   3.339   4.194  0.2494 -0.1847 -0.4808
 6886SOL    HW132294   2.061   3.429   4.208  0.1110 -0.1762 -0.2497
 6886SOL    HW232295   2.094   3.289   4.247 -1.2217 -1.9594 -0.4404
 6887SOL     OW32296   0.723   0.771   8.936  0.2863  0.1023 -0.6183
 6887SOL    HW132297   0.639   0.742   8.971  0.7098 -0.3146  0.0455
 6887SOL    HW232298   0.777   0.698   8.964 -0.8852 -0.1533  0.9301
 6888SOL     OW32299   1.349   1.820   8.048 -0.2729 -0.1037  0.8428
 6888SOL    HW132300   1.335   1.882   7.977  2.4604  3.8375  3.7193
 6888SOL    HW232301   1.388   1.744   8.005 -1.0351 -0.2263  0.3672
 6889SOL     OW32302   3.128   2.921   3.853 -0.5387  0.4125 -0.4159
 6889SOL    HW132303   3.068   2.917   3.780  0.1490  0.2046 -0.9703
 6889SOL    HW232304   3.071   2.894   3.925  0.2873  0.1862  0.1577
 6890SOL     OW32305   1.953   4.385  12.518  0.0663 -0.1972 -0.1105
 6890SOL    HW132306   1.977   4.417  12.605  0.2342 -0.8145  0.0736
 6890SOL    HW232307   2.024   4.435  12.479  0.4028  0.9199  1.9244
 6891SOL     OW32308   0.380   0.851   8.939 -0.0375 -0.3600  0.4005
 6891SOL    HW132309   0.403   0.779   8.997 -0.3166 -1.4350 -0.8437
 6891SOL    HW232310   0.284   0.854   8.936 -0.0141  0.2001  0.1588
 6892SOL     OW32311   1.985   3.023   7.313  0.2809  0.0591 -0.7155
 6892SOL    HW132312   2.053   3.021   7.246  1.3985  0.8326  0.3815
 6892SOL    HW232313   1.965   3.117   7.321  2.1310  0.3823  0.1416
 6893SOL     OW32314   1.563   2.567   3.708 -0.5897 -0.2384  0.1095
 6893SOL    HW132315   1.585   2.659   3.694 -0.3010 -0.6394 -2.1748
 6893SOL    HW232316   1.567   2.561   3.803  0.1371 -0.0009  0.0940
 6894SOL     OW32317   1.015   3.630   7.215  0.4203  0.2848 -0.1123
 6894SOL    HW132318   1.036   3.714   7.174  1.2944  0.4674  0.7249
 6894SOL    HW232319   1.073   3.570   7.167 -0.4760 -0.5306 -0.1789
 6895SOL     OW32320   2.789   4.293   0.987 -0.6401 -0.0677 -0.0771
 6895SOL    HW132321   2.731   4.368   0.970  0.2611  0.5017 -0.6340
 6895SOL    HW232322   2.851   4.332   1.048 -1.4446 -0.4212  0.9678
 6896SOL     OW32323   4.376   2.095  17.036 -0.2392 -0.0309 -0.6575
 6896SOL    HW132324   4.395   2.053  17.120  1.4916 -1.7252 -1.8748
 6896SOL    HW232325   4.463   2.077  16.998  1.0419 -0.9489  2.6741
 6897SOL     OW32326   3.646   1.970   8.962  0.1337  0.0312 -0.0939
 6897SOL    HW132327   3.627   2.052   8.917  1.0246  0.7730  0.9099
 6897SOL    HW232328   3.728   1.942   8.921 -1.2313 -2.0028 -1.4606
 6898SOL     OW32329   0.927   2.627   1.803  0.3785 -0.5787 -0.1726
 6898SOL    HW132330   0.974   2.606   1.722  0.5825 -2.5053  0.4495
 6898SOL    HW232331   0.837   2.607   1.780  0.5979 -0.6882 -0.9424
 6899SOL     OW32332   2.370   4.185   5.785  0.0077  0.0780 -0.7394
 6899SOL    HW132333   2.356   4.091   5.794  0.7727  0.2725  2.5480
 6899SOL    HW232334   2.465   4.184   5.774  0.2279  1.0636  0.9900
 6900SOL     OW32335   1.460   3.562  13.519 -0.7432  0.7864 -0.8621
 6900SOL    HW132336   1.398   3.509  13.570 -0.1418  1.4666  0.5721
 6900SOL    HW232337   1.451   3.535  13.428 -0.4063  0.1229 -0.7010
 6901SOL     OW32338   0.627   0.642   3.493 -0.2471  0.1604 -0.0113
 6901SOL    HW132339   0.707   0.683   3.527 -0.6448 -0.5524  1.7845
 6901SOL    HW232340   0.596   0.707   3.429  0.9015 -1.6784 -2.4529
 6902SOL     OW32341   4.254   3.791  15.905  0.0187 -0.1778  0.3228
 6902SOL    HW132342   4.239   3.718  15.964 -2.2062  1.6235  2.0009
 6902SOL    HW232343   4.236   3.745  15.823 -1.2845  0.4582  0.2429
 6903SOL     OW32344   0.466   1.471  15.318 -0.0601 -0.1469 -0.4128
 6903SOL    HW132345   0.527   1.421  15.373  1.1114 -0.0440 -1.6104
 6903SOL    HW232346   0.381   1.469  15.361 -1.5051 -0.2539 -3.2126
 6904SOL     OW32347   0.768   1.458   3.961 -0.0952  0.1916 -0.0267
 6904SOL    HW132348   0.863   1.449   3.949 -0.2714 -1.5208 -0.0970
 6904SOL    HW232349   0.737   1.549   3.966  0.7711  0.3959  1.4633
 6905SOL     OW32350   0.566   3.392   2.246  0.8629 -0.3187 -0.4241
 6905SOL    HW132351   0.601   3.473   2.284 -1.2091 -0.0989  1.0556
 6905SOL    HW232352   0.649   3.359   2.211  0.4471  0.0097 -1.7278
 6906SOL     OW32353   0.434   4.327   8.252 -0.3630  0.3104 -0.0177
 6906SOL    HW132354   0.457   4.419   8.260 -0.3913  0.4981 -2.0053
 6906SOL    HW232355   0.483   4.286   8.323  2.7554 -0.5971 -2.6822
 6907SOL     OW32356   0.895   2.737   6.164 -0.8817  0.3211 -0.0395
 6907SOL    HW132357   0.914   2.744   6.070  1.0392  1.3073  0.4378
 6907SOL    HW232358   0.875   2.643   6.167 -1.2627  0.3534 -1.3275
 6908SOL     OW32359   3.190   3.941  15.791 -0.0763 -0.3234 -0.7245
 6908SOL    HW132360   3.109   3.983  15.762 -0.5262  0.0885  1.1336
 6908SOL    HW232361   3.160   3.921  15.880  3.1177 -1.8476  0.0179
 6909SOL     OW32362   2.266   1.658   8.914  0.0388 -0.6610 -0.1594
 6909SOL    HW132363   2.234   1.741   8.949 -0.9313 -0.9440 -0.3677
 6909SOL    HW232364   2.251   1.596   8.985  0.9238 -2.1901 -1.3077
 6910SOL     OW32365   0.508   1.448   8.416 -0.1288 -0.2705 -0.5134
 6910SOL    HW132366   0.579   1.416   8.472  0.9063  1.4684 -0.8565
 6910SOL    HW232367   0.555   1.496   8.349 -1.7444  0.6782 -0.9666
 6911SOL     OW32368   1.745   4.318   7.211 -0.1842  0.7689 -0.1029
 6911SOL    HW132369   1.832   4.352   7.194  0.4768  0.2817  2.3082
 6911SOL    HW232370   1.728   4.282   7.124  1.1880 -2.4400  0.9778
 6912SOL     OW32371   4.679   1.612   8.128  0.0664  0.5679  0.2405
 6912SOL    HW132372   4.705   1.611   8.220 -2.2507  0.0062  0.8894
 6912SOL    HW232373   4.668   1.704   8.103  0.5377  0.6104  0.1776
 6913SOL     OW32374   2.824   2.395  13.582 -0.0345 -0.6763 -0.0736
 6913SOL    HW132375   2.815   2.302  13.601 -3.2358 -0.5115 -0.7805
 6913SOL    HW232376   2.880   2.397  13.505 -0.0104 -0.4246 -0.0505
 6914SOL     OW32377   2.382   2.470   3.157  0.3091  0.4495  0.2895
 6914SOL    HW132378   2.307   2.510   3.199  0.7652  0.9622  0.6100
 6914SOL    HW232379   2.347   2.382   3.140  0.3787  0.2241  1.3382
 6915SOL     OW32380   0.259   3.674   2.704  0.1160 -0.2175 -0.3118
 6915SOL    HW132381   0.184   3.710   2.749 -1.2652 -1.8024 -1.3396
 6915SOL    HW232382   0.330   3.714   2.754  0.1886  0.5822 -1.0563
 6916SOL     OW32383   4.162   2.365   6.000 -0.1199 -0.0016 -0.4815
 6916SOL    HW132384   4.252   2.347   5.972  0.4731 -1.3783  2.2441
 6916SOL    HW232385   4.160   2.286   6.055 -0.9609  0.6514  0.4301
 6917SOL     OW32386   0.157   2.054   4.092  0.3000 -0.2925 -0.4269
 6917SOL    HW132387   0.151   1.959   4.084 -2.9410 -0.1315  0.1028
 6917SOL    HW232388   0.166   2.088   4.003  0.2913  0.3717 -0.1796
 6918SOL     OW32389   2.768   2.646  10.131 -0.2399  0.7987  0.0390
 6918SOL    HW132390   2.809   2.716  10.081 -0.7493  1.4779  0.5738
 6918SOL    HW232391   2.787   2.565  10.083 -2.3659  0.6933 -0.6439
 6919SOL     OW32392   4.376   4.442   6.511 -0.2065 -0.2618 -0.2591
 6919SOL    HW132393   4.402   4.351   6.524  0.7134 -0.0373 -0.5259
 6919SOL    HW232394   4.398   4.458   6.419  0.8366  0.6743  0.1371
 6920SOL     OW32395   3.739   2.037   1.031  0.1970 -0.2463  0.2400
 6920SOL    HW132396   3.690   2.075   0.959 -0.4901 -0.4032  0.6250
 6920SOL    HW232397   3.777   1.961   0.987  0.9797  0.0848  0.3509
 6921SOL     OW32398   4.150   3.755  11.232 -0.5582  0.8117  0.0883
 6921SOL    HW132399   4.240   3.724  11.236 -0.5744  0.6944 -0.4266
 6921SOL    HW232400   4.159   3.825  11.167  1.8210 -0.2447 -0.7048
 6922SOL     OW32401   2.049   2.932  15.071  0.3082  0.3824  0.0654
 6922SOL    HW132402   2.030   2.860  15.011 -0.4450  0.1620  0.5669
 6922SOL    HW232403   1.990   2.923  15.145  0.4664 -0.8270  0.0394
 6923SOL     OW32404   2.717   0.949   1.487 -0.7772 -0.1550  0.0072
 6923SOL    HW132405   2.804   0.909   1.482  0.2790  2.0822  0.5471
 6923SOL    HW232406   2.720   1.006   1.564 -0.4470  1.3904 -1.1554
 6924SOL     OW32407   4.010   4.059  16.173  0.5241  1.0618 -0.0765
 6924SOL    HW132408   4.003   3.966  16.191 -2.0408  0.9272 -1.6740
 6924SOL    HW232409   3.917   4.078  16.165  0.3821  1.1128  1.8056
 6925SOL     OW32410   3.868   3.785   1.806 -0.5771  0.1164 -0.8775
 6925SOL    HW132411   3.863   3.737   1.888 -2.3651  0.4449 -0.7789
 6925SOL    HW232412   3.790   3.753   1.760 -2.7886  0.0867  2.8984
 6926SOL     OW32413   2.262   1.156  13.981 -0.1106  0.1797  0.0402
 6926SOL    HW132414   2.281   1.180  14.072  0.6123  0.1891 -0.1109
 6926SOL    HW232415   2.297   1.230  13.930  0.2813 -0.7437 -1.0227
 6927SOL     OW32416   3.672   1.098  13.427  0.3866  0.9897 -0.0454
 6927SOL    HW132417   3.659   1.111  13.333  0.9805 -1.0252 -0.4264
 6927SOL    HW232418   3.670   1.002  13.438 -1.7710  1.1008  0.4429
 6928SOL     OW32419   4.108   4.375   6.123 -0.1537 -0.1428 -0.7761
 6928SOL    HW132420   4.054   4.417   6.057  0.3881 -0.5985 -1.5060
 6928SOL    HW232421   4.115   4.445   6.188  0.3572  0.2210 -1.2322
 6929SOL     OW32422   3.688   3.689   1.631  0.1991  0.3333  0.1506
 6929SOL    HW132423   3.740   3.718   1.556 -1.1873 -1.2908 -1.4276
 6929SOL    HW232424   3.600   3.706   1.596 -0.1753 -2.1448 -0.1128
 6930SOL     OW32425   2.371   0.370  16.492  0.0939 -0.1359  0.3895
 6930SOL    HW132426   2.335   0.289  16.528 -2.2024  1.4189  1.5531
 6930SOL    HW232427   2.327   0.364  16.407 -2.1925  1.0151  1.5106
 6931SOL     OW32428   3.030   3.450  10.346  0.4606  0.6009  1.1690
 6931SOL    HW132429   2.948   3.485  10.313  0.6761  1.4371  1.5292
 6931SOL    HW232430   3.073   3.527  10.383  1.1936  1.3753 -1.2900
 6932SOL     OW32431   2.811   3.813   2.653 -0.0865 -0.4928 -0.3724
 6932SOL    HW132432   2.768   3.779   2.575  0.5838  4.2098 -2.8208
 6932SOL    HW232433   2.802   3.735   2.708 -2.3533 -0.5808 -0.9021
 6933SOL     OW32434   3.183   2.472   1.204  0.0214 -0.1958  0.2187
 6933SOL    HW132435   3.090   2.449   1.198  0.2641 -1.6742  2.1193
 6933SOL    HW232436   3.216   2.405   1.144 -3.6137 -0.4827 -1.4591
 6934SOL     OW32437   3.626   1.573   7.091 -0.3477 -0.0224 -0.5190
 6934SOL    HW132438   3.662   1.516   7.023  0.3076 -0.1443 -0.0736
 6934SOL    HW232439   3.666   1.659   7.078 -0.3485 -0.0549 -0.7237
 6935SOL     OW32440   4.472   2.645   6.542  0.5937 -0.0939  0.2350
 6935SOL    HW132441   4.523   2.668   6.465  1.4662 -2.0228  0.2306
 6935SOL    HW232442   4.387   2.679   6.514  0.4047  1.3992  2.5942
 6936SOL     OW32443   0.039   1.920   2.316 -0.4458  0.2192  0.4592
 6936SOL    HW132444   0.133   1.933   2.330 -0.5136  1.0623  0.1174
 6936SOL    HW232445   4.737   1.995   2.360 -0.1034  0.4802  0.3236
 6937SOL     OW32446   1.955   2.512   9.527  0.2495  0.1128 -0.3238
 6937SOL    HW132447   1.915   2.516   9.440  1.6922 -3.4734 -1.1758
 6937SOL    HW232448   1.898   2.575   9.571  1.1782  0.9211 -0.2965
 6938SOL     OW32449   2.838   1.715  13.982 -0.3414  0.2125  0.1802
 6938SOL    HW132450   2.891   1.765  14.045 -1.7758  0.7349  0.9649
 6938SOL    HW232451   2.824   1.774  13.908 -0.2274 -0.3220 -0.2671
 6939SOL     OW32452   0.610   1.201   2.300 -0.2574 -0.2016  0.3963
 6939SOL    HW132453   0.542   1.269   2.302 -0.3295 -0.4004  3.8221
 6939SOL    HW232454   0.565   1.148   2.235 -0.0591  0.2605 -0.1184
 6940SOL     OW32455   4.158   2.303   1.567  0.2992 -0.1369  0.1483
 6940SOL    HW132456   4.084   2.242   1.571  0.5892 -0.2038  4.2499
 6940SOL    HW232457   4.183   2.290   1.476  0.5873  1.2289  0.0379
 6941SOL     OW32458   1.488   3.123   8.462  0.3245 -1.0952  0.6672
 6941SOL    HW132459   1.522   3.037   8.437  1.3474 -0.0633 -1.4154
 6941SOL    HW232460   1.396   3.106   8.482  0.1900 -0.6792  0.3949
 6942SOL     OW32461   1.504   4.532   4.103 -0.1638 -0.2301 -0.3351
 6942SOL    HW132462   1.482   4.606   4.046  1.6398 -1.2016 -2.2836
 6942SOL    HW232463   1.420   4.486   4.106  0.0611 -0.6740 -0.7789
 6943SOL     OW32464   3.610   2.402   5.090 -0.3717 -0.2238  0.2885
 6943SOL    HW132465   3.540   2.466   5.103  2.5184  2.9542  0.0600
 6943SOL    HW232466   3.602   2.401   4.994  1.6516 -0.5995  0.1296
 6944SOL     OW32467   4.355   2.750   4.360  0.3146  0.3333 -0.3671
 6944SOL    HW132468   4.309   2.825   4.396 -1.6556 -0.0079 -2.1741
 6944SOL    HW232469   4.424   2.725   4.422  1.5260 -1.7168 -2.5241
 6945SOL     OW32470   0.311   4.302   3.268  0.0936 -0.2594 -0.2098
 6945SOL    HW132471   0.318   4.215   3.306  2.4975 -0.2804 -0.7552
 6945SOL    HW232472   0.342   4.292   3.178  0.6574  2.3066 -0.3160
 6946SOL     OW32473   2.091   3.992   1.625 -0.2858  0.7067 -0.0498
 6946SOL    HW132474   2.098   4.013   1.532  0.4874  1.3906  0.1756
 6946SOL    HW232475   2.003   4.024   1.645 -0.2387  1.6345 -1.3848
 6947SOL     OW32476   2.098   2.134   9.912 -0.4244  0.5229 -0.0667
 6947SOL    HW132477   2.059   2.219   9.892 -0.1783  0.0114 -2.8222
 6947SOL    HW232478   2.135   2.145   9.999  0.9546 -0.7340 -0.4900
 6948SOL     OW32479   4.584   2.172   4.584 -0.4722 -0.1218 -0.3175
 6948SOL    HW132480   4.668   2.215   4.597  0.0119 -1.5851  1.5497
 6948SOL    HW232481   4.559   2.167   4.677  2.9001 -1.2495  0.5203
 6949SOL     OW32482   3.695   2.120   6.882 -0.8182  0.8535  0.1470
 6949SOL    HW132483   3.770   2.162   6.924 -1.0735  1.0476  0.4104
 6949SOL    HW232484   3.641   2.100   6.958  1.4084 -2.8396  0.7406
 6950SOL     OW32485   0.914   4.680   6.607  0.6445 -0.1460 -0.3460
 6950SOL    HW132486   0.896   4.716   6.693  0.3593 -2.4372  0.5469
 6950SOL    HW232487   0.863   0.005   6.555  1.0551  0.7398  0.3141
 6951SOL     OW32488   0.927   2.728   5.885 -0.2795 -0.5181 -0.2930
 6951SOL    HW132489   1.007   2.677   5.896 -0.6561 -0.9374  0.4623
 6951SOL    HW232490   0.883   2.679   5.816  0.9337 -0.9140 -0.7866
 6952SOL     OW32491   3.328   1.564  15.941  0.1189  0.1145 -0.2845
 6952SOL    HW132492   3.364   1.629  16.002 -1.0861 -0.8889  1.5249
 6952SOL    HW232493   3.368   1.575  15.855  2.4060 -2.1117  0.5142
 6953SOL     OW32494   2.375   3.737   2.266 -0.0766 -0.4768 -0.0592
 6953SOL    HW132495   2.456   3.696   2.235 -0.9410 -1.6797 -0.6911
 6953SOL    HW232496   2.401   3.778   2.348  0.5926 -0.2852 -0.3677
 6954SOL     OW32497   1.380   0.796   8.935  0.0490 -0.7998  0.0013
 6954SOL    HW132498   1.411   0.868   8.990 -1.7198  0.1022 -0.1757
 6954SOL    HW232499   1.285   0.802   8.931  0.1658  0.9907 -0.1010
 6955SOL     OW32500   0.041   2.939   5.568  0.1788  0.6274  0.4133
 6955SOL    HW132501   0.067   2.964   5.656 -0.6284 -0.6879  1.0291
 6955SOL    HW232502   0.049   2.845   5.581  0.7912  0.6240  0.0291
 6956SOL     OW32503   3.023   1.547  15.320 -0.0329  0.4821  0.3475
 6956SOL    HW132504   2.983   1.629  15.291 -2.0037 -0.9295 -0.9638
 6956SOL    HW232505   2.962   1.477  15.296  1.2176 -0.7540  0.8105
 6957SOL     OW32506   1.667   4.635   8.898  0.0026  0.2657 -0.4531
 6957SOL    HW132507   1.694   4.543   8.894 -0.9246  0.0546 -1.8622
 6957SOL    HW232508   1.572   4.636   8.906  0.0956  2.5443  0.4939
 6958SOL     OW32509   3.184   1.502   7.561  0.0386 -0.3187  0.6248
 6958SOL    HW132510   3.255   1.437   7.562  0.8535  0.5726  0.8672
 6958SOL    HW232511   3.190   1.541   7.648  1.1335  0.2585  0.2908
 6959SOL     OW32512   4.302   0.984   0.214  0.1180  0.5590 -0.3449
 6959SOL    HW132513   4.226   0.996   0.270  0.0840 -1.4965  0.0532
 6959SOL    HW232514   4.365   1.049   0.245  0.5425  1.0600 -2.2705
 6960SOL     OW32515   3.885   0.392   8.096 -0.0141 -0.5187  0.0171
 6960SOL    HW132516   3.943   0.412   8.022 -1.1841  2.1450 -0.1988
 6960SOL    HW232517   3.836   0.474   8.103  0.6762 -0.0702 -0.3867
 6961SOL     OW32518   4.090   3.367   8.573  0.6722 -0.0189  0.3115
 6961SOL    HW132519   4.056   3.289   8.529  2.4374 -0.8469  0.4355
 6961SOL    HW232520   4.166   3.381   8.517 -0.9816  0.3736 -1.8512
 6962SOL     OW32521   4.054   0.619  16.731  0.0971 -0.0019  0.1977
 6962SOL    HW132522   3.960   0.603  16.730  0.1045 -0.1891  1.4612
 6962SOL    HW232523   4.089   0.539  16.770 -1.7066 -0.9667 -0.2119
 6963SOL     OW32524   4.451   1.692   6.131 -1.1126  0.0570  0.1077
 6963SOL    HW132525   4.368   1.709   6.175 -1.1415 -1.0559  0.4768
 6963SOL    HW232526   4.432   1.676   6.039 -0.5839  1.0078 -0.1676
 6964SOL     OW32527   1.978   2.835  17.550 -0.7562  0.1161  0.5069
 6964SOL    HW132528   1.944   2.911  17.503  1.3169  1.0284  0.5160
 6964SOL    HW232529   2.030   2.803  17.476  1.5918 -0.4400  2.3919
 6965SOL     OW32530   2.097   2.045   4.566  0.2035  0.4466  0.5877
 6965SOL    HW132531   2.025   1.986   4.588 -0.3915  0.7349 -0.5695
 6965SOL    HW232532   2.132   2.043   4.655 -1.2480 -0.4508  1.1438
 6966SOL     OW32533   4.240   0.707  12.513  0.2641 -0.0248 -0.0933
 6966SOL    HW132534   4.283   0.710  12.428 -0.3529  2.8268 -0.2966
 6966SOL    HW232535   4.280   0.630  12.553 -1.4607 -1.5693 -1.3443
 6967SOL     OW32536   3.369   0.042  15.143 -1.0869 -0.6829 -0.1421
 6967SOL    HW132537   3.310   0.115  15.123  0.3957  0.6532  0.3291
 6967SOL    HW232538   3.396   0.025  15.052  1.0270  0.4561  0.2574
 6968SOL     OW32539   1.117   0.323   2.342  0.1384  0.3024 -0.0958
 6968SOL    HW132540   1.054   0.390   2.317 -0.2880  0.5675  1.7525
 6968SOL    HW232541   1.170   0.305   2.263 -0.2728  0.9273 -0.5153
 6969SOL     OW32542   1.330   3.355   5.569 -0.3672 -0.0294  0.3080
 6969SOL    HW132543   1.326   3.442   5.530 -1.5027  0.7424  2.1752
 6969SOL    HW232544   1.260   3.309   5.524  0.0274 -0.9825  0.6628
 6970SOL     OW32545   3.920   1.255   3.539  0.2057 -0.3627  0.4978
 6970SOL    HW132546   3.944   1.254   3.446  0.7604 -1.0807  0.6451
 6970SOL    HW232547   3.945   1.169   3.574 -2.6078 -0.8431  1.3489
 6971SOL     OW32548   0.560   3.274   9.838  0.0947 -0.2201  0.4123
 6971SOL    HW132549   0.644   3.306   9.804 -1.3586  2.5997 -0.5958
 6971SOL    HW232550   0.579   3.250   9.929 -0.9916 -0.7592  0.4966
 6972SOL     OW32551   0.522   3.640   9.212 -0.5286 -0.3186  0.4311
 6972SOL    HW132552   0.542   3.575   9.145  1.8962 -0.2677  1.0836
 6972SOL    HW232553   0.466   3.594   9.274  0.0135 -0.6694  0.6630
 6973SOL     OW32554   4.145   1.900   5.947  1.0750 -0.2521 -0.0256
 6973SOL    HW132555   4.090   1.832   5.909  0.1389 -0.4727  1.7183
 6973SOL    HW232556   4.142   1.960   5.872  1.0829  1.5740  1.4295
 6974SOL     OW32557   0.305   2.038   2.627  0.2712 -0.5175 -0.6864
 6974SOL    HW132558   0.242   1.969   2.648 -1.0950  0.3400 -1.8754
 6974SOL    HW232559   0.354   2.037   2.709  2.7113  0.5837 -2.1313
 6975SOL     OW32560   4.015   2.082  14.286  0.0285  0.1398 -0.0645
 6975SOL    HW132561   4.063   2.142  14.342  1.6122 -0.2659 -0.9836
 6975SOL    HW232562   4.078   2.010  14.287 -1.7253 -1.4105 -1.3471
 6976SOL     OW32563   3.565   0.252   9.717 -0.4464 -0.1367 -0.8720
 6976SOL    HW132564   3.581   0.162   9.744 -0.6346 -0.0380 -0.4308
 6976SOL    HW232565   3.493   0.284   9.771  0.9949  1.4908  0.0465
 6977SOL     OW32566   3.987   4.447   8.945  0.3943  0.2921 -0.1714
 6977SOL    HW132567   3.946   4.486   9.022  1.6020 -0.3988  0.8049
 6977SOL    HW232568   3.911   4.416   8.895  1.1937 -2.6054  0.4265
 6978SOL     OW32569   4.668   2.377   6.402 -0.4316  0.2039  0.0508
 6978SOL    HW132570   4.714   2.394   6.320  0.0660 -0.1664  0.2565
 6978SOL    HW232571   4.584   2.422   6.394  0.5614  2.7623  4.2245
 6979SOL     OW32572   2.258   1.208   1.589 -0.3958  0.0724  0.0861
 6979SOL    HW132573   2.216   1.264   1.524 -0.5982 -2.3624 -1.8630
 6979SOL    HW232574   2.253   1.263   1.667 -0.1375  2.8019 -1.8297
 6980SOL     OW32575   3.764   0.094   7.282  0.9346 -0.1019  0.0044
 6980SOL    HW132576   3.825   0.021   7.289  2.2138  0.9872  0.1218
 6980SOL    HW232577   3.810   0.127   7.205  2.3961  0.3397  1.0725
 6981SOL     OW32578   2.794   1.352  15.029 -0.1951 -0.0083 -0.0884
 6981SOL    HW132579   2.883   1.354  15.062 -0.2517 -0.2280  0.0800
 6981SOL    HW232580   2.779   1.446  15.031  0.8275  0.1104  2.8412
 6982SOL     OW32581   3.840   3.409  14.936 -0.8679 -0.2915 -0.2283
 6982SOL    HW132582   3.777   3.369  14.995 -0.2214 -0.9190  0.0306
 6982SOL    HW232583   3.902   3.436  15.004 -0.7017  0.8129 -0.8115
 6983SOL     OW32584   3.481   0.322   8.229 -0.4355 -0.0393 -0.2633
 6983SOL    HW132585   3.504   0.316   8.136 -0.6703  0.3404 -0.3441
 6983SOL    HW232586   3.394   0.283   8.233  0.4731 -2.1235 -0.7558
 6984SOL     OW32587   2.069   3.940   3.114 -0.0217 -0.4567 -0.2501
 6984SOL    HW132588   2.016   3.876   3.162  0.7553 -1.7858 -1.1534
 6984SOL    HW232589   2.120   3.875   3.065  0.2350  0.1824 -0.8297
 6985SOL     OW32590   0.170   2.505   3.794 -0.6326 -0.1029  0.1143
 6985SOL    HW132591   0.175   2.591   3.752 -2.0575 -0.8400 -1.5773
 6985SOL    HW232592   0.193   2.520   3.886 -0.2948 -2.7110  0.4482
 6986SOL     OW32593   1.509   3.069   4.299  0.4263 -0.5062 -0.3070
 6986SOL    HW132594   1.583   3.052   4.240  0.6915 -1.2414  0.2243
 6986SOL    HW232595   1.544   3.036   4.382  2.1743 -0.0606 -0.8668
 6987SOL     OW32596   2.334   0.151   1.603 -0.0985  0.0841 -0.3758
 6987SOL    HW132597   2.271   0.184   1.539 -1.5612  0.0861  1.0680
 6987SOL    HW232598   2.396   0.222   1.621  0.8133 -0.3426 -1.7790
 6988SOL     OW32599   0.099   2.236  15.587  0.0081  0.0475  0.1433
 6988SOL    HW132600   0.040   2.303  15.623 -0.2365  0.9407 -1.9342
 6988SOL    HW232601   0.084   2.234  15.493 -0.2139  1.2133  0.1547
 6989SOL     OW32602   1.203   0.622  15.245 -0.0407  0.4283 -0.4727
 6989SOL    HW132603   1.215   0.576  15.328 -1.1114  1.7428  0.4128
 6989SOL    HW232604   1.250   0.704  15.261 -2.5472  1.8926 -0.4934
 6990SOL     OW32605   2.367   0.031   8.868  0.3434 -0.3122 -0.0310
 6990SOL    HW132606   2.434   4.703   8.846 -0.2997 -1.6038  1.9229
 6990SOL    HW232607   2.330   4.723   8.944 -0.9780 -1.5736 -1.4177
 6991SOL     OW32608   1.174   0.534   7.121 -0.0034  0.3080  0.0977
 6991SOL    HW132609   1.176   0.571   7.208 -2.0958  0.5000  0.0634
 6991SOL    HW232610   1.085   0.554   7.092  1.1439  1.2429 -2.8615
 6992SOL     OW32611   1.600   1.518   1.992 -0.5238  0.5108  0.1215
 6992SOL    HW132612   1.632   1.428   1.988  0.5748  0.9744 -1.4826
 6992SOL    HW232613   1.546   1.524   1.914 -0.7200  1.6991  0.3509
 6993SOL     OW32614   3.259   1.354   5.838 -0.6502  0.0638 -0.0532
 6993SOL    HW132615   3.252   1.344   5.933  1.4478 -1.9486 -0.1093
 6993SOL    HW232616   3.239   1.448   5.834  0.5352  0.3911  1.5500
 6994SOL     OW32617   3.541   4.056   9.203 -0.4711 -0.5226  0.0808
 6994SOL    HW132618   3.501   4.108   9.134 -0.6052 -2.1004 -1.0405
 6994SOL    HW232619   3.470   4.058   9.267 -0.7328  2.5603 -0.3163
 6995SOL     OW32620   3.266   4.464   5.219 -0.5442  0.5532  0.3942
 6995SOL    HW132621   3.304   4.546   5.249 -0.2785  1.3070 -2.0012
 6995SOL    HW232622   3.303   4.409   5.287 -0.9253  0.8530  0.8446
 6996SOL     OW32623   3.154   2.700   9.466 -0.1424  0.0014 -0.3471
 6996SOL    HW132624   3.205   2.641   9.521 -0.5672  0.7906  0.8873
 6996SOL    HW232625   3.223   2.758   9.433  0.1567  0.0390  0.3292
 6997SOL     OW32626   2.884   4.252  14.248 -0.4689 -0.0599 -0.1965
 6997SOL    HW132627   2.794   4.260  14.217 -0.4633  0.4898 -0.0771
 6997SOL    HW232628   2.904   4.167  14.208  0.6913 -0.1450  0.5465
 6998SOL     OW32629   4.137   4.531  15.848 -0.2180  0.5640 -0.0191
 6998SOL    HW132630   4.124   4.625  15.839 -0.7798  0.5320  0.5055
 6998SOL    HW232631   4.202   4.514  15.916  0.6922  0.0807 -0.9978
 6999SOL     OW32632   4.634   1.335  16.155 -0.2200  0.6356  0.0175
 6999SOL    HW132633   4.574   1.262  16.171  0.2748  0.3077  0.4132
 6999SOL    HW232634   4.613   1.351  16.063  0.1116 -1.5160 -0.4299
 7000SOL     OW32635   0.045   0.088   1.528 -0.8758 -0.2313 -0.0765
 7000SOL    HW132636   0.047   4.736   1.561  1.4858 -0.2087 -0.1529
 7000SOL    HW232637   4.687   0.094   1.532 -0.9895 -2.1360 -0.1052
 7001SOL     OW32638   1.728   2.393   6.385  0.0782  0.3894  0.1048
 7001SOL    HW132639   1.762   2.307   6.361  0.5079  0.8996 -1.1280
 7001SOL    HW232640   1.639   2.382   6.352  0.7125 -3.1670 -0.4647
 7002SOL     OW32641   4.558   2.122   2.851  0.0746 -0.6165  0.4477
 7002SOL    HW132642   4.577   2.121   2.945  0.6267 -0.1420  0.3414
 7002SOL    HW232643   4.646   2.133   2.816 -0.5275 -0.7571 -1.1062
 7003SOL     OW32644   2.668   0.824  11.424 -0.3170 -0.3434 -0.9838
 7003SOL    HW132645   2.740   0.774  11.463  0.6608  1.2436 -0.7462
 7003SOL    HW232646   2.652   0.875  11.503 -2.6865 -1.2588 -0.8787
 7004SOL     OW32647   2.471   0.788   3.426  0.0902  0.2020  0.1867
 7004SOL    HW132648   2.564   0.778   3.409  0.0717  0.4575 -0.0536
 7004SOL    HW232649   2.461   0.880   3.452  0.8589  0.5192 -0.6660
 7005SOL     OW32650   4.144   2.610   6.729 -0.6232  0.4601 -0.5084
 7005SOL    HW132651   4.096   2.537   6.690  0.0349  0.1552 -0.7312
 7005SOL    HW232652   4.178   2.571   6.810  1.0894  1.4648 -0.7633
 7006SOL     OW32653   3.712   2.074   7.385  0.0095  0.0123  0.2328
 7006SOL    HW132654   3.621   2.051   7.405 -0.0617  0.7960  0.7822
 7006SOL    HW232655   3.700   2.107   7.296  1.4790  3.3130  1.2938
 7007SOL     OW32656   2.982   0.167   9.196 -0.2912 -0.3728 -0.7379
 7007SOL    HW132657   3.007   0.255   9.224  1.7352 -0.8550 -1.0459
 7007SOL    HW232658   2.890   0.166   9.221 -0.6836 -3.4357 -2.2705
 7008SOL     OW32659   1.960   4.495   8.021 -0.0246 -0.0173  0.1413
 7008SOL    HW132660   1.941   4.451   8.104  0.5009  0.9078  0.7567
 7008SOL    HW232661   2.055   4.491   8.009 -0.1040 -0.5025 -0.2741
 7009SOL     OW32662   1.469   0.829   7.576 -0.0808  0.4459 -0.3208
 7009SOL    HW132663   1.500   0.739   7.581  2.1525  1.2509  0.3003
 7009SOL    HW232664   1.499   0.861   7.491  3.0927 -1.5719  0.0432
 7010SOL     OW32665   4.094   1.591   5.579  0.3542  0.3086 -0.3166
 7010SOL    HW132666   4.064   1.641   5.503  0.2747 -1.1485 -1.2614
 7010SOL    HW232667   4.182   1.563   5.550 -0.6063 -1.2225 -1.7679
 7011SOL     OW32668   0.583   1.572   6.631 -0.3323 -0.1499 -0.2373
 7011SOL    HW132669   0.629   1.492   6.606  0.3722  0.1712  0.0519
 7011SOL    HW232670   0.508   1.571   6.570 -0.1721  2.5397 -0.4856
 7012SOL     OW32671   1.486   4.556   2.827  0.1394  0.9625  0.2909
 7012SOL    HW132672   1.480   4.598   2.740 -2.7607  0.6806  0.3569
 7012SOL    HW232673   1.405   4.587   2.869  0.0363 -1.4104  1.8001
 7013SOL     OW32674   3.462   3.548  14.847 -0.4265  0.2316  0.3185
 7013SOL    HW132675   3.451   3.614  14.915  0.6610 -0.4515  1.1480
 7013SOL    HW232676   3.523   3.586  14.783 -1.0651 -0.5010 -0.7437
 7014SOL     OW32677   0.647   2.682   6.602  0.0290 -0.0414 -0.1181
 7014SOL    HW132678   0.735   2.670   6.565  0.9113  2.5468  1.0747
 7014SOL    HW232679   0.594   2.611   6.568 -1.6324  1.5773 -0.9249
 7015SOL     OW32680   0.797   4.638   6.876  0.9114 -0.3058  0.1878
 7015SOL    HW132681   0.729   4.638   6.809  0.0140  1.7974  1.1123
 7015SOL    HW232682   0.817   4.545   6.885 -0.2641 -0.6898 -1.1283
 7016SOL     OW32683   1.547   0.113   2.143  0.1536 -0.1792  0.0590
 7016SOL    HW132684   1.560   0.133   2.236 -3.1504  2.3823 -0.0159
 7016SOL    HW232685   1.518   0.022   2.153  0.8922 -0.2397  1.7147
 7017SOL     OW32686   1.337   3.234   2.488 -0.4956 -0.5198  0.1651
 7017SOL    HW132687   1.302   3.145   2.489  2.5564 -1.7085  1.6652
 7017SOL    HW232688   1.403   3.228   2.418 -0.1425  1.2747  0.3369
 7018SOL     OW32689   2.869   1.413   7.637 -0.1756  0.2740  0.2701
 7018SOL    HW132690   2.800   1.398   7.702  1.0662 -0.3440  1.4348
 7018SOL    HW232691   2.885   1.507   7.651 -1.1654  0.5386 -0.3642
 7019SOL     OW32692   1.020   4.291   5.933 -0.3931 -0.7185 -0.3181
 7019SOL    HW132693   1.112   4.280   5.906 -0.1626 -0.2161  0.2564
 7019SOL    HW232694   1.023   4.384   5.956 -2.1633 -0.9499  0.8624
 7020SOL     OW32695   2.775   2.429  14.001 -0.2147 -0.0812 -0.9148
 7020SOL    HW132696   2.836   2.503  13.993  0.3282 -0.3847  0.3992
 7020SOL    HW232697   2.802   2.390  14.084 -3.8239 -0.2965  0.1387
 7021SOL     OW32698   0.940   2.998   2.040  0.0926  0.1288  0.2945
 7021SOL    HW132699   1.005   2.987   2.110  0.1289  3.1562  0.7450
 7021SOL    HW232700   0.860   2.965   2.081 -0.2799 -0.9552 -1.3111
 7022SOL     OW32701   2.960   3.864   0.924  0.2875  0.6262  0.2324
 7022SOL    HW132702   2.997   3.935   0.873  2.0310  0.0947  0.7814
 7022SOL    HW232703   2.882   3.839   0.874  0.7428  2.0411 -1.1688
 7023SOL     OW32704   2.945   2.317   9.793 -0.0027 -0.4186 -0.3863
 7023SOL    HW132705   2.884   2.302   9.721 -0.1169 -0.6761 -0.2375
 7023SOL    HW232706   3.018   2.275   9.748 -1.3772 -4.2253  0.8852
 7024SOL     OW32707   1.215   3.273   2.788 -0.5378  0.6021  0.3840
 7024SOL    HW132708   1.303   3.237   2.778 -0.5241  0.5629  0.6325
 7024SOL    HW232709   1.163   3.195   2.766  1.0383 -0.1246 -0.7820
 7025SOL     OW32710   4.672   0.483  11.558 -0.1357 -0.8402  0.7331
 7025SOL    HW132711   4.724   0.481  11.638 -1.6072  0.6435  1.7177
 7025SOL    HW232712   4.653   0.577  11.555 -0.2857 -0.9130 -0.5021
 7026SOL     OW32713   2.758   0.352   2.469  0.1305 -0.5322  0.0222
 7026SOL    HW132714   2.728   0.305   2.547 -0.5049 -0.2812 -0.0747
 7026SOL    HW232715   2.837   0.303   2.445  0.6212 -0.2457  1.0668
 7027SOL     OW32716   3.415   4.482   1.320 -0.1098  0.4268  0.1182
 7027SOL    HW132717   3.347   4.548   1.315  2.2199  2.9192  1.5665
 7027SOL    HW232718   3.362   4.403   1.335  0.6070 -0.0128  0.3737
 7028SOL     OW32719   3.491   3.021   7.478  0.0790  0.7337  0.5009
 7028SOL    HW132720   3.409   2.970   7.480  0.3912  0.3492  3.5283
 7028SOL    HW232721   3.477   3.069   7.396 -1.3616 -3.5820 -1.7855
 7029SOL     OW32722   1.770   2.317   0.143  0.0501  0.0214 -0.2791
 7029SOL    HW132723   1.782   2.222   0.135  0.2949 -0.1816  2.6443
 7029SOL    HW232724   1.822   2.341   0.220 -1.0759 -2.3230  1.2073
 7030SOL     OW32725   3.266   3.913   7.570  0.9107 -0.0229 -0.3004
 7030SOL    HW132726   3.210   3.973   7.619 -0.8402 -1.3655 -0.6427
 7030SOL    HW232727   3.331   3.895   7.637 -0.3648  0.1283  0.9930
 7031SOL     OW32728   0.351   4.485   5.422  0.4662  0.1895 -0.5794
 7031SOL    HW132729   0.303   4.567   5.434 -0.5492 -0.4738 -0.2054
 7031SOL    HW232730   0.278   4.425   5.414 -0.0358  0.8833 -1.2435
 7032SOL     OW32731   2.879   2.908   5.244 -0.2148 -0.1823  0.1839
 7032SOL    HW132732   2.843   2.850   5.311 -0.8655 -0.2291 -0.2160
 7032SOL    HW232733   2.822   2.886   5.171  0.9452  1.9948 -1.3483
 7033SOL     OW32734   2.059   3.853  15.585 -0.0205  0.0440  0.7052
 7033SOL    HW132735   2.023   3.767  15.564  1.2150 -0.6419  1.3700
 7033SOL    HW232736   1.975   3.899  15.584 -1.7620 -3.1091  0.4298
 7034SOL     OW32737   2.338   0.850   5.128 -0.1048 -0.5980  0.2287
 7034SOL    HW132738   2.351   0.758   5.153  0.5860  0.4217  3.6055
 7034SOL    HW232739   2.244   0.861   5.141  0.1219  1.2388  0.2698
 7035SOL     OW32740   3.606   4.065   8.665 -0.2615 -0.1904  0.1799
 7035SOL    HW132741   3.630   4.075   8.573 -1.9632  0.0119 -0.2401
 7035SOL    HW232742   3.543   4.138   8.665 -0.3876 -0.3169  2.7187
 7036SOL     OW32743   2.297   2.363   8.389  0.3364 -0.5031 -0.3285
 7036SOL    HW132744   2.312   2.298   8.321  2.0073  1.0169 -1.4244
 7036SOL    HW232745   2.381   2.349   8.433  0.5773 -1.2980 -1.0401
 7037SOL     OW32746   2.351   4.702   4.914 -0.3093 -0.0978 -0.3272
 7037SOL    HW132747   2.397   4.678   4.995  1.0345  1.2818 -0.6638
 7037SOL    HW232748   2.272   4.650   4.927  0.0081 -0.3646  0.5119
 7038SOL     OW32749   0.060   1.121   8.898 -0.1365  0.1058  0.3263
 7038SOL    HW132750   0.105   1.037   8.913  1.1953  0.6123 -0.8306
 7038SOL    HW232751   0.046   1.123   8.804  2.2067 -0.6657 -0.0525
 7039SOL     OW32752   1.520   0.051   0.283  0.1710 -0.5791  0.1758
 7039SOL    HW132753   1.579   4.723   0.245 -0.3252 -0.6282 -0.5119
 7039SOL    HW232754   1.507   4.735   0.362 -0.4051  0.4312  0.7630
 7040SOL     OW32755   2.217   0.348   8.820 -0.3617 -0.2323 -0.1450
 7040SOL    HW132756   2.301   0.308   8.846 -0.7883 -1.9225 -1.3440
 7040SOL    HW232757   2.165   0.337   8.899  3.2108 -1.6843  1.9980
 7041SOL     OW32758   1.608   3.902   4.001 -0.1396 -0.6555  0.1965
 7041SOL    HW132759   1.558   3.820   3.997  0.4461 -1.0892  1.6067
 7041SOL    HW232760   1.655   3.894   3.919 -0.6213 -0.4947 -0.0931
 7042SOL     OW32761   2.808   1.263   8.271 -0.3440 -0.1494 -0.2047
 7042SOL    HW132762   2.816   1.299   8.359 -0.5804  0.5195 -0.4568
 7042SOL    HW232763   2.749   1.328   8.233  2.0557  2.1140 -0.0802
 7043SOL     OW32764   2.059   1.539   9.162  0.6377 -0.0774 -0.4623
 7043SOL    HW132765   1.971   1.501   9.162  1.8124 -2.8044 -1.1462
 7043SOL    HW232766   2.040   1.633   9.154  1.4825  0.1894  0.6688
 7044SOL     OW32767   0.746   0.500  14.157 -0.2374 -0.5340  0.6005
 7044SOL    HW132768   0.705   0.532  14.237  0.2553 -0.2577  0.7424
 7044SOL    HW232769   0.812   0.444  14.198 -1.8445 -3.1767 -0.3665
 7045SOL     OW32770   4.585   1.062   3.461  0.7968 -0.2125 -0.9587
 7045SOL    HW132771   4.631   1.145   3.475  1.6948 -0.9682  0.5030
 7045SOL    HW232772   4.507   1.092   3.414  1.0114 -0.5637 -1.5431
 7046SOL     OW32773   0.472   2.877   6.477  0.3071 -0.4902  0.2597
 7046SOL    HW132774   0.507   2.856   6.390 -0.5867 -1.2824  0.0842
 7046SOL    HW232775   0.538   2.821   6.518  2.0051  2.9929  2.2792
 7047SOL     OW32776   3.520   3.424   8.930  0.0330  0.1000  0.7757
 7047SOL    HW132777   3.486   3.511   8.948 -1.8754 -0.8743  1.8655
 7047SOL    HW232778   3.547   3.398   9.019  2.0611 -1.0631 -0.1669
 7048SOL     OW32779   0.741   1.169  13.643  0.0145  0.5254 -0.0593
 7048SOL    HW132780   0.822   1.207  13.608  1.0164  1.4990  3.3437
 7048SOL    HW232781   0.676   1.174  13.572 -0.2905 -0.0530  0.1805
 7049SOL     OW32782   3.686   3.775   7.231 -0.1511 -0.2975 -0.2187
 7049SOL    HW132783   3.667   3.774   7.325 -2.9167  1.6656 -0.7507
 7049SOL    HW232784   3.706   3.868   7.223 -2.5112  0.2202 -0.1585
 7050SOL     OW32785   2.486   0.660   4.029 -0.3036  0.3154 -0.1907
 7050SOL    HW132786   2.549   0.697   3.966  1.8271 -1.0832  1.1283
 7050SOL    HW232787   2.412   0.721   4.029 -0.1026  0.5573  0.3744
 7051SOL     OW32788   1.530   2.382   0.747  0.3575 -0.4909 -0.1619
 7051SOL    HW132789   1.488   2.347   0.668 -0.9991  0.6198  0.0670
 7051SOL    HW232790   1.493   2.470   0.748  1.2373 -0.1382  0.8609
 7052SOL     OW32791   2.715   2.621   0.942  0.1348 -0.3208  0.5680
 7052SOL    HW132792   2.683   2.568   0.869  0.3111 -1.0969  1.0562
 7052SOL    HW232793   2.635   2.618   0.995  0.7505 -0.1073  1.5274
 7053SOL     OW32794   2.035   3.554  16.840  0.0033 -0.1870  0.7349
 7053SOL    HW132795   2.083   3.544  16.922 -0.0000  1.0945  0.8983
 7053SOL    HW232796   1.969   3.485  16.851 -3.0049  2.2263 -2.1015
 7054SOL     OW32797   0.317   4.271  13.794  0.1247  1.0634 -0.0995
 7054SOL    HW132798   0.266   4.277  13.714  0.3237  0.1551 -0.2971
 7054SOL    HW232799   0.286   4.185  13.824 -1.6933  1.7853  0.0831
 7055SOL     OW32800   1.797   2.526   7.561  0.0825  0.0747  1.0161
 7055SOL    HW132801   1.831   2.445   7.598  0.4559  0.1152  0.7533
 7055SOL    HW232802   1.859   2.527   7.489 -0.9460  3.2436  0.1845
 7056SOL     OW32803   0.675   3.994  16.537  0.1173  0.5476 -0.4256
 7056SOL    HW132804   0.608   4.056  16.510  0.8608  0.7216 -1.8575
 7056SOL    HW232805   0.687   3.996  16.632 -1.1464 -1.4557 -0.2421
 7057SOL     OW32806   0.697   3.783  10.075  0.8487  0.1899 -0.2381
 7057SOL    HW132807   0.640   3.719  10.116  1.2489  0.9352  1.4905
 7057SOL    HW232808   0.663   3.860  10.121  2.0330  0.2168  0.5981
 7058SOL     OW32809   0.350   1.832   8.659 -0.5262  0.0332  0.2672
 7058SOL    HW132810   0.376   1.809   8.570 -1.6765  0.6044 -0.2169
 7058SOL    HW232811   0.296   1.911   8.652  0.5848  0.6775 -1.0920
 7059SOL     OW32812   2.733   3.700   3.045 -0.6595 -0.0036 -0.4262
 7059SOL    HW132813   2.771   3.638   2.983 -1.0844  0.9672 -1.6596
 7059SOL    HW232814   2.750   3.785   3.005 -0.6326  0.9787  1.7045
 7060SOL     OW32815   2.325   2.645   2.501 -0.6091  0.4290  0.2087
 7060SOL    HW132816   2.354   2.700   2.428  1.5624 -0.0450  0.7006
 7060SOL    HW232817   2.318   2.698   2.580 -1.0264 -0.9105  1.0732
 7061SOL     OW32818   3.603   0.077   2.304 -0.3515 -0.0452  0.0065
 7061SOL    HW132819   3.579   0.150   2.361 -1.4486  0.5655 -1.2319
 7061SOL    HW232820   3.546   0.008   2.339 -0.3075  0.5509  1.2588
 7062SOL     OW32821   1.266   1.503   6.496  0.0496 -0.6472 -0.6042
 7062SOL    HW132822   1.339   1.554   6.463 -1.3101  1.7498  0.1453
 7062SOL    HW232823   1.198   1.570   6.488  1.5577  1.0356  0.9350
 7063SOL     OW32824   3.223   2.287   3.444 -0.2017 -0.7602 -0.6831
 7063SOL    HW132825   3.263   2.320   3.524  0.3295 -2.5065 -0.2388
 7063SOL    HW232826   3.270   2.343   3.382 -1.2576  0.8110 -0.0661
 7064SOL     OW32827   3.976   4.231   4.243  0.2516  0.1688  0.0447
 7064SOL    HW132828   4.058   4.252   4.288  0.7657 -0.5610 -0.5491
 7064SOL    HW232829   3.940   4.163   4.299 -0.3485  0.9747  0.6255
 7065SOL     OW32830   1.066   2.622   9.544  0.2613  0.2145  0.5579
 7065SOL    HW132831   1.089   2.530   9.551 -0.0136  0.0250 -0.9701
 7065SOL    HW232832   1.147   2.660   9.576  0.2951 -0.0695  0.8048
 7066SOL     OW32833   0.185   4.669  16.332  0.1212 -0.5298 -0.2464
 7066SOL    HW132834   0.179   4.627  16.247  1.1450  0.1139 -0.6427
 7066SOL    HW232835   0.260   4.629  16.376  0.6219 -0.0582 -0.6706
 7067SOL     OW32836   2.312   1.246   4.735 -0.1199  0.4269  0.2557
 7067SOL    HW132837   2.343   1.273   4.822  0.1370 -0.1010  0.3283
 7067SOL    HW232838   2.371   1.172   4.722  0.7303  1.0091  0.8016
 7068SOL     OW32839   0.178   3.629   9.124  0.1023 -0.3515 -0.7305
 7068SOL    HW132840   0.155   3.583   9.205 -0.9930  1.3171 -0.0786
 7068SOL    HW232841   0.100   3.684   9.119 -0.8766 -1.7330 -0.5981
 7069SOL     OW32842   2.766   2.972  17.099 -0.1939 -0.1408 -0.7097
 7069SOL    HW132843   2.785   3.063  17.076 -2.7983  0.0842 -2.0004
 7069SOL    HW232844   2.818   2.950  17.176  0.8607  0.4910 -1.2405
 7070SOL     OW32845   4.604   2.714   7.950 -0.1474 -0.4470  0.0553
 7070SOL    HW132846   4.673   2.751   8.005  0.4444 -0.6392 -0.5594
 7070SOL    HW232847   4.530   2.757   7.992  1.1299  0.3550  1.5008
 7071SOL     OW32848   3.238   4.335  12.395  0.1497  0.1201  0.5264
 7071SOL    HW132849   3.316   4.279  12.398  0.2222  0.1782 -0.2671
 7071SOL    HW232850   3.253   4.379  12.478  1.9387  1.1904 -0.3789
 7072SOL     OW32851   1.346   2.153   6.738 -0.0338  0.6193 -0.0060
 7072SOL    HW132852   1.353   2.248   6.745 -0.3738  0.7720 -1.8909
 7072SOL    HW232853   1.438   2.125   6.738 -0.0385  0.6079  0.6728
 7073SOL     OW32854   3.976   1.540   0.990  1.1795 -0.2232 -0.3422
 7073SOL    HW132855   3.893   1.543   0.943  0.9606 -0.8573  0.0174
 7073SOL    HW232856   3.946   1.566   1.077 -0.9954  1.0792 -1.4816
 7074SOL     OW32857   2.703   1.512   8.428  0.0747  0.0710 -0.1760
 7074SOL    HW132858   2.742   1.455   8.494  0.2530  1.4763  0.9283
 7074SOL    HW232859   2.642   1.573   8.469 -0.6107  0.6232 -1.9960
 7075SOL     OW32860   1.341   1.234   4.596 -0.0263 -0.2439 -0.1289
 7075SOL    HW132861   1.388   1.270   4.521  2.0798  0.5511  1.5764
 7075SOL    HW232862   1.372   1.144   4.598 -0.7656 -0.5130 -0.4955
 7076SOL     OW32863   4.374   1.215   3.350  0.2310 -0.5199  0.4523
 7076SOL    HW132864   4.360   1.201   3.256  0.4156  0.3276  0.2909
 7076SOL    HW232865   4.282   1.220   3.376  0.2137 -0.2105  0.3385
 7077SOL     OW32866   0.146   4.033   9.743  0.7760  0.5195 -0.1895
 7077SOL    HW132867   0.229   3.994   9.771  1.5431  0.2310 -2.9218
 7077SOL    HW232868   0.077   3.988   9.792 -0.4109  1.8465 -0.6195
 7078SOL     OW32869   4.612   3.240   7.345 -0.3040  0.0029  0.3330
 7078SOL    HW132870   4.636   3.250   7.437  0.8443  3.2891 -0.3333
 7078SOL    HW232871   4.701   3.220   7.317 -1.4465 -0.1942 -3.0807
 7079SOL     OW32872   2.949   4.301   6.176  0.4109 -0.2700 -0.2737
 7079SOL    HW132873   2.880   4.252   6.220  2.2647 -1.6710  1.0372
 7079SOL    HW232874   3.022   4.289   6.236 -2.2895 -1.4177  2.7776
 7080SOL     OW32875   4.217   0.940  14.279  0.5952 -0.0693  0.2223
 7080SOL    HW132876   4.195   0.956  14.370  2.0669  2.2948  0.1753
 7080SOL    HW232877   4.263   0.857  14.290 -1.1219 -0.7976  1.7912
 7081SOL     OW32878   2.137   4.495   8.650 -0.5823  0.5141 -0.4884
 7081SOL    HW132879   2.163   4.486   8.741  0.1578  2.3114 -0.5220
 7081SOL    HW232880   2.123   4.407   8.617 -2.7195  0.4289  0.6639
 7082SOL     OW32881   1.455   3.067  11.387 -0.1743  0.3115 -0.6019
 7082SOL    HW132882   1.528   3.022  11.431 -0.3845 -1.0376 -1.6326
 7082SOL    HW232883   1.389   2.999  11.392  0.5226 -0.1042  3.4649
 7083SOL     OW32884   3.686   1.305   0.210 -0.6378  0.4013  0.0887
 7083SOL    HW132885   3.719   1.365   0.278  1.6694  1.6653 -2.1510
 7083SOL    HW232886   3.763   1.252   0.190  1.3717  2.6291  1.8454
 7084SOL     OW32887   4.251   3.611  13.703  0.6106  0.5583 -0.4827
 7084SOL    HW132888   4.275   3.544  13.766 -0.4030 -0.5024 -1.2291
 7084SOL    HW232889   4.298   3.686  13.740  1.5973 -0.4273  0.2510
 7085SOL     OW32890   0.883   1.121  17.072  0.0607  0.1177 -0.2546
 7085SOL    HW132891   0.901   1.193  17.133 -1.4644  1.9505 -1.9375
 7085SOL    HW232892   0.959   1.065  17.085 -0.1083 -0.3067 -1.1147
 7086SOL     OW32893   0.736   2.821   8.116  0.5352  0.4524 -0.3379
 7086SOL    HW132894   0.821   2.784   8.092  0.2398 -0.2880 -0.2481
 7086SOL    HW232895   0.681   2.782   8.048  1.4145  0.1832 -0.8933
 7087SOL     OW32896   1.088   0.179   9.157  0.0417  0.3435  0.0090
 7087SOL    HW132897   1.015   0.231   9.191  0.8738  1.9275 -0.6153
 7087SOL    HW232898   1.142   0.177   9.236 -0.4196  1.0083  0.3419
 7088SOL     OW32899   0.857   4.552   9.190 -0.3726  0.6234 -0.0263
 7088SOL    HW132900   0.770   4.561   9.229  0.2103  1.6304  1.0102
 7088SOL    HW232901   0.836   4.621   9.126 -2.7779 -0.8988 -0.9161
 7089SOL     OW32902   2.689   3.953   8.524  0.3083 -0.2550  0.3590
 7089SOL    HW132903   2.612   3.988   8.479 -0.1948  0.8929  2.0949
 7089SOL    HW232904   2.743   3.912   8.456 -1.1580 -1.7781  0.1175
 7090SOL     OW32905   3.677   2.101   4.953 -0.5375  0.5154  0.1781
 7090SOL    HW132906   3.771   2.114   4.947 -0.7260  1.5197 -0.5727
 7090SOL    HW232907   3.664   2.097   4.858 -3.5594  1.3071  0.5418
 7091SOL     OW32908   0.791   4.092   8.663 -0.3892 -0.2594  0.3375
 7091SOL    HW132909   0.823   4.093   8.573  0.2026  1.8073  0.5693
 7091SOL    HW232910   0.713   4.038   8.651  0.0215 -1.1698  1.7427
 7092SOL     OW32911   3.448   0.126   8.467 -0.1757 -0.1001  0.1884
 7092SOL    HW132912   3.413   0.214   8.459  0.2331  0.0358 -0.1086
 7092SOL    HW232913   3.467   0.117   8.374 -0.1759  0.4149  0.1381
 7093SOL     OW32914   3.116   1.805   9.286 -0.0675 -0.4943 -0.2179
 7093SOL    HW132915   3.044   1.863   9.311  2.0290  1.4601  1.2862
 7093SOL    HW232916   3.166   1.816   9.367 -0.5131 -1.5031  0.1972
 7094SOL     OW32917   4.150   0.365  12.374  0.3525  0.3040  0.0636
 7094SOL    HW132918   4.136   0.447  12.423  1.6308  1.3450 -1.3301
 7094SOL    HW232919   4.242   0.379  12.356  0.8165 -0.9090  1.4600
 7095SOL     OW32920   1.759   3.161   5.847  0.0275 -0.0667 -0.1728
 7095SOL    HW132921   1.794   3.250   5.851 -1.3971  0.4468  1.0318
 7095SOL    HW232922   1.697   3.160   5.920  2.2096  2.3435  1.7257
 7096SOL     OW32923   1.366   4.737   4.775  0.2744  0.0988  0.2496
 7096SOL    HW132924   1.326   0.046   4.700  0.7259 -0.2654 -0.2156
 7096SOL    HW232925   1.436   0.064   4.787 -0.7689  1.1824  0.5231
 7097SOL     OW32926   4.118   2.466   4.610 -0.4282  0.3341 -0.1506
 7097SOL    HW132927   4.211   2.478   4.625  0.2488 -0.6766 -3.6354
 7097SOL    HW232928   4.098   2.384   4.656 -0.5897  1.1806  1.2761
 7098SOL     OW32929   0.973   2.838  10.031 -0.4005 -0.0537 -0.0679
 7098SOL    HW132930   0.893   2.810  10.074  1.5918 -1.6544  2.5893
 7098SOL    HW232931   1.026   2.864  10.107 -0.8306 -0.6702  0.4413
 7099SOL     OW32932   3.284   1.305   1.407 -0.6794 -0.3881  0.2286
 7099SOL    HW132933   3.209   1.264   1.450 -1.4639  0.1723 -0.5934
 7099SOL    HW232934   3.348   1.234   1.412  0.3485  0.4695 -0.9837
 7100SOL     OW32935   3.445   2.315   9.141 -0.0209  0.8100 -0.1934
 7100SOL    HW132936   3.460   2.323   9.047 -1.4060  1.1457 -0.3839
 7100SOL    HW232937   3.414   2.402   9.167 -1.3186  0.0283  0.8668
 7101SOL     OW32938   0.290   3.869  10.780  0.2267  0.0497  0.0718
 7101SOL    HW132939   0.321   3.955  10.752 -1.3724 -0.0255 -1.9352
 7101SOL    HW232940   0.267   3.824  10.699 -1.6177  0.6966  0.2459
 7102SOL     OW32941   4.465   3.486   3.423  0.4079  0.2995 -0.5158
 7102SOL    HW132942   4.420   3.515   3.343  0.1032 -1.8133 -1.0936
 7102SOL    HW232943   4.517   3.415   3.385 -0.8800  1.0720 -3.7519
 7103SOL     OW32944   0.371   4.365   6.536  0.4028  0.0731  0.1107
 7103SOL    HW132945   0.351   4.315   6.457  1.7932 -0.7928  0.3105
 7103SOL    HW232946   0.336   4.451   6.514 -1.1587 -1.3802 -3.0640
 7104SOL     OW32947   1.592   1.567  11.256  0.0628  0.1908 -0.6036
 7104SOL    HW132948   1.565   1.620  11.181 -1.2892  1.3259  0.6910
 7104SOL    HW232949   1.630   1.498  11.202  1.2558 -0.5943  1.2480
 7105SOL     OW32950   3.877   3.653   5.785  0.4314 -1.0065  0.5365
 7105SOL    HW132951   3.815   3.634   5.854  1.2871 -3.2347  0.7085
 7105SOL    HW232952   3.954   3.653   5.843 -0.5209  1.1716  1.7889
 7106SOL     OW32953   2.195   2.525   3.693  0.3012 -0.4415 -0.3476
 7106SOL    HW132954   2.256   2.590   3.659 -0.2743 -0.6755 -1.8508
 7106SOL    HW232955   2.244   2.487   3.766 -1.8135  0.3995  1.5053
 7107SOL     OW32956   2.190   4.500   6.126  0.0517 -0.0954 -0.0583
 7107SOL    HW132957   2.215   4.499   6.033 -1.5178  4.3797 -0.5114
 7107SOL    HW232958   2.096   4.492   6.111 -0.0628  0.2144  0.4907
 7108SOL     OW32959   3.551   2.522  12.458 -0.7990 -0.9089 -0.3029
 7108SOL    HW132960   3.570   2.429  12.447 -0.2819 -0.8793  0.4170
 7108SOL    HW232961   3.465   2.504  12.496 -0.6067  0.3204  0.7041
 7109SOL     OW32962   2.911   2.386   1.263 -0.1105 -0.7986  0.0988
 7109SOL    HW132963   2.904   2.301   1.308  0.7527 -1.2640 -0.6483
 7109SOL    HW232964   2.875   2.363   1.177 -1.2091 -2.7145  1.0802
 7110SOL     OW32965   1.540   0.041   5.415  0.3670 -0.5476  0.1631
 7110SOL    HW132966   1.623   0.089   5.405  0.0204  0.2188  0.9043
 7110SOL    HW232967   1.529   4.728   5.335  2.5182 -0.0368 -0.4564
 7111SOL     OW32968   0.299   1.787   5.238  0.2899 -0.4634  0.2216
 7111SOL    HW132969   0.231   1.816   5.177  5.2281  3.0149 -3.6962
 7111SOL    HW232970   0.313   1.868   5.288  0.6985 -0.4150  0.0264
 7112SOL     OW32971   0.059   0.981   5.007  0.0426 -0.3740  0.3863
 7112SOL    HW132972   0.148   1.015   5.019 -1.0909  2.4203  0.8846
 7112SOL    HW232973   0.016   1.057   4.967 -1.2070 -1.7932 -0.9447
 7113SOL     OW32974   2.539   1.456   4.069  0.0797  0.3705 -0.0292
 7113SOL    HW132975   2.594   1.387   4.033 -1.2680 -1.1181  0.7270
 7113SOL    HW232976   2.515   1.417   4.153  1.2325  0.1726  0.1979
 7114SOL     OW32977   1.661   1.606   4.896 -0.7481  0.6435 -0.0123
 7114SOL    HW132978   1.651   1.656   4.978  0.0654  0.0351  0.4564
 7114SOL    HW232979   1.598   1.536   4.909 -0.2805 -0.1198 -1.8591
 7115SOL     OW32980   1.410   3.083   8.130  0.2045  0.4730  0.5728
 7115SOL    HW132981   1.437   3.044   8.213 -0.5534 -0.6139  0.3054
 7115SOL    HW232982   1.331   3.031   8.115  0.0607  0.9470 -0.3248
 7116SOL     OW32983   2.307   3.599   9.930 -0.1536  0.2688  0.5757
 7116SOL    HW132984   2.394   3.561   9.916 -0.0023  1.9456 -3.1667
 7116SOL    HW232985   2.288   3.561  10.015  0.4606  1.1815  1.1146
 7117SOL     OW32986   2.453   2.026   8.824 -0.3096 -0.1331  0.0293
 7117SOL    HW132987   2.477   2.057   8.911 -0.6649  0.9847 -0.2595
 7117SOL    HW232988   2.535   2.044   8.779 -0.9822  0.3099 -1.0367
 7118SOL     OW32989   2.955   0.137   3.447 -0.0732  0.3875 -0.4240
 7118SOL    HW132990   3.006   0.129   3.366  2.6617  1.0042  1.2523
 7118SOL    HW232991   2.877   0.089   3.420 -1.2658  1.3010  1.4705
 7119SOL     OW32992   4.442   4.555   6.877  0.2915  0.0340 -0.1545
 7119SOL    HW132993   4.492   4.560   6.959  1.5469  0.6797 -0.9494
 7119SOL    HW232994   4.450   4.462   6.857 -1.8490 -0.3197  0.7385
 7120SOL     OW32995   4.720   0.147   5.386  1.0775 -0.0436  0.0821
 7120SOL    HW132996   4.673   0.116   5.463  0.4299 -0.3502 -0.4425
 7120SOL    HW232997   0.071   0.146   5.425  1.6001 -2.5041 -1.1476
 7121SOL     OW32998   4.713   1.458   5.013 -0.3381  0.6008  0.1053
 7121SOL    HW132999   4.726   1.386   5.076 -2.5350  1.2642  1.3395
 7121SOL    HW233000   4.666   1.521   5.068  1.5375  1.6949  0.4503
 7122SOL     OW33001   0.380   4.531  16.453  0.2313  0.5044 -0.0436
 7122SOL    HW133002   0.415   4.453  16.410  0.4295 -1.0006  2.8175
 7122SOL    HW233003   0.402   4.510  16.544  0.1768  1.0411  0.0945
 7123SOL     OW33004   1.919   2.270   8.802 -0.6415  0.0787  0.5384
 7123SOL    HW133005   1.946   2.352   8.762  0.0758 -0.2421  0.3557
 7123SOL    HW233006   1.940   2.277   8.895  0.8826 -0.3004  0.2293
 7124SOL     OW33007   1.162   3.196   5.432 -0.3170 -0.2484  0.1424
 7124SOL    HW133008   1.146   3.113   5.478  2.7076  0.3096  2.2278
 7124SOL    HW233009   1.098   3.186   5.361  0.6446 -2.0986 -0.4648
 7125SOL     OW33010   2.072   2.001   4.838  0.1027 -0.3112  0.3325
 7125SOL    HW133011   2.152   1.977   4.885  1.8209  1.3311 -1.7783
 7125SOL    HW233012   2.007   1.941   4.874  0.1549  0.2312  1.3336
 7126SOL     OW33013   2.769   3.320   9.800  0.2457 -0.3375 -0.3624
 7126SOL    HW133014   2.742   3.357   9.884 -0.0017  0.2036 -0.6751
 7126SOL    HW233015   2.748   3.394   9.743 -0.4375 -0.8627 -0.7963
 7127SOL     OW33016   2.476   4.440   8.813  0.2013 -0.1107  0.1602
 7127SOL    HW133017   2.399   4.470   8.862  0.0949 -1.0400  0.5505
 7127SOL    HW233018   2.489   4.347   8.832 -0.2504 -0.3242 -0.6109
 7128SOL     OW33019   0.455   1.762   0.847  0.1795 -0.0067 -0.0736
 7128SOL    HW133020   0.485   1.827   0.909 -0.7873 -0.1684  0.5557
 7128SOL    HW233021   0.538   1.717   0.831  1.3017  1.8034  0.7438
 7129SOL     OW33022   3.506   3.657   3.413 -0.0620  0.1763 -0.3551
 7129SOL    HW133023   3.527   3.742   3.375 -1.3937  1.1459  1.0985
 7129SOL    HW233024   3.453   3.609   3.349  1.7938 -1.0630 -0.9768
 7130SOL     OW33025   1.475   2.980   4.924 -0.1657 -0.0055  0.0109
 7130SOL    HW133026   1.481   2.903   4.867 -0.5365  0.8575 -1.1863
 7130SOL    HW233027   1.436   2.939   5.001  2.6365  0.9658  1.9980
 7131SOL     OW33028   1.712   4.663   0.183  0.1721 -0.2501  0.1206
 7131SOL    HW133029   1.805   4.667   0.158  0.4171 -1.5577  0.8585
 7131SOL    HW233030   1.679   4.596   0.124  0.9583 -0.5421  0.0110
 7132SOL     OW33031   0.765   2.614   2.629  0.4768 -0.1025  0.2314
 7132SOL    HW133032   0.673   2.596   2.609  1.0425 -1.7935 -0.8025
 7132SOL    HW233033   0.800   2.563   2.556  0.9177  0.8447 -0.2228
 7133SOL     OW33034   3.371   0.334   3.035 -0.2404 -0.0280 -0.2698
 7133SOL    HW133035   3.436   0.306   3.099  1.3827 -2.5151 -2.9931
 7133SOL    HW233036   3.304   0.370   3.093 -0.4247 -2.6407  1.1577
 7134SOL     OW33037   0.305   0.894   4.432  0.2855  0.2623  0.2988
 7134SOL    HW133038   0.373   0.911   4.367  0.4679  1.0141  0.6856
 7134SOL    HW233039   0.360   0.879   4.509  0.5764  0.1209  0.0641
 7135SOL     OW33040   3.955   1.780   4.499 -0.6572 -0.0980 -0.0769
 7135SOL    HW133041   3.863   1.810   4.498 -0.8496 -0.6841  0.2175
 7135SOL    HW233042   3.995   1.822   4.422  0.2395 -1.7288 -0.4955
 7136SOL     OW33043   2.214   4.454   6.631 -0.6910 -0.4234  0.5170
 7136SOL    HW133044   2.243   4.417   6.714 -0.5026 -1.0730  0.1648
 7136SOL    HW233045   2.264   4.409   6.563 -0.5265  1.1680 -0.4233
 7137SOL     OW33046   1.322   3.407   9.122 -0.3410 -0.1807 -0.0751
 7137SOL    HW133047   1.294   3.498   9.128  0.1429 -0.0520  0.2523
 7137SOL    HW233048   1.416   3.424   9.120 -0.1887 -0.8932  1.1859
 7138SOL     OW33049   3.625   2.600  16.406 -0.3246  0.0444  0.5551
 7138SOL    HW133050   3.573   2.526  16.436  0.0670 -0.7217 -0.6498
 7138SOL    HW233051   3.586   2.656  16.474 -3.9780 -1.3622 -0.4068
 7139SOL     OW33052   2.079   2.223   1.338 -0.5123 -0.3563 -0.4967
 7139SOL    HW133053   2.124   2.146   1.302  0.1972  0.2404 -0.9003
 7139SOL    HW233054   2.112   2.220   1.428 -2.8452 -1.6782  0.3091
 7140SOL     OW33055   2.068   4.036   2.774  0.2134  0.4091 -0.2444
 7140SOL    HW133056   2.041   4.063   2.686  2.5148  0.6235 -0.8903
 7140SOL    HW233057   1.985   4.045   2.820  0.7294  1.4900  0.4640
 7141SOL     OW33058   1.420   1.556   0.906 -0.7041  0.0890 -0.3665
 7141SOL    HW133059   1.420   1.460   0.906  2.9621  0.0939 -0.1260
 7141SOL    HW233060   1.415   1.564   1.002  2.5178 -0.5117 -0.1714
 7142SOL     OW33061   3.209   1.696  14.982 -0.4145  0.0978 -0.2004
 7142SOL    HW133062   3.202   1.653  14.897 -1.7697  0.1393 -0.1109
 7142SOL    HW233063   3.181   1.786  14.963 -1.4812 -0.5118 -1.5208
 7143SOL     OW33064   0.427   0.079  16.200 -0.1274  0.3315 -0.5372
 7143SOL    HW133065   0.511   0.095  16.242 -0.7115  0.9947  0.3874
 7143SOL    HW233066   0.372   0.050  16.274 -0.4152 -0.9625 -1.2506
 7144SOL     OW33067   4.072   3.014  15.730  0.6833 -0.1179  0.0594
 7144SOL    HW133068   3.978   2.998  15.725  0.9878 -2.1388  0.8617
 7144SOL    HW233069   4.101   2.929  15.697 -0.9056 -0.9202  0.7659
 7145SOL     OW33070   0.277   0.564  13.725  0.3274 -0.2516  0.0411
 7145SOL    HW133071   0.299   0.622  13.652 -0.9702 -1.4486 -1.3197
 7145SOL    HW233072   0.239   0.628  13.785  0.2493 -0.1591 -0.1052
 7146SOL     OW33073   1.402   3.327   3.861  0.4124 -0.4014 -0.2089
 7146SOL    HW133074   1.453   3.260   3.815 -2.1315 -1.4214 -1.4964
 7146SOL    HW233075   1.366   3.283   3.938  2.2940 -1.4775  0.0648
 7147SOL     OW33076   0.444   3.927   9.117  0.1394 -0.4294  0.7224
 7147SOL    HW133077   0.518   3.918   9.057 -0.4957  4.1685 -0.7107
 7147SOL    HW233078   0.472   3.859   9.179  1.0892 -1.4747 -0.8693
 7148SOL     OW33079   4.542   1.050   5.725  1.0672 -0.3361  0.5340
 7148SOL    HW133080   4.543   1.110   5.800  2.8982  2.4724 -1.7111
 7148SOL    HW233081   4.551   1.110   5.651 -0.5673  0.2179  0.7847
 7149SOL     OW33082   0.955   3.685  17.549  0.6562 -0.0441 -0.5072
 7149SOL    HW133083   0.956   3.674  17.454 -2.5158 -0.1601 -0.5573
 7149SOL    HW233084   0.964   3.597  17.586 -0.4850 -2.0731 -5.0425
 7150SOL     OW33085   2.568   1.060   7.928 -0.6446 -0.5568  0.4566
 7150SOL    HW133086   2.518   1.091   8.003 -0.3374  0.4409  0.2497
 7150SOL    HW233087   2.613   0.984   7.965  1.5503  0.2813 -0.4902
 7151SOL     OW33088   1.345   2.900   8.664  0.2591  0.1006  0.1465
 7151SOL    HW133089   1.273   2.840   8.647 -0.3957  1.1470 -0.7535
 7151SOL    HW233090   1.311   2.989   8.657  0.4118  0.3186  2.2712
 7152SOL     OW33091   2.172   1.395  13.581  0.6143  0.7095 -0.4553
 7152SOL    HW133092   2.242   1.386  13.646 -0.0378  1.5088  0.3633
 7152SOL    HW233093   2.216   1.393  13.497  0.5234  0.5894 -0.4986
 7153SOL     OW33094   4.540   2.680  16.925 -0.2544 -0.0971 -0.0183
 7153SOL    HW133095   4.622   2.643  16.894  0.1993 -2.1724  3.6658
 7153SOL    HW233096   4.571   2.711  17.010 -0.3460  0.2177 -0.1009
 7154SOL     OW33097   3.348   1.764  15.251  0.3789  0.6552  0.5453
 7154SOL    HW133098   3.269   1.746  15.302 -0.6825 -0.6146 -1.5445
 7154SOL    HW233099   3.315   1.791  15.165 -1.7515  1.3671  1.5930
 7155SOL     OW33100   0.524   1.601   6.142  0.6366 -0.3956 -0.0614
 7155SOL    HW133101   0.434   1.608   6.109  0.4651  0.5867  0.6393
 7155SOL    HW233102   0.517   1.595   6.238 -1.2618 -0.2188 -0.1800
 7156SOL     OW33103   3.928   4.585   9.173 -0.5436  0.3965  0.0821
 7156SOL    HW133104   3.856   4.639   9.140 -1.4680  0.0855  1.5825
 7156SOL    HW233105   3.879   4.533   9.237 -0.1624 -0.2070 -0.1206
 7157SOL     OW33106   4.446   3.628   6.929 -0.0261 -0.1789 -0.1729
 7157SOL    HW133107   4.503   3.704   6.919  1.9333 -1.2393  2.9718
 7157SOL    HW233108   4.483   3.562   6.871  1.6148 -0.2228  0.9194
 7158SOL     OW33109   3.258   0.351   1.963  0.3104  0.3843 -0.3892
 7158SOL    HW133110   3.314   0.407   2.018 -1.8455  1.1490  1.0068
 7158SOL    HW233111   3.173   0.358   2.006 -0.0282  2.0389 -1.3238
 7159SOL     OW33112   3.633   2.741   5.504 -0.4350 -0.0022  0.2480
 7159SOL    HW133113   3.718   2.771   5.472 -0.3071  0.8079  1.3453
 7159SOL    HW233114   3.655   2.702   5.588 -0.1432 -1.6663 -0.6098
 7160SOL     OW33115   3.000   4.500   5.332 -0.2116 -0.6917 -0.2009
 7160SOL    HW133116   2.993   4.592   5.306  0.6582 -0.3356  0.8547
 7160SOL    HW233117   3.092   4.482   5.312  0.2044  2.3372 -0.9633
 7161SOL     OW33118   3.253   2.886   7.474  0.3368 -0.0357 -0.1928
 7161SOL    HW133119   3.232   2.828   7.401 -1.1910  1.0741 -0.6295
 7161SOL    HW233120   3.174   2.870   7.525  0.8552  1.7600  1.1541
 7162SOL     OW33121   4.595   3.070   6.464 -0.2887  0.1219  0.4171
 7162SOL    HW133122   4.559   3.007   6.527  0.3804  0.2917  0.9736
 7162SOL    HW233123   4.557   3.036   6.383 -1.7309  1.4116  0.5432
 7163SOL     OW33124   3.851   0.983   3.285  0.0658  0.1614  0.2133
 7163SOL    HW133125   3.800   0.962   3.364  0.0636 -0.9866 -0.0841
 7163SOL    HW233126   3.863   0.894   3.250 -1.8890 -0.3168  0.7451
 7164SOL     OW33127   2.011   1.259   0.884 -0.1425  0.0195 -0.0132
 7164SOL    HW133128   2.054   1.194   0.828 -1.8000 -0.9215 -0.1747
 7164SOL    HW233129   1.991   1.327   0.820 -2.7436  0.5127  1.3301
 7165SOL     OW33130   4.575   2.862  13.342 -0.9382 -0.2203 -0.1267
 7165SOL    HW133131   4.608   2.941  13.385 -0.5430 -0.2193 -0.4311
 7165SOL    HW233132   4.502   2.907  13.298 -2.0690 -1.3243  0.6232
 7166SOL     OW33133   0.199   4.167  15.535 -0.8873 -0.3599 -0.3848
 7166SOL    HW133134   0.176   4.237  15.596  0.4350 -0.6420  0.4437
 7166SOL    HW233135   0.115   4.165  15.490 -0.9345  0.0749 -0.3151
 7167SOL     OW33136   0.787   0.630   6.483  0.1268 -0.0002  0.2817
 7167SOL    HW133137   0.818   0.720   6.470 -4.0559  1.1650 -1.5528
 7167SOL    HW233138   0.698   0.654   6.457  0.5229  1.4866  0.3010
 7168SOL     OW33139   0.407   0.082   5.732 -0.6285 -0.4459 -0.1144
 7168SOL    HW133140   0.494   0.117   5.749 -0.9592 -0.0272  0.7123
 7168SOL    HW233141   0.421   4.729   5.704  0.2574 -0.3577  0.0551
 7169SOL     OW33142   4.253   2.494   0.083  0.6405  0.2468 -0.2067
 7169SOL    HW133143   4.160   2.482   0.069  0.0913  3.4615  0.7606
 7169SOL    HW233144   4.256   2.579   0.126  0.4140 -0.4651  1.2275
 7170SOL     OW33145   0.159   4.252   8.245 -0.2308 -0.0299 -0.4175
 7170SOL    HW133146   0.240   4.287   8.283 -1.0663  1.7109 -0.2377
 7170SOL    HW233147   0.112   4.334   8.226 -0.3390 -0.4409 -1.9466
 7171SOL     OW33148   0.530   1.908   7.921  0.2860  0.3383 -0.2994
 7171SOL    HW133149   0.577   1.954   7.852  0.7717 -0.1157 -0.2769
 7171SOL    HW233150   0.516   1.976   7.987 -0.0085 -0.7063  0.7204
 7172SOL     OW33151   3.719   3.564   4.135 -0.1427 -0.0813 -0.2634
 7172SOL    HW133152   3.685   3.639   4.085 -0.2490 -0.0304 -0.1127
 7172SOL    HW233153   3.650   3.499   4.120  1.8416 -1.6271 -2.7235
 7173SOL     OW33154   0.020   0.464  14.482 -0.1258 -0.3563  0.1333
 7173SOL    HW133155   4.709   0.453  14.563  1.0833  1.2477  1.0634
 7173SOL    HW233156   0.098   0.414  14.509  0.1619  0.5740  1.0051
 7174SOL     OW33157   1.653   0.678  16.799  0.1748 -0.6153 -0.1081
 7174SOL    HW133158   1.706   0.617  16.749 -1.0533 -0.4033 -1.6711
 7174SOL    HW233159   1.571   0.632  16.815 -0.6647  1.6589  2.1494
 7175SOL     OW33160   1.245   4.528   9.935 -0.2069 -0.1858 -0.2308
 7175SOL    HW133161   1.197   4.493  10.010 -0.0193  1.9723  0.9029
 7175SOL    HW233162   1.220   4.476   9.859 -0.5523 -1.7772  0.9805
 7176SOL     OW33163   1.882   2.777  14.024 -0.1900 -0.2913 -0.1429
 7176SOL    HW133164   1.929   2.717  13.965 -0.2716  0.9135 -1.4344
 7176SOL    HW233165   1.948   2.840  14.054 -1.2025  1.6200 -1.9539
 7177SOL     OW33166   4.489   2.514   6.019 -0.2311  0.2628 -0.8979
 7177SOL    HW133167   4.577   2.491   6.049 -0.1305  0.3115 -1.1588
 7177SOL    HW233168   4.472   2.441   5.959 -2.8600  0.1410 -0.0312
 7178SOL     OW33169   3.059   1.157   1.493  0.0714 -0.0437 -0.7589
 7178SOL    HW133170   3.045   1.067   1.463 -0.4200  0.0682 -0.8650
 7178SOL    HW233171   2.980   1.167   1.546  0.4432  2.4935 -0.6851
 7179SOL     OW33172   4.647   0.390  16.630 -0.2216  0.0685  0.3168
 7179SOL    HW133173   4.723   0.424  16.677 -0.5970  0.3961  0.6892
 7179SOL    HW233174   4.670   0.298  16.619 -1.1144  0.1062 -1.7475
 7180SOL     OW33175   0.000   0.913  15.038 -0.4331  0.3935  0.3267
 7180SOL    HW133176   4.686   0.927  15.117 -0.2238  0.9919  0.3616
 7180SOL    HW233177   0.072   0.862  15.074  2.0479  2.6771 -1.3585
 7181SOL     OW33178   2.488   1.139  11.276  0.4695 -0.3967  0.2653
 7181SOL    HW133179   2.565   1.119  11.224  0.2464 -2.1371  0.5894
 7181SOL    HW233180   2.513   1.224  11.312  0.3868 -0.0011 -0.6211
 7182SOL     OW33181   1.718   0.185   8.566  0.4750  0.3960 -0.2382
 7182SOL    HW133182   1.642   0.237   8.590  0.5366  0.6567 -0.6157
 7182SOL    HW233183   1.775   0.196   8.642  0.5970  2.3328 -0.6220
 7183SOL     OW33184   2.186   2.019  14.581  0.4006  0.2170  0.1398
 7183SOL    HW133185   2.227   2.036  14.496  1.6831  0.5148  0.8174
 7183SOL    HW233186   2.236   1.944  14.614 -0.1118 -0.7432 -1.2723
 7184SOL     OW33187   3.292   0.892  12.555  0.5275 -0.2748  0.2808
 7184SOL    HW133188   3.324   0.919  12.469  0.3328 -0.5818  0.1093
 7184SOL    HW233189   3.262   0.978  12.583 -0.1131 -0.1437 -0.7993
 7185SOL     OW33190   0.725   3.983   0.978  0.2922  0.0685 -0.1177
 7185SOL    HW133191   0.793   4.021   0.922  0.7829 -0.0876  0.3715
 7185SOL    HW233192   0.697   3.914   0.919  1.6799  0.2696 -1.0052
 7186SOL     OW33193   1.400   3.339   4.716 -0.5309  0.9834  0.2193
 7186SOL    HW133194   1.396   3.319   4.810  0.0224 -1.9343 -0.3811
 7186SOL    HW233195   1.337   3.411   4.716  0.1009  1.5249 -1.3939
 7187SOL     OW33196   0.888   2.596   0.337  0.1171  0.4993 -0.4384
 7187SOL    HW133197   0.806   2.638   0.312  0.1213  0.5723 -0.3308
 7187SOL    HW233198   0.918   2.661   0.402 -3.8621  0.9412  0.9279
 7188SOL     OW33199   2.025   0.587  13.856  0.0470 -0.7956  0.1945
 7188SOL    HW133200   1.940   0.629  13.868 -1.8687 -3.6754 -3.5241
 7188SOL    HW233201   2.045   0.565  13.947  0.0480 -0.4188  0.2851
 7189SOL     OW33202   0.352   3.539  15.712  0.4720  0.5547  0.0179
 7189SOL    HW133203   0.308   3.623  15.703 -1.1001 -0.3664 -1.0115
 7189SOL    HW233204   0.429   3.571  15.758 -1.4345  1.3564  2.6549
 7190SOL     OW33205   3.637   3.647  10.494  0.6367 -0.3488 -0.6524
 7190SOL    HW133206   3.616   3.698  10.572 -0.0128 -1.6645  0.0331
 7190SOL    HW233207   3.657   3.724  10.440 -0.0184  0.5303  0.3492
 7191SOL     OW33208   4.651   1.100   2.387  0.3944 -0.3293 -0.0415
 7191SOL    HW133209   4.660   1.066   2.476  1.2509  0.1100  0.0373
 7191SOL    HW233210   4.683   1.020   2.345 -2.2425 -0.1766 -2.3775
 7192SOL     OW33211   2.677   1.882   7.476  0.1785  0.1099 -0.3807
 7192SOL    HW133212   2.643   1.793   7.478  0.0460  0.2378  2.9914
 7192SOL    HW233213   2.771   1.862   7.473  0.0371 -0.3980 -1.6130
 7193SOL     OW33214   1.883   3.178  11.931 -0.0734  0.1139  0.3169
 7193SOL    HW133215   1.945   3.250  11.945  1.1677 -0.4693 -2.2146
 7193SOL    HW233216   1.904   3.109  11.994  1.5275  0.7665  0.5058
 7194SOL     OW33217   0.923   3.083  16.822  0.7423  0.2754 -0.7157
 7194SOL    HW133218   0.834   3.066  16.851  0.3870  1.4621 -1.0929
 7194SOL    HW233219   0.932   3.178  16.827 -1.3878  0.4125  0.1863
 7195SOL     OW33220   3.841   4.569   6.800  0.2486  0.2731  0.2083
 7195SOL    HW133221   3.791   4.496   6.836  4.5583 -2.7484  0.1228
 7195SOL    HW233222   3.775   4.609   6.744  0.3267 -1.1710 -0.9078
 7196SOL     OW33223   2.041   2.208  12.822 -0.0534 -0.2481  0.4333
 7196SOL    HW133224   2.048   2.113  12.817 -3.0565 -0.5629  1.9499
 7196SOL    HW233225   2.023   2.221  12.915 -1.8818 -1.6158  0.2760
 7197SOL     OW33226   0.315   2.530   1.034  0.0425 -0.0588 -0.4328
 7197SOL    HW133227   0.308   2.563   1.124  0.9513 -0.1459 -0.3341
 7197SOL    HW233228   0.401   2.560   1.005  1.4572  0.4364  4.3135
 7198SOL     OW33229   0.088   2.511  15.032  0.0524  0.3095 -0.3509
 7198SOL    HW133230   0.076   2.452  14.958  0.6382  1.3624 -1.2778
 7198SOL    HW233231   0.140   2.454  15.089  1.4170  1.8678 -0.0375
 7199SOL     OW33232   3.367   4.263   1.507 -0.0218 -0.3153  0.5526
 7199SOL    HW133233   3.419   4.214   1.570 -0.4417  0.8209  1.7706
 7199SOL    HW233234   3.332   4.332   1.564 -2.7504 -1.8894  0.7794
 7200SOL     OW33235   1.128   3.884   2.347  0.4992  0.0159 -0.1375
 7200SOL    HW133236   1.213   3.840   2.350  0.7147  0.4467  0.0538
 7200SOL    HW233237   1.086   3.836   2.418 -1.2607  1.4728 -0.1846
 7201SOL     OW33238   0.768   0.935   6.643  0.0805 -0.5051  0.2030
 7201SOL    HW133239   0.775   0.959   6.550  1.2977  1.2599  0.7275
 7201SOL    HW233240   0.837   0.869   6.651  2.4804  1.7775 -1.4831
 7202SOL     OW33241   2.904   1.686   9.121 -0.6078  0.1028  0.4400
 7202SOL    HW133242   2.845   1.718   9.189 -1.7127  0.4861 -0.7116
 7202SOL    HW233243   2.991   1.694   9.161 -1.1103  1.7208  1.1860
 7203SOL     OW33244   3.901   2.616  17.511  0.1309 -0.7350 -0.1196
 7203SOL    HW133245   3.985   2.633  17.468  0.5644  0.4726  1.1779
 7203SOL    HW233246   3.871   2.707  17.514  0.4032 -0.7287  2.3807
 7204SOL     OW33247   1.031   0.830   2.099 -0.1547  0.3525  0.1442
 7204SOL    HW133248   1.026   0.769   2.026  2.3198 -2.3987  2.2361
 7204SOL    HW233249   0.941   0.861   2.099  0.2604  1.6238  1.6751
 7205SOL     OW33250   0.267   0.594   4.274  0.5913 -0.1884 -0.2927
 7205SOL    HW133251   0.261   0.593   4.369 -1.6356 -1.1797 -0.4432
 7205SOL    HW233252   0.188   0.645   4.253  0.3998  0.7786  2.7702
 7206SOL     OW33253   1.813   0.945   5.179  0.2282  0.3427 -0.1272
 7206SOL    HW133254   1.753   0.876   5.206  1.8215 -0.3581  1.5810
 7206SOL    HW233255   1.796   0.961   5.086  0.7894 -1.0385 -0.4693
 7207SOL     OW33256   0.934   0.743   8.666 -0.4526  0.7182  0.1935
 7207SOL    HW133257   0.916   0.722   8.574 -0.2760 -1.3465  0.6319
 7207SOL    HW233258   0.996   0.673   8.687  1.2675  1.7055 -1.5724
 7208SOL     OW33259   1.757   2.107   6.334 -0.0825 -0.0161 -0.3787
 7208SOL    HW133260   1.841   2.062   6.340  0.8928  1.3947 -3.5200
 7208SOL    HW233261   1.698   2.031   6.340 -0.7617  0.6014  0.8992
 7209SOL     OW33262   2.504   0.273   8.773  0.0904  0.3872  0.0869
 7209SOL    HW133263   2.478   0.185   8.802  1.5607 -0.0140  0.1891
 7209SOL    HW233264   2.579   0.240   8.722 -0.3858  0.7114 -0.8217
 7210SOL     OW33265   4.607   3.823   7.039  0.3124  0.0183 -0.3858
 7210SOL    HW133266   4.675   3.891   7.047  0.8140 -0.3497 -1.4786
 7210SOL    HW233267   4.569   3.854   6.957  1.7280  1.2545 -0.5783
 7211SOL     OW33268   3.471   1.640   8.394  0.4298 -0.3638  0.5019
 7211SOL    HW133269   3.450   1.678   8.480  2.0867  0.2144  0.6564
 7211SOL    HW233270   3.566   1.647   8.410  0.3348  0.4225  0.7253
 7212SOL     OW33271   0.083   4.093  10.629  0.4886 -0.1376 -0.2771
 7212SOL    HW133272   0.065   4.158  10.697 -1.7745 -0.2077 -0.8264
 7212SOL    HW233273   0.176   4.084  10.649  0.5417 -3.0400 -1.8763
 7213SOL     OW33274   1.077   0.582   4.061 -0.0680 -0.4536 -0.2720
 7213SOL    HW133275   1.059   0.616   3.974  0.5417 -2.0052 -0.9907
 7213SOL    HW233276   1.169   0.560   4.048 -0.4253 -2.0758  0.0044
 7214SOL     OW33277   4.146   1.480   8.179  0.1795  0.2563  0.6537
 7214SOL    HW133278   4.220   1.459   8.122 -1.2744  2.2392 -1.9543
 7214SOL    HW233279   4.143   1.575   8.177  0.4593  0.2667  0.6684
 7215SOL     OW33280   0.856   2.753   8.661 -0.6654 -0.0285  0.2269
 7215SOL    HW133281   0.792   2.723   8.726  2.4952 -2.0865  2.3907
 7215SOL    HW233282   0.834   2.691   8.592  0.6354  1.6572 -1.7082
 7216SOL     OW33283   4.595   3.551   2.728 -0.2702 -0.3229  0.0034
 7216SOL    HW133284   4.617   3.508   2.810 -2.4604 -0.2253  0.6388
 7216SOL    HW233285   4.527   3.493   2.693 -1.6024  0.6271  1.0024
 7217SOL     OW33286   1.250   1.625   7.209 -0.6560 -0.7095 -0.0482
 7217SOL    HW133287   1.217   1.537   7.192 -1.5609 -0.1438 -1.2430
 7217SOL    HW233288   1.168   1.674   7.204 -0.2590  0.2811  3.4273
 7218SOL     OW33289   3.892   0.975   3.786  0.4579  0.6652 -0.4678
 7218SOL    HW133290   3.902   1.043   3.853  0.7345  0.0768  0.0958
 7218SOL    HW233291   3.875   0.898   3.841 -1.4710  2.3002  1.2483
 7219SOL     OW33292   2.150   3.843   1.869  0.4842  0.2546 -0.4680
 7219SOL    HW133293   2.121   3.887   1.789  0.9832  2.0887  0.3584
 7219SOL    HW233294   2.120   3.906   1.935 -1.0837 -0.1484 -0.7961
 7220SOL     OW33295   3.778   2.523   3.853  0.5473 -0.7017 -0.2066
 7220SOL    HW133296   3.701   2.580   3.857  0.5623 -0.5636 -1.8057
 7220SOL    HW233297   3.771   2.482   3.939 -0.8428 -1.4677 -0.6747
 7221SOL     OW33298   2.871   1.727  12.946 -0.3186  0.3982  0.0004
 7221SOL    HW133299   2.944   1.717  12.884  1.4914  0.8862  2.0327
 7221SOL    HW233300   2.793   1.760  12.903  1.0624 -0.0445 -2.8543
 7222SOL     OW33301   0.751   4.311   6.724 -0.0104 -0.3690 -0.2017
 7222SOL    HW133302   0.728   4.349   6.639 -0.0304 -3.2779 -1.4871
 7222SOL    HW233303   0.714   4.223   6.731  0.8175 -0.6515  0.5899
 7223SOL     OW33304   2.161   2.582   8.700 -0.1728  0.3520 -0.5096
 7223SOL    HW133305   2.132   2.638   8.772  1.6746  0.2499  0.3059
 7223SOL    HW233306   2.179   2.643   8.629  0.0597 -0.2695 -0.9833
 7224SOL     OW33307   4.563   4.505   5.031 -0.1903  0.4043  0.1417
 7224SOL    HW133308   4.544   4.511   4.938  3.2121  1.3385 -0.5139
 7224SOL    HW233309   4.657   4.524   5.041 -0.2132  0.6119 -0.0404
 7225SOL     OW33310   4.240   2.731   9.550  0.3592  0.6685  0.5968
 7225SOL    HW133311   4.216   2.763   9.637 -2.6127  0.0198  0.0181
 7225SOL    HW233312   4.159   2.749   9.502  0.6118 -1.2521 -0.5604
 7226SOL     OW33313   4.199   0.761   6.038 -0.1852 -0.1273  0.2453
 7226SOL    HW133314   4.258   0.766   5.962 -0.1094  0.0453  0.3142
 7226SOL    HW233315   4.239   0.840   6.074  1.3969  0.0032 -1.7768
 7227SOL     OW33316   2.596   3.614   6.037 -0.1441 -0.0763  0.1731
 7227SOL    HW133317   2.615   3.549   5.968  1.6050 -0.8658  1.4057
 7227SOL    HW233318   2.683   3.620   6.075 -1.5897 -1.0628  3.6063
 7228SOL     OW33319   0.972   2.609  17.738 -0.0613  0.5779 -0.0176
 7228SOL    HW133320   0.883   2.574   0.001  0.6539 -1.2417 -0.0225
 7228SOL    HW233321   0.990   2.597  17.645 -1.4786 -1.7663  0.0227
 7229SOL     OW33322   4.591   0.053   7.265 -0.0966  0.0566 -0.2599
 7229SOL    HW133323   4.579   0.135   7.217  3.0096 -0.5488 -2.0375
 7229SOL    HW233324   4.508   0.053   7.313  1.7305 -0.0203  2.8817
 7230SOL     OW33325   3.618   3.737   5.364  0.2761  0.5457 -0.2526
 7230SOL    HW133326   3.698   3.752   5.314 -1.4473  0.4109 -3.0532
 7230SOL    HW233327   3.630   3.645   5.389  3.3481  0.4639 -1.9836
 7231SOL     OW33328   3.414   3.515  16.937 -0.4178  0.3308  0.4745
 7231SOL    HW133329   3.327   3.534  16.902 -0.6423 -1.4830  0.1016
 7231SOL    HW233330   3.403   3.502  17.031 -1.9170  3.2405  0.7251
 7232SOL     OW33331   4.395   0.203  12.456 -0.5804  0.3774 -0.2574
 7232SOL    HW133332   4.456   0.169  12.391 -1.0344 -1.5186  0.2997
 7232SOL    HW233333   4.328   0.134  12.453 -0.9770  0.5890  4.0554
 7233SOL     OW33334   2.677   3.094   9.704  0.6472  0.4387  0.2922
 7233SOL    HW133335   2.717   3.170   9.746 -0.8564  0.3795  1.8030
 7233SOL    HW233336   2.611   3.132   9.646 -1.5882  0.0417  2.5672
 7234SOL     OW33337   4.220   2.002   8.515 -0.3222  0.1299  0.6358
 7234SOL    HW133338   4.232   2.091   8.547 -0.0645 -0.2945  1.7375
 7234SOL    HW233339   4.313   1.978   8.516 -1.0047 -2.5273  0.7291
 7235SOL     OW33340   3.572   1.641   1.902  0.0226  0.2454 -0.1953
 7235SOL    HW133341   3.544   1.732   1.889  2.1405  0.9219  0.0691
 7235SOL    HW233342   3.515   1.616   1.974  0.4238  0.6039  0.2430
 7236SOL     OW33343   0.661   0.820   8.616  0.1901  0.4604  0.7493
 7236SOL    HW133344   0.749   0.840   8.648  0.8956  0.6655 -1.3497
 7236SOL    HW233345   0.657   0.725   8.630  0.3129  0.1944 -0.9706
 7237SOL     OW33346   2.353   4.519   3.928  0.0645 -0.2486 -0.2396
 7237SOL    HW133347   2.446   4.497   3.922  0.0151 -0.7410  0.8347
 7237SOL    HW233348   2.311   4.457   3.868  0.4101 -1.0441  0.3372
 7238SOL     OW33349   1.105   0.115   3.906 -0.2060  0.3810 -0.0309
 7238SOL    HW133350   1.162   0.077   3.973 -1.2879 -2.5038 -0.7600
 7238SOL    HW233351   1.080   0.195   3.952  0.5038  0.3503  0.4086
 7239SOL     OW33352   3.375   3.426   4.696 -0.7694 -0.6743  0.0735
 7239SOL    HW133353   3.402   3.514   4.669  0.5948 -0.7794  1.0648
 7239SOL    HW233354   3.454   3.394   4.740 -0.5510  1.6776  1.3985
 7240SOL     OW33355   0.219   1.144   4.581 -0.0854 -0.1568 -0.1736
 7240SOL    HW133356   0.183   1.172   4.497  1.0790 -0.9587 -0.9492
 7240SOL    HW233357   0.239   1.053   4.557 -2.3975 -0.8267  0.5185
 7241SOL     OW33358   4.650   4.677   0.298 -0.2689  0.4120  0.8130
 7241SOL    HW133359   4.591   4.736   0.252  0.3901 -0.4145 -1.0672
 7241SOL    HW233360   4.660   4.599   0.244 -2.1870  1.0818 -0.5059
 7242SOL     OW33361   1.452   1.585   9.353  0.2250  0.7105 -0.1202
 7242SOL    HW133362   1.453   1.624   9.440 -0.4657 -0.7201  0.5277
 7242SOL    HW233363   1.416   1.498   9.370  1.3265  0.1790 -0.5188
 7243SOL     OW33364   1.028   1.720   6.886 -0.5115 -0.1583 -0.5066
 7243SOL    HW133365   1.052   1.730   6.978 -0.2650  2.1987 -0.8113
 7243SOL    HW233366   0.945   1.676   6.900 -0.9122  0.6349 -0.3873
 7244SOL     OW33367   0.327   2.270  12.826  0.0668  0.0212 -0.0658
 7244SOL    HW133368   0.276   2.253  12.747 -0.0929 -1.0042  0.2663
 7244SOL    HW233369   0.399   2.319  12.786  1.0218  1.0926  2.9696
 7245SOL     OW33370   4.359   3.151   6.204  0.5789  0.3939  0.1322
 7245SOL    HW133371   4.321   3.063   6.193 -0.3949  0.8262  0.0264
 7245SOL    HW233372   4.447   3.134   6.170  0.8448 -1.9528  1.9675
 7246SOL     OW33373   0.459   2.090   6.793  0.2961  0.0202 -0.0752
 7246SOL    HW133374   0.529   2.114   6.853 -0.7384 -0.6835  1.4222
 7246SOL    HW233375   0.399   2.055   6.859 -0.1106  1.4087  0.2984
 7247SOL     OW33376   2.632   0.212   4.186  0.3014 -0.1135  0.4232
 7247SOL    HW133377   2.570   0.282   4.168  1.3530  0.6612 -0.1887
 7247SOL    HW233378   2.586   0.181   4.264  1.2086  0.7198  1.2943
 7248SOL     OW33379   2.792   3.633   4.342 -0.3403 -0.4286 -0.1815
 7248SOL    HW133380   2.742   3.671   4.413  0.2701  1.6002 -0.8559
 7248SOL    HW233381   2.722   3.578   4.306 -1.3482  0.3882  0.5415
 7249SOL     OW33382   2.488   0.171   4.395  0.4206  0.0508 -0.1453
 7249SOL    HW133383   2.414   0.115   4.370 -1.3301  1.5946  1.5877
 7249SOL    HW233384   2.522   0.124   4.471  2.8836  3.1694  0.6742
 7250SOL     OW33385   0.334   4.300   6.270 -0.1021 -0.0159 -0.4478
 7250SOL    HW133386   0.351   4.256   6.187  3.0214 -1.1510  0.8139
 7250SOL    HW233387   0.262   4.361   6.249  0.0953  0.3947  0.0586
 7251SOL     OW33388   3.729   3.974  10.458  0.0573 -0.1781 -0.2105
 7251SOL    HW133389   3.792   3.987  10.387  0.7881 -1.2120  0.2562
 7251SOL    HW233390   3.660   3.931  10.407  0.2694  0.1584 -0.7787
 7252SOL     OW33391   2.343   3.921   7.948 -0.4099  0.0444  0.4655
 7252SOL    HW133392   2.413   3.986   7.942  0.3382 -1.1362 -4.0181
 7252SOL    HW233393   2.275   3.952   7.888 -0.1048 -0.0302  0.0817
 7253SOL     OW33394   3.972   4.251   6.863 -0.1558  0.7766  0.7226
 7253SOL    HW133395   3.989   4.159   6.886 -0.3698  0.3066 -1.0070
 7253SOL    HW233396   3.878   4.240   6.844  0.5844 -1.4936 -1.5394
 7254SOL     OW33397   1.990   2.115   9.086 -0.3159  0.5150  0.2099
 7254SOL    HW133398   1.899   2.141   9.100 -0.8011 -0.9823 -0.2646
 7254SOL    HW233399   2.036   2.184   9.135 -0.7359  0.4333  0.7162
 7255SOL     OW33400   1.265   0.208  15.676  0.3623 -0.2603 -0.3391
 7255SOL    HW133401   1.180   0.251  15.661  0.5550 -0.6707 -2.6425
 7255SOL    HW233402   1.306   0.220  15.590  1.2782 -0.5129  0.0667
 7256SOL     OW33403   1.507   1.400   6.170 -0.3115 -0.0770  0.0561
 7256SOL    HW133404   1.441   1.351   6.121 -0.1652  1.2724 -1.5387
 7256SOL    HW233405   1.516   1.344   6.246 -2.5242  0.1715  0.4835
 7257SOL     OW33406   0.003   4.294   6.533 -0.0238 -0.4965  0.2737
 7257SOL    HW133407   4.645   4.287   6.527 -0.1744  3.0332 -1.7396
 7257SOL    HW233408   0.015   4.372   6.479  1.1676 -1.0755 -0.2931
 7258SOL     OW33409   0.589   3.984   1.815  0.1675 -0.0968 -0.5630
 7258SOL    HW133410   0.598   4.005   1.908  0.0444 -0.6478 -0.4222
 7258SOL    HW233411   0.659   4.031   1.770 -0.0309  0.9881  0.2635
 7259SOL     OW33412   2.911   2.606   1.647  0.5274  0.1625  0.3866
 7259SOL    HW133413   2.936   2.638   1.733 -0.9515  1.6307  0.2700
 7259SOL    HW233414   2.822   2.574   1.660  0.0966  1.2700  0.1290
 7260SOL     OW33415   4.612   2.740  17.205  0.0374  0.3472 -0.1196
 7260SOL    HW133416   4.664   2.793  17.265  0.6339 -0.2237 -0.1267
 7260SOL    HW233417   4.546   2.711  17.267  1.8207  1.8053  2.4606
 7261SOL     OW33418   2.031   4.636   4.287 -0.0315  0.0122  0.2466
 7261SOL    HW133419   2.062   4.568   4.226  1.3357 -1.1717  2.2677
 7261SOL    HW233420   1.939   4.611   4.280 -0.1245 -0.0534  1.8649
 7262SOL     OW33421   4.022   0.297   6.649 -0.9323 -0.0674  0.0719
 7262SOL    HW133422   4.110   0.268   6.674 -1.0933  0.7337  1.6208
 7262SOL    HW233423   4.007   0.342   6.733  0.9163 -1.0332  0.9297
 7263SOL     OW33424   2.398   1.118  17.533  0.1581 -0.9219  0.6904
 7263SOL    HW133425   2.333   1.048  17.544 -1.0679 -0.5157 -3.6839
 7263SOL    HW233426   2.347   1.197  17.547 -0.3448 -1.2800  0.8677
 7264SOL     OW33427   2.172   0.422   4.647  0.2117 -0.1333 -0.6277
 7264SOL    HW133428   2.213   0.469   4.720  1.5832  0.2676 -1.6606
 7264SOL    HW233429   2.154   0.336   4.685 -1.8525 -0.2705 -1.9528
 7265SOL     OW33430   1.367   0.428   5.655 -0.2490 -0.3577  0.1290
 7265SOL    HW133431   1.447   0.464   5.693  0.4883  0.1387 -1.9459
 7265SOL    HW233432   1.400   0.339   5.643  1.4107  0.5579 -2.0726
 7266SOL     OW33433   3.377   1.066   9.129 -0.4369  0.1134 -0.0275
 7266SOL    HW133434   3.390   1.156   9.097 -0.6352  0.9026  2.0640
 7266SOL    HW233435   3.342   1.083   9.217 -0.8735  0.1303 -0.2057
 7267SOL     OW33436   4.232   4.048   4.719  0.1308  0.0162 -0.4207
 7267SOL    HW133437   4.214   3.958   4.692 -0.1648  0.4970 -1.7974
 7267SOL    HW233438   4.144   4.085   4.731 -0.0549 -1.0794  1.5952
 7268SOL     OW33439   3.107   3.287   8.807 -0.3109 -0.4859 -0.4825
 7268SOL    HW133440   3.130   3.237   8.886 -0.6827 -1.4267 -0.9707
 7268SOL    HW233441   3.067   3.220   8.751  0.4390 -1.0466 -0.3486
 7269SOL     OW33442   3.269   0.177   4.945 -0.4248 -0.6649 -0.0077
 7269SOL    HW133443   3.294   0.119   4.874  1.6229  2.7297 -2.0139
 7269SOL    HW233444   3.174   0.185   4.937 -0.3693 -0.1438 -0.1260
 7270SOL     OW33445   3.443   3.544   5.018  0.3797 -0.2249  0.0813
 7270SOL    HW133446   3.400   3.595   4.949 -0.2380  0.5190  1.0162
 7270SOL    HW233447   3.396   3.581   5.093  0.4475  1.3928 -0.6739
 7271SOL     OW33448   0.734   3.027  11.349  0.1896  0.5596  0.0249
 7271SOL    HW133449   0.726   3.052  11.441 -0.5951 -3.6497  1.0669
 7271SOL    HW233450   0.771   2.939  11.351 -1.0332  0.0532 -0.3127
 7272SOL     OW33451   1.857   2.303   7.684 -0.2669  0.1605  0.1807
 7272SOL    HW133452   1.941   2.262   7.704 -0.2705  0.0114 -0.1122
 7272SOL    HW233453   1.800   2.296   7.761 -1.6345 -0.6535 -0.9109
 7273SOL     OW33454   3.035   0.286   2.379  0.0242 -0.5164  0.4088
 7273SOL    HW133455   3.112   0.241   2.414 -0.5698 -0.7869  1.3657
 7273SOL    HW233456   3.029   0.365   2.433  1.0142 -0.7528  0.8770
 7274SOL     OW33457   2.548   3.792   7.487 -0.5251 -0.1076  0.5490
 7274SOL    HW133458   2.490   3.778   7.412  0.5512 -0.6416 -0.1876
 7274SOL    HW233459   2.505   3.870   7.521  1.6756  1.4081 -0.1140
 7275SOL     OW33460   1.285   1.256   6.033 -0.2117  0.3284  0.1645
 7275SOL    HW133461   1.258   1.262   6.125  2.0718 -3.9024  1.1137
 7275SOL    HW233462   1.201   1.268   5.990 -0.9003  0.2925  1.4995
 7276SOL     OW33463   3.370   2.871   9.407 -0.3700 -0.2543 -0.5283
 7276SOL    HW133464   3.380   2.897   9.498 -1.9364  0.1317 -0.4665
 7276SOL    HW233465   3.455   2.828   9.398 -0.6008 -0.8042 -0.0060
 7277SOL     OW33466   1.045   3.160   9.793 -0.4976 -0.0981  0.0040
 7277SOL    HW133467   1.138   3.157   9.812 -0.2406  0.6163 -1.1228
 7277SOL    HW233468   1.012   3.111   9.868  2.0414 -0.0431  1.1331
 7278SOL     OW33469   0.280   2.707   5.032  0.1084 -0.3238  0.0950
 7278SOL    HW133470   0.344   2.774   5.009 -1.3763  1.3708  0.8302
 7278SOL    HW233471   0.250   2.752   5.111 -0.4477 -0.9770  0.2605
 7279SOL     OW33472   1.948   1.593   4.600  0.2393  0.3731 -0.3962
 7279SOL    HW133473   2.041   1.570   4.593  0.2260 -0.0316  0.6633
 7279SOL    HW233474   1.940   1.651   4.676  0.5632  0.2873 -0.2976
 7280SOL     OW33475   0.738   3.653   9.848 -0.1122  0.0753  0.5519
 7280SOL    HW133476   0.816   3.695   9.812 -0.8706  0.4792 -0.5961
 7280SOL    HW233477   0.738   3.692   9.935 -0.6631  1.4175 -0.0607
 7281SOL     OW33478   0.155   0.099  12.028 -0.1509  0.1736  0.2277
 7281SOL    HW133479   0.135   0.190  12.049  0.9184  0.5867 -0.5805
 7281SOL    HW233480   0.243   0.118  11.996  1.0501 -1.5596  2.5035
 7282SOL     OW33481   0.633   3.217   5.728  0.1532 -0.2019 -0.1152
 7282SOL    HW133482   0.641   3.205   5.823 -1.9958 -3.1341 -0.3094
 7282SOL    HW233483   0.707   3.273   5.706  0.4923 -0.7891 -0.4769
 7283SOL     OW33484   2.126   1.598  15.287  0.4342 -0.2904 -0.7617
 7283SOL    HW133485   2.126   1.643  15.372  2.1959 -0.8583 -0.4690
 7283SOL    HW233486   2.182   1.651  15.230  0.1289  1.8932  0.9601
 7284SOL     OW33487   3.455   3.052   3.487 -0.0105 -0.7406  0.0176
 7284SOL    HW133488   3.487   3.134   3.448 -2.6163  0.5299  0.5588
 7284SOL    HW233489   3.396   3.076   3.559  2.2864 -1.6866  2.1930
 7285SOL     OW33490   3.356   1.422   7.900  0.0527 -0.4637  0.6853
 7285SOL    HW133491   3.370   1.435   7.994  1.2538 -1.6639  0.6674
 7285SOL    HW233492   3.298   1.495   7.877  1.3349  0.0653 -0.8175
 7286SOL     OW33493   4.343   2.622  13.112  0.1632 -0.7725 -0.2990
 7286SOL    HW133494   4.299   2.660  13.188  0.6028  0.6251 -0.7382
 7286SOL    HW233495   4.418   2.579  13.153  0.7557  1.0556  0.5359
 7287SOL     OW33496   3.023   3.831   3.111 -0.0210  0.0788  0.1009
 7287SOL    HW133497   2.956   3.850   3.045  1.1906  1.0846 -0.8387
 7287SOL    HW233498   2.989   3.902   3.165  1.8712  0.8520  0.2685
 7288SOL     OW33499   3.187   1.549   5.508 -0.8586 -0.6023 -0.0138
 7288SOL    HW133500   3.229   1.630   5.535  3.2578 -2.5166 -0.7810
 7288SOL    HW233501   3.142   1.530   5.591  1.8654 -0.5569  1.4508
 7289SOL     OW33502   1.732   1.133   6.589 -0.2223 -0.0896 -0.7245
 7289SOL    HW133503   1.750   1.039   6.584  0.7373  0.0862 -0.6159
 7289SOL    HW233504   1.683   1.135   6.671 -0.1412 -0.8528 -0.6528
 7290SOL     OW33505   4.639   2.567  10.731  0.0568  0.2338  0.3521
 7290SOL    HW133506   4.555   2.540  10.769  0.2404 -1.2549 -0.2658
 7290SOL    HW233507   4.646   2.659  10.753  1.9692  0.0972  0.3129
 7291SOL     OW33508   3.686   1.356   8.966 -0.6530  0.1298 -0.0240
 7291SOL    HW133509   3.668   1.290   8.899  0.3257 -1.0040  0.8270
 7291SOL    HW233510   3.768   1.316   8.996  0.5516  2.3117 -0.4111
 7292SOL     OW33511   3.331   0.513  10.709 -0.2619 -0.4192  0.1889
 7292SOL    HW133512   3.423   0.514  10.735 -0.3156  2.7816  0.3554
 7292SOL    HW233513   3.325   0.607  10.688  1.8792 -0.3464 -0.1429
 7293SOL     OW33514   2.906   2.672   4.837  0.2517  0.4915  0.0441
 7293SOL    HW133515   2.817   2.707   4.832 -0.3180 -0.8296  0.9772
 7293SOL    HW233516   2.942   2.719   4.762  1.4448  0.2138  0.4395
 7294SOL     OW33517   0.298   4.635   2.394  0.1673 -0.0714 -0.1370
 7294SOL    HW133518   0.204   4.627   2.376  0.5568  0.6017 -2.5171
 7294SOL    HW233519   0.311   4.566   2.459  1.1893  1.4715  1.2856
 7295SOL     OW33520   4.432   4.119   7.676  0.1539  0.4643  0.2003
 7295SOL    HW133521   4.424   4.215   7.680  0.6935  0.5497 -0.7921
 7295SOL    HW233522   4.496   4.111   7.748  1.0707 -0.3784 -0.7127
 7296SOL     OW33523   4.697   2.405   4.433  0.1917  0.2176 -0.1289
 7296SOL    HW133524   4.643   2.434   4.360  0.0179 -0.0262 -0.0949
 7296SOL    HW233525   4.712   2.314   4.407 -1.4807  0.3337 -1.4658
 7297SOL     OW33526   2.866   3.932   7.658 -0.7365 -0.1840 -0.0475
 7297SOL    HW133527   2.826   3.895   7.579  2.6072 -0.9622 -1.3867
 7297SOL    HW233528   2.815   4.011   7.677 -0.4517 -0.9046  3.8193
 7298SOL     OW33529   2.901   3.320   7.815 -0.6032 -0.2364 -0.3454
 7298SOL    HW133530   2.972   3.300   7.753  0.9322  0.5895  1.1610
 7298SOL    HW233531   2.942   3.294   7.897 -0.3911  0.1266 -0.3349
 7299SOL     OW33532   2.460   4.262   6.058  0.0783 -0.3963  0.0997
 7299SOL    HW133533   2.365   4.265   6.049  0.2882  0.4530 -1.8599
 7299SOL    HW233534   2.496   4.198   5.997 -1.5916 -1.5268  0.3155
 7300SOL     OW33535   1.904   0.872  16.891 -0.0354 -0.1120 -0.5210
 7300SOL    HW133536   1.940   0.815  16.823  0.9129  0.2433 -0.3060
 7300SOL    HW233537   1.822   0.826  16.912 -0.1775  0.7486  0.8439
 7301SOL     OW33538   4.167   2.818   4.649  0.7034 -0.5052  0.2297
 7301SOL    HW133539   4.202   2.890   4.597 -1.0050  0.4414  0.3872
 7301SOL    HW233540   4.092   2.792   4.596  0.8480 -0.9134  0.2311
 7302SOL     OW33541   4.734   0.712   3.437  0.0847 -0.0266  0.1005
 7302SOL    HW133542   4.737   0.787   3.378 -2.4436  0.1560  0.2330
 7302SOL    HW233543   4.659   0.725   3.494  0.7893 -0.3387  1.1012
 7303SOL     OW33544   1.876   2.786   3.482 -0.4279  0.0346 -0.0018
 7303SOL    HW133545   1.961   2.800   3.523  0.0090 -0.4483 -0.7198
 7303SOL    HW233546   1.889   2.806   3.389  0.5183 -0.0864  0.0994
 7304SOL     OW33547   3.820   0.501  14.162  0.5236 -0.3299  0.2440
 7304SOL    HW133548   3.843   0.513  14.070 -1.2979  1.4970  0.0319
 7304SOL    HW233549   3.732   0.540  14.164 -0.5188 -2.6263 -1.2510
 7305SOL     OW33550   0.134   0.797   1.129 -0.7666 -0.1643 -0.4131
 7305SOL    HW133551   0.228   0.815   1.133 -0.7313 -1.1028  2.4340
 7305SOL    HW233552   0.128   0.702   1.141 -1.3086  0.0377  0.8701
 7306SOL     OW33553   0.003   3.166   4.636 -0.0880  0.3511  0.0117
 7306SOL    HW133554   0.072   3.231   4.647  2.1622 -2.1539  0.7840
 7306SOL    HW233555   4.667   3.215   4.674  1.2373  2.4846 -0.1762
 7307SOL     OW33556   4.238   1.285  10.413  0.6243  0.2495 -0.3384
 7307SOL    HW133557   4.301   1.355  10.395 -0.0841  1.5405  2.2054
 7307SOL    HW233558   4.297   1.214  10.438 -1.3090 -1.5420 -0.9289
 7308SOL     OW33559   1.406   0.216  11.815 -0.2191 -0.4472  0.3214
 7308SOL    HW133560   1.345   0.280  11.778  1.8680  0.7198 -1.0777
 7308SOL    HW233561   1.440   0.185  11.731 -0.8290 -3.1740  1.0617
 7309SOL     OW33562   3.222   0.641  12.082  0.3876  0.1749  0.2615
 7309SOL    HW133563   3.301   0.679  12.120  1.7927 -2.5611  0.1167
 7309SOL    HW233564   3.199   0.710  12.020 -0.3311 -1.6280 -1.5165
 7310SOL     OW33565   0.758   3.931   6.645 -0.4992 -0.1132  0.6725
 7310SOL    HW133566   0.734   3.843   6.616 -0.5180  0.1384 -0.0773
 7310SOL    HW233567   0.674   3.975   6.660 -0.3469  0.3108  0.3089
 7311SOL     OW33568   3.869   2.225   2.289 -0.3670 -0.3526  0.0382
 7311SOL    HW133569   3.790   2.265   2.254 -0.7210  0.1274  1.3990
 7311SOL    HW233570   3.829   2.158   2.343 -0.7053 -1.9167 -2.1579
 7312SOL     OW33571   3.628   4.051   4.592  0.3767 -0.3968 -0.2968
 7312SOL    HW133572   3.658   4.129   4.639 -2.4600  0.9616 -0.7039
 7312SOL    HW233573   3.535   4.048   4.614  0.6068 -0.8818  0.6014
 7313SOL     OW33574   0.186   1.734   4.804  0.1192  0.1499 -0.3087
 7313SOL    HW133575   0.235   1.670   4.856  0.0253  1.7571  1.7488
 7313SOL    HW233576   0.132   1.682   4.745 -0.2745 -0.1739  0.3353
 7314SOL     OW33577   3.414   0.638   8.230  0.2746 -0.3324  0.3873
 7314SOL    HW133578   3.447   0.568   8.285 -2.0291  1.0800  3.5418
 7314SOL    HW233579   3.451   0.610   8.146 -1.4628  1.6683 -1.0686
 7315SOL     OW33580   0.145   0.019   9.013 -0.1872  0.0610 -0.4286
 7315SOL    HW133581   0.154   4.695   8.940  1.3755  0.9744 -1.0110
 7315SOL    HW233582   0.052   0.030   8.994 -0.8388 -0.7909  2.3218
 7316SOL     OW33583   1.384   0.088   6.983 -0.1303  0.5671  0.2485
 7316SOL    HW133584   1.393   0.165   7.039  1.1288  1.2287 -0.8812
 7316SOL    HW233585   1.314   0.035   7.021 -0.4538  0.3415 -0.6801
 7317SOL     OW33586   4.573   2.500   5.238 -0.1778  0.6942 -0.4620
 7317SOL    HW133587   4.493   2.542   5.272 -0.4474 -0.2988  0.1423
 7317SOL    HW233588   4.577   2.553   5.159  0.0841 -0.4912 -1.2365
 7318SOL     OW33589   4.625   3.992   2.725  0.2246  0.0775 -0.6652
 7318SOL    HW133590   4.611   3.929   2.655  1.1067  0.1887 -0.9476
 7318SOL    HW233591   4.720   4.004   2.727  0.3529 -0.8599 -1.3542
 7319SOL     OW33592   2.992   1.482   2.538 -0.2156  0.1556  0.1021
 7319SOL    HW133593   3.036   1.413   2.489  0.9455 -0.6476  2.3290
 7319SOL    HW233594   2.905   1.468   2.500  0.1942  1.0158 -1.1837
 7320SOL     OW33595   2.002   0.157   1.644  0.7999  0.3109  0.2816
 7320SOL    HW133596   2.004   0.196   1.556 -1.8696  0.6598  0.3779
 7320SOL    HW233597   1.914   0.189   1.664  0.0601 -0.3634 -1.9110
 7321SOL     OW33598   3.775   2.651   3.054  0.5830  0.1898 -0.5546
 7321SOL    HW133599   3.701   2.676   2.998 -0.1336  0.9063  0.7106
 7321SOL    HW233600   3.797   2.740   3.083  1.2136  0.4905 -1.9499
 7322SOL     OW33601   3.323   1.245   8.829 -0.3016  0.1549 -0.2537
 7322SOL    HW133602   3.387   1.277   8.765 -0.5949  0.8852 -0.1751
 7322SOL    HW233603   3.370   1.253   8.912 -2.1149 -2.2156  0.9886
 7323SOL     OW33604   2.153   2.412   1.937 -0.3822  0.2403  0.0645
 7323SOL    HW133605   2.073   2.378   1.976 -0.2334 -1.3916 -1.0558
 7323SOL    HW233606   2.119   2.453   1.857  1.4663 -0.2118 -0.9552
 7324SOL     OW33607   4.487   1.920   5.806  0.3831 -0.4195 -0.5298
 7324SOL    HW133608   4.433   1.911   5.727 -1.7477  1.1749  0.7478
 7324SOL    HW233609   4.421   1.882   5.864 -0.7161  4.0957  1.1518
 7325SOL     OW33610   0.185   4.117   7.638 -0.1474  0.6070 -0.6230
 7325SOL    HW133611   0.190   4.210   7.660  2.0376  0.1041  1.1029
 7325SOL    HW233612   0.171   4.114   7.544  0.1616  2.8887 -0.7379
 7326SOL     OW33613   0.229   0.039   6.901  0.1349  0.0411 -0.5224
 7326SOL    HW133614   0.291   0.082   6.960  0.4847  1.8800 -2.2299
 7326SOL    HW233615   0.221   0.108   6.835  1.3673 -0.2780 -0.9911
 7327SOL     OW33616   1.176   0.370   7.427 -0.5507 -0.0872 -0.2093
 7327SOL    HW133617   1.100   0.323   7.460 -0.3594 -0.7032 -0.6444
 7327SOL    HW233618   1.140   0.458   7.417  0.6053  0.5605  1.5328
 7328SOL     OW33619   1.667   2.411   6.938 -0.0931  0.1280  0.1507
 7328SOL    HW133620   1.676   2.407   6.843  0.8512  2.5057  0.1514
 7328SOL    HW233621   1.715   2.336   6.972 -1.2895 -0.5839  0.2657
 7329SOL     OW33622   1.736   3.179   8.228  0.0514  0.1033  0.9052
 7329SOL    HW133623   1.674   3.234   8.277 -0.5530 -1.1946  1.5834
 7329SOL    HW233624   1.802   3.235   8.187 -1.0211  0.6380 -0.0856
 7330SOL     OW33625   2.000   2.705   0.330 -0.3538 -0.2664 -0.6914
 7330SOL    HW133626   1.986   2.747   0.415 -1.5264  0.3765 -1.2093
 7330SOL    HW233627   2.022   2.773   0.266  0.5953 -1.3854 -1.5519
 7331SOL     OW33628   4.644   0.874   1.033 -0.0762 -0.4629  0.2540
 7331SOL    HW133629   4.723   0.844   1.077 -0.9219 -1.2024  1.2859
 7331SOL    HW233630   4.669   0.937   0.966 -0.8437  0.5118  0.8685
 7332SOL     OW33631   2.539   1.508   1.950 -0.0422 -0.1738 -0.3821
 7332SOL    HW133632   2.556   1.593   1.909 -0.9138 -0.4346 -1.2726
 7332SOL    HW233633   2.506   1.535   2.036 -0.3879  0.4271 -0.7045
 7333SOL     OW33634   0.526   3.306   5.139  0.7576  0.4466 -0.2442
 7333SOL    HW133635   0.449   3.360   5.155 -0.3866 -0.4259 -2.8852
 7333SOL    HW233636   0.486   3.241   5.081 -1.7708  0.1703  1.8505
 7334SOL     OW33637   0.469   3.391   3.615 -0.6596  0.1973  0.5246
 7334SOL    HW133638   0.522   3.417   3.690  1.7148 -1.4508 -0.5805
 7334SOL    HW233639   0.428   3.318   3.662 -1.3468 -0.5533 -1.2268
 7335SOL     OW33640   0.263   0.950  12.158  0.1892 -0.1622  0.1213
 7335SOL    HW133641   0.218   0.928  12.077  0.8064  2.2890 -0.8862
 7335SOL    HW233642   0.195   0.931  12.223 -0.7753  2.9324 -0.0200
 7336SOL     OW33643   1.209   0.174   3.149 -0.1189 -0.2278  0.1726
 7336SOL    HW133644   1.129   0.151   3.101  0.3265 -0.6883 -0.3410
 7336SOL    HW233645   1.243   0.092   3.184 -3.8206 -2.3666 -1.2553
 7337SOL     OW33646   2.121   1.344  16.399  0.2315  0.0019 -0.1217
 7337SOL    HW133647   2.190   1.367  16.462  1.0679  1.9030 -1.7100
 7337SOL    HW233648   2.157   1.266  16.357  0.7482  0.4911 -0.5820
 7338SOL     OW33649   4.365   2.917   2.669  0.5354 -0.0039  0.2490
 7338SOL    HW133650   4.452   2.905   2.632 -0.8076 -0.7859 -2.6835
 7338SOL    HW233651   4.386   2.890   2.758  0.0736  2.1661  1.0271
 7339SOL     OW33652   2.259   2.109   2.836 -0.1226 -0.1895 -0.1112
 7339SOL    HW133653   2.267   2.127   2.929  3.6303 -0.5506 -0.3413
 7339SOL    HW233654   2.233   2.017   2.842 -2.7785  0.5092 -0.7956
 7340SOL     OW33655   4.428   4.361   0.922  0.1376 -0.7038 -0.2906
 7340SOL    HW133656   4.435   4.413   0.842 -2.0862  1.4502  0.9068
 7340SOL    HW233657   4.507   4.390   0.968  0.6011  1.0969 -2.2028
 7341SOL     OW33658   2.195   0.176   5.793 -0.0893  0.4113 -0.4884
 7341SOL    HW133659   2.103   0.184   5.768 -0.3761  0.2123  0.4879
 7341SOL    HW233660   2.239   0.221   5.722 -0.1885  0.8297 -0.2892
 7342SOL     OW33661   3.955   4.321   3.188  0.1734 -0.5365 -0.0758
 7342SOL    HW133662   3.940   4.294   3.279 -1.9330  1.4209  0.1671
 7342SOL    HW233663   4.030   4.276   3.151  0.1817  0.6538 -1.4957
 7343SOL     OW33664   4.226   2.480  15.972  0.6706  0.5363 -0.7943
 7343SOL    HW133665   4.179   2.398  15.986 -0.5436  0.8972 -2.7273
 7343SOL    HW233666   4.158   2.521  15.918  0.0460  0.2855 -0.2070
 7344SOL     OW33667   1.251   1.849   5.402 -0.1213 -0.2317  0.2686
 7344SOL    HW133668   1.285   1.797   5.329  1.5789  0.2335  0.7267
 7344SOL    HW233669   1.218   1.781   5.462  1.1962  0.2806  1.5608
 7345SOL     OW33670   2.603   2.053   6.463 -0.0593 -0.0260 -0.4039
 7345SOL    HW133671   2.671   2.021   6.522 -0.1764  1.3772  0.4675
 7345SOL    HW233672   2.533   2.072   6.525  0.0190  0.9925 -0.6292
 7346SOL     OW33673   0.720   2.642  10.069  0.2398 -0.1562 -0.0241
 7346SOL    HW133674   0.715   2.647  10.165 -2.1148  3.6796 -0.3850
 7346SOL    HW233675   0.742   2.549  10.065 -1.4720 -0.4930 -1.2080
 7347SOL     OW33676   4.530   0.080  12.251  0.3163  0.2187  0.5624
 7347SOL    HW133677   4.478   0.089  12.171  1.4010  1.0426 -0.0534
 7347SOL    HW233678   4.534   4.722  12.257 -2.3076  0.0657 -0.0705
 7348SOL     OW33679   2.859   1.631   6.920 -0.4582 -0.1986 -0.3257
 7348SOL    HW133680   2.835   1.639   7.012  1.2070  1.3627 -0.0206
 7348SOL    HW233681   2.812   1.560   6.876  1.1123 -0.6124 -1.3581
 7349SOL     OW33682   2.433   3.394   6.620  0.1470  0.0068 -0.3137
 7349SOL    HW133683   2.482   3.421   6.542 -1.9683 -1.7196 -2.2344
 7349SOL    HW233684   2.445   3.300   6.613  2.4379  0.2670  0.3448
 7350SOL     OW33685   2.791   1.833  13.705  0.1786 -0.2239  0.0901
 7350SOL    HW133686   2.750   1.913  13.738  0.1823 -0.4305  0.5875
 7350SOL    HW233687   2.714   1.792  13.667  1.5843 -0.5698 -2.3926
 7351SOL     OW33688   0.972   3.736   9.766  0.1274 -0.2408  0.1087
 7351SOL    HW133689   1.055   3.740   9.813  0.2681 -2.0562  0.0244
 7351SOL    HW233690   1.001   3.734   9.674  0.8622  2.0386  0.2831
 7352SOL     OW33691   1.669   0.152   8.003 -0.3661  0.1321 -0.3056
 7352SOL    HW133692   1.636   0.063   7.987  0.2613 -0.2044  0.2665
 7352SOL    HW233693   1.660   0.188   7.915  1.5332 -0.8870 -0.9201
 7353SOL     OW33694   0.800   0.945  11.485 -0.7323 -0.1302  0.0327
 7353SOL    HW133695   0.737   1.014  11.462  0.1393  0.8073  0.4465
 7353SOL    HW233696   0.870   1.003  11.514  0.6065 -1.3528 -0.7531
 7354SOL     OW33697   3.099   4.599   2.266  0.1597  0.9042  0.2331
 7354SOL    HW133698   3.058   4.524   2.310 -0.6984  1.1420 -0.1608
 7354SOL    HW233699   3.017   4.641   2.240  0.1153  0.5459 -0.2142
 7355SOL     OW33700   0.024   4.233   4.144 -0.4112  0.2815  0.1940
 7355SOL    HW133701   0.033   4.182   4.064  1.7507  0.0527  0.5722
 7355SOL    HW233702   4.668   4.234   4.165 -0.0669 -1.3392  1.8216
 7356SOL     OW33703   1.805   2.728   7.895 -0.1388 -0.4097  0.2827
 7356SOL    HW133704   1.867   2.660   7.870 -0.1993 -0.7237  0.9895
 7356SOL    HW233705   1.811   2.785   7.818  0.1264 -1.6785 -0.6207
 7357SOL     OW33706   0.432   0.559   5.522  0.4606 -0.4493  0.5704
 7357SOL    HW133707   0.455   0.640   5.567 -0.8743  1.5554 -2.2866
 7357SOL    HW233708   0.353   0.527   5.564 -0.0403 -0.8461 -0.6805
 7358SOL     OW33709   1.085   4.139   8.725 -0.0281 -0.0974 -0.3985
 7358SOL    HW133710   1.073   4.050   8.695  0.1393 -0.7136  1.3550
 7358SOL    HW233711   1.073   4.191   8.646 -0.9385  1.0899  0.5115
 7359SOL     OW33712   1.877   1.140   5.619  0.3336  0.7117  0.1249
 7359SOL    HW133713   1.872   1.125   5.525  3.4001  0.2080  0.0323
 7359SOL    HW233714   1.930   1.064   5.644  0.8002  0.4145 -1.8263
 7360SOL     OW33715   3.383   0.338  16.696  0.2549 -0.3440  0.3077
 7360SOL    HW133716   3.321   0.407  16.718  1.6113  0.8499  0.3688
 7360SOL    HW233717   3.431   0.377  16.623 -1.8808 -1.4284 -1.6761
 7361SOL     OW33718   3.127   3.636   1.027  0.7997  0.1322  0.1678
 7361SOL    HW133719   3.067   3.707   1.006  1.5894  0.7798  0.0951
 7361SOL    HW233720   3.061   3.567   1.019  1.0040  0.0777 -0.9919
 7362SOL     OW33721   1.047   0.397   3.484 -0.5859  0.1685 -0.4575
 7362SOL    HW133722   0.996   0.387   3.565 -0.4637  2.7198 -0.0463
 7362SOL    HW233723   1.028   0.313   3.443  1.0382  0.1406 -1.1273
 7363SOL     OW33724   4.391   0.192   3.025  0.1787  0.3290 -0.2897
 7363SOL    HW133725   4.378   0.281   3.058 -1.5863  0.3179 -1.0050
 7363SOL    HW233726   4.330   0.191   2.952 -0.7613  0.5728  0.4808
 7364SOL     OW33727   1.611   1.656  10.812  0.0983 -0.0194 -0.1995
 7364SOL    HW133728   1.583   1.701  10.892 -0.1571 -1.0485  0.2963
 7364SOL    HW233729   1.688   1.613  10.849  0.1688 -0.4824 -0.8918
 7365SOL     OW33730   0.505   3.939   4.945  0.8213  0.7046 -0.0066
 7365SOL    HW133731   0.584   3.888   4.924  0.0298 -0.0682 -1.0973
 7365SOL    HW233732   0.515   4.018   4.891 -0.0947  2.1932  2.0000
 7366SOL     OW33733   4.130   2.822   4.957 -0.0678 -0.0402  0.0923
 7366SOL    HW133734   4.174   2.737   4.958 -1.6505 -0.8318  0.9578
 7366SOL    HW233735   4.163   2.856   4.873 -0.8058  1.0040  0.2202
 7367SOL     OW33736   3.735   1.658   9.229 -0.8381 -0.3019  0.2332
 7367SOL    HW133737   3.802   1.708   9.276  0.2410  0.4771 -2.1483
 7367SOL    HW233738   3.734   1.576   9.279  1.5938 -1.0611 -0.9621
 7368SOL     OW33739   0.265   0.584  16.993  0.1486 -0.0260  0.0178
 7368SOL    HW133740   0.318   0.641  16.938 -0.2368 -2.5792 -3.0326
 7368SOL    HW233741   0.218   0.649  17.045  3.1091  1.6636  0.5445
 7369SOL     OW33742   1.814   1.418   1.515  0.4458  0.5301  0.0720
 7369SOL    HW133743   1.867   1.378   1.445  0.5829  2.2360 -0.8102
 7369SOL    HW233744   1.842   1.509   1.517  1.0860  0.3181  0.7867
 7370SOL     OW33745   2.012   0.029   8.905 -0.7841 -0.3516  0.1165
 7370SOL    HW133746   2.083   0.015   8.967 -1.6834  2.6570  1.8205
 7370SOL    HW233747   2.019   4.699   8.837 -0.2519  0.0896 -0.2596
 7371SOL     OW33748   0.190   1.706   1.641 -0.1024 -0.1541  0.0036
 7371SOL    HW133749   0.137   1.781   1.670 -0.0103  0.0391 -0.3175
 7371SOL    HW233750   0.166   1.715   1.548  0.3842 -2.0308 -0.3016
 7372SOL     OW33751   2.050   4.287   7.405 -0.3060  0.1253  0.3322
 7372SOL    HW133752   2.038   4.377   7.433  1.0722  0.2746  0.4452
 7372SOL    HW233753   2.007   4.295   7.320  0.3608 -2.0057 -0.2184
 7373SOL     OW33754   2.188   2.408   5.224 -0.3601 -0.4680 -0.2080
 7373SOL    HW133755   2.098   2.385   5.201 -0.5188 -2.5661  2.4846
 7373SOL    HW233756   2.206   2.462   5.147  1.5493  0.9232  1.2107
 7374SOL     OW33757   0.038   2.207   1.905 -0.0998 -0.0218 -0.0534
 7374SOL    HW133758   4.730   2.291   1.891 -2.0942 -1.1415 -0.2474
 7374SOL    HW233759   0.047   2.208   2.000 -1.0881  0.7198  0.0418
 7375SOL     OW33760   0.430   0.822  12.325  0.6003  1.1284  0.7561
 7375SOL    HW133761   0.365   0.864  12.268  1.0183  1.3832  0.4641
 7375SOL    HW233762   0.443   0.746  12.269 -1.0204 -0.7719  2.9985
 7376SOL     OW33763   3.519   3.770  16.030  0.0282  0.7429  0.6794
 7376SOL    HW133764   3.461   3.769  16.106 -0.2331  0.4058  0.4765
 7376SOL    HW233765   3.486   3.849  15.989  0.5108  0.0564 -1.0366
 7377SOL     OW33766   3.470   0.068   8.770 -0.0226 -0.2495 -0.4341
 7377SOL    HW133767   3.483   0.081   8.676 -0.1903 -2.2205 -0.7320
 7377SOL    HW233768   3.402   0.136   8.777  2.3889  2.1904 -1.0094
 7378SOL     OW33769   3.866   4.248   2.782 -0.2124  0.6589 -0.2977
 7378SOL    HW133770   3.850   4.209   2.696 -0.3141  2.3498 -1.0568
 7378SOL    HW233771   3.930   4.188   2.821  0.3243  0.3702 -1.6208
 7379SOL     OW33772   3.449   2.283   7.633 -0.2152  0.7882 -0.0341
 7379SOL    HW133773   3.498   2.322   7.705  0.7265 -1.4582  0.5586
 7379SOL    HW233774   3.490   2.197   7.629  1.2436  1.4753  0.1932
 7380SOL     OW33775   4.486   1.629   2.094  0.4126  0.2256  0.0795
 7380SOL    HW133776   4.506   1.545   2.053 -1.0030 -0.5288  0.9581
 7380SOL    HW233777   4.412   1.609   2.151 -0.2591 -0.0580 -0.8995
 7381SOL     OW33778   4.492   0.535   5.093  0.7155  0.4975 -0.0457
 7381SOL    HW133779   4.560   0.583   5.140  0.6506  0.6981 -0.1565
 7381SOL    HW233780   4.476   0.455   5.143  1.8181 -0.2588 -0.8821
 7382SOL     OW33781   0.557   0.997  12.079  0.1203 -0.1665 -0.0718
 7382SOL    HW133782   0.510   1.076  12.107 -1.1791 -1.4262  1.2849
 7382SOL    HW233783   0.486   0.936  12.060 -0.0413 -0.7882  2.4654
 7383SOL     OW33784   1.617   2.930   2.189 -0.3099  0.0656  0.5707
 7383SOL    HW133785   1.699   2.881   2.184  0.5259  1.2699  2.6595
 7383SOL    HW233786   1.611   2.982   2.108 -0.9444  1.2665  1.3886
 7384SOL     OW33787   3.575   1.243  12.741  0.1933 -0.1799 -0.4603
 7384SOL    HW133788   3.627   1.313  12.701  1.3236  0.5479  2.2760
 7384SOL    HW233789   3.601   1.247  12.834 -1.3923  1.2853 -0.0905
 7385SOL     OW33790   3.664   4.443   4.984 -0.6495  0.2852 -0.2374
 7385SOL    HW133791   3.613   4.523   4.993 -0.5685  0.5283 -1.9998
 7385SOL    HW233792   3.593   4.380   4.996 -0.0125 -0.7553 -1.8682
 7386SOL     OW33793   4.346   0.817   4.104 -0.0690  0.7283  0.4672
 7386SOL    HW133794   4.370   0.887   4.165  0.0563  0.7747  0.3652
 7386SOL    HW233795   4.349   0.864   4.021  0.2425 -0.1391 -0.0142
 7387SOL     OW33796   3.691   3.883   7.537 -0.5335 -0.4873 -0.0300
 7387SOL    HW133797   3.621   3.948   7.537 -0.6891 -0.6611  1.5275
 7387SOL    HW233798   3.648   3.813   7.586 -2.0905  1.0870  0.8591
 7388SOL     OW33799   3.878   1.281   2.166  0.0455  0.3040  0.4126
 7388SOL    HW133800   3.800   1.335   2.154  0.1488  0.5175  0.6936
 7388SOL    HW233801   3.918   1.290   2.080 -0.2371  2.2221  0.4942
 7389SOL     OW33802   0.904   3.533   3.212  0.1123 -0.2947 -0.1600
 7389SOL    HW133803   0.907   3.440   3.236 -2.0942 -0.6063 -1.1643
 7389SOL    HW233804   0.812   3.557   3.215  0.6292  1.3197  2.7998
 7390SOL     OW33805   0.258   0.391   8.050  0.1294  0.0243  0.3629
 7390SOL    HW133806   0.325   0.378   8.117 -0.4544 -1.5276  0.6282
 7390SOL    HW233807   0.213   0.474   8.067  0.1813  0.3688 -1.1492
 7391SOL     OW33808   0.054   0.540   1.110  0.3947  0.3546  0.0122
 7391SOL    HW133809   0.103   0.458   1.123  0.7158  0.2304 -1.9166
 7391SOL    HW233810   0.015   0.531   1.023  0.1974 -2.9430  0.4195
 7392SOL     OW33811   1.680   0.273   4.565  0.0845 -0.4813  0.1650
 7392SOL    HW133812   1.748   0.272   4.632  0.8735 -0.1144 -0.6156
 7392SOL    HW233813   1.699   0.187   4.528 -4.0855 -2.4620  2.7481
 7393SOL     OW33814   3.949   4.118  12.349 -0.0140 -0.1967 -0.1542
 7393SOL    HW133815   3.953   4.151  12.439 -0.0759  1.3966 -0.7385
 7393SOL    HW233816   3.907   4.034  12.363  1.8253 -0.6446  2.7576
 7394SOL     OW33817   2.006   4.405   7.151  0.1007 -0.1665  0.3606
 7394SOL    HW133818   2.022   4.493   7.117  1.4698 -0.2703  0.7306
 7394SOL    HW233819   2.090   4.360   7.145  1.6491  2.9778 -0.9886
 7395SOL     OW33820   3.151   2.131  11.511 -0.4027 -0.2239  0.1887
 7395SOL    HW133821   3.180   2.154  11.422 -0.3936 -0.5069  0.1165
 7395SOL    HW233822   3.059   2.159  11.506 -0.7334 -1.5635 -1.4123
 7396SOL     OW33823   3.619   1.514   0.622  0.0777 -0.0944 -0.3438
 7396SOL    HW133824   3.556   1.585   0.628 -0.3846 -0.6958  1.9395
 7396SOL    HW233825   3.688   1.545   0.682  0.4756 -3.1955  0.7952
 7397SOL     OW33826   3.582   1.024   0.216 -0.2859  0.4061 -0.6133
 7397SOL    HW133827   3.603   1.112   0.245  0.7069 -0.1909  0.4874
 7397SOL    HW233828   3.662   0.975   0.237 -1.8139 -1.2584  1.3311
 7398SOL     OW33829   0.093   3.119  14.842  0.2098  0.2622  0.3084
 7398SOL    HW133830   0.106   3.026  14.822 -2.1981 -0.1112  0.4741
 7398SOL    HW233831   0.028   3.151  14.779  1.0599 -1.5086 -1.5013
 7399SOL     OW33832   3.449   3.997   3.653 -0.2964 -0.1053 -0.0069
 7399SOL    HW133833   3.504   3.984   3.576 -0.4130  1.3775 -0.3283
 7399SOL    HW233834   3.465   4.083   3.692 -0.3459  0.1538 -0.5702
 7400SOL     OW33835   0.954   2.672   4.587  0.0491 -0.1454 -0.1708
 7400SOL    HW133836   0.893   2.607   4.621  1.5263 -0.6738  1.4542
 7400SOL    HW233837   0.963   2.722   4.669 -0.5021 -2.7234  1.4418
 7401SOL     OW33838   3.812   0.824   6.503 -0.0427 -0.4591 -0.1548
 7401SOL    HW133839   3.892   0.793   6.544 -0.5436 -0.5460  0.7496
 7401SOL    HW233840   3.853   0.881   6.438 -1.5031 -0.5823 -1.1928
 7402SOL     OW33841   1.123   3.488   4.147 -0.0503 -0.3323 -0.5692
 7402SOL    HW133842   1.098   3.529   4.230  2.3427 -0.4598  0.2206
 7402SOL    HW233843   1.044   3.483   4.093 -1.1163  0.3062  0.9093
 7403SOL     OW33844   2.377   2.453  16.226  0.6022  0.3417  0.5089
 7403SOL    HW133845   2.441   2.499  16.172  0.1118  1.1475  0.6158
 7403SOL    HW233846   2.439   2.434  16.296 -0.5207 -0.8617  1.1714
 7404SOL     OW33847   1.989   3.661   9.943  0.2266  0.2599  0.3536
 7404SOL    HW133848   1.899   3.647   9.974  0.6441 -0.3902  1.2747
 7404SOL    HW233849   2.001   3.755   9.939 -0.6170  0.4119  1.4209
 7405SOL     OW33850   4.586   4.286   3.861  0.0274  0.5718  0.0858
 7405SOL    HW133851   4.492   4.272   3.857  0.4436 -1.3644 -2.4767
 7405SOL    HW233852   4.624   4.202   3.835 -0.5301  1.2150 -2.7870
 7406SOL     OW33853   3.140   4.072   4.812  0.2018 -0.2536  0.7160
 7406SOL    HW133854   3.100   4.147   4.768  0.9419 -0.6104 -0.5773
 7406SOL    HW233855   3.147   4.110   4.899  2.0028 -1.0082  0.9022
 7407SOL     OW33856   0.893   3.773   8.543  0.0387  1.1182  0.4799
 7407SOL    HW133857   0.859   3.749   8.456  1.3882  1.1782 -0.0718
 7407SOL    HW233858   0.850   3.701   8.589  1.2690  0.5228  0.6890
 7408SOL     OW33859   1.277   2.734   9.643 -0.1486 -0.5580  0.1691
 7408SOL    HW133860   1.260   2.783   9.724  0.7447 -0.5394  0.3437
 7408SOL    HW233861   1.278   2.796   9.570  1.3554  0.7921  1.3290
 7409SOL     OW33862   1.309   0.814   3.401  0.1776 -0.3247  0.5110
 7409SOL    HW133863   1.243   0.875   3.366  0.0428 -1.2387 -0.8310
 7409SOL    HW233864   1.258   0.751   3.452  0.8661 -2.6568 -1.6933
 7410SOL     OW33865   0.453   1.048   6.259 -0.1363 -0.3780 -0.4967
 7410SOL    HW133866   0.468   0.978   6.195  1.6166  1.5780 -2.2585
 7410SOL    HW233867   0.360   1.063   6.243  0.3547  2.5588 -0.6661
 7411SOL     OW33868   0.521   1.451   3.624  0.1238 -0.0630  0.5062
 7411SOL    HW133869   0.608   1.482   3.598  0.7123 -1.8615  0.3439
 7411SOL    HW233870   0.554   1.385   3.684 -0.2365 -1.0463 -0.3906
 7412SOL     OW33871   1.398   1.122  16.005 -0.1381 -0.1712 -0.8730
 7412SOL    HW133872   1.464   1.125  15.936  2.5543 -0.2136  1.6992
 7412SOL    HW233873   1.385   1.215  16.024 -0.8273 -0.1587 -1.3845
 7413SOL     OW33874   1.223   1.196   8.811  0.2308 -0.1157  0.0457
 7413SOL    HW133875   1.170   1.138   8.755 -0.6904 -0.3210  1.1302
 7413SOL    HW233876   1.303   1.196   8.759  0.2649  1.1251  0.0983
 7414SOL     OW33877   2.475   0.016   3.346 -0.0435  0.2361 -0.2393
 7414SOL    HW133878   2.419   4.677   3.329 -0.4021  0.3347  0.4846
 7414SOL    HW233879   2.443   0.053   3.428 -0.3141 -0.3653 -0.0722
 7415SOL     OW33880   4.550   3.992   4.180 -0.4359 -0.0950 -0.0653
 7415SOL    HW133881   4.480   3.928   4.191  0.2057 -1.1560 -2.2676
 7415SOL    HW233882   4.606   3.950   4.115 -0.3841 -2.6391  1.6463
 7416SOL     OW33883   2.485   2.344  10.997 -0.4681  0.5290  0.0648
 7416SOL    HW133884   2.494   2.250  11.014  0.0600  1.2733  3.8480
 7416SOL    HW233885   2.505   2.343  10.904 -3.3345 -0.4451 -0.5561
 7417SOL     OW33886   4.635   4.081   6.188  0.1953 -0.2407 -0.7644
 7417SOL    HW133887   4.581   4.154   6.158 -0.6328 -1.3604 -1.9869
 7417SOL    HW233888   4.723   4.113   6.170  0.0575 -0.3574 -1.6433
 7418SOL     OW33889   3.023   2.585   5.451 -0.1969 -0.1608  0.0921
 7418SOL    HW133890   2.975   2.504   5.437  0.1455 -0.4605  0.6705
 7418SOL    HW233891   2.944   2.639   5.444  0.8083  0.9079 -3.3389
 7419SOL     OW33892   4.555   2.537   0.623 -0.0605  0.6253  0.3745
 7419SOL    HW133893   4.475   2.570   0.662 -0.7745 -2.7445  1.7164
 7419SOL    HW233894   4.522   2.491   0.546  2.2807  0.8911 -0.8120
 7420SOL     OW33895   1.571   0.317   3.653 -0.0524 -0.1927 -0.0457
 7420SOL    HW133896   1.579   0.355   3.740 -1.0040  1.2238 -0.5808
 7420SOL    HW233897   1.633   0.371   3.604 -0.4607 -0.1289 -0.5029
 7421SOL     OW33898   2.525   0.751   4.842  0.1885  0.2441  0.5985
 7421SOL    HW133899   2.506   0.712   4.757  1.4941 -1.2285  0.9921
 7421SOL    HW233900   2.548   0.673   4.893 -3.3949 -1.8862 -1.0371
 7422SOL     OW33901   2.134   0.517  16.613 -0.2173  0.2618 -0.4249
 7422SOL    HW133902   2.181   0.601  16.617 -0.0036  0.2805 -3.1807
 7422SOL    HW233903   2.205   0.456  16.591 -0.5804 -0.8497  1.5294
 7423SOL     OW33904   0.615   4.055   1.219  0.2690  0.1323  0.2998
 7423SOL    HW133905   0.644   4.037   1.129 -1.1985 -0.2333 -0.0976
 7423SOL    HW233906   0.598   4.149   1.225  2.1720  0.5780 -1.1264
 7424SOL     OW33907   4.496   2.901   3.585 -0.3899  0.2553 -0.6871
 7424SOL    HW133908   4.588   2.900   3.558  0.3127  2.1633  1.6617
 7424SOL    HW233909   4.487   2.995   3.594 -0.2652  0.3564 -1.5988
 7425SOL     OW33910   3.801   0.778   9.120 -0.0560  0.2437 -0.5903
 7425SOL    HW133911   3.891   0.807   9.139  0.3873 -1.2593 -0.4562
 7425SOL    HW233912   3.756   0.862   9.114  0.0512  0.1921 -2.1851
 7426SOL     OW33913   0.754   2.095  14.317 -0.1535  0.0080  0.2814
 7426SOL    HW133914   0.804   2.171  14.346 -0.6496 -0.7015  3.0877
 7426SOL    HW233915   0.775   2.039  14.392  2.2726 -1.5275 -1.5552
 7427SOL     OW33916   4.030   2.136   5.501 -0.1237  0.2250  0.1237
 7427SOL    HW133917   3.938   2.148   5.527  0.0733 -1.9280  1.8128
 7427SOL    HW233918   4.039   2.199   5.430 -2.1253 -1.7788 -1.9334
 7428SOL     OW33919   4.348   1.284   1.565 -0.1043 -0.0500  0.4248
 7428SOL    HW133920   4.431   1.237   1.557  0.9030  1.9769 -1.0017
 7428SOL    HW233921   4.284   1.218   1.538 -1.4927  0.7273  1.7921
 7429SOL     OW33922   4.523   1.885  15.657  0.3427 -0.2489  0.0931
 7429SOL    HW133923   4.568   1.963  15.688 -1.0819  0.1088  1.2285
 7429SOL    HW233924   4.433   1.907  15.680  0.4960  0.4662  0.0195
 7430SOL     OW33925   2.099   4.289   9.783  0.1511  0.4735 -0.0712
 7430SOL    HW133926   2.082   4.341   9.705  0.2107 -0.1671 -0.5109
 7430SOL    HW233927   2.033   4.310   9.849  0.7893  3.1642 -0.3270
 7431SOL     OW33928   4.374   2.309   4.243  0.0136 -0.1637  0.1956
 7431SOL    HW133929   4.366   2.235   4.183 -1.0336  1.6416 -1.9059
 7431SOL    HW233930   4.386   2.261   4.325 -0.7056  1.7012  1.3761
 7432SOL     OW33931   0.923   3.928   9.329  0.1771 -0.3865 -1.0197
 7432SOL    HW133932   0.863   4.002   9.335  1.7724  0.4577  4.8529
 7432SOL    HW233933   0.865   3.865   9.373 -0.0262  0.4578 -0.0698
 7433SOL     OW33934   1.359   3.778  13.748 -0.7162 -0.1254  0.2418
 7433SOL    HW133935   1.349   3.751  13.839  1.8488 -1.0872  0.2384
 7433SOL    HW233936   1.291   3.725  13.707 -1.2976 -0.5141  1.7035
 7434SOL     OW33937   1.174   4.027   5.693  0.2442 -0.3188  0.4194
 7434SOL    HW133938   1.210   4.025   5.782  1.0342  0.3123  0.1087
 7434SOL    HW233939   1.197   3.940   5.660 -0.8293 -0.8671  1.0836
 7435SOL     OW33940   1.180   0.029   2.691  0.1229  0.4027 -0.4939
 7435SOL    HW133941   1.165   0.069   2.776  0.4931 -0.8671  0.1640
 7435SOL    HW233942   1.275   0.026   2.696 -0.0097 -1.5050  0.7422
 7436SOL     OW33943   1.492   0.525   8.892  0.5344  0.0641  0.0995
 7436SOL    HW133944   1.465   0.612   8.919  3.8890  1.0915  0.1128
 7436SOL    HW233945   1.419   0.479   8.933  1.6340 -1.6558  0.1465
 7437SOL     OW33946   2.170   3.554   4.551  0.0850  0.1004  0.4717
 7437SOL    HW133947   2.113   3.477   4.559 -1.0327  0.8434 -0.4318
 7437SOL    HW233948   2.258   3.516   4.544 -0.8624 -1.5699 -2.3079
 7438SOL     OW33949   3.796   2.269   9.770 -0.4748  0.0044 -0.4174
 7438SOL    HW133950   3.805   2.273   9.865 -1.2705 -1.5568 -0.2743
 7438SOL    HW233951   3.866   2.207   9.750 -1.8365 -1.3168 -1.1015
 7439SOL     OW33952   1.022   4.281  16.280  0.8815  0.2500 -0.4985
 7439SOL    HW133953   0.944   4.241  16.320 -0.1996  1.3352 -1.5571
 7439SOL    HW233954   1.029   4.247  16.191 -0.2931  0.5149 -0.6882
 7440SOL     OW33955   3.798   1.434   0.429  0.1445  0.3909 -0.2947
 7440SOL    HW133956   3.828   1.523   0.410 -0.1302  1.1087  2.6059
 7440SOL    HW233957   3.733   1.456   0.495 -2.4806 -1.1441 -2.3909
 7441SOL     OW33958   3.022   2.480   3.187 -0.4510 -0.4207 -0.3316
 7441SOL    HW133959   2.984   2.567   3.170 -0.8375 -0.6202 -0.4993
 7441SOL    HW233960   2.986   2.476   3.276 -1.8417  2.6721 -0.7382
 7442SOL     OW33961   4.604   0.140   8.270 -0.4025 -0.4273 -0.9768
 7442SOL    HW133962   4.587   0.055   8.229 -0.3645 -1.5926  1.4377
 7442SOL    HW233963   4.692   0.160   8.241 -0.3792 -0.0672 -0.6498
 7443SOL     OW33964   1.977   3.882   5.447 -0.1254  0.1025  0.5979
 7443SOL    HW133965   2.036   3.816   5.408 -2.0095 -2.1045  1.5048
 7443SOL    HW233966   1.962   3.938   5.371 -0.0568 -0.9505 -0.2004
 7444SOL     OW33967   3.073   0.416   5.536 -0.0051  0.0124 -0.1889
 7444SOL    HW133968   3.127   0.380   5.465 -0.5203  0.6940 -0.9274
 7444SOL    HW233969   3.140   0.465   5.584 -1.0707  1.4162 -0.1408
 7445SOL     OW33970   0.869   3.697   8.273 -0.1434 -0.2797  0.1553
 7445SOL    HW133971   0.800   3.671   8.212 -1.5133  2.0738  0.7278
 7445SOL    HW233972   0.925   3.753   8.220 -1.1484 -0.6173 -1.2715
 7446SOL     OW33973   1.689   1.473   9.276  0.2485  0.1564 -0.3915
 7446SOL    HW133974   1.715   1.503   9.189 -0.8306  3.3869  0.4197
 7446SOL    HW233975   1.599   1.500   9.290  0.2698 -0.0924  0.2180
 7447SOL     OW33976   3.518   0.631   5.339  0.7604 -0.5167  0.0428
 7447SOL    HW133977   3.523   0.543   5.302 -0.7402 -0.5993  0.0167
 7447SOL    HW233978   3.541   0.604   5.427 -0.9482 -0.3729  0.5318
 7448SOL     OW33979   1.224   2.661  15.456  0.0047  0.2817 -0.8578
 7448SOL    HW133980   1.137   2.700  15.461 -0.1559 -0.1640 -0.3019
 7448SOL    HW233981   1.204   2.574  15.422  0.9064 -0.9816  1.8986
 7449SOL     OW33982   3.339   2.498  12.601  0.1305 -0.6558  0.4893
 7449SOL    HW133983   3.323   2.583  12.642  2.2604  0.5415 -1.1504
 7449SOL    HW233984   3.308   2.432  12.663  1.9127 -0.7723  1.2490
 7450SOL     OW33985   3.747   3.907   5.093 -0.1898 -0.2642 -0.5137
 7450SOL    HW133986   3.756   3.815   5.070  0.2409 -0.4673  0.4653
 7450SOL    HW233987   3.829   3.927   5.139 -0.5858 -0.1797  0.1659
 7451SOL     OW33988   0.274   2.524  17.305  0.3981  0.1180  0.0966
 7451SOL    HW133989   0.209   2.568  17.359 -0.8033  0.3628 -1.5205
 7451SOL    HW233990   0.238   2.554  17.221  1.5092  1.1198 -0.0204
 7452SOL     OW33991   1.380   1.022  13.666 -0.1667 -0.0986  0.1975
 7452SOL    HW133992   1.299   1.069  13.689 -0.4334 -0.0398 -0.8884
 7452SOL    HW233993   1.401   1.063  13.583 -1.4518 -1.4087 -0.7794
 7453SOL     OW33994   2.452   3.290   2.167  0.6841 -0.7553 -0.3319
 7453SOL    HW133995   2.485   3.232   2.235  0.5222  0.5772  0.8911
 7453SOL    HW233996   2.499   3.369   2.194 -1.5254  0.9947 -1.5895
 7454SOL     OW33997   0.521   2.042   8.401 -0.5149 -0.3795  0.3852
 7454SOL    HW133998   0.484   1.954   8.404  1.1459 -1.0801  0.1178
 7454SOL    HW233999   0.486   2.067   8.315 -0.3273 -0.2669  0.3434
 7455SOL     OW34000   3.338   3.085   3.737 -0.2769  0.1606  0.5359
 7455SOL    HW134001   3.418   3.111   3.783  0.3274  0.2411 -0.5789
 7455SOL    HW234002   3.282   3.050   3.807  2.0994 -3.1846  0.7955
 7456SOL     OW34003   4.076   3.395   9.130  0.3278  0.1685  0.5354
 7456SOL    HW134004   4.140   3.345   9.078  0.1140  0.6596 -0.2066
 7456SOL    HW234005   4.046   3.457   9.064  0.7311 -1.4634 -1.2053
 7457SOL     OW34006   0.578   2.672   4.230 -0.0471 -0.4236 -0.2417
 7457SOL    HW134007   0.601   2.579   4.234  0.4056 -0.2825  0.4347
 7457SOL    HW234008   0.637   2.700   4.161  0.6264 -2.3421 -0.4320
 7458SOL     OW34009   0.024   4.269   7.973  0.0809  0.0048  0.2817
 7458SOL    HW134010   0.041   4.354   8.015 -1.9677  0.7609 -0.4196
 7458SOL    HW234011   0.094   4.284   7.909 -1.1148  1.2343 -0.7519
 7459SOL     OW34012   3.232   4.616   6.215 -0.5400  0.4034  0.0915
 7459SOL    HW134013   3.271   4.702   6.233  0.1232 -0.3915  2.4936
 7459SOL    HW234014   3.236   4.577   6.303 -2.2813  0.5855  0.2564
 7460SOL     OW34015   3.548   3.102   8.936  0.4636 -0.1940  0.1761
 7460SOL    HW134016   3.615   3.168   8.956 -0.5479  0.8647  0.1363
 7460SOL    HW234017   3.497   3.154   8.873 -2.5141  0.0125  2.7347
 7461SOL     OW34018   0.204   0.342  13.415 -0.8968  0.1059 -0.5594
 7461SOL    HW134019   0.190   0.340  13.321 -1.0027  0.8009 -0.5591
 7461SOL    HW234020   0.162   0.426  13.428  3.2894  2.1528 -0.1864
 7462SOL     OW34021   3.498   4.441   5.840 -0.0687 -0.0597 -0.1429
 7462SOL    HW134022   3.582   4.417   5.878 -0.2174  0.3449  0.4396
 7462SOL    HW234023   3.498   4.535   5.856 -2.5904 -0.3590  1.5876
 7463SOL     OW34024   2.886   1.702   7.945 -0.5102  0.1932  0.3758
 7463SOL    HW134025   2.905   1.609   7.961 -0.5013 -0.2553 -2.3754
 7463SOL    HW234026   2.930   1.744   8.019  0.2875 -0.1692  0.1042
 7464SOL     OW34027   4.628   4.057   3.674 -0.0178  0.1618 -0.1562
 7464SOL    HW134028   4.646   3.965   3.653  1.3403  0.0103  1.7035
 7464SOL    HW234029   4.710   4.094   3.640 -0.8222  1.7491 -0.3890
 7465SOL     OW34030   3.558   2.204   3.384  0.0850 -0.5438 -0.2530
 7465SOL    HW134031   3.569   2.286   3.433 -0.7625  0.0073 -0.9825
 7465SOL    HW234032   3.640   2.158   3.403 -0.0390 -0.2702  0.9444
 7466SOL     OW34033   0.202   1.744   0.845  0.5548  0.2433  0.3193
 7466SOL    HW134034   0.207   1.739   0.940  1.9594 -1.6642  0.1340
 7466SOL    HW234035   0.295   1.755   0.827  0.6953 -2.3277 -0.5452
 7467SOL     OW34036   2.856   2.409   4.870  0.5303  0.0355  0.7626
 7467SOL    HW134037   2.891   2.497   4.857  0.0615  0.0865 -0.1535
 7467SOL    HW234038   2.776   2.412   4.817  0.1200 -1.5501  1.2968
 7468SOL     OW34039   1.047   3.797   6.362  0.1007  0.2037  0.1175
 7468SOL    HW134040   0.975   3.829   6.308 -0.8869  1.0220  1.9222
 7468SOL    HW234041   1.094   3.879   6.376 -1.6883  1.4381 -1.2390
 7469SOL     OW34042   4.390   4.126   2.593 -0.1187 -0.8099 -0.4902
 7469SOL    HW134043   4.460   4.072   2.630 -1.1244  0.7242  3.6520
 7469SOL    HW234044   4.370   4.186   2.665 -1.5390 -1.7676 -0.0861
 7470SOL     OW34045   3.086   1.338  16.830 -0.1423  0.0165 -0.2183
 7470SOL    HW134046   3.004   1.379  16.857 -0.8701 -0.5776 -1.5263
 7470SOL    HW234047   3.142   1.356  16.906  0.7238  0.2405 -0.9042
 7471SOL     OW34048   0.432   3.389  14.074  0.0883  0.6124  0.5035
 7471SOL    HW134049   0.352   3.401  14.023 -1.0503 -1.4674  1.7914
 7471SOL    HW234050   0.432   3.472  14.122 -0.3776  0.3587  0.9589
 7472SOL     OW34051   3.400   3.810  11.799  1.1808  0.6745  0.1892
 7472SOL    HW134052   3.328   3.863  11.765  2.2902  1.2393 -1.2700
 7472SOL    HW234053   3.384   3.724  11.760 -0.1318  0.4886  1.1458
 7473SOL     OW34054   0.538   0.021  10.221  0.1694  0.1958  0.3116
 7473SOL    HW134055   0.461   4.712  10.255 -0.6690  0.5015 -1.1553
 7473SOL    HW234056   0.510   0.029  10.129  0.7457  1.9214  0.2799
 7474SOL     OW34057   1.514   0.859   3.633 -0.4131 -0.0876 -0.2796
 7474SOL    HW134058   1.427   0.866   3.595 -0.3999 -4.1658 -1.1373
 7474SOL    HW234059   1.563   0.839   3.553 -1.6964 -0.1284 -1.0551
 7475SOL     OW34060   4.279   2.808   7.687 -0.0187  0.1236  0.1029
 7475SOL    HW134061   4.258   2.715   7.683 -1.1430  0.2683  2.5851
 7475SOL    HW234062   4.271   2.830   7.594  0.9151  3.3314  0.7990
 7476SOL     OW34063   0.486   2.699   7.975  0.5847 -0.5322  0.5276
 7476SOL    HW134064   0.560   2.676   7.919 -0.0164 -3.7250  1.0340
 7476SOL    HW234065   0.439   2.764   7.924 -0.2107 -0.9799  0.6824
 7477SOL     OW34066   0.423   0.533   5.947  0.0620  0.6015 -0.5418
 7477SOL    HW134067   0.454   0.619   5.922  0.1326 -0.7563 -5.0784
 7477SOL    HW234068   0.464   0.529   6.033  1.6030  2.8523 -1.1881
 7478SOL     OW34069   2.613   0.858  14.972 -0.4429  0.3632  0.0261
 7478SOL    HW134070   2.582   0.788  15.029  0.7069 -1.2264 -1.2936
 7478SOL    HW234071   2.633   0.928  15.035  0.6099 -1.1927  1.4085
 7479SOL     OW34072   1.750   1.271   8.278 -0.4532 -0.0913 -0.3326
 7479SOL    HW134073   1.805   1.279   8.356 -3.2793 -0.7122  1.6904
 7479SOL    HW234074   1.704   1.355   8.282  1.7489  1.0633  0.8788
 7480SOL     OW34075   4.687   1.017   0.267  0.4748  0.3154  0.1151
 7480SOL    HW134076   4.695   0.982   0.179 -0.4079  0.0145  0.1525
 7480SOL    HW234077   4.689   0.934   0.314  1.0787 -0.3523 -1.0895
 7481SOL     OW34078   0.055   3.713   1.284 -0.0669  0.4395  0.0257
 7481SOL    HW134079   0.078   3.742   1.372  2.5906 -3.2980  0.5657
 7481SOL    HW234080   0.140   3.713   1.240 -0.4704  0.2734 -0.7432
 7482SOL     OW34081   4.342   2.601   5.309  0.5418 -0.7482 -0.2151
 7482SOL    HW134082   4.254   2.600   5.347 -0.1491  0.1513 -1.7931
 7482SOL    HW234083   4.319   2.674   5.251 -0.5489 -1.8145 -1.1218
 7483SOL     OW34084   0.300   1.771   6.869 -0.2385  0.2003  0.4349
 7483SOL    HW134085   0.384   1.727   6.877  2.3310  5.1050  0.2618
 7483SOL    HW234086   0.266   1.745   6.955  1.2824 -0.7425  0.7510
 7484SOL     OW34087   1.964   0.250   8.677 -0.5402  0.0998  0.2024
 7484SOL    HW134088   2.053   0.279   8.659 -0.8746  1.4451  0.7695
 7484SOL    HW234089   1.987   0.179   8.738 -0.1847  0.8780  0.9667
 7485SOL     OW34090   0.747   3.543   8.605 -0.7386  0.0545  0.4044
 7485SOL    HW134091   0.754   3.477   8.674  3.3863  2.3987  2.2626
 7485SOL    HW234092   0.728   3.488   8.530 -0.1013  2.6911 -1.6885
 7486SOL     OW34093   4.439   4.238   2.331 -0.4053 -0.4700  0.3795
 7486SOL    HW134094   4.408   4.209   2.417 -1.0087  0.3667  0.4361
 7486SOL    HW234095   4.407   4.162   2.281  1.9614 -1.8180  0.9107
 7487SOL     OW34096   3.557   4.020   5.231 -0.1142 -0.0783  0.2989
 7487SOL    HW134097   3.592   4.003   5.319  2.1315  1.6291 -0.2596
 7487SOL    HW234098   3.607   3.966   5.170 -0.6855 -0.2561 -0.0091
 7488SOL     OW34099   4.098   0.660   1.969 -0.1433 -0.1502  0.1747
 7488SOL    HW134100   4.149   0.730   1.928 -0.3891  0.1157  0.3169
 7488SOL    HW234101   4.114   0.595   1.901  2.4890  0.7179 -0.0362
 7489SOL     OW34102   3.300   2.540   9.238 -0.1230 -0.1755  0.3881
 7489SOL    HW134103   3.340   2.524   9.324 -0.1689  1.1842  0.6530
 7489SOL    HW234104   3.210   2.557   9.267 -0.0982 -0.0485  0.3906
 7490SOL     OW34105   4.148   4.422  10.376  0.3131 -0.0978  0.1351
 7490SOL    HW134106   4.129   4.514  10.396  0.3859 -0.1141  0.2819
 7490SOL    HW234107   4.237   4.426  10.342  0.7776 -1.9165  1.1271
 7491SOL     OW34108   1.541   3.782   9.202  0.4488  0.7531  1.0318
 7491SOL    HW134109   1.597   3.775   9.279 -1.6503 -1.5994  2.3490
 7491SOL    HW234110   1.455   3.768   9.242 -0.5157 -0.5549 -1.5022
 7492SOL     OW34111   2.609   1.757   4.503  0.0522 -0.1664  0.0649
 7492SOL    HW134112   2.591   1.745   4.596 -1.5980  1.4408 -0.0374
 7492SOL    HW234113   2.701   1.735   4.488 -0.3080 -2.1059  0.7025
 7493SOL     OW34114   2.703   0.994   4.884 -0.1489  0.8027 -0.4317
 7493SOL    HW134115   2.702   0.924   4.950  0.3569  0.9591 -0.2552
 7493SOL    HW234116   2.791   1.030   4.895  0.3106 -0.8600  1.3846
 7494SOL     OW34117   2.193   1.283   4.446 -0.0281  0.1873 -0.0868
 7494SOL    HW134118   2.199   1.302   4.540 -0.3766 -0.6854  0.1092
 7494SOL    HW234119   2.181   1.188   4.446  0.1019  0.1755 -0.9740
 7495SOL     OW34120   1.577   0.998  15.301  0.1086  0.2065  0.0425
 7495SOL    HW134121   1.526   0.916  15.302  0.4400  0.0247  2.1043
 7495SOL    HW234122   1.551   1.039  15.219  0.5073 -1.5400 -0.9663
 7496SOL     OW34123   0.637   0.755   4.626  0.1217  0.4447  0.4245
 7496SOL    HW134124   0.676   0.686   4.681 -1.3912  0.5685  1.6662
 7496SOL    HW234125   0.621   0.707   4.545 -1.6865  0.4860  0.7687
 7497SOL     OW34126   3.381   0.562   7.327  0.5991 -0.3297 -0.0204
 7497SOL    HW134127   3.461   0.603   7.359  1.4308 -1.1127 -1.1003
 7497SOL    HW234128   3.374   0.493   7.392  1.5202 -0.3468  0.0587
 7498SOL     OW34129   2.269   1.343   2.743 -0.7512 -0.4157  0.5221
 7498SOL    HW134130   2.331   1.308   2.807  0.2533 -0.5767 -0.5523
 7498SOL    HW234131   2.292   1.297   2.662  0.8964 -0.1705  0.8591
 7499SOL     OW34132   2.740   3.001   2.959 -0.2930  0.1069  0.1894
 7499SOL    HW134133   2.741   3.043   3.045 -3.8932  0.0198  0.2778
 7499SOL    HW234134   2.834   3.013   2.944 -0.0992 -1.9946 -0.2708
 7500SOL     OW34135   2.984   0.896   1.479 -0.3165 -0.7200 -0.0469
 7500SOL    HW134136   3.014   0.829   1.541 -0.4330  0.7362  1.5927
 7500SOL    HW234137   3.042   0.884   1.404 -0.6899  0.2084 -0.4772
 7501SOL     OW34138   1.862   3.292   1.521 -0.2132  0.4019  0.1767
 7501SOL    HW134139   1.918   3.351   1.471 -0.2159 -1.8500 -2.4716
 7501SOL    HW234140   1.897   3.307   1.609  1.0064  1.9053 -0.5498
 7502SOL     OW34141   1.648   1.122   4.980  0.1987  0.2106  0.5955
 7502SOL    HW134142   1.580   1.071   5.024  0.7464 -1.1842 -0.1533
 7502SOL    HW234143   1.657   1.058   4.909 -0.8760  1.7078 -0.8947
 7503SOL     OW34144   3.606   1.561   4.422 -0.3461  0.5382  0.2134
 7503SOL    HW134145   3.561   1.477   4.416  0.3450  0.2511 -1.1818
 7503SOL    HW234146   3.679   1.534   4.477  0.8061 -0.0201 -1.5662
 7504SOL     OW34147   1.296   3.558   1.585 -0.3594  0.0410  0.4400
 7504SOL    HW134148   1.303   3.465   1.607  0.2969  0.1368  0.6303
 7504SOL    HW234149   1.351   3.593   1.654  0.6300  1.1004 -0.8796
 7505SOL     OW34150   4.724   2.533   2.101 -0.4127  0.1432  0.1440
 7505SOL    HW134151   4.704   2.515   2.009 -1.4696  2.7737 -0.1252
 7505SOL    HW234152   4.712   2.628   2.102 -0.4871  0.1206  1.0859
 7506SOL     OW34153   2.506   4.184   8.826 -0.2249 -0.2062 -0.1993
 7506SOL    HW134154   2.595   4.151   8.812 -0.5517 -1.4985  0.7076
 7506SOL    HW234155   2.480   4.104   8.873 -0.1946 -0.3526 -0.4309
 7507SOL     OW34156   0.967   3.502   2.717  0.2924  0.3328 -0.2868
 7507SOL    HW134157   1.038   3.438   2.705  0.6408  1.3918 -3.8879
 7507SOL    HW234158   1.002   3.579   2.672  3.8529 -1.7650 -1.1011
 7508SOL     OW34159   1.729   2.498   8.563  0.1837  0.7380 -0.3181
 7508SOL    HW134160   1.790   2.529   8.631 -1.8325  2.1852  0.8507
 7508SOL    HW234161   1.644   2.524   8.597  0.0294  1.0878 -0.9791
 7509SOL     OW34162   3.307   1.114   5.662  0.2060  0.7937  0.2344
 7509SOL    HW134163   3.261   1.181   5.712  2.1815  1.4366  1.2030
 7509SOL    HW234164   3.396   1.148   5.656  1.1322 -1.6718 -0.2935
 7510SOL     OW34165   3.443   2.321   5.858 -0.5836  0.0516  0.3097
 7510SOL    HW134166   3.393   2.295   5.781  1.6784 -0.5328 -0.9414
 7510SOL    HW234167   3.378   2.344   5.925  0.0716  1.9507  0.2864
 7511SOL     OW34168   0.079   3.665   6.899 -0.1276 -0.1727  0.1443
 7511SOL    HW134169   0.079   3.591   6.959  2.3616  1.8794  2.6429
 7511SOL    HW234170   4.722   3.679   6.907 -0.2837 -0.4583 -1.1790
 7512SOL     OW34171   2.182   2.166   9.497  0.3306 -0.3790 -0.0148
 7512SOL    HW134172   2.182   2.196   9.406 -0.4819 -0.5920 -0.0860
 7512SOL    HW234173   2.097   2.122   9.503  0.2590 -0.0244  1.6373
 7513SOL     OW34174   3.571   0.989  14.834 -0.3470  0.4439  0.4368
 7513SOL    HW134175   3.662   0.983  14.807  0.0320  0.2199  1.7709
 7513SOL    HW234176   3.563   1.053  14.905  3.8424 -1.1611  2.2972
 7514SOL     OW34177   0.986   0.312   4.071 -0.0833  0.3623 -0.4685
 7514SOL    HW134178   0.913   0.370   4.050  0.3274  2.2115  3.1685
 7514SOL    HW234179   1.041   0.385   4.100  2.6903 -2.7370  2.0745
 7515SOL     OW34180   0.218   1.399  16.335  0.0951 -0.1596 -0.2526
 7515SOL    HW134181   0.245   1.308  16.323 -2.2856 -0.7228 -1.2918
 7515SOL    HW234182   0.221   1.434  16.246  1.0461 -0.0619 -0.1922
 7516SOL     OW34183   4.412   2.800  16.366  0.2113  0.4965 -0.0231
 7516SOL    HW134184   4.346   2.744  16.406 -0.0217  0.9680  0.2485
 7516SOL    HW234185   4.435   2.855  16.440  2.7793 -1.4526  0.6724
 7517SOL     OW34186   3.997   0.383   3.860  0.3506 -0.3730 -0.5799
 7517SOL    HW134187   3.936   0.400   3.932  1.4257 -1.7999  0.6645
 7517SOL    HW234188   4.073   0.438   3.880 -0.6318  0.2415  1.4509
 7518SOL     OW34189   0.564   3.489   4.044 -0.2683  0.1837  0.0898
 7518SOL    HW134190   0.606   3.566   4.082  1.7812 -0.7605 -0.2607
 7518SOL    HW234191   0.470   3.503   4.057  0.2385  1.2304  2.6361
 7519SOL     OW34192   0.713   1.352   6.508 -0.3355 -0.2270 -0.2044
 7519SOL    HW134193   0.788   1.306   6.472 -0.1295 -0.1415  0.1192
 7519SOL    HW234194   0.644   1.322   6.448 -0.2289  1.2447 -1.0782
 7520SOL     OW34195   4.340   2.004   7.314  0.6792 -0.0872 -0.3173
 7520SOL    HW134196   4.252   1.979   7.342  1.0756 -1.5008 -0.3492
 7520SOL    HW234197   4.385   2.001   7.398 -1.6282  1.3371  0.9732
 7521SOL     OW34198   2.955   4.411   2.415  0.2369 -0.1602  0.3084
 7521SOL    HW134199   2.867   4.443   2.397 -0.0448  0.3385  2.6107
 7521SOL    HW234200   2.953   4.426   2.510  1.1324 -3.8656  0.9457
 7522SOL     OW34201   0.704   3.780   9.375 -0.1685  0.3623  0.1435
 7522SOL    HW134202   0.629   3.838   9.385 -1.6414 -0.9297 -3.2474
 7522SOL    HW234203   0.670   3.711   9.432 -0.4102  1.4984  1.3398
 7523SOL     OW34204   0.136   2.811   2.163  0.4494  0.1995  0.5350
 7523SOL    HW134205   0.230   2.793   2.164  0.5479  0.6977  0.3253
 7523SOL    HW234206   0.118   2.809   2.069 -0.2426 -0.5543  0.6851
 7524SOL     OW34207   4.506   3.714   7.940 -0.5023 -0.0665 -0.7969
 7524SOL    HW134208   4.516   3.625   7.974 -0.1497  0.4981  0.5479
 7524SOL    HW234209   4.586   3.715   7.888  1.1325  0.0069  1.7373
 7525SOL     OW34210   0.272   1.890  16.835 -0.0767  0.1196 -0.4196
 7525SOL    HW134211   0.296   1.818  16.894 -2.0294  1.1828  1.6967
 7525SOL    HW234212   0.352   1.940  16.824 -0.4855  1.3002  1.8071
 7526SOL     OW34213   4.285   3.039   8.724 -0.1212  0.0863 -0.3563
 7526SOL    HW134214   4.366   3.027   8.674 -1.2087 -1.7480 -1.6802
 7526SOL    HW234215   4.297   2.982   8.799 -0.4134  1.8300  1.0034
 7527SOL     OW34216   2.651   4.579  13.187 -0.1055 -0.5612  0.0537
 7527SOL    HW134217   2.654   4.663  13.234  1.0472 -0.5703 -0.0048
 7527SOL    HW234218   2.652   4.517  13.260 -0.4382  0.9566  1.3519
 7528SOL     OW34219   0.029   0.074   2.203 -0.7217  0.8686  0.4956
 7528SOL    HW134220   0.050   0.028   2.284  0.9729  3.2040  1.3768
 7528SOL    HW234221   0.088   0.032   2.140  1.1434 -2.1990  4.3309
 7529SOL     OW34222   0.272   3.594   8.863  0.3143  0.0601  0.5569
 7529SOL    HW134223   0.361   3.577   8.894  0.2168 -1.8425 -0.2030
 7529SOL    HW234224   0.229   3.600   8.948 -1.0001 -1.0656 -0.0208
 7530SOL     OW34225   4.365   1.680   4.983  0.5011 -0.5516  0.4670
 7530SOL    HW134226   4.303   1.716   5.047 -0.9416  1.2092 -1.9553
 7530SOL    HW234227   4.393   1.764   4.947 -0.2011 -0.0284  1.1335
 7531SOL     OW34228   1.949   1.837  12.422  0.0210 -0.2956  0.7178
 7531SOL    HW134229   1.933   1.918  12.471  1.0466  1.0243 -1.1012
 7531SOL    HW234230   1.866   1.830  12.375  0.4341  0.4135 -0.1161
 7532SOL     OW34231   1.804   3.889   2.008 -0.0874  0.5492  0.4533
 7532SOL    HW134232   1.714   3.903   2.039  0.0258 -0.0958  1.0745
 7532SOL    HW234233   1.847   3.905   2.092 -0.0238  2.2828  0.0991
 7533SOL     OW34234   4.087   1.033   0.429 -0.0976 -0.1039 -0.5121
 7533SOL    HW134235   4.068   1.125   0.446  0.3416 -0.1219  0.0713
 7533SOL    HW234236   4.002   0.992   0.414  0.6766 -1.2076 -1.9598
 7534SOL     OW34237   2.685   1.737   1.865 -0.6966  0.8554 -0.9710
 7534SOL    HW134238   2.753   1.709   1.804 -1.9521 -1.6047 -1.2561
 7534SOL    HW234239   2.737   1.814   1.885  0.3686 -0.4129  1.1562
 7535SOL     OW34240   1.394   3.437   8.331 -0.1006 -0.2394  0.2243
 7535SOL    HW134241   1.374   3.416   8.240  0.6869  2.8951 -0.6643
 7535SOL    HW234242   1.307   3.459   8.365 -0.1133 -1.2212  0.8396
 7536SOL     OW34243   1.141   0.602   1.559  0.0173  0.1086 -0.2266
 7536SOL    HW134244   1.155   0.663   1.632 -0.7539 -0.4736  0.4086
 7536SOL    HW234245   1.058   0.560   1.579  0.1418 -0.6143 -1.2852
 7537SOL     OW34246   2.606   4.194  11.847  0.3230 -0.6143  0.3255
 7537SOL    HW134247   2.614   4.263  11.913  0.7000  2.1087 -2.5639
 7537SOL    HW234248   2.691   4.195  11.804 -0.1699 -0.5266 -0.6657
 7538SOL     OW34249   2.270   3.851  14.976  0.3022  0.7153  0.0323
 7538SOL    HW134250   2.226   3.770  14.951  1.1025 -0.5691  2.6852
 7538SOL    HW234251   2.335   3.819  15.040 -1.1758 -3.0658 -0.3216
 7539SOL     OW34252   1.283   3.514   2.598  0.0900  0.3499  0.2064
 7539SOL    HW134253   1.366   3.542   2.637 -0.8485  3.7985 -0.2627
 7539SOL    HW234254   1.273   3.430   2.644  0.6328 -0.8101 -1.8333
 7540SOL     OW34255   3.436   2.614   5.130 -0.5376  0.0138 -0.3247
 7540SOL    HW134256   3.370   2.630   5.198  0.4196  0.9420  0.4017
 7540SOL    HW234257   3.483   2.697   5.121  0.8842 -0.4620  2.6761
 7541SOL     OW34258   2.597   0.067   8.111 -0.4456 -0.4570  0.3163
 7541SOL    HW134259   2.615   0.077   8.017  2.1700 -2.8023  0.5876
 7541SOL    HW234260   2.502   0.071   8.097 -0.4263  0.8787  0.5865
 7542SOL     OW34261   0.353   0.768  10.062  0.4580 -0.3559  0.4905
 7542SOL    HW134262   0.348   0.811  10.147 -1.0868  1.4463 -0.5199
 7542SOL    HW234263   0.442   0.791  10.035  1.1499 -0.4091  2.7348
 7543SOL     OW34264   1.659   2.186   6.075  0.3298 -0.0016 -0.0334
 7543SOL    HW134265   1.666   2.136   6.156 -0.3604  1.1179  0.7259
 7543SOL    HW234266   1.650   2.125   6.002  0.2274 -0.3600  0.2840
 7544SOL     OW34267   0.415   3.268  17.295 -0.1350  0.5639 -0.0364
 7544SOL    HW134268   0.387   3.231  17.379 -1.1434 -0.7201 -0.9539
 7544SOL    HW234269   0.344   3.247  17.235 -2.4292 -1.0019  3.2744
 7545SOL     OW34270   0.335   2.418  14.748  0.1614  0.3435  0.2391
 7545SOL    HW134271   0.352   2.412  14.654 -0.1068 -0.1269  0.2188
 7545SOL    HW234272   0.395   2.487  14.775  1.5528 -1.9055  2.8547
 7546SOL     OW34273   0.256   1.596   6.041  0.1487  0.4259  0.3413
 7546SOL    HW134274   0.247   1.528   5.974 -0.3088 -0.0810  0.9313
 7546SOL    HW234275   0.173   1.583   6.086 -1.1447 -1.1862 -2.5301
 7547SOL     OW34276   3.382   2.691   3.293  0.0678  0.1371  0.0577
 7547SOL    HW134277   3.404   2.605   3.256 -0.9055  0.1986 -0.6655
 7547SOL    HW234278   3.458   2.726   3.340 -0.1534  1.0422 -0.2436
 7548SOL     OW34279   1.478   0.754   7.976 -0.6783  0.3895 -0.1192
 7548SOL    HW134280   1.571   0.769   7.993 -0.3516 -1.2304 -0.4652
 7548SOL    HW234281   1.477   0.659   7.979  1.9151  0.3400 -0.9280
 7549SOL     OW34282   2.975   0.349   1.204  0.7811  0.1650 -0.0643
 7549SOL    HW134283   3.019   0.409   1.264  0.0510 -1.0179  1.6399
 7549SOL    HW234284   2.920   0.292   1.258 -0.5722 -0.1778 -1.7940
 7550SOL     OW34285   2.320   0.866   9.572 -0.0170  0.1345  0.0626
 7550SOL    HW134286   2.264   0.942   9.555 -1.1566 -0.7736 -0.2769
 7550SOL    HW234287   2.357   0.883   9.658  0.1264  0.4996 -0.0720
 7551SOL     OW34288   2.088   2.596  12.231  0.0579 -0.4980  0.5005
 7551SOL    HW134289   2.028   2.527  12.261 -0.7613  0.7810  1.7821
 7551SOL    HW234290   2.078   2.579  12.137  1.7565 -1.3618  0.4785
 7552SOL     OW34291   1.161   4.061   9.192 -0.0880  0.5766  0.0835
 7552SOL    HW134292   1.115   4.142   9.171 -2.3484 -0.6639  0.2179
 7552SOL    HW234293   1.086   4.013   9.228  0.9048 -0.3284  0.9353
 7553SOL     OW34294   0.557   2.937   7.056 -0.0042  0.0210 -0.2051
 7553SOL    HW134295   0.633   2.976   7.099 -0.9819  1.0946  0.5677
 7553SOL    HW234296   0.524   3.020   7.019 -0.9569  0.4467  1.5921
 7554SOL     OW34297   2.997   3.644  13.456 -0.2395  0.3214  0.0793
 7554SOL    HW134298   3.089   3.653  13.429 -0.2369 -0.7590 -0.2730
 7554SOL    HW234299   2.961   3.603  13.378 -3.4116 -0.8914  2.2025
 7555SOL     OW34300   3.020   2.428   6.249  0.2690  0.3157  0.0121
 7555SOL    HW134301   2.970   2.489   6.303  0.2199 -1.4286  1.9320
 7555SOL    HW234302   3.102   2.474   6.231 -0.0797  1.1283  0.5024
 7556SOL     OW34303   3.461   1.133   8.166  0.1929 -0.4179  0.6189
 7556SOL    HW134304   3.548   1.103   8.138 -0.7598 -1.8432 -0.8183
 7556SOL    HW234305   3.411   1.052   8.172 -0.1427 -0.1019  2.1817
 7557SOL     OW34306   0.194   4.736   3.467  0.4381 -0.3493  0.2360
 7557SOL    HW134307   0.145   0.045   3.535 -1.9560 -2.8007  0.2170
 7557SOL    HW234308   0.187   4.647   3.502 -1.4978 -0.8390 -1.3779
 7558SOL     OW34309   2.510   0.411   6.459  0.3083 -0.7822 -0.3372
 7558SOL    HW134310   2.497   0.412   6.364 -0.6045  0.0843 -0.2027
 7558SOL    HW234311   2.605   0.399   6.460  0.6053  1.9628  3.9005
 7559SOL     OW34312   3.119   3.113   7.119 -0.1976  0.4026 -0.6777
 7559SOL    HW134313   3.057   3.157   7.178  0.3282  3.3272 -2.2907
 7559SOL    HW234314   3.161   3.188   7.076  1.2313 -1.2588 -2.1687
 7560SOL     OW34315   2.536   2.125   6.743  0.7967 -0.0331 -0.0341
 7560SOL    HW134316   2.451   2.160   6.769 -0.1211 -0.4486 -2.4527
 7560SOL    HW234317   2.591   2.126   6.822 -1.3183  1.5068  1.4126
 7561SOL     OW34318   4.730   1.369   2.328  0.4507  0.4435 -0.3798
 7561SOL    HW134319   4.698   1.383   2.239  1.2218  2.3607 -0.3551
 7561SOL    HW234320   4.705   1.279   2.350 -0.0783  1.5469  3.4811
 7562SOL     OW34321   4.582   3.759   4.001 -1.0721 -0.4130 -0.1068
 7562SOL    HW134322   4.569   3.825   3.932  1.2299  0.1317 -0.0360
 7562SOL    HW234323   4.491   3.742   4.023 -0.3505 -1.8884  1.6633
 7563SOL     OW34324   2.434   4.389   3.064 -0.3689 -0.3275  0.2610
 7563SOL    HW134325   2.378   4.448   3.012  0.4460  1.0008  0.8889
 7563SOL    HW234326   2.378   4.313   3.075 -0.6648  0.0159  1.0949
 7564SOL     OW34327   0.010   0.938   2.595  0.2849  0.7612 -0.2064
 7564SOL    HW134328   0.069   0.878   2.549 -0.1108  0.7548 -0.7129
 7564SOL    HW234329   4.687   0.874   2.634  2.0773 -0.4048  0.7022
 7565SOL     OW34330   4.505   2.217   0.399  0.5361 -0.2748 -0.0986
 7565SOL    HW134331   4.513   2.217   0.495  1.4406  1.3490 -0.1645
 7565SOL    HW234332   4.500   2.124   0.380 -0.5054 -0.0769 -0.7767
 7566SOL     OW34333   3.938   1.204  16.596 -0.0538  0.2177 -0.3806
 7566SOL    HW134334   3.994   1.280  16.586 -0.8230  0.8002 -0.3091
 7566SOL    HW234335   3.853   1.243  16.575 -1.4121 -1.9643  1.0026
 7567SOL     OW34336   1.521   4.476   9.097 -0.2058 -0.0085 -0.4408
 7567SOL    HW134337   1.433   4.478   9.058 -0.5145 -1.9911  0.1626
 7567SOL    HW234338   1.503   4.492   9.189  0.2547 -0.6165 -0.2431
 7568SOL     OW34339   1.374   2.429   5.087 -0.1690 -0.0223 -0.4276
 7568SOL    HW134340   1.280   2.436   5.101 -0.1014  1.6774 -0.8359
 7568SOL    HW234341   1.411   2.436   5.175 -1.1463  2.1672 -0.2213
 7569SOL     OW34342   2.661   3.780   4.558  0.0637 -0.2123 -0.8289
 7569SOL    HW134343   2.589   3.783   4.495  0.2247 -0.0784 -1.0087
 7569SOL    HW234344   2.620   3.772   4.644  0.8230  2.1212 -0.2641
 7570SOL     OW34345   3.111   0.925   7.703  0.2998  0.2560  0.1463
 7570SOL    HW134346   3.033   0.950   7.654 -0.3766  0.3280  1.2781
 7570SOL    HW234347   3.179   0.960   7.645  0.2273 -0.6207 -0.4690
 7571SOL     OW34348   4.505   0.522  11.326 -0.2237 -0.1997 -0.2279
 7571SOL    HW134349   4.561   0.494  11.399  0.1740 -1.5394 -1.0499
 7571SOL    HW234350   4.490   0.440  11.278 -0.4472 -0.9904  1.1851
 7572SOL     OW34351   2.415   2.201   2.557  0.5855 -0.4912 -0.2391
 7572SOL    HW134352   2.473   2.266   2.596 -0.0526 -0.6396  0.9692
 7572SOL    HW234353   2.381   2.165   2.640  0.8597  1.2358  0.6183
 7573SOL     OW34354   3.988   0.831   3.540 -0.8408 -0.1341  0.2929
 7573SOL    HW134355   4.058   0.878   3.495 -0.2335 -0.1400  1.2465
 7573SOL    HW234356   3.971   0.889   3.615 -0.4802  1.5016 -0.8972
 7574SOL     OW34357   2.656   2.070  10.852 -0.7123 -0.4015  0.2134
 7574SOL    HW134358   2.595   2.137  10.820 -0.9636 -0.4299  0.6389
 7574SOL    HW234359   2.604   2.056  10.931  0.0760 -0.0730  0.7911
 7575SOL     OW34360   3.854   2.927   7.353 -0.7180 -0.2239 -0.3756
 7575SOL    HW134361   3.836   2.997   7.290 -0.8172  0.7441  0.7332
 7575SOL    HW234362   3.935   2.955   7.395 -0.4502  0.7384 -1.5446
 7576SOL     OW34363   1.601   1.447  17.147 -0.1469  0.3642  0.0050
 7576SOL    HW134364   1.692   1.416  17.146  0.0485  0.8701  1.8687
 7576SOL    HW234365   1.550   1.368  17.163  0.9409  0.3130  3.2649
 7577SOL     OW34366   2.185   4.113   6.157  0.3685 -0.2843  0.1700
 7577SOL    HW134367   2.121   4.115   6.086  1.0623 -0.2603 -0.4590
 7577SOL    HW234368   2.237   4.033   6.144 -0.0989 -0.6000  0.2279
 7578SOL     OW34369   3.323   1.157   6.709  0.6899  0.8325  0.6885
 7578SOL    HW134370   3.260   1.218   6.746  1.4409  1.4976  0.8815
 7578SOL    HW234371   3.382   1.215   6.660  1.2969 -1.8261 -1.7539
 7579SOL     OW34372   3.318   3.565   9.721 -0.0558  0.0434 -0.3330
 7579SOL    HW134373   3.234   3.521   9.716  1.7456 -3.4697  0.2222
 7579SOL    HW234374   3.309   3.613   9.803 -0.1487 -0.7998  0.1391
 7580SOL     OW34375   0.886   1.667   1.894  0.3433 -0.7522 -0.2145
 7580SOL    HW134376   0.966   1.718   1.887 -1.4400  2.0851  0.4455
 7580SOL    HW234377   0.817   1.733   1.893 -0.2995 -1.3336  3.8067
 7581SOL     OW34378   3.046   2.069   5.160 -0.1367  0.0994  0.2774
 7581SOL    HW134379   2.961   2.093   5.197 -0.5190  0.5824 -0.8978
 7581SOL    HW234380   3.098   2.142   5.193  0.4987  0.4609 -1.5204
 7582SOL     OW34381   2.877   2.928   4.224 -0.8432  0.2020  0.1509
 7582SOL    HW134382   2.855   3.020   4.232  2.7655  1.1670 -1.2775
 7582SOL    HW234383   2.956   2.924   4.278 -0.1878  1.3201 -0.7238
 7583SOL     OW34384   2.630   0.103   7.831  0.4996 -0.0154 -0.3710
 7583SOL    HW134385   2.568   0.097   7.758  0.1507  2.8461 -0.2993
 7583SOL    HW234386   2.692   0.040   7.794 -3.7148 -2.4043 -3.3507
 7584SOL     OW34387   4.474   0.475   0.864  0.0537  0.1180 -0.4670
 7584SOL    HW134388   4.488   0.569   0.872  0.1064  0.1293 -0.6898
 7584SOL    HW234389   4.567   0.452   0.868 -0.6482 -2.4374  1.5374
 7585SOL     OW34390   1.789   4.728   7.042 -0.4805  0.4566  0.1224
 7585SOL    HW134391   1.767   0.021   7.131 -0.4490  2.7199 -0.6390
 7585SOL    HW234392   1.706   0.014   7.001 -0.6552 -0.6798 -0.1745
 7586SOL     OW34393   4.273   3.011   7.867 -0.1551 -0.5062 -0.3402
 7586SOL    HW134394   4.255   2.930   7.819 -0.2027 -1.3689  1.1331
 7586SOL    HW234395   4.220   3.080   7.828 -0.6892 -0.8622 -0.2485
 7587SOL     OW34396   4.262   0.621   1.056 -0.1838 -0.2230 -0.4137
 7587SOL    HW134397   4.356   0.607   1.062 -0.5290 -1.9223  1.1899
 7587SOL    HW234398   4.249   0.640   0.964 -1.3944 -0.0650 -0.2120
 7588SOL     OW34399   0.476   4.725   2.211 -0.2581  0.0729 -0.4232
 7588SOL    HW134400   0.462   4.677   2.130 -2.1472 -1.0814  0.5745
 7588SOL    HW234401   0.424   4.679   2.276 -0.9491  1.9777  0.3763
 7589SOL     OW34402   0.618   0.008   3.820  0.2200 -0.0500  0.2115
 7589SOL    HW134403   0.558   4.727   3.891 -1.4835  0.6697 -1.0432
 7589SOL    HW234404   0.569   0.060   3.757  0.4837  0.1855  0.1981
 7590SOL     OW34405   4.004   2.504  17.740 -0.4084  0.1085 -0.3610
 7590SOL    HW134406   3.980   2.530  17.651 -0.8801  0.8773 -0.0138
 7590SOL    HW234407   3.916   2.481   0.020 -0.4065  2.3425  1.5254
 7591SOL     OW34408   0.583   0.963   6.870 -0.1956 -0.4850  0.1505
 7591SOL    HW134409   0.533   0.931   6.794 -2.3741 -3.9572  3.0565
 7591SOL    HW234410   0.647   1.009   6.815 -0.6853  1.5276  1.2655
 7592SOL     OW34411   0.184   0.627   8.146 -0.0275  0.1541 -0.2573
 7592SOL    HW134412   0.213   0.710   8.184 -2.6824  0.2376  1.6264
 7592SOL    HW234413   0.133   0.603   8.224 -0.4483 -0.3495 -0.6801
 7593SOL     OW34414   0.963   1.522   6.180 -0.3619  0.1703  0.4327
 7593SOL    HW134415   1.037   1.580   6.160  1.5279 -2.1622  0.6477
 7593SOL    HW234416   0.920   1.584   6.239  0.9923 -0.2324  1.8543
 7594SOL     OW34417   2.410   2.793  17.278 -0.0888  0.4385 -0.7020
 7594SOL    HW134418   2.449   2.787  17.191 -1.0405 -1.5937 -0.9952
 7594SOL    HW234419   2.474   2.758  17.340  0.9831  4.0588  0.2171
 7595SOL     OW34420   0.414   0.619  12.159  0.4038 -0.4626 -0.3573
 7595SOL    HW134421   0.468   0.625  12.080  0.8455  1.9240  0.1260
 7595SOL    HW234422   0.430   0.529  12.188  0.4783  0.0892  1.3018
 7596SOL     OW34423   3.422   2.548   4.491 -0.0476  0.0704  0.5128
 7596SOL    HW134424   3.384   2.631   4.462  0.8845  0.2810 -0.1156
 7596SOL    HW234425   3.346   2.502   4.526 -0.4777  0.4378  0.0538
 7597SOL     OW34426   4.680   2.443   2.495 -0.3637  0.2867  0.1977
 7597SOL    HW134427   4.691   2.489   2.578  3.2271 -0.1502 -0.0271
 7597SOL    HW234428   4.602   2.481   2.454 -0.3187  0.4869  0.2941
 7598SOL     OW34429   2.676   2.418  10.402  0.1859 -0.3021 -0.2022
 7598SOL    HW134430   2.713   2.329  10.397 -0.5044 -0.7635  2.6102
 7598SOL    HW234431   2.584   2.395  10.386  0.0647  0.2100 -0.2435
 7599SOL     OW34432   3.222   2.276   5.240  0.5648 -0.1809  0.4216
 7599SOL    HW134433   3.255   2.285   5.151  2.2236 -1.3170  0.9201
 7599SOL    HW234434   3.291   2.318   5.293 -2.2678  1.0380  3.1512
 7600SOL     OW34435   2.531   1.918   9.689 -0.3636  0.1831 -0.0696
 7600SOL    HW134436   2.441   1.929   9.719  0.2245  0.3561  1.6086
 7600SOL    HW234437   2.526   1.932   9.594  1.5690  1.2992 -0.0064
 7601SOL     OW34438   4.578   1.161   8.181 -0.4771  0.4510 -0.1551
 7601SOL    HW134439   4.641   1.178   8.252 -1.2419  0.0145  0.6232
 7601SOL    HW234440   4.546   1.075   8.205 -0.2997 -0.1427 -2.0560
 7602SOL     OW34441   0.875   0.356   4.923  0.1471  0.2637 -0.4279
 7602SOL    HW134442   0.939   0.368   4.993 -0.5676  1.7457 -0.0346
 7602SOL    HW234443   0.927   0.361   4.843  0.5459  2.5684 -0.0146
 7603SOL     OW34444   3.187   1.519   3.094 -0.5546 -0.4515  0.2649
 7603SOL    HW134445   3.283   1.513   3.094 -0.5301  0.0308 -0.9167
 7603SOL    HW234446   3.166   1.451   3.031 -0.0659 -0.3375 -0.0214
 7604SOL     OW34447   4.121   2.017   6.510  0.2013 -0.0902 -0.4534
 7604SOL    HW134448   4.037   2.063   6.510  0.6607  0.7449 -1.0145
 7604SOL    HW234449   4.126   2.000   6.604 -0.5492 -0.1590 -0.4206
 7605SOL     OW34450   1.598   4.408   3.044 -0.3572 -0.4418  0.4017
 7605SOL    HW134451   1.515   4.361   3.052 -0.3426 -0.6222 -0.5631
 7605SOL    HW234452   1.569   4.491   3.006  2.1457  0.5610  0.6413
 7606SOL     OW34453   0.264   2.048   6.610  0.2158 -0.3786  0.1736
 7606SOL    HW134454   0.327   2.068   6.679  1.3101 -1.8261 -0.4314
 7606SOL    HW234455   0.225   2.136   6.606  1.0447 -0.0180 -0.0432
 7607SOL     OW34456   1.261   2.727   1.964  0.6462 -0.3102 -0.3739
 7607SOL    HW134457   1.207   2.785   1.910 -1.3914 -0.5179  1.4477
 7607SOL    HW234458   1.348   2.741   1.926  1.0250 -0.8904  0.2967
 7608SOL     OW34459   3.350   0.584   3.606  0.2527  0.0525  0.1342
 7608SOL    HW134460   3.378   0.534   3.529  0.6446  0.5207 -0.0308
 7608SOL    HW234461   3.305   0.511   3.648 -0.5291  0.1451 -0.5594
 7609SOL     OW34462   1.064   0.428   5.364  0.7846  0.1805  0.2545
 7609SOL    HW134463   1.079   0.429   5.269  2.0235  0.5026  0.4465
 7609SOL    HW234464   1.150   0.404   5.399  1.2525 -2.1356 -2.5434
 7610SOL     OW34465   0.720   3.110   9.635 -0.0302 -0.3941 -0.2754
 7610SOL    HW134466   0.776   3.077   9.564  0.1724 -0.5430 -0.0466
 7610SOL    HW234467   0.771   3.083   9.711 -2.4779 -1.5740  0.9582
 7611SOL     OW34468   0.950   2.390  16.721 -0.4392  0.2379 -0.2215
 7611SOL    HW134469   0.942   2.374  16.627 -0.1634  2.1098 -0.5649
 7611SOL    HW234470   1.034   2.345  16.734 -2.0888 -1.8430  3.1312
 7612SOL     OW34471   3.422   1.062   3.888 -0.1923  0.6940  0.6707
 7612SOL    HW134472   3.506   1.089   3.925 -0.3318  0.9029  0.8358
 7612SOL    HW234473   3.429   0.967   3.888  1.4138  0.8082 -0.7521
 7613SOL     OW34474   2.356   1.233  15.793 -0.3745 -0.3092 -0.3576
 7613SOL    HW134475   2.270   1.237  15.752  0.5954  2.1614 -2.1048
 7613SOL    HW234476   2.404   1.223  15.711 -0.1548  1.4557 -0.4387
 7614SOL     OW34477   4.565   3.378   6.252 -0.0182  0.0071  0.7862
 7614SOL    HW134478   4.657   3.363   6.277 -0.3205 -0.0884  1.8163
 7614SOL    HW234479   4.528   3.292   6.274  1.6137 -1.0481 -0.5412
 7615SOL     OW34480   2.988   4.670   4.680 -0.0518  0.9120  0.2137
 7615SOL    HW134481   2.948   4.662   4.594 -1.5918 -0.4276  1.0515
 7615SOL    HW234482   3.068   4.618   4.678 -0.2660  0.5965 -0.0748
 7616SOL     OW34483   3.833   0.877   0.207  0.1597 -0.4055 -0.3955
 7616SOL    HW134484   3.872   0.806   0.259  1.3081  0.7313  0.3048
 7616SOL    HW234485   3.858   0.849   0.119  3.4595 -3.9393  1.6554
 7617SOL     OW34486   3.026   1.743  11.922 -0.2655 -0.3202 -0.0339
 7617SOL    HW134487   2.961   1.708  11.860 -3.8848  2.0823  2.4059
 7617SOL    HW234488   3.109   1.708  11.890 -0.5225 -1.0045  0.0410
 7618SOL     OW34489   1.088   0.171   6.219  0.1858 -0.0715  0.7544
 7618SOL    HW134490   1.047   0.197   6.302  1.0870 -0.5505  1.3614
 7618SOL    HW234491   1.120   0.253   6.183  1.6467 -0.2871  1.5296
 7619SOL     OW34492   0.667   1.024   4.675 -0.3560 -0.1457  0.1805
 7619SOL    HW134493   0.662   0.934   4.645  0.3150  0.1933 -0.9505
 7619SOL    HW234494   0.660   1.077   4.596 -1.1819 -0.1037  0.2838
 7620SOL     OW34495   2.908   2.311   1.716 -0.3384  0.0400  0.3948
 7620SOL    HW134496   2.959   2.263   1.650 -1.0736 -1.0726  0.6325
 7620SOL    HW234497   2.821   2.294   1.680 -0.4209  0.2292  0.5069
 7621SOL     OW34498   1.716   2.263  11.154 -0.1291 -0.5345  0.2583
 7621SOL    HW134499   1.746   2.313  11.230  3.0106 -0.6729 -0.8823
 7621SOL    HW234500   1.724   2.174  11.188  2.2700 -0.4191  0.0135
 7622SOL     OW34501   0.937   0.500   5.622 -0.2026  0.6665 -0.0897
 7622SOL    HW134502   0.953   0.594   5.628  0.8646  0.4702  0.0674
 7622SOL    HW234503   0.988   0.475   5.545  2.3890 -2.2870  2.6010
 7623SOL     OW34504   4.411   3.657   9.346 -1.2290  0.0326 -0.2601
 7623SOL    HW134505   4.381   3.685   9.260 -1.6558 -2.0333 -0.7729
 7623SOL    HW234506   4.446   3.568   9.340 -0.1211  0.4117  0.6368
 7624SOL     OW34507   1.481   2.419   7.928  0.2125 -0.3210  0.0563
 7624SOL    HW134508   1.543   2.381   7.991 -0.5934  0.4208  1.2938
 7624SOL    HW234509   1.517   2.507   7.917 -0.7908 -0.0025 -0.6235
 7625SOL     OW34510   0.591   3.597  17.450 -0.0019  0.3072 -0.0205
 7625SOL    HW134511   0.595   3.502  17.462  4.1080  0.6762  1.6021
 7625SOL    HW234512   0.666   3.615  17.394 -0.4013 -0.2046 -0.7153
 7626SOL     OW34513   1.248   4.615   3.959 -0.2418 -0.4997  0.1400
 7626SOL    HW134514   1.203   4.607   3.875  1.2358 -1.8509 -0.5188
 7626SOL    HW234515   1.227   4.529   3.997 -0.8936  0.3923  1.7983
 7627SOL     OW34516   4.445   3.225   9.075  0.5987 -0.2369  0.1400
 7627SOL    HW134517   4.465   3.157   9.139  2.2507 -0.7338 -0.9332
 7627SOL    HW234518   4.407   3.176   9.002 -0.5346  0.0874  0.5019
 7628SOL     OW34519   3.667   2.943   7.923 -0.5033  0.2323 -0.2801
 7628SOL    HW134520   3.658   2.992   7.841 -1.3062  0.7555  0.1145
 7628SOL    HW234521   3.588   2.969   7.970 -0.4263  3.8508 -2.1167
 7629SOL     OW34522   4.295   0.205  17.460 -0.4056 -0.0486 -0.0812
 7629SOL    HW134523   4.276   0.288  17.503  1.7092  1.0569 -1.3374
 7629SOL    HW234524   4.214   0.197  17.409  0.3355  2.0261 -1.5769
 7630SOL     OW34525   4.233   1.053   8.235  0.1021 -0.0849 -0.3852
 7630SOL    HW134526   4.241   1.000   8.156  0.2544 -0.5467 -0.0555
 7630SOL    HW234527   4.322   1.048   8.269 -0.2356 -1.0225  0.3579
 7631SOL     OW34528   0.199   3.882   3.727 -0.3522 -0.0592 -0.5474
 7631SOL    HW134529   0.249   3.800   3.739 -0.4970  0.2575  2.1258
 7631SOL    HW234530   0.127   3.849   3.674 -1.4692  0.2768  0.7907
 7632SOL     OW34531   4.415   2.070   4.089  0.3263 -0.1484 -0.1479
 7632SOL    HW134532   4.442   1.982   4.118 -1.4574 -2.0512 -4.3107
 7632SOL    HW234533   4.482   2.092   4.024 -0.2701 -1.4034 -1.1852
 7633SOL     OW34534   4.115   0.302  13.870 -0.4566  0.2150  0.1547
 7633SOL    HW134535   4.175   0.373  13.894 -0.7519 -0.9135  4.2216
 7633SOL    HW234536   4.144   0.233  13.929 -0.8798  1.1608  1.4754
 7634SOL     OW34537   4.253   4.598   0.713 -0.0540 -0.7358  0.3409
 7634SOL    HW134538   4.225   4.511   0.684 -0.8387  0.1157 -1.4584
 7634SOL    HW234539   4.349   4.599   0.715 -0.0347  1.6585 -2.1314
 7635SOL     OW34540   4.490   4.507   6.216  0.3331  0.4715 -0.0880
 7635SOL    HW134541   4.482   4.441   6.147  0.9693 -1.9674  2.1742
 7635SOL    HW234542   4.438   4.581   6.184  1.8562  0.8752 -1.6132
 7636SOL     OW34543   3.480   2.426  14.849 -0.0458  0.2332  0.2261
 7636SOL    HW134544   3.541   2.480  14.898  0.6583  0.0888 -0.4987
 7636SOL    HW234545   3.523   2.408  14.765  0.5074 -0.4424  0.6611
 7637SOL     OW34546   2.141   4.649   6.457  0.2414 -0.3811  0.2782
 7637SOL    HW134547   2.143   4.562   6.496 -0.9092 -1.4726 -2.0847
 7637SOL    HW234548   2.165   4.708   6.528  0.0530  1.2332 -1.0130
 7638SOL     OW34549   2.703   0.046   5.565 -0.0286 -0.6907  0.0903
 7638SOL    HW134550   2.789   0.005   5.570  0.7459  0.6187 -2.6723
 7638SOL    HW234551   2.674   0.037   5.656 -0.9926 -0.1571 -0.1585
 7639SOL     OW34552   3.510   4.668   5.042 -0.0295 -0.5340 -0.2447
 7639SOL    HW134553   3.423   4.669   5.002  0.3084 -0.2902 -0.9641
 7639SOL    HW234554   3.484   4.704   5.127 -0.7043  0.1679 -0.7529
 7640SOL     OW34555   4.067   1.610  11.930 -0.3038  0.0573 -0.4171
 7640SOL    HW134556   4.134   1.566  11.982 -0.0652 -0.1828 -0.9298
 7640SOL    HW234557   4.003   1.540  11.937 -2.3106  1.8363 -1.0088
 7641SOL     OW34558   1.939   4.012   1.341 -0.2451 -0.4207  0.0402
 7641SOL    HW134559   1.960   4.009   1.248  0.6725 -1.5233  0.2809
 7641SOL    HW234560   1.861   4.068   1.339 -0.6632 -1.0016  0.0566
 7642SOL     OW34561   2.156   4.509   4.944 -0.9997  0.0034  0.5227
 7642SOL    HW134562   2.066   4.493   4.915 -0.3856  1.3509 -2.1792
 7642SOL    HW234563   2.152   4.472   5.032 -1.2354 -1.0048  0.0790
 7643SOL     OW34564   2.493   3.731   7.781 -0.0856  0.3741  0.4851
 7643SOL    HW134565   2.460   3.691   7.701  2.1166  1.1549 -0.7962
 7643SOL    HW234566   2.429   3.800   7.796 -3.1654 -1.9218 -2.0763
 7644SOL     OW34567   0.333   1.515   3.453  0.2756  0.1992  0.0885
 7644SOL    HW134568   0.396   1.470   3.509 -1.1216 -0.4856  1.0992
 7644SOL    HW234569   0.402   1.558   3.402  0.6509 -1.6257 -0.9406
 7645SOL     OW34570   1.859   3.652  10.584 -0.3002  0.6053  0.0156
 7645SOL    HW134571   1.901   3.611  10.508  0.0085  0.4783  0.2554
 7645SOL    HW234572   1.769   3.659  10.553  0.1900 -0.8510 -1.7630
 7646SOL     OW34573   1.162   2.167   3.874  0.4538 -0.5021 -0.0106
 7646SOL    HW134574   1.171   2.259   3.898  0.6410  0.0497 -2.1750
 7646SOL    HW234575   1.099   2.126   3.933 -0.7979  0.6824 -0.5139
 7647SOL     OW34576   2.197   3.169   6.551 -0.0684  0.1756 -0.4786
 7647SOL    HW134577   2.174   3.233   6.618 -1.1560  0.0355 -0.7099
 7647SOL    HW234578   2.144   3.210   6.483 -2.3026 -0.9005  0.5993
 7648SOL     OW34579   1.813   0.838  12.544 -0.0620 -0.3880 -0.0198
 7648SOL    HW134580   1.824   0.841  12.639 -1.3745  1.0053  0.0860
 7648SOL    HW234581   1.834   0.745  12.535  2.2241 -0.0224  1.5559
 7649SOL     OW34582   3.249   1.643   7.794 -0.4778  0.4883 -0.1142
 7649SOL    HW134583   3.188   1.716   7.802  0.1460  1.0923 -0.8500
 7649SOL    HW234584   3.310   1.691   7.738  0.9935 -0.4091  0.7192
 7650SOL     OW34585   3.950   2.549   4.859  0.2757  0.3277  0.0801
 7650SOL    HW134586   4.045   2.542   4.869  0.3803 -0.2464 -1.4153
 7650SOL    HW234587   3.936   2.477   4.797  0.4950 -0.7745  1.2926
 7651SOL     OW34588   1.426   0.603  17.505  0.5783 -0.1710  0.4053
 7651SOL    HW134589   1.441   0.514  17.538  0.1628 -0.6172 -0.5921
 7651SOL    HW234590   1.408   0.653  17.585 -1.2025  1.2394 -0.8697
 7652SOL     OW34591   4.182   4.666  10.494 -0.1249 -0.0910  0.0016
 7652SOL    HW134592   4.274   4.671  10.520 -0.2489  1.0434  0.1987
 7652SOL    HW234593   4.137   4.640  10.574  1.8064 -2.2345  0.3962
 7653SOL     OW34594   1.839   4.383   8.556  0.0680  0.7563  0.5841
 7653SOL    HW134595   1.911   4.444   8.569  1.1317 -1.0756  3.2639
 7653SOL    HW234596   1.858   4.327   8.631  0.6661  0.5449  0.2789
 7654SOL     OW34597   0.531   2.022   0.657 -0.2268 -0.0527  0.2013
 7654SOL    HW134598   0.618   2.006   0.693 -0.8060 -2.0198  0.7447
 7654SOL    HW234599   0.477   2.018   0.736 -0.1866  2.7383  0.3624
 7655SOL     OW34600   1.153   3.274   4.483  0.3334  0.2423  0.2451
 7655SOL    HW134601   1.183   3.286   4.392 -0.0767 -0.7350 -0.0141
 7655SOL    HW234602   1.222   3.321   4.530  0.9198 -0.4629  0.1007
 7656SOL     OW34603   4.340   1.173   2.487  0.5383  0.0603  0.3690
 7656SOL    HW134604   4.428   1.208   2.483  0.6480 -0.3174 -0.5306
 7656SOL    HW234605   4.356   1.078   2.486  0.0787 -0.0088 -1.2808
 7657SOL     OW34606   3.105   0.509   2.505 -0.2233  0.8231  0.3488
 7657SOL    HW134607   3.152   0.540   2.582 -0.6189  1.1732  0.4492
 7657SOL    HW234608   3.169   0.532   2.437 -0.7188  0.1031 -0.3695
 7658SOL     OW34609   1.439   2.385  14.569 -0.2518  0.1303  0.4108
 7658SOL    HW134610   1.434   2.317  14.637  0.2340 -0.0039  0.3086
 7658SOL    HW234611   1.526   2.370  14.532 -0.5885 -0.8479  0.0084
 7659SOL     OW34612   0.769   2.059   6.459  0.2501  0.2217  0.5691
 7659SOL    HW134613   0.746   2.047   6.367 -0.2942  3.0025  0.3525
 7659SOL    HW234614   0.744   1.972   6.489 -1.1866  0.4883  0.1219
 7660SOL     OW34615   4.101   4.408   7.517  0.2494  0.3527 -0.5271
 7660SOL    HW134616   4.077   4.355   7.593 -2.0472 -0.0072 -1.4988
 7660SOL    HW234617   4.026   4.467   7.516  0.5162  0.7198  1.5696
 7661SOL     OW34618   0.454   1.785   8.901  0.4875  0.5649  0.4224
 7661SOL    HW134619   0.417   1.814   8.817 -1.2225  0.7940  1.2518
 7661SOL    HW234620   0.528   1.729   8.877  0.7600  1.5661 -1.0680
 7662SOL     OW34621   1.939   4.705   2.127 -0.2645  0.1876 -0.0005
 7662SOL    HW134622   1.907   0.024   2.057  0.4034 -0.9748 -1.2473
 7662SOL    HW234623   2.020   4.667   2.091 -0.3199 -0.7677  0.8704
 7663SOL     OW34624   0.619   2.681   8.390 -0.6543 -0.2419  0.3103
 7663SOL    HW134625   0.671   2.701   8.312  0.0379  2.0379  1.3374
 7663SOL    HW234626   0.547   2.626   8.359 -1.1335  0.0347  0.9333
 7664SOL     OW34627   1.075   4.170   6.844 -0.2814  0.0901 -0.0423
 7664SOL    HW134628   0.987   4.133   6.852  0.0550 -0.6532  0.1379
 7664SOL    HW234629   1.058   4.260   6.817  2.1054  0.9783  1.3948
 7665SOL     OW34630   3.762   4.037   1.614  0.4528  0.5881  0.1251
 7665SOL    HW134631   3.778   3.950   1.578 -2.7537 -0.4732  1.2905
 7665SOL    HW234632   3.827   4.089   1.567  0.6252 -0.7092 -1.0592
 7666SOL     OW34633   3.306   2.577   2.001 -0.5094 -0.6808 -0.2530
 7666SOL    HW134634   3.219   2.546   1.975 -1.5567  1.9484  0.0891
 7666SOL    HW234635   3.356   2.496   1.992  0.8946  0.2996 -1.2123
 7667SOL     OW34636   2.040   0.306  14.700  0.0755  0.6294  0.2253
 7667SOL    HW134637   1.963   0.284  14.648  0.6428  0.1980 -0.4283
 7667SOL    HW234638   2.019   0.398  14.711 -0.0119  0.5726  0.5438
 7668SOL     OW34639   1.319   4.725  12.921  0.1608  0.1854  0.2309
 7668SOL    HW134640   1.313   0.040  13.001 -0.9801  0.2004  0.1479
 7668SOL    HW234641   1.414   4.717  12.915  0.1593  1.2638 -1.2880
 7669SOL     OW34642   4.455   3.829  17.394 -0.3826 -0.0912  0.6452
 7669SOL    HW134643   4.541   3.860  17.366 -1.7803  0.5871 -2.9775
 7669SOL    HW234644   4.419   3.915  17.371 -0.3929 -0.5045 -0.8937
 7670SOL     OW34645   4.319   2.418   7.136 -0.2413  0.2781 -0.1132
 7670SOL    HW134646   4.386   2.435   7.069  0.0563  0.9002  0.3479
 7670SOL    HW234647   4.364   2.461   7.208 -0.0935 -1.4995  0.8475
 7671SOL     OW34648   4.158   0.470   3.346  0.5102 -0.0637 -0.5751
 7671SOL    HW134649   4.092   0.525   3.388  1.3330  0.4434  0.0625
 7671SOL    HW234650   4.169   0.398   3.408 -0.7992  2.0796  2.1681
 7672SOL     OW34651   4.704   1.909   3.814  0.1683  0.0808 -0.4619
 7672SOL    HW134652   0.054   1.889   3.780  1.1494  0.3429  1.9775
 7672SOL    HW234653   4.686   1.818   3.837  1.7533  0.3849  1.9825
 7673SOL     OW34654   1.010   1.891   5.848  0.2176  0.3151  0.0573
 7673SOL    HW134655   1.034   1.803   5.877 -1.5885 -0.2408 -0.0966
 7673SOL    HW234656   1.090   1.934   5.820 -0.4686  1.9760  0.6658
 7674SOL     OW34657   1.863   0.309   1.919 -0.2414  0.6491  0.3808
 7674SOL    HW134658   1.831   0.290   1.831  0.4829  1.2033  0.0051
 7674SOL    HW234659   1.788   0.351   1.960 -1.4639 -2.7380  1.6710
 7675SOL     OW34660   3.364   1.164   9.577 -0.0777 -0.3248  0.4671
 7675SOL    HW134661   3.397   1.182   9.665 -0.8515  2.8867  0.1026
 7675SOL    HW234662   3.411   1.236   9.535 -0.0487 -1.0118 -0.6517
 7676SOL     OW34663   0.103   4.546   5.058  0.1212 -0.4743 -0.4555
 7676SOL    HW134664   0.163   4.594   5.115  0.5669 -0.2043 -1.1439
 7676SOL    HW234665   0.134   4.458   5.082 -1.9478 -1.1372 -0.2498
 7677SOL     OW34666   1.909   2.004   5.892  0.4551  0.1686 -0.6554
 7677SOL    HW134667   1.993   1.983   5.849  0.9332 -0.5884  0.6453
 7677SOL    HW234668   1.883   1.914   5.911  0.1882  0.0676 -1.4910
 7678SOL     OW34669   0.262   1.068  12.446 -0.3426 -0.1019 -0.1788
 7678SOL    HW134670   0.311   1.138  12.490  0.5315 -0.2566 -0.9027
 7678SOL    HW234671   0.327   1.009  12.406  0.6875  1.6561 -1.1237
 7679SOL     OW34672   2.725   2.143   8.937 -0.1528  0.0247 -0.0175
 7679SOL    HW134673   2.814   2.110   8.934 -1.1862 -2.8561  0.5202
 7679SOL    HW234674   2.719   2.177   9.026 -2.6994  0.7362 -0.4375
 7680SOL     OW34675   3.324   0.619   4.880  0.4802  0.0122  0.2228
 7680SOL    HW134676   3.303   0.605   4.788  2.8183 -0.6806 -0.2080
 7680SOL    HW234677   3.408   0.665   4.884  0.4642  0.0810 -0.2089
 7681SOL     OW34678   2.435   3.429  12.872 -0.2527 -0.2704  0.1975
 7681SOL    HW134679   2.352   3.433  12.920 -1.0336 -0.6751 -1.1014
 7681SOL    HW234680   2.466   3.344  12.903 -0.4628 -0.5695 -0.4033
 7682SOL     OW34681   1.332   4.503  16.611  0.1058  0.0409  0.2462
 7682SOL    HW134682   1.378   4.420  16.597  0.2146  0.0193  0.7557
 7682SOL    HW234683   1.260   4.501  16.547  1.5028  0.5725 -1.3635
 7683SOL     OW34684   2.077   3.325   6.347  0.2827  0.2368  0.0766
 7683SOL    HW134685   2.087   3.285   6.261 -0.4110 -0.0952  0.1529
 7683SOL    HW234686   1.983   3.331   6.359  0.2022 -0.8431 -0.0599
 7684SOL     OW34687   0.576   3.407   4.390 -0.1501 -0.3356  0.0700
 7684SOL    HW134688   0.533   3.350   4.453 -2.0509  0.0159 -0.9114
 7684SOL    HW234689   0.516   3.479   4.373 -1.0416 -1.0729  0.1221
 7685SOL     OW34690   3.657   0.420   3.680  0.0062  0.3803  0.0701
 7685SOL    HW134691   3.597   0.351   3.654  0.3706 -0.1886  0.7496
 7685SOL    HW234692   3.715   0.366   3.734 -0.9200 -1.5740 -0.8835
 7686SOL     OW34693   2.992   0.935  11.733 -0.1700 -0.3077 -0.5031
 7686SOL    HW134694   2.932   0.867  11.700 -0.6116 -0.5439  0.7628
 7686SOL    HW234695   3.012   0.986  11.655  0.6725  0.8807  0.4940
 7687SOL     OW34696   4.637   3.769  10.839 -0.3531  0.9689 -0.4732
 7687SOL    HW134697   4.544   3.791  10.832 -0.8666 -1.8668 -2.6228
 7687SOL    HW234698   4.646   3.734  10.750 -0.3862  2.3840 -1.0301
 7688SOL     OW34699   1.816   4.078   9.948 -0.4971  0.3434  0.6120
 7688SOL    HW134700   1.765   4.075   9.867 -1.0928 -2.4717  1.0985
 7688SOL    HW234701   1.828   4.173   9.939  0.8065 -0.0298 -1.5747
 7689SOL     OW34702   0.501   4.153  12.153 -0.1642 -0.2025  0.2540
 7689SOL    HW134703   0.483   4.064  12.123  2.7423 -1.1344  1.3355
 7689SOL    HW234704   0.574   4.128  12.209 -1.8277 -1.2847  1.9303
 7690SOL     OW34705   1.812   2.602   3.136  0.0370  0.3575  0.1589
 7690SOL    HW134706   1.876   2.594   3.065  1.1036 -1.0087  1.2796
 7690SOL    HW234707   1.757   2.675   3.107 -2.3342 -0.9079  1.4679
 7691SOL     OW34708   4.121   1.033   3.417 -0.1916 -0.5996  0.7462
 7691SOL    HW134709   4.204   1.029   3.370 -0.5799  0.5285 -0.0417
 7691SOL    HW234710   4.055   1.018   3.349 -1.7439  2.2285  1.6228
 7692SOL     OW34711   4.719   0.868  17.654 -0.6256 -0.2923  0.0112
 7692SOL    HW134712   0.067   0.826  17.662 -0.0547  0.8076 -0.3280
 7692SOL    HW234713   0.007   0.943  17.601 -2.0242  0.2299  0.0688
 7693SOL     OW34714   1.163   3.344   3.049  0.4079 -0.1284  0.4746
 7693SOL    HW134715   1.121   3.263   3.076 -3.2517  0.9108 -2.1336
 7693SOL    HW234716   1.176   3.321   2.957  0.3000  0.5859  0.2750
 7694SOL     OW34717   0.192   3.969   9.008 -0.0493  0.1395  0.8401
 7694SOL    HW134718   0.286   3.960   9.023  0.1409 -1.3772 -1.2318
 7694SOL    HW234719   0.160   4.055   9.033 -0.3807  1.2425 -3.2945
 7695SOL     OW34720   4.682   0.361   9.404 -0.5794  0.1660 -0.6010
 7695SOL    HW134721   4.593   0.375   9.436 -0.7365 -2.8523  0.2124
 7695SOL    HW234722   4.668   0.355   9.309  2.1093  1.0102 -1.0344
 7696SOL     OW34723   0.926   1.687   9.285  0.0461 -0.3828  0.1714
 7696SOL    HW134724   1.000   1.654   9.335  1.9649  1.7551 -1.2442
 7696SOL    HW234725   0.925   1.627   9.210 -2.2340  1.9421 -1.6878
 7697SOL     OW34726   3.994   0.489   9.144 -0.5448  0.2095 -0.2836
 7697SOL    HW134727   3.976   0.583   9.151  0.8692  0.3104  1.8607
 7697SOL    HW234728   3.940   0.447   9.211  1.5588  0.1450  1.3546
 7698SOL     OW34729   0.562   2.314   2.849  0.3245  0.0839 -1.0326
 7698SOL    HW134730   0.595   2.352   2.930  0.6913 -1.6418 -0.3681
 7698SOL    HW234731   0.639   2.317   2.792  2.1628 -2.5179  1.3311
 7699SOL     OW34732   3.378   4.378   0.261  0.8072  0.1811  0.4231
 7699SOL    HW134733   3.360   4.362   0.354  0.0812  2.4459  0.6872
 7699SOL    HW234734   3.294   4.396   0.220  1.6722 -0.9338 -1.8440
 7700SOL     OW34735   1.418   1.166   4.039  0.0584  0.3852  0.2541
 7700SOL    HW134736   1.376   1.080   4.037 -0.6678  0.7041  1.6853
 7700SOL    HW234737   1.502   1.146   3.997  0.5676  1.8522  0.5749
 7701SOL     OW34738   4.198   0.367   1.147 -0.0653 -0.0332 -0.3184
 7701SOL    HW134739   4.226   0.315   1.072 -1.5892 -1.8356  0.3719
 7701SOL    HW234740   4.206   0.455   1.109  0.3651 -0.2662 -0.7723
 7702SOL     OW34741   0.876   4.219   0.208 -0.3217  0.2462  0.1855
 7702SOL    HW134742   0.787   4.233   0.176 -0.5025  2.9813  1.8296
 7702SOL    HW234743   0.876   4.285   0.278  2.4510 -0.5928  0.9609
 7703SOL     OW34744   3.584   0.891   5.582  0.3346  0.1437 -0.2071
 7703SOL    HW134745   3.576   0.884   5.678 -4.4047  2.3127 -0.4447
 7703SOL    HW234746   3.564   0.984   5.571  0.5684  0.4191  1.5515
 7704SOL     OW34747   3.808   4.052  15.485 -0.0021 -0.2454  0.6647
 7704SOL    HW134748   3.800   4.147  15.494  1.0558 -0.0933 -0.0384
 7704SOL    HW234749   3.890   4.045  15.535  0.3340  0.0766  0.1632
 7705SOL     OW34750   0.023   0.026   0.930 -0.5519 -0.3797  0.0838
 7705SOL    HW134751   0.110   4.724   0.936  0.6268  2.3273  0.7357
 7705SOL    HW234752   0.044   0.074   0.850 -0.3534 -1.4221 -0.4872
 7706SOL     OW34753   0.898   3.542   4.014  0.3708 -0.4557 -0.1503
 7706SOL    HW134754   0.827   3.583   4.063  1.3162  0.9546  0.0689
 7706SOL    HW234755   0.896   3.581   3.926 -1.1590  1.8894  0.9246
 7707SOL     OW34756   0.795   0.170   5.114  0.1148 -0.2589  0.2033
 7707SOL    HW134757   0.701   0.154   5.116 -0.0315  0.9283  2.8131
 7707SOL    HW234758   0.802   0.228   5.039  2.1109 -0.5067  0.1897
 7708SOL     OW34759   2.627   4.259  14.128 -0.2443  0.2450 -0.3649
 7708SOL    HW134760   2.596   4.337  14.083 -2.0587 -2.1888 -3.3368
 7708SOL    HW234761   2.563   4.188  14.124  0.0240  0.1751 -3.1296
 7709SOL     OW34762   3.102   0.698   0.076 -0.3748 -0.3341  0.7686
 7709SOL    HW134763   3.101   0.729   0.166 -3.6906 -0.7833  0.8822
 7709SOL    HW234764   3.068   0.772   0.027 -0.3215  0.2911  1.6770
 7710SOL     OW34765   1.054   0.972   8.699  0.0463  0.2493  0.0959
 7710SOL    HW134766   1.100   0.926   8.770 -1.4482  0.1293  0.9759
 7710SOL    HW234767   0.992   0.900   8.686 -2.0019  1.5643  2.5819
 7711SOL     OW34768   2.551   3.681   8.942  0.1737 -0.2162 -0.0145
 7711SOL    HW134769   2.641   3.710   8.955  0.5928 -1.4677 -0.1412
 7711SOL    HW234770   2.554   3.651   8.851 -3.3145 -1.1594  0.1593
 7712SOL     OW34771   4.613   2.820   8.360  0.6615  0.1350 -0.3179
 7712SOL    HW134772   4.707   2.833   8.370  0.1763  0.9133  3.0187
 7712SOL    HW234773   4.599   2.732   8.325 -0.3003 -0.1316  0.7463
 7713SOL     OW34774   1.131   1.092   9.063  0.4252  0.0572  0.1130
 7713SOL    HW134775   1.168   1.149   8.995 -0.9714 -2.0908 -2.4894
 7713SOL    HW234776   1.053   1.050   9.026  2.0274 -1.7491 -1.2690
 7714SOL     OW34777   1.303   2.215   6.466 -0.1728 -1.2001  0.5849
 7714SOL    HW134778   1.210   2.210   6.486  0.1090 -1.5154  1.8566
 7714SOL    HW234779   1.343   2.176   6.544 -0.3944 -1.3928  0.5987
 7715SOL     OW34780   3.307   4.070   3.380  0.3609  0.4705  0.0158
 7715SOL    HW134781   3.242   4.062   3.450 -0.4176 -0.1354 -0.7816
 7715SOL    HW234782   3.331   3.979   3.364 -1.3181 -0.3641  2.1795
 7716SOL     OW34783   0.401   1.640   6.437  0.2057  0.3281  0.2565
 7716SOL    HW134784   0.382   1.732   6.416 -0.8745  0.0924  0.2025
 7716SOL    HW234785   0.318   1.604   6.468 -0.5971  0.7486 -1.3500
 7717SOL     OW34786   4.218   2.694   6.492  0.3477 -0.1022  0.4966
 7717SOL    HW134787   4.183   2.669   6.577 -1.5660 -0.0159 -0.2732
 7717SOL    HW234788   4.155   2.763   6.471 -1.7173 -2.0496  0.3880
 7718SOL     OW34789   2.900   1.991  14.781 -0.4940 -0.5161 -0.0259
 7718SOL    HW134790   2.905   1.983  14.877  2.4062 -1.2895 -0.2512
 7718SOL    HW234791   2.812   2.029  14.786  0.4534  1.7972 -1.1870
 7719SOL     OW34792   1.387   3.375   6.317 -0.2035  0.0782  0.0946
 7719SOL    HW134793   1.309   3.358   6.264  0.5798 -1.2704 -0.6353
 7719SOL    HW234794   1.426   3.290   6.337  1.5203  0.9556  0.4132
 7720SOL     OW34795   4.325   1.098   2.133  0.2653 -0.5900  0.3233
 7720SOL    HW134796   4.419   1.091   2.149  0.7489 -0.3978 -2.5054
 7720SOL    HW234797   4.299   1.172   2.189  2.4976  0.9752 -0.7106
 7721SOL     OW34798   1.827   3.460   2.727 -0.1740  0.1796  0.1123
 7721SOL    HW134799   1.776   3.446   2.647 -0.6742  0.0718  0.4500
 7721SOL    HW234800   1.903   3.405   2.709 -0.0246  0.9859 -1.7237
 7722SOL     OW34801   2.296   1.690   1.602  0.0300  0.1132  0.5588
 7722SOL    HW134802   2.239   1.640   1.661 -0.0196  1.1094  1.3587
 7722SOL    HW234803   2.295   1.651   1.515  0.5030  1.4811 -0.0554
 7723SOL     OW34804   2.049   3.110   5.814 -0.0400  0.0710  0.1343
 7723SOL    HW134805   1.973   3.160   5.842  0.0964  1.7041 -2.4255
 7723SOL    HW234806   2.102   3.112   5.894  0.6250 -0.1977 -0.2926
 7724SOL     OW34807   3.718   0.485   4.767  0.3977  0.1460  0.7060
 7724SOL    HW134808   3.684   0.467   4.679 -0.1011 -1.2333  1.1892
 7724SOL    HW234809   3.715   0.397   4.802 -1.1493 -1.3243 -3.0415
 7725SOL     OW34810   0.341   3.081   5.201 -0.2027  0.2202 -0.0944
 7725SOL    HW134811   0.295   3.110   5.122 -0.6344  0.6034  0.2961
 7725SOL    HW234812   0.270   3.074   5.265  0.0838  0.9303  0.2910
 7726SOL     OW34813   3.341   0.032   3.396 -0.0874 -0.2173  0.1526
 7726SOL    HW134814   3.404   0.015   3.466  0.7113 -0.8233 -0.7210
 7726SOL    HW234815   3.383   0.010   3.313  0.4528  0.5494  0.2199
 7727SOL     OW34816   0.791   0.839   8.026  0.4270 -0.1459 -0.0186
 7727SOL    HW134817   0.881   0.869   8.034  1.2109 -1.8820 -2.0836
 7727SOL    HW234818   0.763   0.867   8.113  2.0069  0.4872  0.2666
 7728SOL     OW34819   0.355   3.427   2.949 -0.0995  0.4935 -0.3136
 7728SOL    HW134820   0.377   3.438   3.042 -0.6045  1.8542 -0.3569
 7728SOL    HW234821   0.266   3.461   2.958 -0.0850 -0.4531  3.5982
 7729SOL     OW34822   0.546   1.331  12.469  0.2602  0.1665  0.3291
 7729SOL    HW134823   0.603   1.312  12.394  0.5880  0.4479  0.5099
 7729SOL    HW234824   0.596   1.392  12.523  2.3209 -0.3480 -0.9797
 7730SOL     OW34825   4.673   3.040  10.738  0.0138 -0.1754  0.5860
 7730SOL    HW134826   4.706   3.002  10.657  1.2870 -0.3962  1.2180
 7730SOL    HW234827   4.589   2.994  10.741  0.8230 -1.6563  0.7840
 7731SOL     OW34828   0.941   1.306   7.466  0.3664 -0.1626  0.0275
 7731SOL    HW134829   0.915   1.225   7.422 -0.4143  0.2993 -0.3582
 7731SOL    HW234830   1.035   1.293   7.480  0.7877  1.2552 -1.4207
 7732SOL     OW34831   1.019   4.060   4.215  0.2803 -0.1198 -0.4039
 7732SOL    HW134832   1.088   4.019   4.164 -0.9831  0.4308 -2.5992
 7732SOL    HW234833   1.040   4.033   4.304 -1.0018 -0.7491 -0.2907
 7733SOL     OW34834   3.468   2.956   6.766 -0.1347  0.6772 -0.1340
 7733SOL    HW134835   3.559   2.986   6.762  0.0293  0.1785 -0.1701
 7733SOL    HW234836   3.468   2.881   6.706 -2.3944  2.3144 -2.1854
 7734SOL     OW34837   1.664   3.528   5.991  0.5570 -0.4270 -0.1930
 7734SOL    HW134838   1.640   3.558   6.078  2.6232 -3.0893  1.2635
 7734SOL    HW234839   1.589   3.487   5.948  1.6642 -2.6299 -0.0149
 7735SOL     OW34840   2.104   1.693   6.845 -0.1609  0.3370 -0.2930
 7735SOL    HW134841   2.059   1.685   6.929 -1.7786 -0.6723 -1.2566
 7735SOL    HW234842   2.143   1.606   6.835  2.0239  1.2326  0.4931
 7736SOL     OW34843   3.272   2.852   4.674  0.5178  0.0858 -0.4467
 7736SOL    HW134844   3.271   2.946   4.693 -1.2112  0.0315 -0.2789
 7736SOL    HW234845   3.366   2.844   4.692  0.8137  1.5044 -1.3558
 7737SOL     OW34846   3.352   4.512   6.456  0.1623 -0.3265  0.2086
 7737SOL    HW134847   3.382   4.537   6.544 -0.7586 -1.0914  0.7502
 7737SOL    HW234848   3.434   4.499   6.409 -0.6569 -2.2932 -0.6858
 7738SOL     OW34849   1.517   3.084  13.643  0.1009 -0.7163 -0.1766
 7738SOL    HW134850   1.611   3.085  13.627  0.4488 -2.2751  1.7112
 7738SOL    HW234851   1.515   3.008  13.702  0.5041  0.7033  1.6730
 7739SOL     OW34852   3.258   1.001   2.128 -0.3521 -0.0861  0.0213
 7739SOL    HW134853   3.335   1.009   2.184 -0.1003 -1.1708 -0.1858
 7739SOL    HW234854   3.247   1.094   2.108 -0.6005  0.2943  1.9716
 7740SOL     OW34855   3.963   4.688   4.543 -0.3760 -0.1834 -0.2261
 7740SOL    HW134856   4.013   4.656   4.618 -0.1198 -0.5356 -0.5410
 7740SOL    HW234857   3.930   4.609   4.501  1.3396 -0.8414 -0.3688
 7741SOL     OW34858   2.324   1.183   4.050  0.0521  0.0784  0.2573
 7741SOL    HW134859   2.408   1.147   4.022 -1.4368 -2.1345 -1.3813
 7741SOL    HW234860   2.353   1.237   4.123 -0.1514  1.0154 -0.3579
 7742SOL     OW34861   3.925   3.308   6.008  0.3309 -0.3325  0.2923
 7742SOL    HW134862   3.981   3.307   5.930  0.1827 -0.3486  0.1840
 7742SOL    HW234863   3.940   3.223   6.049  1.9339  0.0072  0.4173
 7743SOL     OW34864   2.016   4.099   9.244 -0.8713 -0.0082  0.5393
 7743SOL    HW134865   2.044   4.018   9.285 -0.4507  0.3445  0.9537
 7743SOL    HW234866   1.952   4.136   9.305 -1.0246 -1.1817  1.0957
 7744SOL     OW34867   2.296   3.917  15.392 -0.3510 -0.1025 -0.5775
 7744SOL    HW134868   2.283   3.853  15.322  0.2952 -2.0681  1.1038
 7744SOL    HW234869   2.230   3.874  15.447 -0.1033  1.1405  0.6762
 7745SOL     OW34870   1.028   0.565  13.646 -0.0136 -0.5768 -0.2300
 7745SOL    HW134871   1.113   0.543  13.606  0.1912 -1.5763  0.7557
 7745SOL    HW234872   0.962   0.555  13.577  0.3471  0.2219 -0.6954
 7746SOL     OW34873   2.679   4.006  15.191 -0.2662 -0.0358  0.7362
 7746SOL    HW134874   2.750   3.942  15.180 -0.9246 -0.5863 -0.3033
 7746SOL    HW234875   2.720   4.083  15.152 -0.5546  0.3921  1.2749
 7747SOL     OW34876   2.561   2.844   7.304 -1.1549  0.0177  0.4911
 7747SOL    HW134877   2.558   2.940   7.302  1.2455  0.1086  1.8662
 7747SOL    HW234878   2.656   2.839   7.299 -1.1111 -0.0860  1.4653
 7748SOL     OW34879   3.584   1.222  17.534  0.1703 -0.5873 -0.2841
 7748SOL    HW134880   3.568   1.172  17.454  2.5732  0.8494 -1.6765
 7748SOL    HW234881   3.552   1.162  17.601 -1.5250 -3.5821 -3.7833
 7749SOL     OW34882   3.452   2.563   3.697  0.6345  0.0137  0.3604
 7749SOL    HW134883   3.431   2.643   3.649  0.9262  0.1785  0.5128
 7749SOL    HW234884   3.393   2.578   3.771 -3.2683  0.6368 -2.8853
 7750SOL     OW34885   0.814   4.589   3.732 -0.2010 -0.0157  0.0006
 7750SOL    HW134886   0.749   4.635   3.785 -0.4614  0.1308 -0.4398
 7750SOL    HW234887   0.751   4.524   3.700  0.9244 -1.0795 -0.0502
 7751SOL     OW34888   2.347   4.071   1.737  0.8533  0.7296  0.2565
 7751SOL    HW134889   2.269   4.016   1.732 -1.3349  3.7381  1.8666
 7751SOL    HW234890   2.399   4.046   1.660  0.5171 -0.3782  0.3909
 7752SOL     OW34891   0.125   1.856   8.928  1.0038 -0.1391 -0.8034
 7752SOL    HW134892   0.212   1.870   8.965  1.1581 -0.7224 -0.9450
 7752SOL    HW234893   0.105   1.771   8.969  2.2782  0.4545  1.0134
 7753SOL     OW34894   0.766   0.478   4.038 -0.1853 -0.4598 -0.2285
 7753SOL    HW134895   0.805   0.517   3.959 -2.0333  1.6745 -0.0694
 7753SOL    HW234896   0.712   0.552   4.065  2.2282  0.8682  0.9462
 7754SOL     OW34897   3.319   0.006   7.564  0.1759  0.1497 -0.1829
 7754SOL    HW134898   3.326   0.067   7.637 -0.5837 -0.8412  0.7071
 7754SOL    HW234899   3.366   0.050   7.493 -1.2384  1.1243 -0.5239
 7755SOL     OW34900   4.069   1.002  17.705  0.8432 -0.2888  0.2541
 7755SOL    HW134901   4.125   1.064  17.657  2.2687 -1.6201  0.2179
 7755SOL    HW234902   4.129   0.931  17.727 -0.4461 -0.7545  2.3119
 7756SOL     OW34903   4.266   4.674   5.289  0.3819  0.7463  0.0854
 7756SOL    HW134904   4.193   4.649   5.346 -0.0225  0.7771 -0.4176
 7756SOL    HW234905   4.301   4.586   5.273  0.8906  0.4586  2.8110
 7757SOL     OW34906   2.652   1.103   5.917 -0.5407 -0.2302 -0.2093
 7757SOL    HW134907   2.702   1.029   5.884  1.8698  0.1863  2.5292
 7757SOL    HW234908   2.666   1.151   5.835 -1.0791 -2.2244 -1.4692
 7758SOL     OW34909   3.046   2.073  10.835 -0.4954  0.1372 -0.1766
 7758SOL    HW134910   3.128   2.030  10.812 -1.2551  0.1053 -2.8478
 7758SOL    HW234911   3.069   2.141  10.898 -3.2758 -0.7808  1.8330
 7759SOL     OW34912   1.579   2.124   7.523  0.0695  0.3925  0.6365
 7759SOL    HW134913   1.541   2.146   7.608 -0.9074  1.3735 -0.0572
 7759SOL    HW234914   1.669   2.156   7.533  0.4585 -0.2790 -0.7004
 7760SOL     OW34915   0.648   2.879   3.025 -0.0738  0.4561  0.1465
 7760SOL    HW134916   0.693   2.835   2.954 -2.4126 -1.1615 -0.3058
 7760SOL    HW234917   0.569   2.919   2.988  0.4379  0.3456 -1.0533
 7761SOL     OW34918   1.729   1.984   0.861  0.2491 -0.3275  0.2147
 7761SOL    HW134919   1.664   1.914   0.865  0.2365 -0.3494 -0.3109
 7761SOL    HW234920   1.744   1.989   0.955 -1.9679  1.4620  0.4976
 7762SOL     OW34921   4.632   3.994  16.475  0.4607  0.1724  0.2680
 7762SOL    HW134922   4.653   3.905  16.447  1.5723  0.8826 -1.1712
 7762SOL    HW234923   4.694   4.043  16.421  0.6887  1.8789  2.0894
 7763SOL     OW34924   1.917   2.032   1.606  0.2333 -0.0049  0.3634
 7763SOL    HW134925   1.999   2.015   1.652 -0.2925 -2.9542  0.2663
 7763SOL    HW234926   1.849   2.036   1.673 -2.0563  0.8817 -1.9973
 7764SOL     OW34927   3.814   2.199   3.175  0.3056 -0.3240 -0.0402
 7764SOL    HW134928   3.747   2.266   3.190  2.1132  1.5201 -0.0951
 7764SOL    HW234929   3.871   2.247   3.114 -1.3328  1.4396 -0.1932
 7765SOL     OW34930   2.939   0.765   2.696 -0.4360  0.0403  0.0635
 7765SOL    HW134931   2.852   0.798   2.716 -1.1430 -2.2847  0.8427
 7765SOL    HW234932   2.931   0.672   2.718  1.2338  0.3710  2.1041
 7766SOL     OW34933   0.122   0.623   0.187 -0.2937 -0.4669 -0.1221
 7766SOL    HW134934   0.175   0.620   0.108  0.7042  1.1715  0.4863
 7766SOL    HW234935   0.129   0.532   0.217 -1.2002 -0.3835  0.3541
 7767SOL     OW34936   0.678   0.232   4.437 -0.2851 -0.3342  0.6234
 7767SOL    HW134937   0.693   0.158   4.378  1.0386  1.6038 -1.4418
 7767SOL    HW234938   0.749   0.290   4.409 -1.7143  1.2869  0.3509
 7768SOL     OW34939   2.894   2.136   1.380  0.6015  0.5907 -0.0880
 7768SOL    HW134940   2.819   2.079   1.362 -0.6694  2.1620  0.1783
 7768SOL    HW234941   2.963   2.072   1.365  1.3071  1.0041  1.3235
 7769SOL     OW34942   3.832   3.279   5.659  0.2861 -0.3870 -0.3388
 7769SOL    HW134943   3.846   3.204   5.718 -0.8866 -0.1342  0.2541
 7769SOL    HW234944   3.920   3.313   5.642 -0.2619  0.3149 -1.7352
 7770SOL     OW34945   3.997   3.678   6.207 -0.3107  0.6680 -0.1819
 7770SOL    HW134946   3.959   3.693   6.294 -1.9415 -1.0100 -0.6029
 7770SOL    HW234947   4.057   3.610   6.235 -1.5782 -0.6048 -0.5307
 7771SOL     OW34948   0.177   1.344  15.465  0.2084 -0.9452 -0.5148
 7771SOL    HW134949   0.127   1.329  15.546  0.2569 -1.6490 -0.6187
 7771SOL    HW234950   0.216   1.258  15.450 -0.6833 -1.6025  0.9463
 7772SOL     OW34951   0.038   2.078   7.153 -0.3381  0.3279  0.1651
 7772SOL    HW134952   4.718   2.149   7.179 -0.1623 -0.1227  1.7769
 7772SOL    HW234953   0.052   2.112   7.064  0.6803 -1.8354 -0.5024
 7773SOL     OW34954   2.126   1.849   2.564 -0.1147  0.2084 -0.6366
 7773SOL    HW134955   2.079   1.863   2.646 -0.2693 -2.1673 -0.3159
 7773SOL    HW234956   2.175   1.770   2.587 -0.9120 -0.1146 -0.0425
 7774SOL     OW34957   2.932   4.100  11.906  0.6403 -0.6043  0.6209
 7774SOL    HW134958   2.912   4.028  11.965 -1.8751 -0.1075  0.3784
 7774SOL    HW234959   3.010   4.141  11.942  0.8658  0.8227 -1.4813
 7775SOL     OW34960   1.092   2.155  13.732 -0.3535  0.4050 -0.0842
 7775SOL    HW134961   1.040   2.196  13.801 -0.5339 -0.1839  0.1268
 7775SOL    HW234962   1.119   2.073  13.773  0.7530  0.5555 -0.4926
 7776SOL     OW34963   3.887   2.916   6.942  0.2097  0.1115  0.4459
 7776SOL    HW134964   3.966   2.915   6.997  0.1467  0.8261  0.5419
 7776SOL    HW234965   3.848   2.829   6.954  0.5045  0.0855  1.2112
 7777SOL     OW34966   2.372   2.754  12.433  0.4606 -0.3188  0.1863
 7777SOL    HW134967   2.343   2.664  12.450 -2.0045  0.0684 -1.9552
 7777SOL    HW234968   2.395   2.783  12.521 -0.3786  2.0951 -0.3933
 7778SOL     OW34969   0.185   1.297   6.375  0.0934 -0.4163 -0.1382
 7778SOL    HW134970   0.162   1.233   6.442 -1.9461 -0.1063 -0.5482
 7778SOL    HW234971   0.200   1.365   6.441 -1.5762 -0.2248  0.0332
 7779SOL     OW34972   3.105   3.949  13.003  0.2281 -0.5456 -0.0329
 7779SOL    HW134973   3.131   4.040  12.997 -1.8899  0.1415  1.1945
 7779SOL    HW234974   3.165   3.914  13.069 -1.4717 -2.6530  0.4256
 7780SOL     OW34975   3.004   4.565  11.806 -0.1084 -0.1442  0.0324
 7780SOL    HW134976   2.959   4.580  11.889 -2.9784 -1.3218 -1.3236
 7780SOL    HW234977   2.968   4.482  11.774 -0.5360  0.1104 -0.1303
 7781SOL     OW34978   0.190   0.331   4.987  0.1737  0.1185  0.3523
 7781SOL    HW134979   0.101   0.362   4.975  0.0227 -0.6029 -0.3463
 7781SOL    HW234980   0.222   0.418   5.010  1.2985 -0.2625  0.2498
 7782SOL     OW34981   3.084   4.275   6.409 -0.2859 -0.1307 -0.2928
 7782SOL    HW134982   3.167   4.319   6.423 -0.4877 -0.1508  0.9802
 7782SOL    HW234983   3.014   4.317   6.460  0.5220  1.1873 -0.2660
 7783SOL     OW34984   3.817   1.951   6.051 -0.2020  0.0664  0.1450
 7783SOL    HW134985   3.790   2.008   5.979 -3.3711  0.9885  2.1328
 7783SOL    HW234986   3.844   2.009   6.122 -0.0476 -0.6579  0.6858
 7784SOL     OW34987   1.531   3.600   9.004  0.2610  0.1551  0.2049
 7784SOL    HW134988   1.448   3.633   8.971  0.1166 -1.0025 -0.5986
 7784SOL    HW234989   1.545   3.662   9.075  0.4532 -1.9386  2.0115
 7785SOL     OW34990   3.484   1.750   9.357  0.6340  0.2561  0.3274
 7785SOL    HW134991   3.430   1.672   9.374  1.1841  0.0180  1.0096
 7785SOL    HW234992   3.554   1.716   9.301 -0.0832 -2.2727  0.9290
 7786SOL     OW34993   1.596   4.389   6.324 -0.2744  0.3025  0.0975
 7786SOL    HW134994   1.541   4.337   6.266  1.0745 -0.7616 -0.2408
 7786SOL    HW234995   1.537   4.453   6.364  2.7365  2.3138  1.3336
 7787SOL     OW34996   1.150   1.968   4.555 -0.3614 -0.2555 -0.5802
 7787SOL    HW134997   1.101   1.935   4.630 -0.3996  1.0889 -0.0149
 7787SOL    HW234998   1.079   1.971   4.491 -0.3005  1.9878 -0.5183
 7788SOL     OW34999   2.329   3.592  15.246  0.2163 -0.2051  0.3152
 7788SOL    HW135000   2.249   3.643  15.236  0.6163  0.4574  0.5012
 7788SOL    HW235001   2.386   3.647  15.193 -2.3297 -0.0863 -2.3329
 7789SOL     OW35002   3.402   3.693   9.041  0.2070 -0.0922  0.1523
 7789SOL    HW135003   3.346   3.727   8.971  0.1661  0.9063  0.6676
 7789SOL    HW235004   3.333   3.658   9.098  0.1424 -0.4057 -0.1206
 7790SOL     OW35005   0.134   3.577   8.344  0.6942 -0.2968 -0.0725
 7790SOL    HW135006   0.091   3.505   8.390 -1.8188  0.3124 -1.5092
 7790SOL    HW235007   0.119   3.656   8.396 -0.4763 -0.1705 -0.6042
 7791SOL     OW35008   3.726   2.572   4.294  0.3126 -0.2496  0.2443
 7791SOL    HW135009   3.669   2.495   4.290 -0.2197  0.1654 -0.0534
 7791SOL    HW235010   3.806   2.522   4.309  0.9298  0.3904 -0.8794
 7792SOL     OW35011   3.324   3.846   5.666 -0.6079  0.0746 -0.1005
 7792SOL    HW135012   3.376   3.799   5.600 -0.1888  1.0728 -0.4737
 7792SOL    HW235013   3.386   3.900   5.715  1.3768 -1.1596 -1.2592
 7793SOL     OW35014   4.252   3.977   7.422  0.0250 -0.4658 -0.1039
 7793SOL    HW135015   4.278   3.885   7.427  0.5155 -0.4323 -1.9129
 7793SOL    HW235016   4.274   3.989   7.330 -1.2118 -1.1860 -0.5028
 7794SOL     OW35017   3.407   3.060   2.083  0.3024  0.0200 -0.2340
 7794SOL    HW135018   3.320   3.098   2.093 -0.2962 -1.5265  0.4719
 7794SOL    HW235019   3.413   3.000   2.009  0.3938  0.2728 -0.4289
 7795SOL     OW35020   0.021   3.379   9.276 -0.1831 -0.0215  0.2972
 7795SOL    HW135021   0.056   3.451   9.328  2.5266  0.3857 -2.1069
 7795SOL    HW235022   4.667   3.372   9.304 -0.5980 -1.5403 -1.3955
 7796SOL     OW35023   1.475   0.179  12.055  0.1262  0.0876  0.0665
 7796SOL    HW135024   1.381   0.178  12.073 -0.1196  0.1242 -1.2331
 7796SOL    HW235025   1.467   0.193  11.961  0.7072  1.8792  0.2977
 7797SOL     OW35026   4.566   0.869   1.925 -0.2358  0.4432 -0.0535
 7797SOL    HW135027   4.611   0.789   1.953 -1.1447 -0.7117 -1.8506
 7797SOL    HW235028   4.560   0.847   1.832 -0.9894 -0.1834  0.1366
 7798SOL     OW35029   1.823   1.899  10.361  0.5849  0.1177 -0.2837
 7798SOL    HW135030   1.835   1.906  10.266  1.3292  0.0688 -0.1953
 7798SOL    HW235031   1.774   1.979  10.381 -0.3550 -0.4506 -0.3465
 7799SOL     OW35032   1.766   2.740  10.696 -0.1978  0.3446  0.1355
 7799SOL    HW135033   1.728   2.778  10.775 -1.5915  1.4761 -1.0868
 7799SOL    HW235034   1.819   2.668  10.733  1.0832  0.1331 -2.1265
 7800SOL     OW35035   1.749   4.156  14.864 -0.3578 -0.0163 -0.0444
 7800SOL    HW135036   1.735   4.175  14.957 -1.6860 -0.5310 -0.1393
 7800SOL    HW235037   1.765   4.245  14.831  0.0961 -1.0202 -2.5170
 7801SOL     OW35038   1.644   1.071   1.609 -0.2522 -0.1347  0.1433
 7801SOL    HW135039   1.625   0.977   1.614 -0.9813 -0.1009 -1.7720
 7801SOL    HW235040   1.738   1.069   1.588 -0.4874 -1.0435 -0.8752
 7802SOL     OW35041   0.412   2.061   4.995 -0.5804 -0.3509  0.1949
 7802SOL    HW135042   0.409   2.030   4.905 -2.5229  0.4647 -0.0238
 7802SOL    HW235043   0.320   2.041   5.014 -1.6561  4.5882  0.0885
 7803SOL     OW35044   2.556   4.128   3.371 -0.8154 -0.6397 -0.4403
 7803SOL    HW135045   2.595   4.167   3.293 -1.7690 -0.2608 -0.7157
 7803SOL    HW235046   2.584   4.037   3.362 -1.9652 -1.0397  0.1425
 7804SOL     OW35047   0.991   0.149   2.523 -0.2307  0.4673  0.5331
 7804SOL    HW135048   1.035   0.216   2.471 -0.9199  2.1576  2.1207
 7804SOL    HW235049   1.068   0.119   2.571 -0.9582 -2.2012  0.0567
 7805SOL     OW35050   4.658   1.607   6.839 -0.0549 -0.1716 -0.1324
 7805SOL    HW135051   4.622   1.520   6.825  1.2602 -0.5578 -1.1430
 7805SOL    HW235052   0.003   1.582   6.881 -0.4358 -0.4349  0.4602
 7806SOL     OW35053   2.913   4.311  16.016 -0.5866  0.0999 -0.4975
 7806SOL    HW135054   2.988   4.269  16.058 -0.0353  0.3782 -1.2006
 7806SOL    HW235055   2.933   4.404  16.024  1.1298 -0.2098 -1.3001
 7807SOL     OW35056   3.538   0.951  11.785 -0.4135  0.6274 -0.1382
 7807SOL    HW135057   3.494   0.881  11.736 -0.4666 -0.5046  1.5350
 7807SOL    HW235058   3.520   0.923  11.874  1.3337 -2.1542 -0.6445
 7808SOL     OW35059   3.444   1.335   9.077 -0.7134 -0.0038  0.0998
 7808SOL    HW135060   3.539   1.333   9.068 -0.7423  0.1249 -0.2292
 7808SOL    HW235061   3.425   1.426   9.096  1.8982  0.7282 -0.8247
 7809SOL     OW35062   4.512   4.271   7.038 -0.6730 -0.1774  0.0881
 7809SOL    HW135063   4.593   4.229   7.008  0.3199  1.0312  1.0914
 7809SOL    HW235064   4.447   4.257   6.970 -0.4835  0.7277 -0.2849
 7810SOL     OW35065   3.246   3.274   6.957 -0.1301  0.3853 -0.0580
 7810SOL    HW135066   3.311   3.329   6.914  0.1547  2.4966  3.0703
 7810SOL    HW235067   3.240   3.191   6.910  0.6098  1.3739 -1.9084
 7811SOL     OW35068   3.112   0.541   7.415 -0.7138 -0.2172 -0.3030
 7811SOL    HW135069   3.185   0.513   7.360  0.9146 -1.5937  2.5743
 7811SOL    HW235070   3.083   0.610   7.355  1.1560  0.7421 -0.0953
 7812SOL     OW35071   0.358   0.520   9.932 -0.4696  0.7595  0.2605
 7812SOL    HW135072   0.315   0.567   9.860  2.4564 -1.9582 -3.2527
 7812SOL    HW235073   0.346   0.594   9.992  0.3257  0.9280  0.2269
 7813SOL     OW35074   2.060   0.243   3.558  0.1395 -0.6182 -0.6648
 7813SOL    HW135075   2.065   0.182   3.632  0.9136  0.4868  0.1956
 7813SOL    HW235076   2.145   0.286   3.566 -0.5302  0.4998  0.4277
 7814SOL     OW35077   3.011   0.987   7.968 -0.5235  0.5625 -0.1395
 7814SOL    HW135078   3.022   1.019   7.878 -1.4857  0.1070 -0.4128
 7814SOL    HW235079   2.929   0.939   7.967 -1.7111  2.6009 -0.2418
 7815SOL     OW35080   1.858   3.112   1.834 -0.0323 -0.0877 -0.0974
 7815SOL    HW135081   1.928   3.057   1.800  1.3113  0.5122  1.7085
 7815SOL    HW235082   1.911   3.175   1.883  1.0612 -0.0762 -1.3005
 7816SOL     OW35083   1.362   0.858   6.538  0.8935 -0.0818 -0.2300
 7816SOL    HW135084   1.420   0.805   6.483  0.6434 -0.8864  0.2835
 7816SOL    HW235085   1.354   0.933   6.479  0.9823  0.6670  0.7179
 7817SOL     OW35086   3.326   2.881   7.996  0.2734 -0.2850 -1.0325
 7817SOL    HW135087   3.317   2.793   8.034 -1.0938 -0.2871 -1.3507
 7817SOL    HW235088   3.357   2.877   7.905  1.7600  2.4616 -0.6520
 7818SOL     OW35089   2.247   3.059   7.198  0.6684  0.1843  0.5493
 7818SOL    HW135090   2.307   3.072   7.125 -1.1240  0.8057 -0.7950
 7818SOL    HW235091   2.283   3.134   7.246  1.9359  0.8386 -1.4420
 7819SOL     OW35092   0.421   4.030   3.892 -0.3723  0.0650 -0.0885
 7819SOL    HW135093   0.388   4.003   3.806  0.1698 -0.9813  0.0234
 7819SOL    HW235094   0.509   4.062   3.871 -0.5190 -0.6758 -1.7979
 7820SOL     OW35095   0.453   1.264  12.093  0.2463  0.2014 -0.5014
 7820SOL    HW135096   0.429   1.290  12.182  4.7663  0.6418  0.5807
 7820SOL    HW235097   0.506   1.341  12.071  0.3049  0.8209  1.8153
 7821SOL     OW35098   4.237   0.308   7.700  0.0269  0.1845 -0.1564
 7821SOL    HW135099   4.258   0.226   7.744 -1.5811  0.5516  1.2856
 7821SOL    HW235100   4.321   0.317   7.654  0.0702  0.6992  0.0191
 7822SOL     OW35101   0.894   3.557   2.399  0.5445 -0.3337 -0.2732
 7822SOL    HW135102   0.948   3.479   2.398  0.7655 -0.1869  0.4555
 7822SOL    HW235103   0.900   3.576   2.305 -0.7417  0.4633 -0.1991
 7823SOL     OW35104   2.285   1.408   0.531 -0.1144 -0.7191 -0.1891
 7823SOL    HW135105   2.285   1.319   0.497  0.5997 -0.6477 -0.3707
 7823SOL    HW235106   2.355   1.398   0.595  0.2209  0.5130 -0.3694
 7824SOL     OW35107   1.770   1.464   6.126 -0.5843 -0.5037  0.3008
 7824SOL    HW135108   1.757   1.369   6.129  1.4788 -0.8093 -0.6012
 7824SOL    HW235109   1.700   1.484   6.188 -0.6712 -1.6085  0.5505
 7825SOL     OW35110   3.563   1.154  15.058  0.3765  0.2791 -0.3333
 7825SOL    HW135111   3.547   1.099  15.134  0.5403 -0.7763 -1.0711
 7825SOL    HW235112   3.514   1.236  15.070 -1.7830 -1.3532  1.8518
 7826SOL     OW35113   3.447   3.742  15.028  0.5086  0.2899 -0.0365
 7826SOL    HW135114   3.527   3.726  15.078  0.1062 -3.4234 -0.5731
 7826SOL    HW235115   3.418   3.819  15.077 -1.8370  1.1833 -2.8614
 7827SOL     OW35116   1.540   0.822   8.696  0.0432 -0.0023 -0.0411
 7827SOL    HW135117   1.493   0.799   8.616 -0.6124  0.3495  0.2393
 7827SOL    HW235118   1.471   0.801   8.759  0.3559  0.3393  0.4164
 7828SOL     OW35119   0.449   3.422  14.814  0.2325  0.2165  0.4075
 7828SOL    HW135120   0.358   3.409  14.787  0.0678 -0.4523  1.3002
 7828SOL    HW235121   0.439   3.386  14.902 -0.4568 -0.5866 -0.0009
 7829SOL     OW35122   3.200   1.214   0.340  0.1262 -0.1204  0.6049
 7829SOL    HW135123   3.160   1.300   0.325 -0.1129 -0.4063 -0.3873
 7829SOL    HW235124   3.291   1.229   0.315  0.3185 -0.2097  1.2658
 7830SOL     OW35125   3.269   1.562   9.467 -0.2744  0.2911  0.7166
 7830SOL    HW135126   3.266   1.642   9.520  2.3843  0.4441  0.6164
 7830SOL    HW235127   3.177   1.543   9.448  0.3940  0.6791 -3.0427
 7831SOL     OW35128   0.827   3.215   3.584 -0.5233 -0.2545 -0.3148
 7831SOL    HW135129   0.913   3.216   3.543 -0.1346 -0.5657  0.4788
 7831SOL    HW235130   0.771   3.266   3.525 -0.5175 -0.7205 -0.7226
 7832SOL     OW35131   1.838   1.875   4.240  0.1949 -0.3576 -0.4117
 7832SOL    HW135132   1.811   1.787   4.213  2.5435 -1.1715 -0.0913
 7832SOL    HW235133   1.756   1.898   4.285  0.3396 -1.6097  0.4898
 7833SOL     OW35134   0.006   4.708  13.975  0.2680 -0.4976 -0.2142
 7833SOL    HW135135   4.707   0.055  14.003  2.0669 -0.4941  2.1518
 7833SOL    HW235136   0.070   4.688  14.044 -1.2981 -0.7975  1.1486
 7834SOL     OW35137   2.235   0.596   8.682  0.9730 -0.3758  0.1168
 7834SOL    HW135138   2.328   0.601   8.702  0.2648  1.4499  2.9655
 7834SOL    HW235139   2.212   0.511   8.721 -1.5971  0.0226 -0.5274
 7835SOL     OW35140   1.583   1.152   3.209 -0.0081 -0.3802  0.1891
 7835SOL    HW135141   1.651   1.179   3.146 -0.2287 -2.8240 -1.0854
 7835SOL    HW235142   1.560   1.074   3.160  0.0543 -0.7139  0.6986
 7836SOL     OW35143   2.477   0.478  15.548  0.0106  0.6317  0.4001
 7836SOL    HW135144   2.490   0.540  15.620  1.3582  1.4958 -0.5802
 7836SOL    HW235145   2.512   0.397  15.586 -0.3162  0.5134  0.4434
 7837SOL     OW35146   0.237   2.674   0.091  0.5946  0.2202  0.1981
 7837SOL    HW135147   0.185   2.724   0.028  2.1312  1.7155  0.1216
 7837SOL    HW235148   0.220   2.718   0.174 -0.1135 -0.7875  0.5885
 7838SOL     OW35149   0.122   2.197   7.541  0.1671  0.0577 -0.6932
 7838SOL    HW135150   0.095   2.202   7.450 -0.2284  1.3678 -0.5025
 7838SOL    HW235151   0.108   2.287   7.572  1.8380  0.3484 -0.7884
 7839SOL     OW35152   4.235   1.914   7.071 -0.1874 -0.8996 -0.3176
 7839SOL    HW135153   4.275   1.924   7.158  0.3221 -2.6061 -0.3373
 7839SOL    HW235154   4.141   1.917   7.086  0.0497  1.5937  0.5868
 7840SOL     OW35155   0.926   4.541   4.352  0.4115  0.4164  0.0049
 7840SOL    HW135156   0.906   4.451   4.381  2.7693  0.7274  2.6261
 7840SOL    HW235157   0.849   4.559   4.299 -1.5507 -1.2664  2.2546
 7841SOL     OW35158   2.333   3.852  10.044  0.0714 -0.0466  0.6260
 7841SOL    HW135159   2.407   3.801  10.077 -0.1710  0.1294  1.4521
 7841SOL    HW235160   2.287   3.794   9.984  1.4485 -0.3581 -0.1273
 7842SOL     OW35161   0.164   1.418   7.740  0.2743  0.6197 -0.2849
 7842SOL    HW135162   0.175   1.478   7.665  2.4006  2.5657  1.5842
 7842SOL    HW235163   0.075   1.442   7.766  0.2724  0.7737 -0.4303
 7843SOL     OW35164   2.496   3.433   9.597  0.2807 -0.6439 -0.4323
 7843SOL    HW135165   2.527   3.354   9.553  0.5205  0.6521 -2.5732
 7843SOL    HW235166   2.584   3.470   9.607  0.0189 -0.0958 -0.1411
 7844SOL     OW35167   0.221   0.673   3.180 -0.3261 -0.6574 -0.4605
 7844SOL    HW135168   0.195   0.614   3.251 -0.8151 -1.5098 -1.3413
 7844SOL    HW235169   0.148   0.730   3.158 -2.1483 -0.7981  5.1762
 7845SOL     OW35170   4.133   2.670  15.391  0.3651 -0.4302 -0.1180
 7845SOL    HW135171   4.183   2.604  15.440 -1.8641 -0.3033  2.3566
 7845SOL    HW235172   4.190   2.675  15.315 -0.0773 -1.2240 -0.5033
 7846SOL     OW35173   1.593   3.230   6.060 -0.4421  0.3601 -0.2096
 7846SOL    HW135174   1.562   3.187   6.140 -0.4044  0.7015 -0.0113
 7846SOL    HW235175   1.515   3.279   6.033 -1.4875 -1.6446 -0.8925
 7847SOL     OW35176   3.769   4.689   8.368  0.5906 -0.2790 -0.2526
 7847SOL    HW135177   3.786   4.629   8.295 -2.4812  0.3963 -1.5218
 7847SOL    HW235178   3.855   4.730   8.376  0.9623 -0.9979 -0.5638
 7848SOL     OW35179   3.634   0.866   1.731  0.1796  0.3537 -0.2157
 7848SOL    HW135180   3.559   0.810   1.752  1.3514 -1.6322 -1.3280
 7848SOL    HW235181   3.673   0.813   1.661 -0.0912 -0.5910  0.3483
 7849SOL     OW35182   4.458   3.932   3.849  0.6107  0.7005 -0.0296
 7849SOL    HW135183   4.369   3.960   3.829  0.9951  1.4302 -0.7253
 7849SOL    HW235184   4.498   3.996   3.791  0.5888  0.1150 -0.6939
 7850SOL     OW35185   2.987   2.888   7.645 -0.3856  0.1257 -0.0124
 7850SOL    HW135186   2.927   2.929   7.582 -1.2048 -1.4368 -0.2317
 7850SOL    HW235187   3.002   2.955   7.712  1.2481  1.3516 -1.5869
 7851SOL     OW35188   4.335   3.267   5.509  0.4548  0.6423 -0.1853
 7851SOL    HW135189   4.261   3.313   5.548  0.9234  1.6815 -0.5130
 7851SOL    HW235190   4.292   3.194   5.464 -2.0865 -0.1628  3.5703
 7852SOL     OW35191   4.198   2.283  15.689 -0.3008  0.3342 -0.1519
 7852SOL    HW135192   4.202   2.284  15.784  0.2940 -2.1280 -0.1564
 7852SOL    HW235193   4.285   2.245  15.678 -0.0560  0.9498 -0.3533
 7853SOL     OW35194   2.814   3.768   8.994 -0.1390  0.4898 -0.1954
 7853SOL    HW135195   2.836   3.839   8.933  0.9390  1.0592  0.8494
 7853SOL    HW235196   2.885   3.704   8.983 -2.9412 -2.2020 -2.6075
 7854SOL     OW35197   3.870   4.726  13.885  0.2726  0.0740  0.0772
 7854SOL    HW135198   3.914   4.651  13.925  0.5541 -0.2344 -0.8033
 7854SOL    HW235199   3.864   0.046  13.961 -1.9992 -1.0636  0.7767
 7855SOL     OW35200   4.529   0.361   1.667 -0.3148  0.4826 -0.1653
 7855SOL    HW135201   4.609   0.374   1.616 -0.0903  1.6761  0.4922
 7855SOL    HW235202   4.503   0.277   1.629  1.2882 -0.1258  0.1046
 7856SOL     OW35203   2.846   2.218   7.341  0.2014 -0.8782  0.3074
 7856SOL    HW135204   2.785   2.227   7.414  0.4145 -1.3337  0.5429
 7856SOL    HW235205   2.848   2.123   7.338 -1.8559 -0.9121  0.2929
 7857SOL     OW35206   3.579   3.319   6.309 -0.4554  0.0242 -0.5318
 7857SOL    HW135207   3.578   3.382   6.381 -1.3207  0.5593 -1.0105
 7857SOL    HW235208   3.544   3.239   6.350  0.3020 -0.4472 -0.7964
 7858SOL     OW35209   4.453   1.160   8.596 -0.8679 -0.2602  0.4655
 7858SOL    HW135210   4.429   1.190   8.684  0.8172 -0.8651  1.1319
 7858SOL    HW235211   4.423   1.233   8.542 -0.2749  1.1826  2.0630
 7859SOL     OW35212   0.677   4.428   4.451  0.0299  0.3145  0.2958
 7859SOL    HW135213   0.601   4.374   4.428  0.1747  0.0027  0.5476
 7859SOL    HW235214   0.650   4.495   4.514  0.4157  0.5343  0.2243
 7860SOL     OW35215   2.518   4.730   9.521 -0.3461  0.0913 -0.4568
 7860SOL    HW135216   2.437   4.684   9.542  0.0209 -0.0921  0.5372
 7860SOL    HW235217   2.577   4.679   9.577 -0.4153  1.7207  1.0883
 7861SOL     OW35218   3.850   1.184   4.474  0.3314 -0.4919  0.2119
 7861SOL    HW135219   3.836   1.223   4.388  1.6216 -1.0826 -0.2532
 7861SOL    HW235220   3.831   1.255   4.536  1.1511 -0.4212  0.3741
 7862SOL     OW35221   4.177   3.777   8.389 -0.1135 -0.0285 -0.1244
 7862SOL    HW135222   4.156   3.864   8.423  2.0673  0.3054  0.3332
 7862SOL    HW235223   4.094   3.732   8.405 -0.4458  0.4505 -0.4902
 7863SOL     OW35224   2.362   4.063  17.325  0.3163 -0.7567 -0.7851
 7863SOL    HW135225   2.418   3.987  17.313  0.7044 -0.1651 -2.7951
 7863SOL    HW235226   2.303   4.059  17.249 -1.2231 -0.1669  0.3840
 7864SOL     OW35227   0.295   4.334  12.421  0.6664  0.1704 -0.3556
 7864SOL    HW135228   0.233   4.264  12.402 -0.3241  0.7791  0.6660
 7864SOL    HW235229   0.239   4.411  12.432  1.0911  0.2403  1.2159
 7865SOL     OW35230   1.842   0.884  15.431 -0.3395  0.4347 -0.2907
 7865SOL    HW135231   1.868   0.948  15.498  0.6976  0.0156 -0.2905
 7865SOL    HW235232   1.876   0.921  15.350 -0.3424  0.5491 -0.2401
 7866SOL     OW35233   0.486   4.581  15.913  0.2323 -0.2222 -0.6814
 7866SOL    HW135234   0.569   4.552  15.876  1.2038  0.1579  1.1582
 7866SOL    HW235235   0.427   4.571  15.839 -1.1037  0.3684  0.2913
 7867SOL     OW35236   0.343   2.579   5.543  0.1988 -0.3256 -0.3649
 7867SOL    HW135237   0.299   2.501   5.508 -0.1000  1.1771 -3.4256
 7867SOL    HW235238   0.297   2.642   5.486 -0.7102  1.2816  2.1519
 7868SOL     OW35239   2.393   3.427   0.464  0.1753 -0.0021 -0.1268
 7868SOL    HW135240   2.365   3.513   0.434  0.7579 -0.1442 -1.1027
 7868SOL    HW235241   2.425   3.459   0.548  1.2219  1.9426 -1.2564
 7869SOL     OW35242   2.570   2.048   0.208 -0.4345  0.4796 -0.3028
 7869SOL    HW135243   2.540   1.966   0.247  2.7475  0.1696  1.5053
 7869SOL    HW235244   2.513   2.109   0.255 -0.1334 -1.5283  2.6419
 7870SOL     OW35245   3.279   2.780  12.692  0.3910  0.6243 -0.0634
 7870SOL    HW135246   3.199   2.818  12.727 -0.4497 -1.5435  0.3673
 7870SOL    HW235247   3.330   2.851  12.652  2.5794 -1.3709 -0.8589
 7871SOL     OW35248   4.555   1.686   7.111 -0.3038  0.2687  0.1870
 7871SOL    HW135249   4.622   1.618   7.112  0.4830  1.0465 -0.4753
 7871SOL    HW235250   4.503   1.666   7.033  0.7245 -0.8477 -0.1982
 7872SOL     OW35251   4.319   0.262   6.388  0.4831 -0.0967 -0.1520
 7872SOL    HW135252   4.323   0.352   6.355 -0.1179  0.3135  0.9056
 7872SOL    HW235253   4.372   0.250   6.467 -0.5227 -1.2213  0.3434
 7873SOL     OW35254   0.738   4.267   7.687  0.3751 -0.3400  0.4909
 7873SOL    HW135255   0.707   4.179   7.664 -1.4795  0.4161  0.1031
 7873SOL    HW235256   0.660   4.316   7.661  0.6632 -0.8597 -1.4033
 7874SOL     OW35257   3.829   1.293   6.421  0.0194  0.2367  0.6310
 7874SOL    HW135258   3.756   1.236   6.397 -0.8498  1.9017 -0.6710
 7874SOL    HW235259   3.819   1.356   6.350  1.1356  0.3641  0.5906
 7875SOL     OW35260   3.118   2.633   6.827  0.2678 -0.0009  0.2336
 7875SOL    HW135261   3.086   2.692   6.759  0.8042  1.8700  1.6092
 7875SOL    HW235262   3.053   2.563   6.833  0.0074  0.1769 -0.4814
 7876SOL     OW35263   2.162   1.273  17.121 -0.3474  0.6839 -0.1720
 7876SOL    HW135264   2.092   1.252  17.060 -0.9141 -2.9139  1.6660
 7876SOL    HW235265   2.134   1.361  17.146  0.5094  0.6713  0.8712
 7877SOL     OW35266   3.927   1.448   6.603 -0.0599 -0.1168  0.1090
 7877SOL    HW135267   3.892   1.378   6.547 -0.5009 -2.2384  3.0545
 7877SOL    HW235268   3.978   1.388   6.657 -0.1095 -1.7143 -1.6068
 7878SOL     OW35269   3.869   2.999   4.869 -0.3827 -0.0351  0.1493
 7878SOL    HW135270   3.796   2.958   4.915  0.5350 -0.0870  1.5682
 7878SOL    HW235271   3.937   2.935   4.892 -0.5609 -0.3585 -0.2279
 7879SOL     OW35272   4.545   2.065  16.022  0.5787 -0.2754  0.1569
 7879SOL    HW135273   4.588   1.984  16.048  0.4056 -0.5835 -0.5225
 7879SOL    HW235274   4.588   2.133  16.074 -0.5374 -1.0675  2.1611
 7880SOL     OW35275   3.105   2.215   8.337  0.3699  0.2106 -1.0815
 7880SOL    HW135276   3.045   2.150   8.301 -0.1942  0.1146  0.0339
 7880SOL    HW235277   3.140   2.175   8.417  0.7907 -0.2463 -1.4935
 7881SOL     OW35278   0.408   2.805   2.123 -0.2429 -0.5519  0.0215
 7881SOL    HW135279   0.442   2.715   2.127 -2.3357 -1.3120  0.6801
 7881SOL    HW235280   0.413   2.824   2.029 -0.0673 -1.9281 -0.2494
 7882SOL     OW35281   0.643   0.833   2.941 -0.2667  0.6796 -0.2030
 7882SOL    HW135282   0.622   0.917   2.981  0.6227 -0.0177  1.7153
 7882SOL    HW235283   0.713   0.866   2.885 -0.8176 -0.3367 -1.4968
 7883SOL     OW35284   1.869   0.346   1.454 -0.1109 -0.5699  0.8602
 7883SOL    HW135285   1.949   0.396   1.469 -2.2285  3.3993 -1.1864
 7883SOL    HW235286   1.821   0.367   1.535 -0.8791  0.1287  0.2170
 7884SOL     OW35287   4.526   1.674  14.914  0.5875  0.3474 -0.3730
 7884SOL    HW135288   4.564   1.739  14.973  0.5621  0.0503 -0.0236
 7884SOL    HW235289   4.548   1.589  14.953 -1.3073 -1.4289 -3.1935
 7885SOL     OW35290   1.257   1.679   3.544  0.0304 -0.1679 -0.2478
 7885SOL    HW135291   1.340   1.649   3.507  0.7051 -1.8012  2.5570
 7885SOL    HW235292   1.216   1.696   3.459 -1.9387 -0.7554  0.5879
 7886SOL     OW35293   0.649   3.322  14.230 -0.3463  0.0455  0.5635
 7886SOL    HW135294   0.577   3.334  14.168 -0.3794  0.4092  0.6724
 7886SOL    HW235295   0.701   3.401  14.216 -1.9457  0.8793 -0.6110
 7887SOL     OW35296   3.939   0.293   0.881 -0.0737 -0.5707  0.8148
 7887SOL    HW135297   3.861   0.238   0.886  0.2665 -1.0410  0.8794
 7887SOL    HW235298   4.008   0.229   0.864 -1.2071 -1.2958 -1.1935
 7888SOL     OW35299   4.583   0.475   8.220 -0.2093  0.1145  0.3069
 7888SOL    HW135300   4.570   0.388   8.257  0.5895 -0.6034 -1.1123
 7888SOL    HW235301   4.542   0.539   8.279  0.8399 -0.1449  1.3066
 7889SOL     OW35302   4.684   1.355   3.139 -0.3744  0.6830  0.3235
 7889SOL    HW135303   4.680   1.275   3.086  0.2287 -0.2322  1.6620
 7889SOL    HW235304   4.653   1.420   3.076 -3.2892 -2.0530 -1.1297
 7890SOL     OW35305   3.835   1.703   1.265 -0.6449  0.5500  0.1142
 7890SOL    HW135306   3.803   1.718   1.354  1.6389 -1.9531  1.3511
 7890SOL    HW235307   3.754   1.699   1.215 -0.6014  1.8032 -0.0658
 7891SOL     OW35308   4.404   2.099   7.820  0.4836 -0.5557  0.5108
 7891SOL    HW135309   4.329   2.067   7.770  0.7561  1.6371 -1.2955
 7891SOL    HW235310   4.366   2.096   7.908 -1.7799  1.2298 -0.4217
 7892SOL     OW35311   3.274   3.366   7.282 -0.2583 -1.0391  0.6961
 7892SOL    HW135312   3.292   3.414   7.201 -0.7749 -1.1865  0.4970
 7892SOL    HW235313   3.298   3.430   7.349 -0.8466  0.2149 -0.2912
 7893SOL     OW35314   2.108   3.298   1.844  0.0382 -0.1991  0.3505
 7893SOL    HW135315   2.129   3.348   1.922 -0.9526 -0.1989  0.6212
 7893SOL    HW235316   2.095   3.368   1.779  0.1515 -1.7348 -1.3476
 7894SOL     OW35317   2.529   4.182   4.578  0.0994 -0.6028 -0.3060
 7894SOL    HW135318   2.564   4.156   4.493 -0.3193  1.9332 -1.2755
 7894SOL    HW235319   2.572   4.265   4.601  2.0738 -1.7319  0.0159
 7895SOL     OW35320   2.719   4.006   7.918  0.4680  0.6153 -0.1326
 7895SOL    HW135321   2.792   3.997   7.979  1.2806  0.7836 -1.1016
 7895SOL    HW235322   2.722   3.919   7.880  2.1839  0.5803  0.0937
 7896SOL     OW35323   1.441   0.946   2.569  0.3474 -0.1864  0.0376
 7896SOL    HW135324   1.532   0.938   2.538  0.9371  1.7850  1.2370
 7896SOL    HW235325   1.458   1.024   2.621  0.3920 -0.0171 -0.2306
 7897SOL     OW35326   1.945   1.618   2.748  0.0018  0.1364 -0.1580
 7897SOL    HW135327   2.034   1.598   2.776 -0.1731 -2.2844 -1.3730
 7897SOL    HW235328   1.944   1.713   2.762  2.1416  0.4261 -1.9062
 7898SOL     OW35329   3.039   4.108  13.328 -0.5183 -0.2282 -0.5804
 7898SOL    HW135330   3.006   4.087  13.240 -0.3703 -0.1559 -0.6520
 7898SOL    HW235331   2.988   4.186  13.352  2.2083  2.3417 -3.1642
 7899SOL     OW35332   2.593   0.692  15.743 -0.1462 -0.2363  0.5970
 7899SOL    HW135333   2.566   0.687  15.835  0.7651 -1.5141  0.7904
 7899SOL    HW235334   2.665   0.631  15.729 -0.4562  0.0024 -2.1048
 7900SOL     OW35335   2.168   4.189   3.402  0.1407  0.1231 -0.1201
 7900SOL    HW135336   2.158   4.119   3.467 -0.0477  0.1016 -0.1727
 7900SOL    HW235337   2.109   4.159   3.333 -2.0519 -1.4526  2.4500
 7901SOL     OW35338   2.445   4.016   3.069  0.0025 -0.5373 -0.2903
 7901SOL    HW135339   2.383   3.946   3.050  1.4270 -1.6155 -0.9522
 7901SOL    HW235340   2.391   4.091   3.091 -1.3821 -2.0712  1.4934
 7902SOL     OW35341   4.092   1.961   7.381 -0.0858 -0.0050 -0.2727
 7902SOL    HW135342   4.002   1.953   7.350 -0.8223  1.1662  1.5776
 7902SOL    HW235343   4.081   1.909   7.461  0.5602  1.1087  0.5391
 7903SOL     OW35344   0.128   0.631   7.191 -0.5306  0.1706  0.6363
 7903SOL    HW135345   0.113   0.626   7.096  4.2400  0.3709 -0.1496
 7903SOL    HW235346   0.221   0.608   7.192 -0.5730  0.0809  1.7276
 7904SOL     OW35347   1.165   1.278  11.398  0.0119  0.2692  0.6643
 7904SOL    HW135348   1.218   1.355  11.377  1.9441 -1.0283  0.8416
 7904SOL    HW235349   1.224   1.205  11.380  2.1585  2.1384  0.0406
 7905SOL     OW35350   1.829   4.218   9.428 -0.3077  0.6408  0.2464
 7905SOL    HW135351   1.825   4.136   9.476 -0.1474  1.0613  0.9863
 7905SOL    HW235352   1.737   4.246   9.429 -0.3920  0.2757  1.8771
 7906SOL     OW35353   1.367   0.817  17.745  0.3383 -0.7671 -0.1890
 7906SOL    HW135354   1.324   0.885  17.694  0.0923 -1.1863 -0.5432
 7906SOL    HW235355   1.289   0.763   0.013  0.6904 -0.1793  3.5281
 7907SOL     OW35356   3.544   1.637   0.884 -0.8903 -0.0061  0.1553
 7907SOL    HW135357   3.495   1.559   0.861 -0.8990 -0.0825  0.4369
 7907SOL    HW235358   3.480   1.699   0.848  1.6802  1.8246 -1.3230
 7908SOL     OW35359   4.180   4.330   7.248 -0.7857  0.2090  0.1845
 7908SOL    HW135360   4.174   4.361   7.339  1.9467  1.9958 -0.2636
 7908SOL    HW235361   4.094   4.354   7.214 -0.9065 -0.9343 -0.3316
 7909SOL     OW35362   0.103   1.768   7.797  0.0963 -0.0364 -0.0638
 7909SOL    HW135363   0.174   1.743   7.856  0.0920  0.1368  0.0140
 7909SOL    HW235364   0.110   1.862   7.786 -2.4225  0.3129  1.3524
 7910SOL     OW35365   3.155   3.158   9.033  0.1552 -0.0534  0.3150
 7910SOL    HW135366   3.148   3.246   9.070  0.9042 -0.5222  1.5668
 7910SOL    HW235367   3.189   3.103   9.104 -0.1617 -1.2758 -0.4665
 7911SOL     OW35368   3.029   4.513  12.411 -0.3562 -0.0860  0.5483
 7911SOL    HW135369   3.077   4.436  12.381 -1.6205 -1.0787  1.0584
 7911SOL    HW235370   3.099   4.574  12.389 -1.5846  2.1598  2.8863
 7912SOL     OW35371   4.348   0.226   9.077  0.1437  0.3927 -0.3054
 7912SOL    HW135372   4.393   0.232   8.993 -0.1054  1.1011 -0.3833
 7912SOL    HW235373   4.290   0.152   9.058 -0.9950  0.8209  1.5848
 7913SOL     OW35374   2.479   2.794   6.816 -0.5282 -0.0450 -0.1030
 7913SOL    HW135375   2.469   2.766   6.907 -1.9862 -0.3157 -0.3605
 7913SOL    HW235376   2.506   2.885   6.824  2.2168 -0.7576 -1.2545
 7914SOL     OW35377   4.589   4.360   4.387 -0.1129 -0.4310  0.0686
 7914SOL    HW135378   4.643   4.422   4.338 -1.0535  0.3152 -0.0246
 7914SOL    HW235379   4.523   4.421   4.419 -0.0674 -1.5985  2.4219
 7915SOL     OW35380   0.894   2.418  13.333 -0.1281 -0.6274 -0.1926
 7915SOL    HW135381   0.954   2.357  13.376 -0.6052 -1.1233 -0.2411
 7915SOL    HW235382   0.880   2.368  13.253  0.9867  2.0768 -2.0694
 7916SOL     OW35383   3.286   4.043   8.734 -0.1168  0.2615  0.1291
 7916SOL    HW135384   3.209   4.060   8.681  0.0477 -1.1244 -0.5304
 7916SOL    HW235385   3.313   4.127   8.772  0.2365  0.9703 -1.7248
 7917SOL     OW35386   2.916   3.412   1.810  0.3341 -0.1993  0.1869
 7917SOL    HW135387   2.980   3.458   1.756  1.2423 -0.3821  1.1208
 7917SOL    HW235388   2.891   3.487   1.864 -2.0850 -0.4182 -0.6037
 7918SOL     OW35389   4.053   1.536   4.400  0.5002  0.4753 -0.2497
 7918SOL    HW135390   3.996   1.565   4.329  0.0270  2.2006  0.8222
 7918SOL    HW235391   4.010   1.580   4.473 -1.1666 -0.9930 -0.3423
 7919SOL     OW35392   3.067   2.601  13.126 -0.6054 -0.4926 -0.3718
 7919SOL    HW135393   3.100   2.691  13.121 -3.3757  0.5108 -0.8723
 7919SOL    HW235394   2.989   2.602  13.070  0.4784  2.2914 -1.8329
 7920SOL     OW35395   4.707   1.399   8.869 -0.1751  0.0019 -1.0414
 7920SOL    HW135396   0.017   1.468   8.915 -3.6317  1.2214  0.6626
 7920SOL    HW235397   0.031   1.327   8.883  1.1668  1.9596  3.0241
 7921SOL     OW35398   3.595   3.873  13.995  0.0747 -0.6271 -0.2049
 7921SOL    HW135399   3.565   3.850  13.908  0.9176  0.3835 -0.7614
 7921SOL    HW235400   3.668   3.933  13.978  0.2130 -0.6939  0.1390
 7922SOL     OW35401   2.637   2.446  13.296 -0.0501 -0.3426 -0.1312
 7922SOL    HW135402   2.665   2.357  13.276 -1.8947 -0.8402 -0.4836
 7922SOL    HW235403   2.714   2.477  13.344 -0.0434 -0.8152  0.1665
 7923SOL     OW35404   3.061   4.558   3.456  0.7784 -0.3008 -0.4309
 7923SOL    HW135405   3.117   4.482   3.469 -1.5887 -1.6535  2.1156
 7923SOL    HW235406   3.057   4.575   3.362 -1.0128  1.2969 -0.0734
 7924SOL     OW35407   1.798   1.346   7.495 -0.3788  0.4106  0.5222
 7924SOL    HW135408   1.739   1.337   7.569 -3.1856  0.8228 -1.6746
 7924SOL    HW235409   1.740   1.327   7.421  0.4562 -2.2042  0.5260
 7925SOL     OW35410   4.675   0.257   3.851  0.3711  0.2804  0.0326
 7925SOL    HW135411   4.728   0.331   3.821 -0.8209  0.9604 -0.3871
 7925SOL    HW235412   4.611   0.303   3.905 -0.7824 -1.1795 -0.0768
 7926SOL     OW35413   0.927   3.444  13.448  0.0112 -0.1948  0.0352
 7926SOL    HW135414   0.999   3.382  13.445  0.5622  0.3834  1.2105
 7926SOL    HW235415   0.851   3.393  13.475 -0.3978  0.4759  0.1731
 7927SOL     OW35416   0.458   4.539   1.965  0.4430  0.4263 -0.7156
 7927SOL    HW135417   0.392   4.540   1.895 -0.7577 -1.5768  0.3630
 7927SOL    HW235418   0.501   4.454   1.957 -0.7223 -0.2988  0.7413
 7928SOL     OW35419   2.864   3.899   3.579  0.4174  0.0134 -0.0544
 7928SOL    HW135420   2.823   3.862   3.501  1.8456 -0.3539 -0.6190
 7928SOL    HW235421   2.878   3.816   3.625  1.9022 -0.3111 -1.1156
 7929SOL     OW35422   0.994   0.248  15.146  0.2914 -0.3660 -0.4027
 7929SOL    HW135423   1.068   0.281  15.095 -0.0824  0.6043 -0.3356
 7929SOL    HW235424   0.987   0.321  15.208 -0.3839 -0.5188 -0.2938
 7930SOL     OW35425   2.053   0.460   3.813 -0.1662 -0.1408 -0.1005
 7930SOL    HW135426   2.043   0.508   3.731 -0.4462 -0.2247 -0.1156
 7930SOL    HW235427   1.981   0.398   3.810  0.0454 -0.2941 -1.9765
 7931SOL     OW35428   1.091   4.333  10.151 -0.6911  0.4432  0.4982
 7931SOL    HW135429   1.001   4.343  10.184 -1.4013 -0.0889 -1.2765
 7931SOL    HW235430   1.079   4.294  10.065  0.0809 -0.5430  0.8429
 7932SOL     OW35431   3.578   2.897   6.474  0.2442 -0.2481  0.0521
 7932SOL    HW135432   3.671   2.882   6.490  0.3465  0.1173 -0.2064
 7932SOL    HW235433   3.561   2.985   6.508 -2.1111 -0.8376  0.4103
 7933SOL     OW35434   3.892   0.801   7.313 -0.3629 -0.5258 -0.3731
 7933SOL    HW135435   3.866   0.797   7.221 -1.1340 -1.1891 -0.1240
 7933SOL    HW235436   3.934   0.888   7.315 -0.9461 -0.2344 -0.7099
 7934SOL     OW35437   2.905   0.248   7.123  0.0742  1.0430  0.0591
 7934SOL    HW135438   2.974   0.312   7.102  1.4395 -0.0648  1.1100
 7934SOL    HW235439   2.836   0.313   7.135  0.9726  1.6609  2.0558
 7935SOL     OW35440   1.748   4.526   1.831 -0.3593 -0.2886  0.2295
 7935SOL    HW135441   1.830   4.528   1.781 -0.3877  0.1643  0.2044
 7935SOL    HW235442   1.783   4.477   1.907  1.9252  0.7661 -0.1338
 7936SOL     OW35443   3.529   0.036   1.644 -0.1474  0.1230  0.2509
 7936SOL    HW135444   3.485   0.093   1.581 -1.3396  1.2911  2.1483
 7936SOL    HW235445   3.544   4.692   1.596 -1.2276 -0.6011  1.1482
 7937SOL     OW35446   4.527   4.632   0.794 -0.7024 -0.2076  0.5866
 7937SOL    HW135447   4.599   4.685   0.829  0.4933 -0.8001 -0.9933
 7937SOL    HW235448   4.566   4.599   0.713 -0.0995 -0.6038  1.0413
 7938SOL     OW35449   1.954   0.950   6.260 -0.5637 -0.5333 -0.6538
 7938SOL    HW135450   2.000   0.869   6.283  0.9095  0.0362 -1.6586
 7938SOL    HW235451   1.957   0.951   6.164  0.8604  1.5702 -0.5595
 7939SOL     OW35452   4.446   1.367  10.747 -0.3807  0.4010 -0.1423
 7939SOL    HW135453   4.510   1.334  10.683  1.1297  0.5875  1.2665
 7939SOL    HW235454   4.365   1.351  10.699  0.1785  0.3362 -1.0702
 7940SOL     OW35455   0.528   3.910  14.459 -0.1823  0.9041 -0.3960
 7940SOL    HW135456   0.471   3.907  14.535 -1.5361  1.2080 -1.3864
 7940SOL    HW235457   0.538   3.817  14.442 -0.0288  0.8424  0.0515
 7941SOL     OW35458   1.991   3.112  12.883 -0.7647  0.0838  0.3992
 7941SOL    HW135459   1.951   3.096  12.798 -0.5763 -2.9497  0.8944
 7941SOL    HW235460   2.084   3.100  12.864 -0.0355  3.5199  1.7064
 7942SOL     OW35461   2.065   2.022  15.414  0.3118  0.1799  0.4818
 7942SOL    HW135462   2.060   1.955  15.482 -1.3823 -1.9918 -1.8408
 7942SOL    HW235463   2.159   2.042  15.414  0.0976  1.2133  1.1316
 7943SOL     OW35464   2.523   4.133   3.836 -0.2639 -0.1921 -0.0378
 7943SOL    HW135465   2.480   4.050   3.859 -1.6541  0.0533 -1.8335
 7943SOL    HW235466   2.568   4.118   3.753  0.3207 -0.5081  0.3280
 7944SOL     OW35467   0.016   0.949  11.472 -0.2185  0.2165 -0.1251
 7944SOL    HW135468   0.041   0.984  11.558  2.3272  1.1815 -1.2724
 7944SOL    HW235469   0.078   0.988  11.411 -1.0128 -0.9788 -1.6846
 7945SOL     OW35470   0.732   3.972   3.682 -0.1365 -0.4559 -0.0488
 7945SOL    HW135471   0.717   4.048   3.737  1.7757 -2.2730  2.9506
 7945SOL    HW235472   0.799   4.005   3.622  0.7656 -2.6620 -0.2392
 7946SOL     OW35473   1.807   2.721   1.264 -0.0418 -0.6795  0.0543
 7946SOL    HW135474   1.840   2.788   1.204 -0.3620  1.1377  1.9156
 7946SOL    HW235475   1.728   2.767   1.292  0.5302 -0.2348  0.9353
 7947SOL     OW35476   1.624   0.021   1.758  0.1393  0.2083  0.3406
 7947SOL    HW135477   1.535   0.007   1.792  0.5489  1.0416  1.7813
 7947SOL    HW235478   1.665   4.680   1.793 -0.5848 -0.4753 -0.3547
 7948SOL     OW35479   3.142   3.903  10.076 -0.1088 -0.3016  0.1204
 7948SOL    HW135480   3.129   3.997  10.068 -1.6718 -0.6433 -1.5253
 7948SOL    HW235481   3.218   3.890  10.133 -0.5877  0.7613  0.9966
 7949SOL     OW35482   2.646   0.336   6.076  0.6701 -0.2591 -0.3659
 7949SOL    HW135483   2.594   0.281   6.134  1.6048 -0.8039 -0.0400
 7949SOL    HW235484   2.670   0.277   6.004  1.4014 -2.3618  1.5949
 7950SOL     OW35485   3.296   2.239  11.288  0.2101 -0.3637 -0.7600
 7950SOL    HW135486   3.283   2.320  11.337 -0.2935  1.0073 -3.1377
 7950SOL    HW235487   3.391   2.232  11.293  0.0401 -1.0785  1.1892
 7951SOL     OW35488   3.984   1.000   8.675  0.0449 -0.0381 -0.6070
 7951SOL    HW135489   3.897   0.986   8.638 -0.1523  2.4989 -1.1112
 7951SOL    HW235490   3.972   1.085   8.717  2.5948 -1.5075  3.0706
 7952SOL     OW35491   3.648   4.115   2.531  0.4308 -0.5471  0.5977
 7952SOL    HW135492   3.718   4.180   2.525  1.1983 -1.4587 -0.3503
 7952SOL    HW235493   3.689   4.046   2.479  0.6304 -1.2448  1.6917
 7953SOL     OW35494   1.035   0.405   7.836 -0.6327  0.3502 -0.4546
 7953SOL    HW135495   1.067   0.373   7.920  1.4422  2.5836 -0.3973
 7953SOL    HW235496   0.951   0.442   7.861 -1.4607 -0.4376 -2.0762
 7954SOL     OW35497   2.839   4.486   3.239 -0.3002  0.0032  0.7733
 7954SOL    HW135498   2.815   4.400   3.273 -0.1170  0.5401  2.2501
 7954SOL    HW235499   2.934   4.479   3.238 -0.3229 -0.1341 -1.3305
 7955SOL     OW35500   2.042   4.687   8.254  0.2147  0.6683 -0.0166
 7955SOL    HW135501   2.099   0.009   8.303  1.9313  0.3434 -1.6248
 7955SOL    HW235502   2.037   4.719   8.164 -0.5202  1.6807  0.3876
 7956SOL     OW35503   2.899   4.559  12.056 -0.0766  0.4197  0.1873
 7956SOL    HW135504   2.906   4.642  12.104  0.8086  1.3019 -1.4812
 7956SOL    HW235505   2.977   4.516  12.090  0.7780  0.3370 -1.8555
 7957SOL     OW35506   3.811   3.113   7.165  0.3760 -0.1404  0.1869
 7957SOL    HW135507   3.785   3.081   7.079  1.7441 -1.2337  0.1865
 7957SOL    HW235508   3.856   3.195   7.148 -1.3432  0.9158  0.6371
 7958SOL     OW35509   0.222   1.251  17.356  0.0572  0.5673 -0.3751
 7958SOL    HW135510   0.276   1.329  17.368 -1.2952  1.9899 -3.3921
 7958SOL    HW235511   0.154   1.299  17.309 -0.9158  0.4462  0.9004
 7959SOL     OW35512   4.446   4.714   9.239 -0.7136 -0.4605 -0.2490
 7959SOL    HW135513   4.377   4.649   9.251 -1.7309  0.3989 -1.5457
 7959SOL    HW235514   4.394   0.056   9.242  0.4204  0.3396 -1.8270
 7960SOL     OW35515   4.049   1.535   3.124 -0.1760 -0.1242 -0.4368
 7960SOL    HW135516   3.983   1.576   3.069 -0.5097 -2.0528 -1.4816
 7960SOL    HW235517   4.136   1.556   3.091  0.6660 -1.3609  0.9654
 7961SOL     OW35518   2.108   3.095   9.229  0.3644 -0.1651 -0.1579
 7961SOL    HW135519   2.119   3.166   9.167  1.7713  0.9798  1.3916
 7961SOL    HW235520   2.183   3.038   9.211  0.3563  0.0993 -0.9946
 7962SOL     OW35521   2.281   3.780   1.503  0.2093 -0.5078  0.4094
 7962SOL    HW135522   2.362   3.770   1.552  0.1393 -0.7412  0.4778
 7962SOL    HW235523   2.285   3.870   1.470 -0.9087 -1.4464 -2.3352
 7963SOL     OW35524   2.745   1.318  14.667  0.1583 -0.3873 -0.1155
 7963SOL    HW135525   2.796   1.253  14.619  1.8830  0.5807  0.4195
 7963SOL    HW235526   2.774   1.312  14.758  2.2774 -0.3768 -0.7869
 7964SOL     OW35527   3.008   3.744   9.479 -0.0914  0.5296  0.4515
 7964SOL    HW135528   2.976   3.826   9.441 -2.8107 -0.1726  1.2189
 7964SOL    HW235529   3.023   3.783   9.565 -2.4764 -0.5780  1.3707
 7965SOL     OW35530   2.629   3.588   4.030  0.4116 -0.3455 -0.0653
 7965SOL    HW135531   2.562   3.580   4.098  0.4790 -3.4504 -0.3920
 7965SOL    HW235532   2.695   3.521   4.050 -0.6382 -1.6603 -1.0113
 7966SOL     OW35533   0.350   2.534  15.115 -0.1774  0.2049 -0.1174
 7966SOL    HW135534   0.338   2.454  15.166 -0.7205  0.5114  0.2355
 7966SOL    HW235535   0.261   2.560  15.092  0.5204  1.5071 -1.3489
 7967SOL     OW35536   2.037   1.241   4.894  0.0568 -0.1688 -0.0944
 7967SOL    HW135537   2.023   1.154   4.857  0.2943  0.0797 -0.7632
 7967SOL    HW235538   1.953   1.285   4.887 -0.7911 -1.8093 -0.2426
 7968SOL     OW35539   2.757   3.187   4.483 -0.7020  0.3303  0.2216
 7968SOL    HW135540   2.746   3.174   4.389 -0.5205 -2.1410  0.5246
 7968SOL    HW235541   2.811   3.266   4.485 -1.1495  0.6369  0.2530
 7969SOL     OW35542   1.746   3.298   7.167  0.0711  0.0323  0.2424
 7969SOL    HW135543   1.728   3.205   7.183  0.3735  0.1151  1.0102
 7969SOL    HW235544   1.729   3.346   7.247 -1.0373 -0.1142  0.0967
 7970SOL     OW35545   0.790   4.623   3.189  0.1926 -0.0245 -0.5551
 7970SOL    HW135546   0.778   4.715   3.212 -1.2509 -0.4857  0.5327
 7970SOL    HW235547   0.799   4.625   3.093  0.8570 -0.3474 -0.4965
 7971SOL     OW35548   3.656   1.345  16.924  0.3209  0.4574 -0.8156
 7971SOL    HW135549   3.636   1.324  17.015  1.9388  0.2491 -0.5178
 7971SOL    HW235550   3.597   1.292  16.871 -0.2424 -0.0422  0.3039
 7972SOL     OW35551   1.245   2.286   9.012 -0.0639 -0.5637 -0.3107
 7972SOL    HW135552   1.239   2.202   9.058  3.8942  0.5928  2.3676
 7972SOL    HW235553   1.156   2.304   8.983 -0.7590  1.1878  2.8865
 7973SOL     OW35554   1.414   2.483   3.194 -0.0158 -0.2946  0.6856
 7973SOL    HW135555   1.357   2.555   3.171 -1.5941 -1.9902 -0.7315
 7973SOL    HW235556   1.459   2.524   3.268  1.6827 -1.1075  0.1102
 7974SOL     OW35557   1.436   2.158   0.057 -0.0846 -0.0126 -0.0292
 7974SOL    HW135558   1.368   2.200   0.110 -0.8022  0.3962 -1.2791
 7974SOL    HW235559   1.510   2.216   0.075  0.4996 -0.8643  0.2964
 7975SOL     OW35560   1.977   0.154  16.315  0.1688 -0.2093 -0.2214
 7975SOL    HW135561   2.015   0.192  16.394  0.3037 -0.6142 -0.0943
 7975SOL    HW235562   1.898   0.110  16.345  0.4215 -0.3764  0.1924
 7976SOL     OW35563   2.248   4.631   1.707 -0.0232 -0.3732  0.4547
 7976SOL    HW135564   2.212   4.642   1.619 -0.5554  1.0130  0.8407
 7976SOL    HW235565   2.294   4.715   1.713  1.4588 -1.1768  0.3345
 7977SOL     OW35566   2.169   1.567   0.287  0.4909 -0.3437 -0.7607
 7977SOL    HW135567   2.084   1.596   0.319  0.4630  1.5035 -2.5002
 7977SOL    HW235568   2.198   1.507   0.356  0.9510  1.1975  0.4076
 7978SOL     OW35569   1.906   4.011  10.428  0.0418  0.1577 -0.2396
 7978SOL    HW135570   1.825   3.970  10.459  1.5032 -1.6528  1.1623
 7978SOL    HW235571   1.952   3.933  10.400  1.8106  0.7044  1.1403
 7979SOL     OW35572   1.383   3.636   5.787 -0.2283 -0.1162 -0.3542
 7979SOL    HW135573   1.318   3.675   5.729 -1.2397  0.9616  1.4925
 7979SOL    HW235574   1.371   3.680   5.871 -2.4375 -0.3855 -0.5242
 7980SOL     OW35575   3.294   1.657   5.863  0.2390  0.1635 -0.0107
 7980SOL    HW135576   3.296   1.732   5.922  0.1869 -0.2386  0.5010
 7980SOL    HW235577   3.292   1.706   5.781 -1.1878 -0.7879 -0.5519
 7981SOL     OW35578   3.810   1.348  16.285  0.5843  0.9025  0.9072
 7981SOL    HW135579   3.881   1.404  16.317  0.8955  1.2314 -0.3308
 7981SOL    HW235580   3.786   1.399  16.208  0.7319 -0.1041  0.1942
 7982SOL     OW35581   2.423   2.927   3.498 -0.3303  0.0058 -0.0622
 7982SOL    HW135582   2.514   2.943   3.522 -0.5873  0.2891  0.7452
 7982SOL    HW235583   2.423   2.834   3.523  0.5734 -0.1439 -0.6090
 7983SOL     OW35584   0.101   2.688  17.420 -0.0821  0.5250  0.6121
 7983SOL    HW135585   0.089   2.775  17.382  1.3558  0.1678 -0.6533
 7983SOL    HW235586   0.113   2.716  17.511  1.0614  0.8063  0.3696
 7984SOL     OW35587   2.695   3.017   1.019  0.3341  0.7062  0.1976
 7984SOL    HW135588   2.622   3.004   1.081  0.1053  0.5629 -0.0998
 7984SOL    HW235589   2.765   3.018   1.084  0.4743  0.9234  0.0407
 7985SOL     OW35590   0.127   4.290  15.126  0.5080  0.3320  0.3555
 7985SOL    HW135591   0.099   4.334  15.047 -1.4947 -1.5688 -0.0029
 7985SOL    HW235592   0.068   4.323  15.194  1.4480 -0.9109  1.7847
 7986SOL     OW35593   1.977   2.876   3.233 -0.0129 -0.2200  0.0013
 7986SOL    HW135594   1.971   2.891   3.139 -2.3822 -0.6183  0.0799
 7986SOL    HW235595   2.057   2.923   3.256  0.3132 -0.7776  0.0045
 7987SOL     OW35596   3.075   0.417   6.932  0.3250  0.4205 -0.4601
 7987SOL    HW135597   3.024   0.484   6.978  2.0177  1.1824  0.3014
 7987SOL    HW235598   3.147   0.473   6.904  0.6780  0.1167 -0.1643
 7988SOL     OW35599   2.152   3.555   1.621 -0.3670  0.1793 -0.0635
 7988SOL    HW135600   2.190   3.635   1.584 -0.2570 -0.1922 -0.7575
 7988SOL    HW235601   2.119   3.517   1.540  0.0899 -0.7804  0.1991
 7989SOL     OW35602   1.314   4.413   4.548 -0.1527 -0.5215  0.3175
 7989SOL    HW135603   1.261   4.450   4.619 -2.1908  0.6543 -1.7810
 7989SOL    HW235604   1.334   4.332   4.596  1.7829 -0.8607 -1.0804
 7990SOL     OW35605   1.782   1.308   2.631 -0.2564 -0.0464  0.8308
 7990SOL    HW135606   1.848   1.289   2.698 -0.6695 -0.2702  1.1727
 7990SOL    HW235607   1.831   1.263   2.562 -0.3881  2.7624 -1.0697
 7991SOL     OW35608   2.469   4.677   6.514  0.4628  0.3822 -0.2179
 7991SOL    HW135609   2.429   4.674   6.427  1.7333 -0.3168 -0.7872
 7991SOL    HW235610   2.394   4.691   6.571  0.8316 -2.6946  0.9938
 7992SOL     OW35611   3.178   1.146   4.934 -0.1433  0.5205 -0.3713
 7992SOL    HW135612   3.110   1.106   4.989 -1.0717  0.6230 -1.4657
 7992SOL    HW235613   3.245   1.077   4.938  1.5436  2.0237 -2.6122
 7993SOL     OW35614   2.934   3.667   7.451 -0.0237 -0.3725  0.4280
 7993SOL    HW135615   2.953   3.649   7.358  5.1734  1.4588  1.1459
 7993SOL    HW235616   2.965   3.757   7.457  1.2656 -0.8882  1.4199
 7994SOL     OW35617   4.294   0.786   2.732 -0.1609 -0.2975 -0.2932
 7994SOL    HW135618   4.214   0.746   2.766  1.1769 -1.3911  1.5581
 7994SOL    HW235619   4.365   0.723   2.743  0.4960 -0.1510 -3.6031
 7995SOL     OW35620   0.656   2.357  14.956  0.1332  0.0066  0.2126
 7995SOL    HW135621   0.727   2.419  14.937 -0.3950  0.3123 -0.7289
 7995SOL    HW235622   0.586   2.410  14.919 -1.2473 -0.9502  1.4718
 7996SOL     OW35623   3.742   3.204   1.905  0.2897  0.2220 -0.0993
 7996SOL    HW135624   3.832   3.214   1.875 -0.3622 -0.6070 -2.2811
 7996SOL    HW235625   3.752   3.120   1.949 -1.1639  0.4140  0.6061
 7997SOL     OW35626   0.390   2.264   5.449  0.2771  0.2481 -0.0639
 7997SOL    HW135627   0.476   2.281   5.486  1.3300  0.9657 -2.8555
 7997SOL    HW235628   0.412   2.284   5.358 -1.7830 -0.4538 -0.7186
 7998SOL     OW35629   2.578   4.531  14.597  0.0197 -0.4241  0.3443
 7998SOL    HW135630   2.574   4.450  14.545  1.4714  0.0813 -0.5545
 7998SOL    HW235631   2.513   4.589  14.557 -0.3654  0.2066  1.8906
 7999SOL     OW35632   0.263   4.227   2.981 -0.4018 -0.6217  0.8005
 7999SOL    HW135633   0.178   4.191   3.006 -1.1982  1.0488  0.4837
 7999SOL    HW235634   0.299   4.168   2.915  1.1810  1.7307 -0.4030
 8000SOL     OW35635   2.840   4.698   4.446 -0.0375 -0.1983  0.0467
 8000SOL    HW135636   2.900   0.033   4.426  0.5830 -0.6490  0.2810
 8000SOL    HW235637   2.787   4.677   4.369  0.3584  0.7734 -0.4912
 8001SOL     OW35638   4.285   0.853   1.873  0.0344 -0.2223 -0.5711
 8001SOL    HW135639   4.380   0.863   1.883 -0.3133  1.7775  0.7872
 8001SOL    HW235640   4.266   0.929   1.817 -0.6506 -0.7532 -1.0487
 8002SOL     OW35641   1.465   3.728   7.104  0.0319 -0.0286 -0.4767
 8002SOL    HW135642   1.520   3.779   7.164 -0.9546 -1.0749  1.3307
 8002SOL    HW235643   1.513   3.646   7.098  1.8601  1.0070 -0.1793
 8003SOL     OW35644   3.689   2.005   3.007 -0.0755 -0.9106  0.0677
 8003SOL    HW135645   3.746   2.071   3.045 -0.8995 -0.7818  1.0564
 8003SOL    HW235646   3.609   2.024   3.055 -1.0009  0.0247 -1.8721
 8004SOL     OW35647   0.641   4.235   5.063  0.3710  0.0485  0.7910
 8004SOL    HW135648   0.726   4.277   5.047  0.5321 -0.4056  0.4516
 8004SOL    HW235649   0.668   4.144   5.070  0.0004 -0.2130 -1.1286
 8005SOL     OW35650   1.295   3.643  12.652 -1.1302  0.2013  0.3013
 8005SOL    HW135651   1.249   3.567  12.687  1.5773 -0.2851  2.8683
 8005SOL    HW235652   1.221   3.684  12.609 -0.7502  0.2477 -0.3103
 8006SOL     OW35653   2.738   4.124   6.228 -0.3143 -0.0124  0.1171
 8006SOL    HW135654   2.796   4.081   6.166 -0.7587  2.0463 -1.7176
 8006SOL    HW235655   2.674   4.053   6.228 -0.5297  0.1822 -0.0742
 8007SOL     OW35656   4.607   0.719   0.117 -0.3971  0.6066  0.0234
 8007SOL    HW135657   4.690   0.675   0.137 -0.9097  0.0647  0.9955
 8007SOL    HW235658   4.624   0.759   0.032 -1.0481 -0.6160 -0.6819
 8008SOL     OW35659   3.822   3.055  16.167 -0.1453  0.0125  0.2441
 8008SOL    HW135660   3.777   3.105  16.234  1.7770 -0.1206  1.6608
 8008SOL    HW235661   3.796   2.963  16.179  1.1253 -0.3593  0.2291
 8009SOL     OW35662   3.213   4.689  12.332 -0.4542 -0.2344  0.0693
 8009SOL    HW135663   3.276   4.628  12.296 -0.9185 -1.6398  1.6475
 8009SOL    HW235664   3.213   0.007  12.255 -0.6133 -1.2520 -0.6583
 8010SOL     OW35665   0.732   1.137   2.568  0.2261  0.5028 -0.3076
 8010SOL    HW135666   0.726   1.042   2.562 -1.3311  0.5797 -0.0571
 8010SOL    HW235667   0.711   1.156   2.477  1.1383  0.9859 -0.4213
 8011SOL     OW35668   3.169   1.010   8.928 -0.4561 -0.4934 -0.4632
 8011SOL    HW135669   3.224   1.087   8.911 -0.3779 -0.3359  0.5171
 8011SOL    HW235670   3.209   0.990   9.013  0.7203 -0.5659 -1.0284
 8012SOL     OW35671   1.068   1.984   3.670  0.5435  0.4201  0.2738
 8012SOL    HW135672   1.059   1.899   3.714  1.3312  0.5387  0.6615
 8012SOL    HW235673   1.120   2.038   3.729 -0.8767  1.2015  0.8268
 8013SOL     OW35674   1.715   1.261   1.954 -0.6283 -0.0711  0.9487
 8013SOL    HW135675   1.789   1.250   1.893 -1.2244 -1.1084  0.4130
 8013SOL    HW235676   1.642   1.217   1.910 -1.0534 -0.0547  1.6445
 8014SOL     OW35677   2.599   1.382   6.375 -0.4216  0.2306  0.3944
 8014SOL    HW135678   2.619   1.470   6.345  0.0241  0.2366  0.7183
 8014SOL    HW235679   2.510   1.371   6.341  0.0742  1.0403 -1.1674
 8015SOL     OW35680   0.812   3.681  15.920 -0.1743  0.0407  0.4934
 8015SOL    HW135681   0.721   3.654  15.910 -0.2993  1.3807 -1.8134
 8015SOL    HW235682   0.851   3.633  15.847  1.1857  2.1232 -0.1378
 8016SOL     OW35683   4.425   4.452   7.305 -0.7575  0.7977  0.0942
 8016SOL    HW135684   4.462   4.483   7.222 -0.3778  1.6028  0.5604
 8016SOL    HW235685   4.350   4.400   7.276 -0.2734  1.2449 -2.0067
 8017SOL     OW35686   0.180   2.267  15.094 -0.0209 -0.0192  0.3629
 8017SOL    HW135687   0.088   2.260  15.067 -0.6949 -0.5596  2.8381
 8017SOL    HW235688   0.218   2.203  15.033  0.9984  0.4620  0.4996
 8018SOL     OW35689   2.512   4.488   1.250  0.4203  0.0474 -0.0677
 8018SOL    HW135690   2.473   4.539   1.321  0.1332  0.3279 -0.4231
 8018SOL    HW235691   2.523   4.557   1.185 -0.7075 -1.8093 -2.2171
 8019SOL     OW35692   0.444   0.297   9.567 -0.7001  0.1650  0.6695
 8019SOL    HW135693   0.520   0.348   9.541 -1.4815  0.8886 -0.1955
 8019SOL    HW235694   0.374   0.327   9.509 -2.9327 -0.5533  2.9692
 8020SOL     OW35695   1.455   1.124   3.705  0.2076  0.6390  0.2901
 8020SOL    HW135696   1.470   1.045   3.652  0.1879  0.4817  0.5171
 8020SOL    HW235697   1.497   1.110   3.790  0.9138 -1.9034 -0.4638
 8021SOL     OW35698   2.921   1.173   2.991  0.0770 -0.2821 -0.2825
 8021SOL    HW135699   2.977   1.099   2.968  0.8307 -0.5904  2.5017
 8021SOL    HW235700   2.869   1.181   2.911  0.4634  0.2686 -0.4724
 8022SOL     OW35701   3.188   1.329   9.287  0.3029 -0.5852  0.2455
 8022SOL    HW135702   3.093   1.321   9.276  0.2581  0.2493  0.0063
 8022SOL    HW235703   3.210   1.410   9.241 -1.4948 -0.5785 -0.6090
 8023SOL     OW35704   1.899   2.459   0.358  0.0639 -0.0391  0.0738
 8023SOL    HW135705   1.814   2.494   0.386 -0.1467  1.4231 -2.3404
 8023SOL    HW235706   1.936   2.545   0.336 -0.1946 -0.0674 -0.4737
 8024SOL     OW35707   1.278   0.178   9.376  0.1259 -0.0509  0.2441
 8024SOL    HW135708   1.359   0.183   9.325  0.4081  0.7519  0.7687
 8024SOL    HW235709   1.311   0.151   9.462 -2.8941 -1.8994  0.8210
 8025SOL     OW35710   2.052   1.496   2.437 -0.7712  0.8722 -1.2535
 8025SOL    HW135711   2.107   1.527   2.509  0.5664 -2.5618 -0.7931
 8025SOL    HW235712   1.972   1.549   2.446 -0.5838  1.1341 -1.1562
 8026SOL     OW35713   1.867   0.799   4.846 -0.6028  0.1712  0.0940
 8026SOL    HW135714   1.939   0.836   4.795 -0.7973  2.9050  1.7994
 8026SOL    HW235715   1.926   0.758   4.910 -0.9369  2.4118  1.7967
 8027SOL     OW35716   4.490   2.486   7.847  0.0955  0.7868 -0.2368
 8027SOL    HW135717   4.448   2.528   7.772 -2.1515 -3.2970 -1.2676
 8027SOL    HW235718   4.521   2.566   7.891  0.1819 -0.1569  1.4267
 8028SOL     OW35719   0.223   4.179   4.337 -0.0855  0.0475  0.1580
 8028SOL    HW135720   0.142   4.215   4.300 -1.0199 -0.3764  1.8021
 8028SOL    HW235721   0.295   4.229   4.299 -0.0253  0.1443  0.4031
 8029SOL     OW35722   3.606   1.912   1.918 -0.7937 -0.0487 -0.0137
 8029SOL    HW135723   3.543   1.975   1.883  0.8159 -0.0542 -2.8895
 8029SOL    HW235724   3.639   1.963   1.992  0.8781 -0.7253 -0.2937
 8030SOL     OW35725   0.643   0.827   1.463  0.2340 -0.1223  0.3054
 8030SOL    HW135726   0.715   0.877   1.501 -0.1628  1.4396 -0.9909
 8030SOL    HW235727   0.631   0.876   1.382 -3.5061 -0.5841  0.5501
 8031SOL     OW35728   2.984   3.205   2.315  0.2057 -0.3859  0.9254
 8031SOL    HW135729   2.935   3.129   2.347 -1.4100 -0.0393 -0.7335
 8031SOL    HW235730   3.045   3.229   2.385  0.6430 -1.8790  1.0654
 8032SOL     OW35731   2.649   2.456   1.328  0.0540  0.2250 -0.3694
 8032SOL    HW135732   2.637   2.546   1.359  1.0819 -0.0550  0.8292
 8032SOL    HW235733   2.739   2.461   1.298 -0.7054 -0.0173 -2.6557
 8033SOL     OW35734   4.159   2.534   9.225  0.1433 -0.6559 -0.1784
 8033SOL    HW135735   4.118   2.449   9.241 -0.0984 -0.2158  1.6145
 8033SOL    HW235736   4.123   2.596   9.289 -0.0087 -0.1691 -0.7453
 8034SOL     OW35737   0.683   2.747   0.261 -0.2990  0.9156 -0.5809
 8034SOL    HW135738   0.692   2.811   0.332 -2.4278  0.9505 -0.3503
 8034SOL    HW235739   0.592   2.758   0.233  0.4815 -2.0105 -4.2674
 8035SOL     OW35740   3.177   1.597   6.337 -0.2508  0.4680 -0.0816
 8035SOL    HW135741   3.236   1.630   6.269  2.7774 -0.5927  2.0090
 8035SOL    HW235742   3.134   1.681   6.351  1.6322  1.4371 -0.1045
 8036SOL     OW35743   4.052   2.088   5.751  0.1736 -0.2766 -0.0991
 8036SOL    HW135744   3.959   2.066   5.755  0.1952 -0.6197 -1.4331
 8036SOL    HW235745   4.053   2.135   5.668 -1.4331  0.6379  0.3896
 8037SOL     OW35746   4.251   0.720   1.611 -0.2917  0.4551  0.7065
 8037SOL    HW135747   4.186   0.664   1.654 -0.8358  0.3534 -0.2508
 8037SOL    HW235748   4.217   0.717   1.522 -0.5059 -1.3357  0.8521
 8038SOL     OW35749   1.316   3.834  13.390  0.3058  0.3873 -0.2668
 8038SOL    HW135750   1.281   3.860  13.305  0.1299 -1.5993 -0.7933
 8038SOL    HW235751   1.319   3.738  13.392 -1.2676  0.3501  0.9560
 8039SOL     OW35752   3.884   3.002   9.977 -0.5662 -0.1914  0.0623
 8039SOL    HW135753   3.920   2.918   9.950  2.6940  0.9401  0.8615
 8039SOL    HW235754   3.938   3.058   9.920 -0.9955  1.0615  0.8833
 8040SOL     OW35755   3.683   1.863   3.704  0.1016  0.1311 -0.0621
 8040SOL    HW135756   3.686   1.873   3.799 -2.1800 -0.2942  0.0539
 8040SOL    HW235757   3.715   1.949   3.675  0.9485  0.2019  1.0795
 8041SOL     OW35758   4.526   0.514   2.292 -0.4917 -1.0494 -0.0369
 8041SOL    HW135759   4.468   0.438   2.287 -2.4869  0.5968 -1.9724
 8041SOL    HW235760   4.528   0.535   2.199 -1.8839 -3.3256 -0.5815
 8042SOL     OW35761   2.230   2.503   0.342  0.0092  0.9314 -0.1185
 8042SOL    HW135762   2.200   2.580   0.293 -3.2360 -1.4078 -1.8366
 8042SOL    HW235763   2.153   2.448   0.354  0.2343  0.0715 -2.5166
 8043SOL     OW35764   3.618   0.400   6.114 -0.3702 -0.2021  0.2175
 8043SOL    HW135765   3.644   0.491   6.102 -0.5810 -0.1851 -0.0962
 8043SOL    HW235766   3.573   0.403   6.199 -2.3357  0.9095 -0.8677
 8044SOL     OW35767   4.049   3.317  13.830 -0.3410  0.2130  0.1892
 8044SOL    HW135768   4.142   3.338  13.840 -0.6660  1.3048  0.9623
 8044SOL    HW235769   4.014   3.394  13.786 -2.2177 -0.9588 -0.3481
 8045SOL     OW35770   0.043   4.095   6.985  0.4241  0.5242 -0.5205
 8045SOL    HW135771   0.073   4.055   6.904 -3.5223 -0.5982 -1.4472
 8045SOL    HW235772   0.124   4.131   7.021  1.3169 -1.8142 -0.1869
 8046SOL     OW35773   3.284   0.891  14.419 -0.6484 -0.5011 -0.2792
 8046SOL    HW135774   3.292   0.806  14.463  0.7530  0.6924  1.7476
 8046SOL    HW235775   3.357   0.878  14.358  1.9577 -0.7204  2.8995
 8047SOL     OW35776   2.681   1.999   1.274  0.0794  0.1212  0.5850
 8047SOL    HW135777   2.732   1.969   1.200 -2.1820 -1.2710 -0.4238
 8047SOL    HW235778   2.602   2.032   1.232  1.8552  1.9221 -1.2916
 8048SOL     OW35779   2.311   3.893   9.254 -0.2157  0.1774  0.6096
 8048SOL    HW135780   2.294   3.810   9.298 -1.6106 -0.1317 -0.5312
 8048SOL    HW235781   2.313   3.961   9.321  0.5346  1.8712 -1.1275
 8049SOL     OW35782   1.457   2.821   2.382  0.0891  0.2889  0.2482
 8049SOL    HW135783   1.501   2.865   2.309 -0.7636  1.2655  0.3208
 8049SOL    HW235784   1.396   2.763   2.337 -0.6722  1.3676 -0.1065
 8050SOL     OW35785   0.540   1.805   5.752  0.1344 -0.2847  0.3721
 8050SOL    HW135786   0.564   1.832   5.664 -1.0052 -0.8914 -0.1257
 8050SOL    HW235787   0.448   1.832   5.754  0.2877  0.2955 -0.7484
 8051SOL     OW35788   2.754   2.888   0.575 -0.1997  0.2575 -0.5430
 8051SOL    HW135789   2.786   2.875   0.664 -1.2043  0.0467 -0.2200
 8051SOL    HW235790   2.738   2.797   0.550 -0.6114  0.7678 -2.1410
 8052SOL     OW35791   0.817   3.467  15.739  0.0908 -0.0765 -0.6251
 8052SOL    HW135792   0.778   3.507  15.661  0.8259  0.6701 -0.5997
 8052SOL    HW235793   0.910   3.487  15.736  0.0492 -0.0606 -1.7790
 8053SOL     OW35794   3.746   3.008   5.261 -0.6495 -0.9652 -0.0000
 8053SOL    HW135795   3.740   3.099   5.231 -0.3510 -1.6584 -2.1667
 8053SOL    HW235796   3.803   2.968   5.196  0.4527  0.0394  0.3490
 8054SOL     OW35797   2.667   1.471  12.691  0.2450  0.1475 -0.1508
 8054SOL    HW135798   2.590   1.432  12.650 -0.1583  0.3080  0.4658
 8054SOL    HW235799   2.658   1.565  12.674  0.9621  0.5118  1.5091
 8055SOL     OW35800   1.089   2.644   7.410  0.5458  0.2111 -0.1914
 8055SOL    HW135801   1.185   2.649   7.419  0.4146 -1.1517  2.1077
 8055SOL    HW235802   1.085   2.578   7.342 -0.0271 -2.2154  2.1802
 8056SOL     OW35803   3.748   2.521   9.891 -0.2032 -0.3169 -0.2684
 8056SOL    HW135804   3.796   2.453   9.843  2.0446  2.2640 -1.7091
 8056SOL    HW235805   3.736   2.473   9.972 -1.1404 -0.7993 -0.6925
 8057SOL     OW35806   4.370   0.917   2.520  0.0333  0.1717  0.1134
 8057SOL    HW135807   4.353   0.893   2.611 -0.0449 -0.4302 -0.0611
 8057SOL    HW235808   4.321   0.844   2.483  0.9461  0.2310 -1.2117
 8058SOL     OW35809   1.511   2.588   2.521 -0.9521  0.1545 -0.2361
 8058SOL    HW135810   1.462   2.609   2.601  1.9047  1.7664  1.0755
 8058SOL    HW235811   1.522   2.677   2.488 -0.9342  0.1501 -0.2419
 8059SOL     OW35812   3.469   4.037  16.628  0.3931 -0.0545 -0.3179
 8059SOL    HW135813   3.432   3.960  16.671  1.1266  0.7052  1.6820
 8059SOL    HW235814   3.539   4.050  16.692  0.4470  1.5040 -0.7027
 8060SOL     OW35815   1.086   0.933   6.871 -0.5578  0.4468 -0.0449
 8060SOL    HW135816   1.006   0.926   6.923 -1.3184 -1.3694 -1.4645
 8060SOL    HW235817   1.058   1.002   6.811  1.5026  0.6384 -0.7707
 8061SOL     OW35818   2.746   4.047  12.285 -0.0027  0.5349 -0.2825
 8061SOL    HW135819   2.833   4.088  12.279  0.4719  0.0251  2.9779
 8061SOL    HW235820   2.693   4.112  12.240  0.0018  0.5484 -0.2684
 8062SOL     OW35821   3.213   0.723   7.174  0.2190 -0.0161 -0.6473
 8062SOL    HW135822   3.276   0.673   7.227 -1.9218 -0.4596  1.4824
 8062SOL    HW235823   3.280   0.782   7.140 -0.5377  0.8174 -0.6947
 8063SOL     OW35824   1.730   1.490   8.762  0.1446 -0.1880  0.5329
 8063SOL    HW135825   1.701   1.528   8.679  1.4228 -0.3377  0.0069
 8063SOL    HW235826   1.825   1.492   8.747  0.0861  1.1106  0.3368
 8064SOL     OW35827   1.785   2.671   0.746  0.8111 -0.4651  0.3939
 8064SOL    HW135828   1.759   2.631   0.663  1.1049  2.3481 -1.0705
 8064SOL    HW235829   1.705   2.662   0.798 -0.3360  3.9402 -0.6500
 8065SOL     OW35830   4.200   2.015  11.004 -0.0739 -0.0966 -0.2407
 8065SOL    HW135831   4.141   1.956  10.956 -0.8711  0.5638 -0.0722
 8065SOL    HW235832   4.279   1.961  11.006  0.0920  0.1738  0.3206
 8066SOL     OW35833   1.024   3.875   8.120  0.1904  0.0779  0.0632
 8066SOL    HW135834   1.104   3.823   8.116 -2.6875 -4.5429  2.4832
 8066SOL    HW235835   1.020   3.917   8.034  0.9264 -2.1821 -1.0673
 8067SOL     OW35836   1.886   2.066  11.224 -0.5222  0.2191  0.0386
 8067SOL    HW135837   1.963   2.032  11.269 -0.8272 -1.2432 -0.5539
 8067SOL    HW235838   1.937   2.109  11.155  0.4141  1.6131  1.5981
 8068SOL     OW35839   2.616   0.943   7.673  0.4845  0.0267 -0.3196
 8068SOL    HW135840   2.582   0.863   7.713  1.9205 -2.1583 -3.3953
 8068SOL    HW235841   2.607   1.001   7.748 -2.5661 -0.4489 -0.3158
 8069SOL     OW35842   0.855   1.930   7.946  0.3063 -0.1750  0.2014
 8069SOL    HW135843   0.924   1.873   7.911  1.1493 -0.3996  2.2353
 8069SOL    HW235844   0.808   1.964   7.870  1.2106 -0.0571 -0.3134
 8070SOL     OW35845   0.467   3.116   5.537 -0.0766  0.0211 -0.4189
 8070SOL    HW135846   0.421   3.194   5.507  0.4541  1.3791  2.2997
 8070SOL    HW235847   0.510   3.149   5.615  1.3112 -0.0685 -1.1516
 8071SOL     OW35848   3.971   0.697   7.735  0.1356  0.5460  0.3917
 8071SOL    HW135849   4.027   0.674   7.809 -0.7475  0.9319  1.1778
 8071SOL    HW235850   3.920   0.771   7.769  1.6084  0.9617  1.7247
 8072SOL     OW35851   2.963   0.507   3.594  0.1846 -0.0809  0.4599
 8072SOL    HW135852   3.025   0.437   3.576 -0.5389 -0.5084 -0.3737
 8072SOL    HW235853   2.881   0.464   3.619 -0.2217 -0.2471 -1.1416
 8073SOL     OW35854   0.165   0.632  10.370  0.0007 -0.0195 -0.0489
 8073SOL    HW135855   0.128   0.714  10.336 -0.1880 -1.0177 -2.2115
 8073SOL    HW235856   0.123   0.565  10.317  2.1290  0.3430 -2.1880
 8074SOL     OW35857   1.278   1.752   2.070  0.1092 -0.0397 -0.3505
 8074SOL    HW135858   1.277   1.661   2.101  1.5658 -0.4562 -1.5280
 8074SOL    HW235859   1.365   1.778   2.101 -0.2133  0.8077 -0.1779
 8075SOL     OW35860   2.087   3.445   5.378 -0.2153  0.3090 -0.1895
 8075SOL    HW135861   2.046   3.515   5.429  0.9406  0.9277 -0.0871
 8075SOL    HW235862   2.110   3.382   5.446 -1.5965  1.0021  0.9155
 8076SOL     OW35863   4.443   0.243   2.259  0.5647  0.1020 -0.4590
 8076SOL    HW135864   4.353   0.241   2.227  0.1451  1.4829  0.6197
 8076SOL    HW235865   4.480   0.177   2.201 -2.5558  0.6873 -3.0815
 8077SOL     OW35866   4.647   2.203  10.697  0.1840  0.1705 -0.0463
 8077SOL    HW135867   4.639   2.108  10.712  1.6828  0.3139  1.6336
 8077SOL    HW235868   4.562   2.244  10.713  0.7733  1.1422  0.5758
 8078SOL     OW35869   2.303   0.563   0.985  0.1981 -0.1314  0.2393
 8078SOL    HW135870   2.305   0.480   0.937  0.2735 -0.3612  0.6448
 8078SOL    HW235871   2.220   0.587   0.942  0.1567  0.0085  0.3979
 8079SOL     OW35872   0.069   2.466   7.726  0.1106  0.2534  0.5672
 8079SOL    HW135873   4.711   2.460   7.734 -0.1706  2.2476 -1.2207
 8079SOL    HW235874   0.084   2.516   7.806  0.0820  0.4707  0.4349
 8080SOL     OW35875   2.708   4.327   2.312 -0.1926  0.6947 -0.3912
 8080SOL    HW135876   2.762   4.248   2.322 -1.7901  0.0001  2.8731
 8080SOL    HW235877   2.625   4.300   2.352  0.2450  1.0826  0.7524
 8081SOL     OW35878   1.102   3.011   2.272 -0.2012 -0.1964  0.1190
 8081SOL    HW135879   1.024   3.004   2.327  0.8011  2.9536  1.9216
 8081SOL    HW235880   1.169   3.004   2.340  1.1468  0.6258 -1.1339
 8082SOL     OW35881   4.208   4.419  15.196  0.2989  0.0764  0.3531
 8082SOL    HW135882   4.166   4.437  15.112  0.8913  2.5250  0.5887
 8082SOL    HW235883   4.153   4.347  15.227  1.6214 -0.5435  1.2962
 8083SOL     OW35884   0.482   4.416  12.211 -0.3594  0.3722  0.1350
 8083SOL    HW135885   0.505   4.332  12.172 -0.1346 -1.1328  3.4707
 8083SOL    HW235886   0.422   4.386  12.278 -0.5913  0.2390 -0.1339
 8084SOL     OW35887   0.043   2.258   2.185  0.0418 -0.6378 -0.0078
 8084SOL    HW135888   0.092   2.260   2.267  1.3001 -0.6901 -0.7611
 8084SOL    HW235889   0.035   2.352   2.170  0.2884 -0.8959 -1.6823
 8085SOL     OW35890   2.134   4.440   4.103 -0.4049  0.0114 -1.0067
 8085SOL    HW135891   2.214   4.481   4.070  0.5865 -1.0532  0.0970
 8085SOL    HW235892   2.161   4.364   4.155  1.0045  0.9011 -0.4639
 8086SOL     OW35893   3.400   3.351  14.321  0.3936  0.1434  0.3804
 8086SOL    HW135894   3.453   3.368  14.398  0.2953  0.9446  0.2678
 8086SOL    HW235895   3.454   3.283  14.282 -1.6010 -0.4116 -1.4502
 8087SOL     OW35896   2.143   3.674   9.714  0.3082  0.0314  0.1639
 8087SOL    HW135897   2.212   3.673   9.780 -2.3172 -3.8372  2.8863
 8087SOL    HW235898   2.072   3.709   9.769 -0.5664  0.2513 -1.0943
 8088SOL     OW35899   4.336   3.372  11.054  0.2227  0.0076 -1.2979
 8088SOL    HW135900   4.341   3.445  11.116 -1.8441  1.2923 -2.6392
 8088SOL    HW235901   4.331   3.300  11.116 -0.6133 -1.5630 -3.1983
 8089SOL     OW35902   0.083   3.683   8.090  0.0510 -0.2897 -0.3066
 8089SOL    HW135903   0.045   3.770   8.100  2.2073  0.8386 -1.7334
 8089SOL    HW235904   0.095   3.662   8.182 -3.7006 -1.0723 -0.0032
 8090SOL     OW35905   1.891   4.699   5.662 -0.5094 -0.5686 -0.3667
 8090SOL    HW135906   1.830   0.025   5.699  0.5445  0.7442 -0.8915
 8090SOL    HW235907   1.827   4.636   5.627  2.0749 -3.2656 -0.2020
 8091SOL     OW35908   0.992   2.553  15.698  0.1017 -0.1641  0.0914
 8091SOL    HW135909   0.988   2.468  15.742 -0.3044  0.6680  1.6383
 8091SOL    HW235910   1.062   2.599  15.744 -0.6346 -0.0045  1.0403
 8092SOL     OW35911   1.176   4.649   7.026 -0.1553  0.2353  0.2593
 8092SOL    HW135912   1.227   4.626   6.949 -2.5944  0.0381 -1.3129
 8092SOL    HW235913   1.104   4.700   6.987 -0.2021  1.2010  1.5990
 8093SOL     OW35914   2.054   3.410  10.005 -0.5446 -0.2323  0.2039
 8093SOL    HW135915   2.055   3.499   9.968  2.5938 -1.3511 -2.3698
 8093SOL    HW235916   2.122   3.424  10.071 -0.9235  0.5436  0.4385
 8094SOL     OW35917   3.900   0.930   1.546  0.5127 -0.2199 -0.0224
 8094SOL    HW135918   3.949   0.937   1.627 -0.3966 -0.2632  0.5335
 8094SOL    HW235919   3.842   0.854   1.555  0.2396 -0.2524 -1.9721
 8095SOL     OW35920   2.614   1.293   1.811 -0.9512  0.3513  0.2600
 8095SOL    HW135921   2.577   1.317   1.726 -1.2239  1.1442  0.5986
 8095SOL    HW235922   2.618   1.380   1.850  0.5065  0.5142 -0.2567
 8096SOL     OW35923   0.716   1.897   7.036 -0.5346  0.1917  0.2714
 8096SOL    HW135924   0.751   1.827   7.092  0.5848  2.5269  2.5174
 8096SOL    HW235925   0.653   1.927   7.102 -2.3106 -0.2995 -1.2228
 8097SOL     OW35926   2.557   1.789   4.765  0.2168 -0.8637 -0.3536
 8097SOL    HW135927   2.473   1.806   4.808  0.5909 -0.1637  0.1081
 8097SOL    HW235928   2.585   1.708   4.809 -1.7527 -1.0399  0.5656
 8098SOL     OW35929   0.554   4.410   3.967 -0.3046  0.3246  0.0412
 8098SOL    HW135930   0.494   4.480   3.989  1.9360  2.5097 -0.7749
 8098SOL    HW235931   0.530   4.382   3.878  0.1676  0.6001 -0.1710
 8099SOL     OW35932   4.697   0.681   5.551 -0.3296 -0.4742 -0.7950
 8099SOL    HW135933   4.708   0.616   5.621  2.3896  1.4301  0.5431
 8099SOL    HW235934   4.616   0.650   5.511 -1.9632  0.4219  1.7615
 8100SOL     OW35935   2.404   3.687   3.693  0.0323  0.0439 -0.2743
 8100SOL    HW135936   2.476   3.678   3.754  1.2990 -0.9006 -1.9055
 8100SOL    HW235937   2.415   3.609   3.638  3.5006 -0.4361  1.1170
 8101SOL     OW35938   3.452   3.348   5.304  0.5676 -0.2923  0.3061
 8101SOL    HW135939   3.362   3.374   5.326 -0.1308 -0.5832 -2.1796
 8101SOL    HW235940   3.460   3.360   5.209  1.1601 -1.0445  0.2608
 8102SOL     OW35941   4.547   2.233   9.503 -0.2215 -0.1926  0.0182
 8102SOL    HW135942   4.477   2.298   9.509 -0.6421 -0.5966 -0.5466
 8102SOL    HW235943   4.584   2.242   9.415 -0.8577 -1.4044 -0.3687
 8103SOL     OW35944   1.479   3.119   6.286 -0.3818  0.0285  0.1962
 8103SOL    HW135945   1.393   3.102   6.247 -0.2069  0.4099 -0.3637
 8103SOL    HW235946   1.520   3.032   6.280  1.7400  0.9306  1.9719
 8104SOL     OW35947   3.542   0.847   9.933  0.2244 -0.3272  0.6789
 8104SOL    HW135948   3.601   0.779   9.965  0.0442 -0.5021  0.6425
 8104SOL    HW235949   3.510   0.808   9.851 -0.1097 -1.0141  1.1297
 8105SOL     OW35950   3.541   0.440   6.386 -0.7365  0.1222  0.3673
 8105SOL    HW135951   3.566   0.520   6.432 -0.7562 -1.9483  3.9335
 8105SOL    HW235952   3.516   0.379   6.455  0.0734  0.7564  1.2268
 8106SOL     OW35953   2.333   3.673   0.571 -0.1293  0.3924 -0.6530
 8106SOL    HW135954   2.379   3.620   0.637 -0.8987 -0.2744 -0.6544
 8106SOL    HW235955   2.244   3.667   0.606  0.7957  0.1623  1.6905
 8107SOL     OW35956   3.793   3.306   4.479 -0.3391 -0.0222 -0.4077
 8107SOL    HW135957   3.823   3.313   4.570  1.1521 -1.7041 -0.7618
 8107SOL    HW235958   3.725   3.372   4.474 -0.5870 -0.2413  0.0301
 8108SOL     OW35959   2.607   2.773   3.941  0.0071  0.2495 -0.3549
 8108SOL    HW135960   2.592   2.784   3.847  0.1596 -1.0336 -0.5275
 8108SOL    HW235961   2.567   2.689   3.962  0.2105  0.5437  1.2760
 8109SOL     OW35962   4.291   3.635   7.380 -0.1331  0.1416  0.4863
 8109SOL    HW135963   4.357   3.653   7.313 -0.1803 -2.1160 -0.1839
 8109SOL    HW235964   4.344   3.619   7.458  1.9223 -0.3555 -1.0006
 8110SOL     OW35965   2.865   4.223  11.666  0.2884 -0.2377 -0.2634
 8110SOL    HW135966   2.890   4.208  11.757  0.8829  0.1890 -0.3572
 8110SOL    HW235967   2.945   4.197  11.621  0.6397  0.3168  0.0466
 8111SOL     OW35968   3.048   1.050   5.852  0.2616  1.2280  0.0522
 8111SOL    HW135969   3.106   0.976   5.835 -1.1530  0.5138 -1.7102
 8111SOL    HW235970   3.088   1.087   5.930 -0.3881 -1.8915  1.8538
 8112SOL     OW35971   1.891   0.956   3.126 -0.2273 -0.3794 -0.2322
 8112SOL    HW135972   1.821   0.958   3.061  0.7387 -0.0693 -1.2500
 8112SOL    HW235973   1.848   0.902   3.193 -0.4077 -0.1377 -0.1534
 8113SOL     OW35974   1.528   0.432   3.298 -0.5475  0.1903 -0.2040
 8113SOL    HW135975   1.534   0.524   3.272 -2.4378 -0.0253 -1.3742
 8113SOL    HW235976   1.433   0.421   3.306 -0.4521 -0.2126  0.3906
 8114SOL     OW35977   0.595   0.104   1.829 -0.2885 -0.2233  0.7651
 8114SOL    HW135978   0.608   0.184   1.881 -1.3129  2.1587 -2.6453
 8114SOL    HW235979   0.668   0.058   1.869  0.2499  0.3842  0.4744
 8115SOL     OW35980   3.001   2.604  11.626  0.2220  0.1802 -0.4104
 8115SOL    HW135981   2.923   2.613  11.682  0.6402  1.2896 -0.0081
 8115SOL    HW235982   2.961   2.593  11.539 -0.8383 -0.9195  0.2196
 8116SOL     OW35983   3.499   1.312   3.445  1.0407  0.4350  0.2436
 8116SOL    HW135984   3.558   1.236   3.448  1.9791  1.0704 -1.7892
 8116SOL    HW235985   3.427   1.275   3.495  1.1531 -0.6051 -0.3545
 8117SOL     OW35986   0.237   3.319   5.777  0.0548  0.6367  0.7507
 8117SOL    HW135987   0.156   3.330   5.826 -0.8284 -1.0991 -0.3142
 8117SOL    HW235988   0.250   3.224   5.778 -1.3715  0.4211 -0.3379
 8118SOL     OW35989   1.677   4.325  12.781  0.5275  0.4594  0.2888
 8118SOL    HW135990   1.685   4.236  12.815 -0.7566  0.0563 -0.4624
 8118SOL    HW235991   1.696   4.295  12.692  0.7560  0.6703  0.2662
 8119SOL     OW35992   2.958   1.422   5.675  0.2752 -0.2063  0.4122
 8119SOL    HW135993   2.913   1.504   5.655  1.9523  0.9377  1.3275
 8119SOL    HW235994   2.922   1.411   5.763  2.7719 -0.1161  1.4342
 8120SOL     OW35995   4.454   2.386   3.953 -0.2379 -0.4364 -0.9317
 8120SOL    HW135996   4.427   2.353   4.039 -1.8852 -0.4441 -1.4666
 8120SOL    HW235997   4.382   2.438   3.917 -0.8652 -0.3127  0.5165
 8121SOL     OW35998   2.202   2.810   8.503  0.1675 -0.0728 -0.0365
 8121SOL    HW135999   2.288   2.836   8.470  0.3676  1.9535  1.9951
 8121SOL    HW236000   2.173   2.744   8.441 -1.9756  2.3040 -1.5897
 8122SOL     OW36001   0.047   0.681   6.121  0.0317  0.1807  0.0004
 8122SOL    HW136002   4.712   0.694   6.060 -0.4770  1.4575  0.8747
 8122SOL    HW236003   0.017   0.595   6.151 -0.5817 -0.3624 -2.1602
 8123SOL     OW36004   1.323   4.022   5.928  0.0181  0.3114 -0.5842
 8123SOL    HW136005   1.400   3.990   5.975  1.0153  0.6407 -1.9756
 8123SOL    HW236006   1.282   4.077   5.994 -0.3553  0.4836 -0.9568
 8124SOL     OW36007   4.391   3.761   9.066  0.2710  0.2796 -0.0772
 8124SOL    HW136008   4.355   3.744   8.979 -0.3422 -1.0231  0.4285
 8124SOL    HW236009   4.386   3.857   9.061  1.7619  0.4317  1.5286
 8125SOL     OW36010   3.761   0.941  10.567  0.2696 -0.4086  0.2992
 8125SOL    HW136011   3.763   1.034  10.589 -0.3122 -0.8124  2.0205
 8125SOL    HW236012   3.845   0.941  10.521  0.0587 -2.3877 -0.1100
 8126SOL     OW36013   0.418   1.521  11.263 -0.1908  0.1137  0.4020
 8126SOL    HW136014   0.404   1.601  11.314  1.2631 -0.2596  1.3766
 8126SOL    HW236015   0.452   1.467  11.334  0.6222 -0.6271 -0.5417
 8127SOL     OW36016   4.166   0.390   0.228 -0.1332  0.0629 -0.4546
 8127SOL    HW136017   4.175   0.442   0.307  1.0388  0.6230 -0.9602
 8127SOL    HW236018   4.150   0.308   0.275  0.4783  0.0753 -0.2230
 8128SOL     OW36019   1.532   1.669   9.605 -0.3810 -0.2868 -0.0606
 8128SOL    HW136020   1.604   1.612   9.632 -2.6541 -2.1566  2.0488
 8128SOL    HW236021   1.553   1.736   9.670 -1.1353 -0.9585  0.8896
 8129SOL     OW36022   3.858   0.215   1.422 -0.1687 -0.1133 -0.4617
 8129SOL    HW136023   3.844   0.296   1.373  0.3124 -0.9669 -2.0233
 8129SOL    HW236024   3.954   0.212   1.422 -0.2124 -1.5887 -1.6798
 8130SOL     OW36025   3.868   2.163   6.208 -0.1563  0.4660  0.1334
 8130SOL    HW136026   3.963   2.156   6.214 -0.0474 -0.3837 -2.7028
 8130SOL    HW236027   3.850   2.252   6.178 -2.7418  0.0624  0.4764
 8131SOL     OW36028   0.422   1.410   4.832 -0.1977 -0.3284  0.8382
 8131SOL    HW136029   0.447   1.347   4.899  0.9119  0.9667  1.6604
 8131SOL    HW236030   0.360   1.458   4.887  1.6372  0.0534  2.5971
 8132SOL     OW36031   4.117   0.285   8.633  0.1864  0.0761 -0.4704
 8132SOL    HW136032   4.023   0.270   8.630  0.0695  0.9786 -1.5404
 8132SOL    HW236033   4.123   0.349   8.703  3.6000  0.7395 -1.3395
 8133SOL     OW36034   3.681   2.110  10.977 -0.3564 -0.1271  0.1170
 8133SOL    HW136035   3.610   2.151  10.928 -0.8386  0.4545  1.2869
 8133SOL    HW236036   3.638   2.035  11.018 -0.3186  0.5868  1.4877
 8134SOL     OW36037   4.047   0.844   3.056 -0.3521 -0.2300 -0.5398
 8134SOL    HW136038   4.010   0.782   3.119 -0.9149  1.7790  1.1065
 8134SOL    HW236039   4.113   0.894   3.105  0.6730  0.8530 -3.0551
 8135SOL     OW36040   0.768   0.762   5.092  0.1202  0.4159 -0.1378
 8135SOL    HW136041   0.680   0.724   5.092  0.3185 -0.0356  1.2651
 8135SOL    HW236042   0.801   0.742   5.179  0.9020  0.3515 -0.4479
 8136SOL     OW36043   4.584   2.715   4.525 -0.5592 -0.0551 -1.0879
 8136SOL    HW136044   4.644   2.774   4.570 -1.0363  0.0225 -0.5696
 8136SOL    HW236045   4.636   2.687   4.449  0.6163 -1.2708  0.1668
 8137SOL     OW36046   4.091   1.729   7.824  0.0074 -0.6370 -0.6148
 8137SOL    HW136047   4.024   1.781   7.780  0.1653 -0.1024 -0.2183
 8137SOL    HW236048   4.058   1.719   7.914  1.2888  2.7511  0.2052
 8138SOL     OW36049   2.554   4.436  12.984 -0.3182 -0.1207 -0.0704
 8138SOL    HW136050   2.630   4.380  12.965 -0.6529 -0.1247 -1.3671
 8138SOL    HW236051   2.596   4.509  13.030 -2.0224 -0.6680  2.3789
 8139SOL     OW36052   3.183   4.325   4.611 -0.5707  0.1547 -0.2229
 8139SOL    HW136053   3.095   4.338   4.648  0.4519  0.3322  2.1074
 8139SOL    HW236054   3.167   4.398   4.551 -1.8109 -1.6007 -2.0472
 8140SOL     OW36055   2.561   4.440  17.659 -0.6211  0.6325  0.2538
 8140SOL    HW136056   2.537   4.413  17.748 -2.9604  0.6504 -0.3540
 8140SOL    HW236057   2.489   4.393  17.616 -0.7317  0.9112  0.1356
 8141SOL     OW36058   0.760   4.494   5.778 -0.4310 -0.1097  0.1731
 8141SOL    HW136059   0.825   4.530   5.838  0.2066 -0.5142 -0.2715
 8141SOL    HW236060   0.750   4.574   5.725 -0.7488  0.9822  1.8824
 8142SOL     OW36061   2.127   3.304   2.253  0.3133 -0.5848 -0.0120
 8142SOL    HW136062   2.095   3.214   2.243  3.4398 -1.4502 -2.2934
 8142SOL    HW236063   2.188   3.289   2.324 -1.3064 -0.8721  1.3269
 8143SOL     OW36064   0.484   4.338   2.457 -1.0447 -0.2033 -0.4879
 8143SOL    HW136065   0.498   4.405   2.524  0.2019  0.0388 -1.0045
 8143SOL    HW236066   0.575   4.312   2.442 -0.2379  1.0776  2.1296
 8144SOL     OW36067   2.974   4.193   0.139  0.2924  0.0769  0.4668
 8144SOL    HW136068   2.896   4.162   0.093 -0.2908 -0.0129  1.5107
 8144SOL    HW236069   2.962   4.160   0.229  0.7361  0.1541  0.5549
 8145SOL     OW36070   1.912   2.627  14.637 -0.2117  0.2168  0.0959
 8145SOL    HW136071   1.971   2.673  14.577 -0.1585 -0.2319 -0.1959
 8145SOL    HW236072   1.907   2.536  14.606  0.5699  0.3797 -0.5091
 8146SOL     OW36073   2.198   0.482   8.380  0.4185  0.0772 -0.2864
 8146SOL    HW136074   2.274   0.425   8.394 -0.3512 -1.0716 -0.8137
 8146SOL    HW236075   2.235   0.561   8.339 -0.3914 -0.9410 -2.9822
 8147SOL     OW36076   3.462   1.821  17.022 -0.2445  0.0322  0.4581
 8147SOL    HW136077   3.410   1.741  17.022 -1.4992  0.8434  0.6788
 8147SOL    HW236078   3.522   1.796  16.952 -0.3551 -1.7906  1.0253
 8148SOL     OW36079   3.108   0.330   8.446 -0.1416  0.0335  0.2110
 8148SOL    HW136080   3.119   0.355   8.538 -0.3869  0.2871  0.1681
 8148SOL    HW236081   3.093   0.415   8.405  1.0518 -0.6253 -1.6011
 8149SOL     OW36082   3.183   4.294  16.916  0.1089 -0.2153  0.0262
 8149SOL    HW136083   3.101   4.339  16.894 -0.9358 -1.0185  2.2719
 8149SOL    HW236084   3.159   4.201  16.920 -0.9768  0.2848  4.8935
 8150SOL     OW36085   4.578   0.631  17.550 -0.5664 -0.2177  0.2334
 8150SOL    HW136086   4.597   0.660  17.461 -1.0723  0.0552  0.2107
 8150SOL    HW236087   4.646   0.677  17.599 -0.6017  0.4755 -0.3716
 8151SOL     OW36088   3.289   0.160   2.501 -0.2778  0.1562 -0.2264
 8151SOL    HW136089   3.246   0.076   2.487 -2.0999  1.0243  0.2411
 8151SOL    HW236090   3.299   0.175   2.595  0.6590 -2.3401  0.0796
 8152SOL     OW36091   3.676   4.488   0.580  0.2215 -0.6793  0.1061
 8152SOL    HW136092   3.650   4.552   0.513  2.5312  0.0264 -0.1223
 8152SOL    HW236093   3.592   4.447   0.600 -1.2379  2.4693  0.5778
 8153SOL     OW36094   2.614   2.430   0.750 -0.2002  0.2851 -0.5866
 8153SOL    HW136095   2.576   2.363   0.808 -2.2266  2.6007  0.8108
 8153SOL    HW236096   2.539   2.469   0.705 -0.0048  0.0554 -1.1034
 8154SOL     OW36097   1.020   0.045   4.449  0.3982  0.4718  0.4681
 8154SOL    HW136098   0.988   4.702   4.408  0.1917  0.5878  0.4041
 8154SOL    HW236099   1.016   0.107   4.376 -2.7642  1.0643  1.1336
 8155SOL     OW36100   3.986   0.044   2.243 -0.5207  0.1876 -0.1625
 8155SOL    HW136101   3.950   0.017   2.159 -0.4564  0.4484 -0.2728
 8155SOL    HW236102   3.904   0.076   2.279 -0.5144 -0.3113  0.3024
 8156SOL     OW36103   0.228   1.485   3.184 -0.6952  0.4467  0.5684
 8156SOL    HW136104   0.184   1.405   3.212  0.5226 -0.5186 -0.2490
 8156SOL    HW236105   0.282   1.495   3.263 -0.7882  0.3513  0.6438
 8157SOL     OW36106   4.129   2.845   9.798  0.0854 -0.2775  0.2205
 8157SOL    HW136107   4.041   2.807   9.800  0.7480 -1.7451  0.8666
 8157SOL    HW236108   4.128   2.895   9.879 -0.9035  0.1975 -0.0809
 8158SOL     OW36109   2.163   1.945   5.827  0.2929  0.1173 -0.1157
 8158SOL    HW136110   2.218   1.970   5.901 -1.3743 -0.6504  1.3846
 8158SOL    HW236111   2.188   1.854   5.818  1.8880  0.4626  0.9686
 8159SOL     OW36112   0.901   1.912   4.452 -0.3001 -0.1001  0.3312
 8159SOL    HW136113   0.895   1.862   4.371 -2.1672  1.2151 -0.3533
 8159SOL    HW236114   0.860   1.848   4.510  3.3900  0.5802  3.6740
 8160SOL     OW36115   0.569   3.857   8.285 -0.5523 -0.0763 -0.5140
 8160SOL    HW136116   0.637   3.790   8.277  0.7618  0.8720  2.7704
 8160SOL    HW236117   0.482   3.817   8.273 -0.7488  0.4372 -0.8165
 8161SOL     OW36118   0.223   0.323  14.609  0.4647 -0.4570  0.4825
 8161SOL    HW136119   0.224   0.364  14.696  3.9827  0.9189 -0.1866
 8161SOL    HW236120   0.153   0.259  14.623  0.5854 -0.9550 -1.1476
 8162SOL     OW36121   3.578   2.909   4.579 -0.0903 -0.5914 -0.4833
 8162SOL    HW136122   3.607   2.881   4.492  1.7525 -0.4178  0.0728
 8162SOL    HW236123   3.629   2.849   4.635 -2.1740 -2.2533 -0.3628
 8163SOL     OW36124   0.446   4.491   5.987  0.1749 -0.4160 -0.4364
 8163SOL    HW136125   0.458   4.433   5.912 -0.1229 -0.0648 -0.7508
 8163SOL    HW236126   0.517   4.461   6.044 -1.0263  0.0524  1.3126
 8164SOL     OW36127   1.572   0.710   2.372  0.2409  0.0237  0.1348
 8164SOL    HW136128   1.654   0.747   2.340  1.0476 -3.4950 -1.7837
 8164SOL    HW236129   1.511   0.783   2.356 -0.3532 -0.5780 -0.3400
 8165SOL     OW36130   2.103   2.986   7.567 -0.6778 -0.2250  0.6480
 8165SOL    HW136131   2.063   3.010   7.483  1.2206  2.2281  0.4257
 8165SOL    HW236132   2.165   2.922   7.532 -0.3330  0.3378  0.2324
 8166SOL     OW36133   1.506   2.080  14.085  0.9697  0.0825 -0.3862
 8166SOL    HW136134   1.479   2.164  14.122  2.3904 -1.2661  3.6993
 8166SOL    HW236135   1.554   2.102  14.005  0.4434 -0.4214 -0.8410
 8167SOL     OW36136   1.085   3.467  15.800  0.2191  0.4068  0.1461
 8167SOL    HW136137   1.161   3.442  15.748  1.8833  2.2557  1.6785
 8167SOL    HW236138   1.077   3.389  15.856  1.3522 -0.8812 -1.4577
 8168SOL     OW36139   4.195   0.151   4.041 -0.4894 -0.0001 -0.3495
 8168SOL    HW136140   4.107   0.170   4.071 -1.1976  0.0204 -2.4040
 8168SOL    HW236141   4.231   0.093   4.107  2.2931  0.0271 -1.8315
 8169SOL     OW36142   3.341   0.909   8.218 -0.0306  0.9973 -0.1047
 8169SOL    HW136143   3.362   0.815   8.216  0.4020  1.1419 -2.3440
 8169SOL    HW236144   3.249   0.886   8.205  0.1799  0.3384 -0.4463
 8170SOL     OW36145   0.126   4.079   3.913 -0.1769 -0.1603  0.1436
 8170SOL    HW136146   0.150   4.005   3.856 -0.4961 -0.1945  0.0543
 8170SOL    HW236147   0.216   4.097   3.941 -0.4268  0.9904  0.1770
 8171SOL     OW36148   4.004   0.649   0.232 -0.6823 -0.0781 -0.1209
 8171SOL    HW136149   4.062   0.721   0.208  0.7635 -1.8725 -2.0425
 8171SOL    HW236150   4.057   0.570   0.242 -0.6140  0.0088  0.2154
 8172SOL     OW36151   1.381   1.667  14.950 -0.5556 -0.4116 -0.7804
 8172SOL    HW136152   1.320   1.619  15.006  0.8118  0.9674  1.8951
 8172SOL    HW236153   1.460   1.612  14.955 -0.1883  0.2273  0.3334
 8173SOL     OW36154   1.400   0.098   8.283 -0.1664 -0.3851 -0.0151
 8173SOL    HW136155   1.406   0.065   8.194  3.3628  1.8688 -0.6188
 8173SOL    HW236156   1.327   0.044   8.316 -0.9952 -0.1168 -1.4284
 8174SOL     OW36157   2.602   3.723   9.428 -0.1098  0.0553  0.2397
 8174SOL    HW136158   2.553   3.776   9.491 -1.1820  1.4408 -1.7600
 8174SOL    HW236159   2.639   3.794   9.375 -1.3316  1.1477  0.8269
 8175SOL     OW36160   0.198   3.591   5.359  0.0638  0.1238  0.1112
 8175SOL    HW136161   0.236   3.631   5.437  0.3930 -0.6067  0.3242
 8175SOL    HW236162   0.122   3.649   5.350  0.5826  0.7442 -0.2782
 8176SOL     OW36163   4.443   0.100   4.467 -0.3894 -0.1798  0.4094
 8176SOL    HW136164   4.532   0.070   4.483  0.3877  2.6588  1.5199
 8176SOL    HW236165   4.416   0.118   4.558 -0.1274 -0.5250  0.5523
 8177SOL     OW36166   4.127   1.350   3.330  0.2837  0.0547 -0.2464
 8177SOL    HW136167   4.081   1.429   3.302  2.2681  1.1555 -0.3744
 8177SOL    HW236168   4.179   1.348   3.250  1.0141  2.3758  0.1656
 8178SOL     OW36169   0.010   3.343   5.904  0.1630 -0.6787 -0.1189
 8178SOL    HW136170   0.061   3.320   5.982 -0.9863 -1.1716  0.4869
 8178SOL    HW236171   4.660   3.367   5.936  1.6793  2.0045  2.0273
 8179SOL     OW36172   0.847   1.646   8.362  0.4117 -0.6189 -0.3745
 8179SOL    HW136173   0.767   1.699   8.362  1.2443  0.6491 -4.6365
 8179SOL    HW236174   0.832   1.577   8.426 -1.3087  1.2606  1.2644
 8180SOL     OW36175   4.345   0.025  15.013  0.2373 -0.3143 -0.0405
 8180SOL    HW136176   4.302   4.731  14.934  0.9141  0.7843 -0.8386
 8180SOL    HW236177   4.276   0.067  15.064  0.7215 -0.2083  0.5328
 8181SOL     OW36178   3.355   2.120   9.817  0.5068 -0.4777 -0.4082
 8181SOL    HW136179   3.448   2.114   9.795  0.7024  2.6080 -0.4937
 8181SOL    HW236180   3.366   2.147   9.908  2.5320 -1.9256 -0.2314
 8182SOL     OW36181   1.671   3.385   1.959 -0.3082 -0.0514  0.4348
 8182SOL    HW136182   1.736   3.395   2.028  1.2492 -0.5834 -0.9449
 8182SOL    HW236183   1.619   3.463   1.975  0.7428  0.7633 -0.1521
 8183SOL     OW36184   0.858   2.789   3.382 -0.3680  0.3847 -0.0182
 8183SOL    HW136185   0.934   2.746   3.419 -1.1661  0.5212  1.7935
 8183SOL    HW236186   0.793   2.723   3.409  0.2671 -0.3162 -0.2186
 8184SOL     OW36187   1.006   3.231   1.442  0.3836  0.6572 -0.0673
 8184SOL    HW136188   0.942   3.270   1.502  0.0640  0.9528 -0.5985
 8184SOL    HW236189   1.056   3.166   1.490  1.6034  0.6668 -1.3116
 8185SOL     OW36190   1.114   1.694  13.485 -0.1529 -0.5390 -0.2622
 8185SOL    HW136191   1.054   1.733  13.548 -1.1873  1.6702 -2.6075
 8185SOL    HW236192   1.091   1.605  13.508 -2.4398  0.6084  1.8407
 8186SOL     OW36193   2.920   1.432   7.955 -0.1061  0.3276 -0.5663
 8186SOL    HW136194   2.992   1.375   7.927 -2.2967 -1.8868 -1.8229
 8186SOL    HW236195   2.850   1.370   7.976  0.0372  0.1177 -0.7012
 8187SOL     OW36196   2.893   3.574   6.631 -0.4402  0.0117 -0.3433
 8187SOL    HW136197   2.828   3.526   6.682 -0.0930  1.5726  1.5352
 8187SOL    HW236198   2.893   3.534   6.544  1.1344 -2.2713  0.6777
 8188SOL     OW36199   3.286   4.436   8.281  0.4437 -0.2565  0.3754
 8188SOL    HW136200   3.207   4.490   8.271  1.1084  0.7107  0.3685
 8188SOL    HW236201   3.280   4.379   8.204 -0.4774 -0.7895  0.8307
 8189SOL     OW36202   3.369   2.353  14.276 -0.3159  0.0583  0.8745
 8189SOL    HW136203   3.428   2.355  14.200 -1.7929 -0.6857 -0.2883
 8189SOL    HW236204   3.314   2.280  14.247 -0.4760  0.7330 -0.5189
 8190SOL     OW36205   2.230   0.104   6.640  0.2472  0.0796 -0.5543
 8190SOL    HW136206   2.156   0.164   6.656  0.3963 -0.4837  2.2901
 8190SOL    HW236207   2.280   0.115   6.721 -2.0265  1.8828  0.6256
 8191SOL     OW36208   1.353   0.042   2.353  0.1250  0.2018 -0.1478
 8191SOL    HW136209   1.304   0.088   2.285 -0.6602  1.0601  0.9938
 8191SOL    HW236210   1.329   4.690   2.330  3.7010 -0.6347 -0.5439
 8192SOL     OW36211   3.402   4.367  17.062 -0.5890  0.2449  0.1035
 8192SOL    HW136212   3.398   4.437  17.127 -0.6263 -1.3020  1.7518
 8192SOL    HW236213   3.321   4.379  17.013 -0.5804  0.8736  0.2397
 8193SOL     OW36214   3.488   3.195   7.266  0.3605 -0.0203  0.5731
 8193SOL    HW136215   3.416   3.255   7.282  1.2154  1.3400 -0.7060
 8193SOL    HW236216   3.462   3.167   7.178  0.4873  2.6407 -0.2907
 8194SOL     OW36217   3.939   0.423   3.111 -0.0726  0.6438 -0.2077
 8194SOL    HW136218   4.012   0.468   3.069 -0.3995  2.3017  0.9756
 8194SOL    HW236219   3.910   0.370   3.037  2.6968  1.0008 -1.5277
 8195SOL     OW36220   2.979   2.623   3.677 -0.0486 -0.3385 -0.5685
 8195SOL    HW136221   3.009   2.581   3.758  0.6381 -0.2398 -0.7708
 8195SOL    HW236222   3.058   2.609   3.625  0.2936  1.1535 -0.4528
 8196SOL     OW36223   1.759   2.753   4.958  0.3245 -0.6916  0.8196
 8196SOL    HW136224   1.690   2.765   4.892 -1.2575 -1.5732  2.3225
 8196SOL    HW236225   1.716   2.676   4.995  0.8635 -0.9968  0.8015
 8197SOL     OW36226   1.672   0.330   6.089  0.0708  0.9770  0.2960
 8197SOL    HW136227   1.759   0.370   6.078  1.3859 -2.2511 -1.0516
 8197SOL    HW236228   1.689   0.239   6.112 -1.3937  0.4165 -0.8513
 8198SOL     OW36229   1.107   1.867   1.893  0.0359  0.6283 -0.4951
 8198SOL    HW136230   1.171   1.823   1.948 -0.9837  0.1872  0.3302
 8198SOL    HW236231   1.130   1.956   1.920 -1.8577  1.5511 -1.8949
 8199SOL     OW36232   4.329   0.979   3.875 -0.4460 -0.6272 -0.0034
 8199SOL    HW136233   4.255   1.031   3.844 -3.0813 -3.5688  1.2815
 8199SOL    HW236234   4.328   0.926   3.795 -1.3923 -1.0219  0.2640
 8200SOL     OW36235   1.219   0.732   7.914 -0.3233 -0.1183 -0.6370
 8200SOL    HW136236   1.313   0.749   7.924 -0.5447  0.9436 -0.3270
 8200SOL    HW236237   1.209   0.688   7.830  0.3186  0.6049 -1.0884
 8201SOL     OW36238   3.089   4.430   3.174 -0.3011  0.0025 -0.0187
 8201SOL    HW136239   3.147   4.436   3.098 -0.5428 -0.4501 -0.2425
 8201SOL    HW236240   3.099   4.336   3.191  0.0964 -0.5009 -2.9033
 8202SOL     OW36241   2.174   2.251   7.639 -0.1250 -0.2819 -0.1766
 8202SOL    HW136242   2.214   2.188   7.699 -0.9029  0.7575  1.4296
 8202SOL    HW236243   2.186   2.337   7.680 -0.5795 -0.0070 -0.6167
 8203SOL     OW36244   0.306   1.791  12.100 -0.2719 -0.3718 -0.0108
 8203SOL    HW136245   0.237   1.832  12.047 -2.0930 -1.5710  1.4546
 8203SOL    HW236246   0.285   1.698  12.093  2.9430 -1.1995  1.1771
 8204SOL     OW36247   4.510   1.502   4.785  0.5079  0.2580  0.2477
 8204SOL    HW136248   4.469   1.496   4.872 -0.5127  1.6614 -0.1475
 8204SOL    HW236249   4.592   1.452   4.790  0.3386 -0.0287  0.1250
 8205SOL     OW36250   2.474   2.426   9.582 -0.2393 -0.5321  0.0513
 8205SOL    HW136251   2.383   2.406   9.604 -0.5749  0.2445 -0.6370
 8205SOL    HW236252   2.502   2.467   9.664 -0.4585  0.5559 -0.4188
 8206SOL     OW36253   4.010   4.485  14.636  1.0894  0.3012  0.4835
 8206SOL    HW136254   4.027   4.563  14.583  1.1663 -2.0637 -2.9720
 8206SOL    HW236255   3.926   4.500  14.679  0.1452  0.6555 -1.5041
 8207SOL     OW36256   4.244   0.442   9.274  0.4354  0.0276  0.2061
 8207SOL    HW136257   4.161   0.466   9.234 -0.2020 -2.1848  0.2556
 8207SOL    HW236258   4.239   0.350   9.248  0.3902  0.1256 -0.1215
 8208SOL     OW36259   2.680   0.000  12.799 -0.9325 -0.3382 -0.0501
 8208SOL    HW136260   2.682   0.058  12.876 -0.4978  1.4913 -1.4186
 8208SOL    HW236261   2.630   4.665  12.837  0.0017 -1.2848 -0.6421
 8209SOL     OW36262   3.944   3.574  11.572 -0.5522  0.1501  0.0404
 8209SOL    HW136263   4.032   3.541  11.591  0.5136  2.8000 -0.1723
 8209SOL    HW236264   3.956   3.652  11.518 -0.7963  0.1739  0.0214
 8210SOL     OW36265   4.574   2.207   2.417 -0.0296  0.1918 -0.3032
 8210SOL    HW136266   4.653   2.260   2.411 -0.4895  0.9456  0.2361
 8210SOL    HW236267   4.543   2.230   2.505  1.6966 -0.1398  0.3928
 8211SOL     OW36268   0.106   0.813   4.653 -0.2860 -0.7962 -0.3300
 8211SOL    HW136269   0.079   0.738   4.599 -0.7953 -1.7388  1.2364
 8211SOL    HW236270   0.198   0.792   4.669 -0.3594  0.7698  2.0642
 8212SOL     OW36271   0.300   4.506   7.377  0.2735  0.7262 -0.3143
 8212SOL    HW136272   0.360   4.530   7.448  1.1769  0.7423 -1.0875
 8212SOL    HW236273   0.223   4.481   7.427  0.0651  0.2264 -0.8954
 8213SOL     OW36274   1.864   0.489   6.743  0.0503  0.4515 -0.1059
 8213SOL    HW136275   1.833   0.552   6.808 -1.4467  0.7665 -1.1110
 8213SOL    HW236276   1.796   0.422   6.758  1.2891 -1.1928 -1.8472
 8214SOL     OW36277   3.427   3.940   7.358  0.1117 -0.2924  0.1037
 8214SOL    HW136278   3.366   3.912   7.290  1.6040 -1.2068 -0.8376
 8214SOL    HW236279   3.371   3.944   7.436 -0.6704 -1.4652 -0.3977
 8215SOL     OW36280   2.862   1.701   7.664 -0.0844  0.5872 -0.2241
 8215SOL    HW136281   2.854   1.682   7.758  2.7191  1.2989  0.1860
 8215SOL    HW236282   2.868   1.796   7.669  2.1830  0.4164  0.6492
 8216SOL     OW36283   0.754   1.400   5.370  0.0950 -0.3899 -0.0179
 8216SOL    HW136284   0.668   1.421   5.333  0.8146  0.9278 -0.9497
 8216SOL    HW236285   0.750   1.452   5.450 -0.6607 -3.0647  1.6948
 8217SOL     OW36286   0.200   4.273   7.140 -0.7895  0.6044  0.2144
 8217SOL    HW136287   0.242   4.345   7.093 -1.0227  0.8022  0.3107
 8217SOL    HW236288   0.116   4.306   7.172 -0.5986 -0.5547  1.9735
 8218SOL     OW36289   1.840   3.449   4.371 -0.1380  0.2789  0.4261
 8218SOL    HW136290   1.778   3.429   4.300 -0.1217  0.8549  0.2525
 8218SOL    HW236291   1.918   3.441   4.316  0.6727 -1.6108  1.8568
 8219SOL     OW36292   4.690   2.516   7.035 -0.3028 -0.3785  0.0584
 8219SOL    HW136293   4.626   2.490   6.969  2.4043 -2.0431 -1.8625
 8219SOL    HW236294   0.032   2.517   6.982 -0.2443  2.8733  0.2129
 8220SOL     OW36295   2.023   3.088   7.870  0.1616 -0.3160 -0.2173
 8220SOL    HW136296   2.081   3.042   7.809  1.0668 -0.2722  0.6073
 8220SOL    HW236297   1.950   3.114   7.814 -0.0401 -0.0515  0.1708
 8221SOL     OW36298   2.047   4.441  11.017  0.0517 -0.0208  0.6302
 8221SOL    HW136299   1.989   4.514  11.036 -2.8659 -1.7394 -1.6538
 8221SOL    HW236300   2.035   4.388  11.096 -3.1780 -1.3570 -0.7487
 8222SOL     OW36301   1.679   1.819   3.644 -0.1569 -0.3915 -0.1855
 8222SOL    HW136302   1.716   1.759   3.709 -1.9208 -0.0847  1.1027
 8222SOL    HW236303   1.753   1.878   3.628  1.0591 -1.4184  1.6887
 8223SOL     OW36304   3.061   4.204  10.385 -0.1325 -0.3088 -0.0349
 8223SOL    HW136305   3.092   4.223  10.296  0.8218  0.4789  0.4798
 8223SOL    HW236306   3.104   4.268  10.441 -0.0295  1.1027 -1.7409
 8224SOL     OW36307   2.825   1.044   7.527  0.0682 -0.3862 -0.1041
 8224SOL    HW136308   2.763   1.004   7.588  3.3284 -1.1752  2.6908
 8224SOL    HW236309   2.805   0.994   7.448  1.0352  0.7832 -1.0777
 8225SOL     OW36310   0.977   4.290   3.255  0.1700 -0.2936  0.2616
 8225SOL    HW136311   1.044   4.302   3.323  0.7000 -0.2438 -0.2710
 8225SOL    HW236312   0.898   4.312   3.304 -0.4892 -1.7879 -0.1428
 8226SOL     OW36313   1.098   1.493   3.202 -0.2551  0.4833 -0.3979
 8226SOL    HW136314   1.119   1.577   3.245  1.4236  0.1481 -0.5648
 8226SOL    HW236315   1.168   1.439   3.239 -0.1903  0.7117 -0.1794
 8227SOL     OW36316   3.040   1.092   1.892  0.4093  0.1674  0.5419
 8227SOL    HW136317   3.115   1.112   1.835 -0.1252 -2.6676 -1.1982
 8227SOL    HW236318   3.080   1.118   1.975 -1.6396  0.6788  1.3511
 8228SOL     OW36319   3.818   3.362   3.778  0.1739  0.4824 -0.4453
 8228SOL    HW136320   3.877   3.307   3.726 -1.7086 -1.7850 -0.2174
 8228SOL    HW236321   3.886   3.426   3.798  0.4943  0.0327 -0.0923
 8229SOL     OW36322   4.310   2.652   7.385  0.0941  0.8726  0.3680
 8229SOL    HW136323   4.366   2.664   7.308  2.2026 -1.6746  1.5057
 8229SOL    HW236324   4.242   2.712   7.354  0.1221  1.6734  1.8363
 8230SOL     OW36325   2.009   2.354  13.330  0.4784 -0.0995  0.2076
 8230SOL    HW136326   1.957   2.434  13.335  3.6633  2.1025 -1.7622
 8230SOL    HW236327   2.083   2.390  13.379 -0.4601  1.7249  0.2957
 8231SOL     OW36328   2.634   3.836   1.983 -0.2559 -0.1240  0.0394
 8231SOL    HW136329   2.556   3.791   1.950 -0.0337 -0.8287  0.4792
 8231SOL    HW236330   2.624   3.821   2.077  0.9231  0.2546  0.2297
 8232SOL     OW36331   4.232   1.489  12.297 -0.1517 -0.3040  0.1712
 8232SOL    HW136332   4.304   1.470  12.237 -0.1401  2.1543 -0.6230
 8232SOL    HW236333   4.181   1.561  12.260 -0.5045 -0.1653  0.9131
 8233SOL     OW36334   1.771   4.675   7.506  0.1898  0.8546 -0.0853
 8233SOL    HW136335   1.727   0.012   7.547 -1.0084 -0.2759  0.6655
 8233SOL    HW236336   1.699   4.615   7.488  1.9498 -1.4961  0.6783
 8234SOL     OW36337   2.707   3.453   6.804  0.4671 -0.4108  0.2432
 8234SOL    HW136338   2.684   3.473   6.895 -3.1525 -0.2661 -0.7068
 8234SOL    HW236339   2.623   3.413   6.781 -0.6909  0.0732  3.5886
 8235SOL     OW36340   0.913   2.755   4.858  0.0558  0.2806  0.0049
 8235SOL    HW136341   0.965   2.794   4.928  0.4875  0.0939 -0.2157
 8235SOL    HW236342   0.841   2.716   4.908  0.3133 -0.4111 -0.1680
 8236SOL     OW36343   4.658   3.524   7.625 -0.9811 -0.6504  0.6175
 8236SOL    HW136344   4.680   3.564   7.709  1.6884 -1.5690  0.3487
 8236SOL    HW236345   4.563   3.515   7.634 -0.7047 -2.2315  1.9572
 8237SOL     OW36346   1.138   2.557   1.633 -0.3221 -0.1234 -0.6018
 8237SOL    HW136347   1.199   2.521   1.698  0.7219  2.7934  0.0190
 8237SOL    HW236348   1.199   2.616   1.588 -1.5492  1.2476 -0.4582
 8238SOL     OW36349   4.374   2.460  16.191  0.4762 -0.2919 -0.0269
 8238SOL    HW136350   4.454   2.496  16.152 -0.1498  0.2314 -0.8364
 8238SOL    HW236351   4.312   2.478  16.120 -0.8659  0.6491  1.3651
 8239SOL     OW36352   0.451   4.002   5.778  0.6156  0.0163  0.0123
 8239SOL    HW136353   0.507   3.963   5.712 -0.3023 -0.1360 -0.6778
 8239SOL    HW236354   0.501   3.969   5.853 -0.0206  1.6462  1.1806
 8240SOL     OW36355   0.830   4.235  15.608  0.8457  0.4264  0.1275
 8240SOL    HW136356   0.780   4.160  15.642  1.3414 -1.4421 -3.3334
 8240SOL    HW236357   0.757   4.296  15.594  0.9957  0.3344 -1.0364
 8241SOL     OW36358   1.203   0.035   1.929  0.2421  0.0741 -0.0863
 8241SOL    HW136359   1.247   0.073   2.005 -0.5543 -0.0162  0.4221
 8241SOL    HW236360   1.167   4.694   1.972 -0.0802  1.2451  1.7664
 8242SOL     OW36361   2.719   3.049   3.247  0.0880 -0.3774  0.3959
 8242SOL    HW136362   2.779   3.072   3.318  0.0894  2.5886 -0.5609
 8242SOL    HW236363   2.677   2.968   3.273 -0.2532 -0.1236  0.6308
 8243SOL     OW36364   1.833   2.012   8.456 -0.5013  0.2870 -0.8400
 8243SOL    HW136365   1.898   1.981   8.519 -1.7408 -1.8124 -0.5832
 8243SOL    HW236366   1.842   2.107   8.445 -1.3877  0.4244 -0.4152
 8244SOL     OW36367   2.667   3.599  16.607  0.0525 -0.1827 -0.0120
 8244SOL    HW136368   2.724   3.548  16.664 -1.0701 -1.1144  0.2900
 8244SOL    HW236369   2.586   3.548  16.616 -0.9045  1.0266 -1.7282
 8245SOL     OW36370   4.612   3.087  11.000 -0.5515 -0.1225  0.0354
 8245SOL    HW136371   4.630   3.097  10.907  0.1443 -0.3450  0.1443
 8245SOL    HW236372   4.679   3.144  11.037  1.2781 -0.8406 -2.1790
 8246SOL     OW36373   1.191   4.652   8.336  0.2355  0.2599 -0.3482
 8246SOL    HW136374   1.168   4.568   8.297  0.2374  1.2373 -2.4084
 8246SOL    HW236375   1.230   4.625   8.419 -1.2261 -1.1813 -0.1389
 8247SOL     OW36376   1.110   1.429   4.303 -0.0128 -0.2266  0.2386
 8247SOL    HW136377   1.112   1.342   4.262  0.5142 -0.6852  1.2262
 8247SOL    HW236378   1.173   1.474   4.248  1.0067  0.2478  1.7943
 8248SOL     OW36379   0.511   4.096   7.491 -0.5058  0.0636  0.0520
 8248SOL    HW136380   0.456   4.032   7.536  0.0633 -0.5448 -0.1329
 8248SOL    HW236381   0.526   4.053   7.407 -1.0670  1.7768 -0.9318
 8249SOL     OW36382   0.333   2.367   3.133  0.0884  0.0757 -0.0912
 8249SOL    HW136383   0.257   2.380   3.191 -1.4814  2.7823 -2.7532
 8249SOL    HW236384   0.293   2.299   3.078 -1.6952  1.0471  0.0115
 8250SOL     OW36385   1.589   4.736  15.585  0.0675 -0.5912 -0.6233
 8250SOL    HW136386   1.585   0.076  15.529  1.2228  0.8737  1.2997
 8250SOL    HW236387   1.505   4.690  15.585 -0.0283 -0.4348  1.4061
 8251SOL     OW36388   0.497   2.876   2.620  0.4029 -0.4256 -0.4970
 8251SOL    HW136389   0.458   2.911   2.540 -0.9540 -1.6071 -0.3596
 8251SOL    HW236390   0.571   2.824   2.590  1.3414 -0.6079  2.1304
 8252SOL     OW36391   0.956   0.331   4.377 -0.6125 -0.3969 -0.0050
 8252SOL    HW136392   0.920   0.267   4.316 -1.4101 -0.7791  0.8692
 8252SOL    HW236393   1.048   0.334   4.353 -0.2570 -1.1051  1.2798
 8253SOL     OW36394   1.592   4.293   2.750  0.5730 -0.2597 -0.1243
 8253SOL    HW136395   1.594   4.304   2.655  0.2844 -0.3668 -0.1405
 8253SOL    HW236396   1.596   4.387   2.769  2.0093 -0.7355  1.9471
 8254SOL     OW36397   2.250   2.829   9.622  0.1222 -0.5233 -1.0616
 8254SOL    HW136398   2.297   2.772   9.682 -0.3803  0.5186  0.3205
 8254SOL    HW236399   2.272   2.799   9.534 -0.1664  0.2789 -1.4120
 8255SOL     OW36400   0.722   1.880   2.500  0.5023  0.1983  0.6320
 8255SOL    HW136401   0.743   1.790   2.523 -1.0721 -0.6814 -1.4229
 8255SOL    HW236402   0.752   1.888   2.409 -2.5499  2.3792 -0.1888
 8256SOL     OW36403   1.948   0.349   8.377  0.0008  0.2894  0.8618
 8256SOL    HW136404   2.039   0.369   8.397  0.1500  0.8620 -0.4129
 8256SOL    HW236405   1.922   0.308   8.460 -0.2538 -2.9761 -0.8723
 8257SOL     OW36406   3.053   3.720   1.410  0.2695 -0.3693 -0.6261
 8257SOL    HW136407   3.007   3.703   1.327  0.6021  0.5584 -0.9957
 8257SOL    HW236408   3.115   3.790   1.388 -0.2813  0.3004 -0.0460
 8258SOL     OW36409   1.203   0.881   5.193  0.4880  0.1472 -0.8750
 8258SOL    HW136410   1.162   0.893   5.107  2.1524  0.6978 -1.6035
 8258SOL    HW236411   1.154   0.942   5.248  1.8878  1.5145 -1.1244
 8259SOL     OW36412   0.022   3.933   2.026  0.1293 -0.0178  0.2862
 8259SOL    HW136413   0.005   3.967   1.939 -0.9986 -0.3313  0.3798
 8259SOL    HW236414   4.728   3.850   1.991  2.5855 -0.5825 -0.5444
 8260SOL     OW36415   2.605   0.861  14.406  0.2869  0.4627  0.2565
 8260SOL    HW136416   2.600   0.899  14.318  1.3854  2.6423  1.1103
 8260SOL    HW236417   2.628   0.774  14.374 -1.0495  0.4644 -0.7040
 8261SOL     OW36418   4.264   4.186   4.349  0.5876 -0.5003 -0.2098
 8261SOL    HW136419   4.311   4.120   4.400  1.8570  0.2841 -0.3685
 8261SOL    HW236420   4.232   4.244   4.418  1.8941  0.5408 -0.4737
 8262SOL     OW36421   3.991   1.238  10.344  0.3696  0.1373  0.6145
 8262SOL    HW136422   3.962   1.329  10.338 -1.9647 -0.6434 -0.0912
 8262SOL    HW236423   4.070   1.244  10.397 -0.5554  1.6423  1.8367
 8263SOL     OW36424   4.071   0.489  14.570 -0.2987  0.0018 -0.1728
 8263SOL    HW136425   3.986   0.461  14.605  0.6853 -2.0071  0.6306
 8263SOL    HW236426   4.039   0.547  14.501  1.5829 -0.2675 -1.2789
 8264SOL     OW36427   2.298   0.465   4.876  0.2663 -0.4117 -0.1162
 8264SOL    HW136428   2.342   0.538   4.920  0.2581  0.1701 -1.0690
 8264SOL    HW236429   2.301   0.390   4.935 -0.1998 -0.3940 -0.0717
 8265SOL     OW36430   2.864   1.413   5.996  0.3595 -0.1645  0.1851
 8265SOL    HW136431   2.770   1.400   6.009  0.2243 -0.8494 -1.5073
 8265SOL    HW236432   2.900   1.331   6.031  0.9506 -0.1753 -0.4638
 8266SOL     OW36433   1.982   2.695   2.533  0.4914  0.1041  0.8268
 8266SOL    HW136434   1.892   2.692   2.565 -0.1063  0.5836 -0.8254
 8266SOL    HW236435   2.001   2.601   2.521 -0.6422  0.1689 -1.5058
 8267SOL     OW36436   3.263   0.494  17.542  0.7137  0.0444  0.0932
 8267SOL    HW136437   3.319   0.504  17.619 -1.2126  2.3201  1.1974
 8267SOL    HW236438   3.261   0.582  17.504 -1.3352 -0.6281 -1.3456
 8268SOL     OW36439   1.136   3.351   7.610  0.5952 -0.1275 -0.8521
 8268SOL    HW136440   1.181   3.268   7.624  0.3261 -0.2166 -0.4909
 8268SOL    HW236441   1.186   3.392   7.540  1.0353  0.1760 -0.3590
 8269SOL     OW36442   1.895   4.014   8.974  0.8128  0.3963 -0.0732
 8269SOL    HW136443   1.806   4.004   9.008  1.0408  1.9598  0.9900
 8269SOL    HW236444   1.933   4.041   9.058  4.2457 -0.0473 -1.5068
 8270SOL     OW36445   1.898   4.374   5.306 -0.0141 -0.3932  0.3583
 8270SOL    HW136446   1.864   4.377   5.216  0.2632  1.9313  0.3232
 8270SOL    HW236447   1.825   4.422   5.347  1.7834  1.3247  1.5244
 8271SOL     OW36448   3.458   3.081   8.408  0.1304  0.0794  0.3688
 8271SOL    HW136449   3.501   3.000   8.380  1.5612  1.3094 -1.0061
 8271SOL    HW236450   3.365   3.071   8.388 -0.3430 -0.1867  2.6526
 8272SOL     OW36451   4.484   2.267  15.610 -0.2635  0.3968 -0.2739
 8272SOL    HW136452   4.538   2.230  15.541 -0.1800  0.9594 -0.5085
 8272SOL    HW236453   4.539   2.322  15.666 -1.4467  1.6412 -0.3342
 8273SOL     OW36454   0.563   2.582  14.846  0.4324 -0.2621 -0.1564
 8273SOL    HW136455   0.567   2.657  14.905 -0.0678  0.1549 -0.6491
 8273SOL    HW236456   0.583   2.628  14.764  0.8809  0.3952  0.3274
 8274SOL     OW36457   2.765   3.726   2.374 -0.0903 -0.3836 -0.5804
 8274SOL    HW136458   2.846   3.678   2.357 -0.8535 -2.4023  1.5657
 8274SOL    HW236459   2.700   3.671   2.330 -0.9609 -0.3312  0.6249
 8275SOL     OW36460   3.617   3.394  13.108  0.4170  0.3267 -0.0655
 8275SOL    HW136461   3.551   3.396  13.039  0.6971 -0.8310 -0.3673
 8275SOL    HW236462   3.637   3.301  13.123 -0.6316  0.1717  0.4694
 8276SOL     OW36463   4.263   1.632  10.621 -0.2597  0.0794 -0.0072
 8276SOL    HW136464   4.308   1.572  10.562 -1.5776 -1.4811  0.5817
 8276SOL    HW236465   4.170   1.611  10.618 -0.4059  0.6538  0.4271
 8277SOL     OW36466   2.465   0.136   6.155  0.3181  0.0923  0.1345
 8277SOL    HW136467   2.417   0.083   6.219  0.1296 -0.2936 -0.3293
 8277SOL    HW236468   2.430   0.099   6.074  2.6058  1.2095 -1.3722
 8278SOL     OW36469   0.783   0.877   2.451  0.0583 -0.1036 -0.2411
 8278SOL    HW136470   0.707   0.849   2.502  0.1355 -1.1447 -0.6876
 8278SOL    HW236471   0.830   0.794   2.444 -0.3118 -0.4070  0.8815
 8279SOL     OW36472   3.435   2.258   6.291 -0.3372 -0.0433  0.0715
 8279SOL    HW136473   3.414   2.319   6.362  0.1917 -1.0816  1.1214
 8279SOL    HW236474   3.488   2.320   6.241  1.1473 -1.8830 -0.6382
 8280SOL     OW36475   2.644   0.318   8.301  0.0543 -0.3663 -0.0897
 8280SOL    HW136476   2.679   0.251   8.242  1.0443 -0.4417  0.5928
 8280SOL    HW236477   2.688   0.400   8.278 -0.6000 -0.2265 -0.8470
 8281SOL     OW36478   1.568   2.584   4.215  0.1524  0.2190  0.1721
 8281SOL    HW136479   1.490   2.547   4.258 -0.5248  1.1298 -0.2595
 8281SOL    HW236480   1.541   2.581   4.123  0.8557  1.0399 -0.0598
 8282SOL     OW36481   4.300   4.313  11.875 -0.3196 -0.4055  0.3213
 8282SOL    HW136482   4.263   4.232  11.840 -0.5222  0.3626 -1.2612
 8282SOL    HW236483   4.261   4.381  11.821  1.0983 -1.4857 -2.0516
 8283SOL     OW36484   0.120   1.540   6.521 -0.2203  0.6228 -0.7350
 8283SOL    HW136485   0.040   1.541   6.468 -0.7302  0.1564  0.0133
 8283SOL    HW236486   0.123   1.632   6.549 -0.1660  0.7197 -1.0657
 8284SOL     OW36487   3.547   3.171  14.165 -0.4321  0.4595 -0.0947
 8284SOL    HW136488   3.541   3.132  14.078 -0.2626  1.0646 -0.3839
 8284SOL    HW236489   3.598   3.248  14.138 -0.7696  1.4879  2.2393
 8285SOL     OW36490   2.612   2.161   6.211  0.0559  0.2768 -0.1722
 8285SOL    HW136491   2.593   2.131   6.301 -0.9492  1.7982  0.1150
 8285SOL    HW236492   2.707   2.156   6.208 -0.1697 -4.0136 -0.7094
 8286SOL     OW36493   2.919   1.871   4.660  0.4901  0.4510 -0.1714
 8286SOL    HW136494   2.874   1.806   4.606  2.6352 -1.1262 -0.0533
 8286SOL    HW236495   2.845   1.929   4.679  0.1839  0.3478 -1.0902
 8287SOL     OW36496   2.095   3.055   9.616  0.5577  0.4677 -0.0867
 8287SOL    HW136497   2.099   3.089   9.706 -1.5157  0.2204  0.1036
 8287SOL    HW236498   2.152   2.980   9.629 -0.1414  0.0902  0.8198
 8288SOL     OW36499   3.047   0.786   3.034  0.2345  0.4943  0.1758
 8288SOL    HW136500   3.083   0.856   2.979  1.4369 -0.3455 -0.1112
 8288SOL    HW236501   3.119   0.794   3.097  0.3860  0.3019  0.0254
 8289SOL     OW36502   0.467   1.003   6.528  0.9080 -0.5010  0.1751
 8289SOL    HW136503   0.470   1.083   6.580 -1.5043 -0.7471  0.7087
 8289SOL    HW236504   0.477   1.044   6.442  0.0178 -0.8756 -0.1056
 8290SOL     OW36505   4.289   0.055   7.784  0.2917  0.2065  0.4106
 8290SOL    HW136506   4.284   4.717   7.842 -1.7718 -0.4331 -0.5612
 8290SOL    HW236507   4.251   0.020   7.703 -0.1357  2.2695 -0.2747
 8291SOL     OW36508   2.942   2.781  11.902 -0.3714  0.6215  0.0870
 8291SOL    HW136509   2.868   2.840  11.918 -0.1537 -0.1931  4.0903
 8291SOL    HW236510   3.018   2.835  11.926 -0.0601 -0.2962  1.1716
 8292SOL     OW36511   2.461   2.477  11.358  0.1980  0.2371 -0.1502
 8292SOL    HW136512   2.447   2.478  11.452  0.0161  1.9630 -0.1877
 8292SOL    HW236513   2.374   2.474  11.319 -1.3214 -0.5708  3.4145
 8293SOL     OW36514   1.745   3.611   1.555  0.7163 -0.2507 -0.5060
 8293SOL    HW136515   1.757   3.540   1.617  1.6897 -0.8718 -1.4086
 8293SOL    HW236516   1.838   3.635   1.545  0.8896 -0.1752  1.1914
 8294SOL     OW36517   3.206   4.323   3.477  1.0142 -0.1928  0.1740
 8294SOL    HW136518   3.284   4.367   3.442 -0.8291  0.7820 -2.6394
 8294SOL    HW236519   3.244   4.235   3.475 -1.0635 -1.1070  2.0297
 8295SOL     OW36520   0.800   2.385   1.995 -0.3407  0.5610 -0.9218
 8295SOL    HW136521   0.764   2.388   1.906 -0.6823  2.3539 -0.7257
 8295SOL    HW236522   0.891   2.371   1.971 -0.8966 -1.4490 -1.8287
 8296SOL     OW36523   0.083   0.412  11.805  0.0023 -0.3806  0.4527
 8296SOL    HW136524   0.177   0.430  11.795 -0.5962  1.3339 -1.9180
 8296SOL    HW236525   0.079   0.396  11.899 -2.9627 -1.5397  0.1343
 8297SOL     OW36526   2.750   1.396   1.455 -0.5969  0.0845  0.4457
 8297SOL    HW136527   2.700   1.322   1.421 -0.7681 -0.9193  2.8980
 8297SOL    HW236528   2.820   1.387   1.391 -1.2631 -0.9644 -0.1374
 8298SOL     OW36529   2.553   1.133   3.112  0.3305  0.5442 -0.1325
 8298SOL    HW136530   2.551   1.042   3.083 -0.4999  1.1668 -1.9991
 8298SOL    HW236531   2.569   1.178   3.029 -1.4367  0.8699 -0.2905
 8299SOL     OW36532   2.089   3.884   2.327 -0.1580  0.3439  0.7816
 8299SOL    HW136533   2.090   3.931   2.244  1.9347  0.9150  1.1334
 8299SOL    HW236534   2.111   3.793   2.308  0.6856  0.7573 -0.2637
 8300SOL     OW36535   1.683   1.120   2.206  0.6189  0.0813  0.2254
 8300SOL    HW136536   1.610   1.177   2.231  0.7348  0.4200 -0.2108
 8300SOL    HW236537   1.694   1.147   2.115 -2.0176 -1.0848 -0.4232
 8301SOL     OW36538   1.253   3.757  10.900  0.4558  0.1784  0.3226
 8301SOL    HW136539   1.342   3.723  10.910  0.6604  0.3759 -0.8778
 8301SOL    HW236540   1.206   3.678  10.876  0.9723  0.4173 -1.4340
 8302SOL     OW36541   0.977   0.237  15.649  0.3249 -0.1236 -0.2623
 8302SOL    HW136542   0.897   0.186  15.659  0.5040  0.2666  3.2728
 8302SOL    HW236543   1.011   0.209  15.564 -0.3796 -2.3324  0.1948
 8303SOL     OW36544   3.743   4.686   8.624 -0.1222  0.1242 -0.2311
 8303SOL    HW136545   3.659   4.731   8.635 -0.2356  0.7069 -3.6087
 8303SOL    HW236546   3.752   4.663   8.532  1.7482 -0.9011  0.2023
 8304SOL     OW36547   2.058   0.536   0.795 -0.0117  0.1347  0.1719
 8304SOL    HW136548   2.047   0.625   0.827  0.8481  0.0256  0.7626
 8304SOL    HW236549   1.992   0.538   0.725  1.1213  0.7054 -0.8909
 8305SOL     OW36550   0.563   3.656  14.370  0.1505 -0.1152  0.4084
 8305SOL    HW136551   0.631   3.653  14.303  2.3917 -0.6105  2.6976
 8305SOL    HW236552   0.614   3.598  14.427  1.1092 -0.4764 -0.8233
 8306SOL     OW36553   4.162   1.800   3.542 -0.0293  0.0984 -0.2052
 8306SOL    HW136554   4.123   1.784   3.628 -1.0853  0.2474 -0.6523
 8306SOL    HW236555   4.220   1.726   3.522 -0.3607  0.0150 -0.8611
 8307SOL     OW36556   0.386   1.221  17.672 -0.4227 -0.6039 -0.4610
 8307SOL    HW136557   0.360   1.247   0.013 -2.2208  0.0778 -1.1828
 8307SOL    HW236558   0.312   1.160  17.661 -1.4796  0.4601  0.7150
 8308SOL     OW36559   2.763   3.611  10.236 -0.7404  0.1075 -0.4437
 8308SOL    HW136560   2.673   3.634  10.212 -1.6288  0.4752  3.1744
 8308SOL    HW236561   2.759   3.634  10.329 -1.1946 -2.6150  0.2015
 8309SOL     OW36562   2.787   2.584  11.807  0.6419 -0.5699  0.6135
 8309SOL    HW136563   2.816   2.520  11.872  0.7611 -2.6690 -1.4969
 8309SOL    HW236564   2.829   2.662  11.844 -1.2864  1.0685 -0.6780
 8310SOL     OW36565   4.191   0.582   8.654 -0.5183  0.2094  0.1428
 8310SOL    HW136566   4.159   0.558   8.741  0.9108 -0.0385  0.6032
 8310SOL    HW236567   4.117   0.587   8.594 -0.0509 -0.1930 -0.4742
 8311SOL     OW36568   1.709   2.564   5.187 -0.5294 -0.3157 -0.5972
 8311SOL    HW136569   1.675   2.511   5.259 -2.1959  1.2418 -0.2266
 8311SOL    HW236570   1.796   2.528   5.174  0.1556  1.4310 -0.8975
 8312SOL     OW36571   2.683   2.973   1.700 -0.2539 -0.3780 -0.4507
 8312SOL    HW136572   2.758   2.932   1.743 -0.5168  2.4300  2.6531
 8312SOL    HW236573   2.616   2.904   1.692  0.5232 -1.0109 -1.5489
 8313SOL     OW36574   0.023   3.867   4.816  0.7528 -0.2444  0.3386
 8313SOL    HW136575   0.058   3.857   4.904  1.6943  0.0426 -0.0083
 8313SOL    HW236576   4.670   3.896   4.828  0.5329 -0.0638 -1.6137
 8314SOL     OW36577   4.333   4.564   8.753  0.0079 -0.8453  0.7175
 8314SOL    HW136578   4.384   4.600   8.826 -0.9949  1.1336  0.4501
 8314SOL    HW236579   4.252   4.610   8.775  0.4851  0.9074 -1.1924
 8315SOL     OW36580   0.003   2.614   5.457 -1.2803 -0.0868  0.1441
 8315SOL    HW136581   4.708   2.550   5.393 -0.5740 -0.9347  0.6324
 8315SOL    HW236582   0.033   2.678   5.393 -0.6574 -0.9927 -0.4703
 8316SOL     OW36583   4.563   0.981   5.302 -0.1492 -0.4302  0.1422
 8316SOL    HW136584   4.554   1.042   5.228 -0.5500 -0.4892  0.1386
 8316SOL    HW236585   4.480   0.997   5.348 -0.2068 -0.8184  0.1780
 8317SOL     OW36586   4.318   1.054   5.415  0.0405  0.6197 -0.6022
 8317SOL    HW136587   4.260   1.006   5.355  0.4685 -0.5786 -0.0464
 8317SOL    HW236588   4.256   1.124   5.438 -1.5794 -0.9802 -0.0920
 8318SOL     OW36589   3.476   1.371   1.692 -0.4348  0.2722 -1.3925
 8318SOL    HW136590   3.564   1.398   1.718 -0.4541 -0.6545 -0.3228
 8318SOL    HW236591   3.475   1.276   1.710  2.6364  0.5062  0.1590
 8319SOL     OW36592   3.479   1.421  16.453  0.3560 -0.5744  0.1822
 8319SOL    HW136593   3.386   1.398  16.451  0.0808  0.7177 -1.6416
 8319SOL    HW236594   3.497   1.460  16.367  3.2698 -3.1750 -0.3887
 8320SOL     OW36595   2.165   3.297  17.736 -0.4037  0.0101 -0.5311
 8320SOL    HW136596   2.185   3.352   0.064 -1.4677  1.7403 -1.5054
 8320SOL    HW236597   2.254   3.266  17.720  0.7288  1.7133  2.4576
 8321SOL     OW36598   3.406   3.631   0.267  0.5202 -0.4595 -0.3761
 8321SOL    HW136599   3.324   3.586   0.285 -0.6781  1.0695 -1.9787
 8321SOL    HW236600   3.400   3.707   0.325 -2.0349  0.7277 -2.1809
 8322SOL     OW36601   0.358   0.848   4.712  0.0372  0.7771  0.1152
 8322SOL    HW136602   0.449   0.819   4.717 -0.1819  0.1323  0.4034
 8322SOL    HW236603   0.356   0.934   4.754 -0.4783  1.1100 -0.5924
 8323SOL     OW36604   1.787   1.288   5.134 -0.0325  0.0688 -0.3061
 8323SOL    HW136605   1.779   1.361   5.072  1.8125  0.4557 -0.0890
 8323SOL    HW236606   1.722   1.233   5.089  1.6015 -3.1463  1.2424
 8324SOL     OW36607   2.204   3.561  12.072 -0.2107 -0.5693  0.1553
 8324SOL    HW136608   2.203   3.476  12.029  0.9275 -0.3683 -0.2573
 8324SOL    HW236609   2.254   3.608  12.005 -2.3430 -1.1880 -1.8645
 8325SOL     OW36610   1.948   2.718   7.132  0.4859 -0.2930 -0.2708
 8325SOL    HW136611   1.909   2.704   7.045  0.8381 -2.0757 -0.1546
 8325SOL    HW236612   2.041   2.720   7.111  0.6692  0.6874  0.6477
 8326SOL     OW36613   0.785   1.907  13.830  0.6325 -0.7021 -0.3100
 8326SOL    HW136614   0.860   1.874  13.881  1.7008  1.3670 -0.5366
 8326SOL    HW236615   0.715   1.862  13.878 -0.5752  2.7141  1.0802
 8327SOL     OW36616   3.434   2.358   0.858  0.0126 -0.7115  0.4604
 8327SOL    HW136617   3.444   2.263   0.853 -1.4663 -0.8896  1.1720
 8327SOL    HW236618   3.401   2.372   0.946  2.2959 -1.1666  1.4086
 8328SOL     OW36619   1.079   1.834   1.597 -0.3149  0.1475 -0.0499
 8328SOL    HW136620   1.149   1.899   1.588 -0.7893  0.7929  0.8130
 8328SOL    HW236621   1.047   1.858   1.685  1.3292  1.3122  0.2381
 8329SOL     OW36622   4.234   4.089   6.697 -0.3169 -0.7264 -0.1117
 8329SOL    HW136623   4.175   4.137   6.640  1.4901  0.6972 -0.7892
 8329SOL    HW236624   4.209   3.997   6.691 -0.2970 -0.7254 -0.2104
 8330SOL     OW36625   2.440   0.130   7.632 -1.1348  0.3708  0.1885
 8330SOL    HW136626   2.368   0.186   7.660 -2.1671 -0.8646  0.0538
 8330SOL    HW236627   2.496   0.191   7.585 -1.7685 -0.8135 -2.1357
 8331SOL     OW36628   2.908   3.226   9.509 -0.0218  0.0227  0.3400
 8331SOL    HW136629   2.816   3.203   9.519  0.8346 -3.6363 -0.2859
 8331SOL    HW236630   2.899   3.308   9.461 -0.3756 -0.3129 -0.1636
 8332SOL     OW36631   2.521   0.414   1.671  0.1533 -0.2734 -0.5673
 8332SOL    HW136632   2.590   0.411   1.605  1.0839 -0.1875  0.3966
 8332SOL    HW236633   2.550   0.492   1.720  0.3796 -0.3032 -0.6548
 8333SOL     OW36634   3.484   3.097   5.397 -0.5053 -0.7411  0.0139
 8333SOL    HW136635   3.465   3.175   5.344 -0.4660 -0.1369  0.8823
 8333SOL    HW236636   3.575   3.085   5.370 -0.9060 -1.5282 -0.9877
 8334SOL     OW36637   2.704   2.273   1.533 -0.1599  0.2311  0.2982
 8334SOL    HW136638   2.679   2.335   1.465 -0.9335 -1.6522 -1.1444
 8334SOL    HW236639   2.757   2.209   1.486 -1.6499  0.4687 -1.7042
 8335SOL     OW36640   3.728   0.944   0.889  0.1108  0.5002 -0.6994
 8335SOL    HW136641   3.743   1.039   0.888 -1.6139  0.7533 -2.4091
 8335SOL    HW236642   3.808   0.913   0.932  0.2285  3.4041  1.2028
 8336SOL     OW36643   1.291   1.388   3.412 -0.0945  0.0328 -0.1176
 8336SOL    HW136644   1.271   1.420   3.499  1.6226  0.5048  0.0912
 8336SOL    HW236645   1.377   1.428   3.401 -0.0949  0.2820  0.8725
 8337SOL     OW36646   4.148   0.951   5.224  0.1014  0.3470 -0.5551
 8337SOL    HW136647   4.199   0.896   5.164  1.9123 -0.8700  2.1262
 8337SOL    HW236648   4.123   1.018   5.161 -2.0081 -0.7111 -0.8407
 8338SOL     OW36649   3.692   4.117   1.305 -0.0570 -0.3006 -0.3580
 8338SOL    HW136650   3.764   4.078   1.255 -0.5978 -1.6557 -0.0639
 8338SOL    HW236651   3.661   4.048   1.363 -0.3049 -0.2724 -0.4600
 8339SOL     OW36652   3.444   0.288  17.415  0.0201  0.2960 -0.5290
 8339SOL    HW136653   3.476   0.324  17.498  1.8243  1.8786 -1.9146
 8339SOL    HW236654   3.358   0.329  17.412 -1.2751 -2.2612  1.5826
 8340SOL     OW36655   1.651   3.102   7.948  0.3989  0.3430  0.1562
 8340SOL    HW136656   1.595   3.060   8.013 -0.4269 -0.9665 -1.4052
 8340SOL    HW236657   1.704   3.147   8.014 -1.6392 -1.5277  3.0580
 8341SOL     OW36658   2.346   0.757   5.654 -0.7502  0.4970  0.0825
 8341SOL    HW136659   2.440   0.760   5.637 -0.5609  2.6736  1.4269
 8341SOL    HW236660   2.321   0.833   5.706  3.7195  0.6240  1.9811
 8342SOL     OW36661   2.865   2.720   3.164 -0.3420 -0.1066  0.2307
 8342SOL    HW136662   2.887   2.808   3.135 -0.6758 -0.4109 -0.9386
 8342SOL    HW236663   2.916   2.721   3.245 -2.0926 -0.2123  1.3423
 8343SOL     OW36664   2.958   3.029   4.637 -0.1206  0.1536  0.7962
 8343SOL    HW136665   3.038   3.076   4.614 -1.2276  1.4243 -0.4814
 8343SOL    HW236666   2.893   3.089   4.601  2.5767  2.2052 -0.6483
 8344SOL     OW36667   0.017   3.897  14.626  0.1166  0.3020  1.1224
 8344SOL    HW136668   4.726   3.980  14.589  2.7791  0.4132 -0.6392
 8344SOL    HW236669   0.111   3.915  14.616 -0.0279  0.5332  0.2335
 8345SOL     OW36670   1.199   4.181   5.472  0.6292  0.1831  0.1624
 8345SOL    HW136671   1.179   4.140   5.556 -1.6764 -2.9584 -1.8968
 8345SOL    HW236672   1.295   4.184   5.472  0.5674  2.5343  0.2436
 8346SOL     OW36673   1.045   3.465   1.947  0.5015  0.1128 -0.3190
 8346SOL    HW136674   1.027   3.510   1.865  1.1910  2.0301  0.5802
 8346SOL    HW236675   1.027   3.376   1.918  0.0883  0.7377 -1.9637
 8347SOL     OW36676   1.719   1.541   8.419  0.2437  0.5095 -0.2585
 8347SOL    HW136677   1.799   1.549   8.471  1.7764  1.0712 -2.6706
 8347SOL    HW236678   1.680   1.628   8.428 -0.1286  0.3086  0.0509
 8348SOL     OW36679   2.725   3.624   7.604  0.6374 -0.0343  0.2069
 8348SOL    HW136680   2.800   3.637   7.546  0.9448 -0.3296  0.5378
 8348SOL    HW236681   2.671   3.690   7.560 -1.1774 -0.7563  1.3180
 8349SOL     OW36682   3.584   0.780   2.863  0.2605  0.3292 -0.1851
 8349SOL    HW136683   3.678   0.799   2.867 -0.1219  2.4034 -1.1733
 8349SOL    HW236684   3.582   0.690   2.895  0.6744  0.4041  0.0425
 8350SOL     OW36685   3.480   1.788   1.462 -0.1907  0.4398  0.0310
 8350SOL    HW136686   3.506   1.837   1.383  0.1205 -1.6233 -1.1362
 8350SOL    HW236687   3.563   1.751   1.491  0.5389  3.0650  1.3349
 8351SOL     OW36688   0.419   4.399  16.702  0.1429 -0.1971 -0.7448
 8351SOL    HW136689   0.364   4.378  16.777  1.3090 -3.2848 -0.7801
 8351SOL    HW236690   0.496   4.346  16.723  0.4417 -0.4420 -2.4328
 8352SOL     OW36691   4.171   1.359   5.747  0.1287  0.0655 -0.6350
 8352SOL    HW136692   4.129   1.418   5.685  2.1204  3.4831  1.2573
 8352SOL    HW236693   4.264   1.374   5.729  0.4946 -0.7143  0.5993
 8353SOL     OW36694   2.563   0.826   8.123  0.2850  0.4864 -0.3614
 8353SOL    HW136695   2.570   0.731   8.129 -0.1764  0.6088  1.9932
 8353SOL    HW236696   2.514   0.851   8.201  1.3884 -0.6780  0.7052
 8354SOL     OW36697   0.639   0.483   9.884 -0.3043  0.3812 -0.2467
 8354SOL    HW136698   0.545   0.477   9.900  0.1883  0.9156  2.7526
 8354SOL    HW236699   0.646   0.397   9.843  0.6916  1.0961 -1.5891
 8355SOL     OW36700   4.205   3.716   5.187 -0.5845  0.5440  0.2333
 8355SOL    HW136701   4.245   3.669   5.260  0.8070  2.4148  0.6874
 8355SOL    HW236702   4.281   3.751   5.141  1.3788 -0.8181  2.4068
 8356SOL     OW36703   2.880   4.607   3.652  0.6569 -0.1161 -0.0435
 8356SOL    HW136704   2.926   4.582   3.571  0.6635  1.1075 -0.4166
 8356SOL    HW236705   2.931   4.683   3.680 -0.9635  0.2835  1.8039
 8357SOL     OW36706   1.002   0.909  11.732  0.4037 -0.4199 -0.5128
 8357SOL    HW136707   0.999   0.995  11.690  2.9905  0.5622  1.3039
 8357SOL    HW236708   1.083   0.910  11.784  0.1327  0.2131 -0.1039
 8358SOL     OW36709   2.772   4.585   8.143 -0.0626 -0.2965 -0.5982
 8358SOL    HW136710   2.693   4.639   8.141  0.8917  1.1254  0.1225
 8358SOL    HW236711   2.739   4.495   8.140 -0.2269 -0.3946  3.3242
 8359SOL     OW36712   0.861   4.145   8.143 -0.3374  0.5013 -0.5429
 8359SOL    HW136713   0.795   4.091   8.100 -1.0949  1.3190 -0.4007
 8359SOL    HW236714   0.938   4.089   8.135 -0.1469  0.8114 -0.8403
 8360SOL     OW36715   0.490   4.386   7.804 -0.4362 -0.0012  0.0029
 8360SOL    HW136716   0.532   4.440   7.871  0.8557  0.9767 -1.5983
 8360SOL    HW236717   0.473   4.304   7.851 -0.6278 -0.4530 -0.8541
 8361SOL     OW36718   3.160   3.113   8.317  0.2728 -0.3837 -0.0627
 8361SOL    HW136719   3.082   3.134   8.368  0.3531 -0.8143  0.2379
 8361SOL    HW236720   3.173   3.203   8.286  0.5077 -1.2713 -2.5314
 8362SOL     OW36721   0.780   0.983   3.634  0.4033  0.0868 -0.6901
 8362SOL    HW136722   0.830   0.926   3.692  0.3620  0.2706 -0.4729
 8362SOL    HW236723   0.688   0.961   3.652  1.1119 -1.0646  1.5705
 8363SOL     OW36724   2.701   2.091   4.987 -0.2242 -0.0463 -0.2771
 8363SOL    HW136725   2.768   2.134   5.039 -1.3896 -0.0840  1.2567
 8363SOL    HW236726   2.639   2.050   5.047  0.1388 -0.0456  0.0953
 8364SOL     OW36727   3.977   1.388  11.309 -0.0731 -0.3666  0.6187
 8364SOL    HW136728   4.047   1.336  11.347 -0.1934 -0.1427  1.1469
 8364SOL    HW236729   3.990   1.479  11.338 -0.2666 -0.8743  2.2522
 8365SOL     OW36730   4.434   2.222   7.478  0.2162  0.0795 -0.1061
 8365SOL    HW136731   4.377   2.171   7.421 -0.1180  0.7325 -0.3494
 8365SOL    HW236732   4.423   2.191   7.568 -1.5359  1.7313  0.2483
 8366SOL     OW36733   0.045   3.389   4.920 -0.1086  0.2260 -0.1878
 8366SOL    HW136734   0.039   3.318   4.984  1.1422 -0.2684 -0.6401
 8366SOL    HW236735   0.109   3.351   4.861  0.1732  0.7199 -0.2035
 8367SOL     OW36736   2.743   3.274   3.852 -0.1281  0.0724 -0.2760
 8367SOL    HW136737   2.664   3.220   3.856 -0.8252  1.0288 -1.1797
 8367SOL    HW236738   2.808   3.213   3.819 -0.4012  0.3356 -1.2947
 8368SOL     OW36739   3.911   4.430   3.819  0.3821 -0.0256  0.0940
 8368SOL    HW136740   3.863   4.347   3.818 -1.0847  0.8201  0.6276
 8368SOL    HW236741   3.923   4.442   3.914  1.5646  2.6610 -0.3896
 8369SOL     OW36742   0.429   1.065   2.127 -0.3947  0.3502  0.7311
 8369SOL    HW136743   0.403   0.979   2.161 -0.7860  0.8142  1.5940
 8369SOL    HW236744   0.345   1.097   2.094  0.7865  2.6686  0.0425
 8370SOL     OW36745   4.464   4.339   9.100  0.4819 -0.0884  0.5573
 8370SOL    HW136746   4.370   4.327   9.085 -0.0339  1.3227  2.6728
 8370SOL    HW236747   4.465   4.362   9.193 -0.0996  0.2096  0.4901
 8371SOL     OW36748   4.637   1.664  17.281 -0.3947 -0.2171 -0.3505
 8371SOL    HW136749   4.673   1.678  17.193  4.4281 -1.2519  1.4171
 8371SOL    HW236750   4.660   1.744  17.328 -1.7213 -0.0110 -0.0667
 8372SOL     OW36751   2.209   0.598   2.603 -0.2742  0.1062 -0.3455
 8372SOL    HW136752   2.247   0.644   2.678  0.4836 -0.4718 -0.3772
 8372SOL    HW236753   2.134   0.548   2.635 -0.7209  1.0852  0.1328
 8373SOL     OW36754   3.007   4.151  12.278  0.2438 -0.0685  0.3569
 8373SOL    HW136755   3.091   4.196  12.273  0.7851 -1.1352 -0.2714
 8373SOL    HW236756   2.952   4.216  12.234  0.4224 -0.3540 -0.2912
 8374SOL     OW36757   2.424   0.620   5.991  0.3915  0.7518  0.1162
 8374SOL    HW136758   2.520   0.619   5.995  0.3337  0.0910  1.3335
 8374SOL    HW236759   2.407   0.698   6.044 -0.2924 -0.1185  1.1611
 8375SOL     OW36760   3.462   4.410   3.413 -0.3571  0.0856 -0.6079
 8375SOL    HW136761   3.534   4.346   3.410 -0.0885  0.2906  1.1884
 8375SOL    HW236762   3.454   4.440   3.323  1.1801 -2.1158 -1.4985
 8376SOL     OW36763   1.827   4.142   4.837  0.3976 -0.3188 -0.1949
 8376SOL    HW136764   1.916   4.141   4.872 -0.0762 -1.0645  0.9728
 8376SOL    HW236765   1.835   4.096   4.753  0.7803 -2.1525  0.8434
 8377SOL     OW36766   1.303   3.715   8.028  0.3126 -0.2069 -0.6665
 8377SOL    HW136767   1.309   3.623   8.054 -1.1063 -0.3635 -0.8899
 8377SOL    HW236768   1.312   3.770   8.106 -1.1979 -1.3927  0.3536
 8378SOL     OW36769   3.825   4.030   1.946  0.2381 -0.8563 -0.6421
 8378SOL    HW136770   3.791   3.954   1.899 -3.0443  0.6194 -0.6211
 8378SOL    HW236771   3.891   3.992   2.005  0.3958  0.6292  0.1382
 8379SOL     OW36772   3.963   2.690   7.629  0.3854  0.3255  0.2557
 8379SOL    HW136773   3.967   2.752   7.701  0.3130  1.1232 -0.4323
 8379SOL    HW236774   3.877   2.718   7.597  1.1831  1.5068 -0.8515
 8380SOL     OW36775   0.673   2.356   5.490  0.3838  0.1262  0.1256
 8380SOL    HW136776   0.725   2.435   5.478 -3.0629  2.4299  0.4223
 8380SOL    HW236777   0.739   2.303   5.535 -0.7336 -1.3366  0.0465
 8381SOL     OW36778   3.891   2.589   2.721 -0.0673 -0.2596  0.6969
 8381SOL    HW136779   3.959   2.625   2.777  0.2720 -1.4025  1.0165
 8381SOL    HW236780   3.910   2.495   2.717 -0.0208 -0.2872  1.7068
 8382SOL     OW36781   0.444   0.394   9.023  0.3740 -0.3855 -0.0901
 8382SOL    HW136782   0.359   0.369   8.985  0.3390 -3.1333  1.7423
 8382SOL    HW236783   0.418   0.409   9.113  1.1685 -3.8414  0.7213
 8383SOL     OW36784   2.963   4.245   3.423  0.4337 -0.1571 -0.1840
 8383SOL    HW136785   2.915   4.207   3.497  0.7489  1.4854  0.8805
 8383SOL    HW236786   3.047   4.276   3.459  0.8515  1.1072 -2.2373
 8384SOL     OW36787   4.538   3.825   6.089  0.5085 -0.0586  0.2235
 8384SOL    HW136788   4.564   3.875   6.166 -1.0040  2.1292 -0.6920
 8384SOL    HW236789   4.588   3.879   6.029  0.3139 -0.6406 -0.4704
 8385SOL     OW36790   1.707   3.735  13.006  0.6444 -0.1179  0.3816
 8385SOL    HW136791   1.662   3.789  13.071  0.9942  0.6162  0.0147
 8385SOL    HW236792   1.638   3.738  12.939  1.2302 -2.8481 -0.3275
 8386SOL     OW36793   1.669   3.138   2.401  0.1495  0.1799 -0.3567
 8386SOL    HW136794   1.597   3.183   2.355  1.0465  2.0565  0.0628
 8386SOL    HW236795   1.662   3.062   2.344  2.3626 -0.5630  0.3795
 8387SOL     OW36796   2.095   0.109  11.308 -0.1451  0.7379 -0.1047
 8387SOL    HW136797   2.187   0.098  11.329  0.0605  0.8877 -0.9207
 8387SOL    HW236798   2.085   0.035  11.248 -0.5799  1.1222 -0.5103
 8388SOL     OW36799   3.641   2.460   3.223 -0.9004  0.8558  0.1094
 8388SOL    HW136800   3.677   2.545   3.197  2.0686 -0.6496 -0.6484
 8388SOL    HW236801   3.644   2.456   3.319 -1.3424  0.7434  0.1193
 8389SOL     OW36802   3.890   3.179  15.571  0.1793 -0.4041  0.5049
 8389SOL    HW136803   3.796   3.163  15.568  0.1627 -0.0821 -0.6872
 8389SOL    HW236804   3.923   3.098  15.530 -0.0167 -0.2913  0.1305
 8390SOL     OW36805   0.533   0.911   3.754  0.2260  0.4663  0.2806
 8390SOL    HW136806   0.530   0.890   3.848  2.1268  0.9756  0.4719
 8390SOL    HW236807   0.488   0.995   3.748 -0.3708  0.2960  2.2841
 8391SOL     OW36808   3.982   4.590   5.138  0.2911  0.0418  0.3523
 8391SOL    HW136809   3.936   4.663   5.097  1.1954  0.6059  0.3430
 8391SOL    HW236810   4.061   4.635   5.170  1.3865  0.7217 -3.3308
 8392SOL     OW36811   2.232   1.940   5.192  0.1082  0.1953  0.4047
 8392SOL    HW136812   2.166   1.997   5.231 -0.8621  0.1660 -1.2026
 8392SOL    HW236813   2.223   1.869   5.255  1.7677  1.2241  1.8389
 8393SOL     OW36814   2.107   4.627   5.552 -0.3142  0.0085  0.5930
 8393SOL    HW136815   2.016   4.643   5.578 -0.0562  0.4201  1.2286
 8393SOL    HW236816   2.146   4.613   5.638 -0.2348 -1.1687  0.3630
 8394SOL     OW36817   1.937   1.837   2.341 -0.4533 -0.0465 -0.8630
 8394SOL    HW136818   2.020   1.877   2.365 -1.1400  0.2718  0.9658
 8394SOL    HW236819   1.962   1.782   2.267 -0.4067  1.0289 -1.6493
 8395SOL     OW36820   2.949   3.783  11.849  0.7612 -0.1992 -0.1380
 8395SOL    HW136821   2.948   3.848  11.920  1.2166 -1.5252  1.0739
 8395SOL    HW236822   2.866   3.750  11.883  0.4439  0.9006  0.1529
 8396SOL     OW36823   3.280   1.976  11.813  0.3481  0.1470 -0.3327
 8396SOL    HW136824   3.222   1.949  11.743 -0.5695 -2.3610  1.4029
 8396SOL    HW236825   3.352   1.913  11.813  0.3056  0.0980 -0.2712
 8397SOL     OW36826   2.336   3.900   8.244  0.5210 -0.1265 -0.7249
 8397SOL    HW136827   2.309   3.810   8.259  0.2614  0.0092 -0.3939
 8397SOL    HW236828   2.345   3.882   8.150  0.2882 -0.1022 -0.7518
 8398SOL     OW36829   1.890   0.238   3.348 -0.8953  0.2287  0.1821
 8398SOL    HW136830   1.837   0.175   3.397  0.3436  0.6647  2.1083
 8398SOL    HW236831   1.963   0.255   3.408  0.7922 -2.2332 -1.1314
 8399SOL     OW36832   1.865   4.346  12.139 -0.4638 -0.0058 -0.1133
 8399SOL    HW136833   1.934   4.294  12.181 -1.7283 -0.6265  1.2095
 8399SOL    HW236834   1.868   4.432  12.180 -0.2007  0.2111 -0.5888
 8400SOL     OW36835   0.156   2.568   7.982 -0.4297  0.1235  0.0642
 8400SOL    HW136836   0.118   2.548   8.068  0.2663  1.0334  0.5755
 8400SOL    HW236837   0.168   2.662   7.990  1.5160 -0.2180  1.1556
 8401SOL     OW36838   1.433   4.162   9.614  0.7159  0.3697 -0.3033
 8401SOL    HW136839   1.354   4.112   9.594  0.9562 -0.1185 -0.0493
 8401SOL    HW236840   1.398   4.209   9.690  2.1849 -0.3435  0.8052
 8402SOL     OW36841   4.443   2.148   8.849 -0.5363  0.0521  0.1768
 8402SOL    HW136842   4.536   2.125   8.850 -0.8646 -1.2661 -2.7871
 8402SOL    HW236843   4.401   2.074   8.892 -0.1805  0.5169  1.3366
 8403SOL     OW36844   2.378   2.541  17.484 -0.1821  0.1893  0.3381
 8403SOL    HW136845   2.450   2.604  17.479  0.0224 -0.6028 -6.0875
 8403SOL    HW236846   2.322   2.580  17.552 -0.7824  2.1106 -1.2544
 8404SOL     OW36847   1.373   4.447   8.027  0.3817  0.1114  0.0336
 8404SOL    HW136848   1.417   4.519   8.072 -0.9801 -0.0002  1.5629
 8404SOL    HW236849   1.435   4.375   8.026  0.3816  0.1507 -1.9830
 8405SOL     OW36850   0.094   0.855  16.743  0.2240 -0.1383  0.0664
 8405SOL    HW136851   0.184   0.850  16.773  0.1686  0.1112  0.2752
 8405SOL    HW236852   0.099   0.807  16.660 -0.1422  0.5634 -0.3693
 8406SOL     OW36853   0.124   2.827  17.646  0.3588  0.2651 -0.0562
 8406SOL    HW136854   0.205   2.876  17.661  0.6938  0.4018 -2.2142
 8406SOL    HW236855   0.056   2.894  17.637 -1.0921 -1.1690  0.1851
 8407SOL     OW36856   0.996   3.647   2.968 -0.2506  0.0479  0.2338
 8407SOL    HW136857   0.990   3.594   2.888 -0.7458 -0.7968  0.8324
 8407SOL    HW236858   0.974   3.586   3.038 -1.5404 -0.2543 -0.4316
 8408SOL     OW36859   2.081   4.665   1.487  0.6001 -0.4895  0.1413
 8408SOL    HW136860   2.035   4.697   1.409 -0.6185 -1.1047  0.6168
 8408SOL    HW236861   2.063   4.736   1.549  0.5312  0.1011 -0.5499
 8409SOL     OW36862   3.133   1.231  11.044  0.5610 -0.0880 -0.4170
 8409SOL    HW136863   3.047   1.273  11.037  2.3200  3.6920  1.0228
 8409SOL    HW236864   3.151   1.237  11.138 -0.0532 -0.6348 -0.2550
 8410SOL     OW36865   4.088   0.072  16.662  0.1357 -0.6531 -0.1673
 8410SOL    HW136866   4.138   0.009  16.610  0.0497  0.0780 -1.1380
 8410SOL    HW236867   4.000   0.036  16.655  0.6055 -2.2723  2.1386
 8411SOL     OW36868   4.543   3.079   9.298 -0.3647 -0.1138  0.4204
 8411SOL    HW136869   4.627   3.122   9.315  0.0336 -1.3177  1.5148
 8411SOL    HW236870   4.557   3.001   9.352  0.5434 -0.6720 -0.6202
 8412SOL     OW36871   1.310   0.522   3.986 -0.1330 -0.4761  0.3548
 8412SOL    HW136872   1.394   0.564   3.970 -0.2394 -0.0879  0.8041
 8412SOL    HW236873   1.326   0.429   3.972  2.5136  0.1174 -0.5298
 8413SOL     OW36874   1.905   2.115   3.008  0.4281  0.5089  0.3802
 8413SOL    HW136875   1.944   2.077   3.086  2.7355 -1.1807 -1.5804
 8413SOL    HW236876   1.813   2.123   3.031  0.1274  0.5196 -0.8246
 8414SOL     OW36877   4.479   0.690  11.097 -0.2564 -0.2113  0.2288
 8414SOL    HW136878   4.518   0.620  11.149  0.3636 -0.4747 -0.6047
 8414SOL    HW236879   4.423   0.633  11.044 -0.3233 -1.1554  1.3239
 8415SOL     OW36880   4.606   0.819  11.817  0.0679  0.4599  0.3190
 8415SOL    HW136881   4.579   0.737  11.859 -0.9219  0.6740  0.1031
 8415SOL    HW236882   4.595   0.793  11.726 -1.6093  2.7740 -0.1372
 8416SOL     OW36883   2.898   2.316   0.973 -0.3475  0.2421 -0.8108
 8416SOL    HW136884   2.847   2.238   0.949  1.9157 -1.5890  0.2365
 8416SOL    HW236885   2.902   2.352   0.885  0.1919  1.2443 -0.3702
 8417SOL     OW36886   2.999   0.915  14.357 -0.3070 -0.0869  0.2127
 8417SOL    HW136887   3.093   0.921  14.339 -0.3886 -1.1109 -0.5752
 8417SOL    HW236888   3.002   0.860  14.435 -0.2979  0.8446  0.8743
 8418SOL     OW36889   3.999   1.643   6.806  0.1030 -0.3915 -0.2825
 8418SOL    HW136890   4.066   1.642   6.739 -0.8441 -0.8514 -1.2298
 8418SOL    HW236891   3.922   1.629   6.751 -1.4801  0.4323  1.7052
 8419SOL     OW36892   3.676   4.270   4.222 -0.0642  0.6969 -0.1639
 8419SOL    HW136893   3.767   4.301   4.225  0.7182 -1.5181 -1.0186
 8419SOL    HW236894   3.640   4.321   4.150 -0.3933 -0.8159 -1.0599
 8420SOL     OW36895   3.677   2.426   7.738 -0.7687 -0.1092  0.2411
 8420SOL    HW136896   3.668   2.486   7.664 -0.1674  1.6331  1.5825
 8420SOL    HW236897   3.723   2.357   7.690 -0.2264  0.4733 -0.0747
 8421SOL     OW36898   3.730   3.786   8.138 -0.6930 -0.7614  0.5141
 8421SOL    HW136899   3.801   3.845   8.162 -0.3136 -1.8014  1.9567
 8421SOL    HW236900   3.659   3.832   8.184 -2.4117 -0.9465 -1.9563
 8422SOL     OW36901   0.045   3.348   8.479  0.6100 -0.2562  0.4083
 8422SOL    HW136902   0.066   3.350   8.572  0.4565 -1.4274  0.4566
 8422SOL    HW236903   4.695   3.311   8.476  0.2015  0.7647 -0.4755
 8423SOL     OW36904   1.365   2.748   6.076 -0.1708 -0.2476  0.9869
 8423SOL    HW136905   1.277   2.717   6.051  0.3479 -1.5105  0.7272
 8423SOL    HW236906   1.416   2.727   5.998 -0.7847  1.0276  0.2343
 8424SOL     OW36907   3.648   3.715  15.208  0.4162 -0.1546 -0.3440
 8424SOL    HW136908   3.638   3.800  15.251  1.6503  0.7721 -1.8770
 8424SOL    HW236909   3.731   3.684  15.244  1.1200  3.0662  0.8440
 8425SOL     OW36910   2.430   2.812   1.716  0.1100 -0.2167  0.1093
 8425SOL    HW136911   2.428   2.736   1.774 -2.1504  0.5815  1.0905
 8425SOL    HW236912   2.363   2.782   1.655 -0.8487  0.5152  0.7978
 8426SOL     OW36913   4.079   2.343   6.641 -0.1947  0.3657  0.1032
 8426SOL    HW136914   4.007   2.303   6.592  0.5803 -0.1227 -0.6415
 8426SOL    HW236915   4.142   2.285   6.599 -0.1426 -0.2802  1.0615
 8427SOL     OW36916   2.449   2.106   1.783 -0.0407 -0.3186  0.0401
 8427SOL    HW136917   2.354   2.110   1.792 -0.0268 -1.9943  0.8652
 8427SOL    HW236918   2.459   2.049   1.707 -0.8258 -0.5739  0.1343
 8428SOL     OW36919   4.343   2.996   4.490 -0.4268  0.2123 -0.4051
 8428SOL    HW136920   4.430   2.996   4.451  0.3022  0.8807  1.2448
 8428SOL    HW236921   4.349   3.073   4.545 -2.0791 -0.0694  0.1834
 8429SOL     OW36922   4.680   2.929  15.827 -0.7114 -0.2292  0.0198
 8429SOL    HW136923   4.716   2.988  15.892 -1.7043 -0.4570  0.7750
 8429SOL    HW236924   4.647   2.990  15.761  1.0909  0.7821  0.0618
 8430SOL     OW36925   3.824   2.653   7.155  0.6270  0.0336 -0.6507
 8430SOL    HW136926   3.839   2.697   7.239 -0.7227  0.2625 -0.5166
 8430SOL    HW236927   3.903   2.600   7.147 -1.0863 -2.9634  1.8822
 8431SOL     OW36928   1.779   3.395   2.448  0.3835  0.2084 -0.3144
 8431SOL    HW136929   1.802   3.411   2.357 -1.0053 -1.5267 -0.9589
 8431SOL    HW236930   1.754   3.303   2.451 -0.3640  0.3857 -0.9930
 8432SOL     OW36931   2.045   4.641   7.053  0.7572 -0.2813  0.2365
 8432SOL    HW136932   2.102   4.715   7.071 -0.7135  0.9071  0.0746
 8432SOL    HW236933   1.958   4.679   7.041  0.3352 -1.3777 -0.1950
 8433SOL     OW36934   1.667   2.279   4.292 -0.4376 -0.1803 -0.1094
 8433SOL    HW136935   1.667   2.355   4.235 -0.8438  0.7535  1.1274
 8433SOL    HW236936   1.582   2.283   4.337 -0.1706 -0.1415  0.3991
 8434SOL     OW36937   2.340   1.998   6.034  0.2641 -0.1187 -0.1121
 8434SOL    HW136938   2.399   1.966   6.102 -0.4128  1.1727  1.0860
 8434SOL    HW236939   2.262   2.016   6.086  0.3312  2.7538 -1.0358
 8435SOL     OW36940   2.855   0.628   6.987 -0.3454 -0.6244 -0.1055
 8435SOL    HW136941   2.864   0.701   7.049 -1.1148 -1.1189  0.5966
 8435SOL    HW236942   2.831   0.672   6.906 -0.1013  0.5766  0.4641
 8436SOL     OW36943   1.192   2.832   2.689  0.0808  0.5424  0.5840
 8436SOL    HW136944   1.141   2.751   2.690 -0.0925  0.6760  2.3405
 8436SOL    HW236945   1.247   2.834   2.768 -3.1391 -1.6652  2.9096
 8437SOL     OW36946   1.961   1.455   1.997 -0.2314 -0.0971 -0.2153
 8437SOL    HW136947   1.867   1.471   2.000 -0.5126 -1.7074 -0.4866
 8437SOL    HW236948   1.978   1.378   2.051  0.6561 -0.6774 -1.3329
 8438SOL     OW36949   0.673   3.619   5.096  0.3151 -0.1702 -0.2451
 8438SOL    HW136950   0.733   3.567   5.042  1.0970  0.5883 -0.0997
 8438SOL    HW236951   0.590   3.593   5.057 -1.4256  0.7660  2.8765
 8439SOL     OW36952   4.187   4.488   1.429  0.2724  0.1483 -0.2740
 8439SOL    HW136953   4.133   4.438   1.367 -0.6007  1.1023 -0.2813
 8439SOL    HW236954   4.167   4.438   1.508  2.1194  0.2071  0.2433
 8440SOL     OW36955   4.435   1.897  11.005  0.1861  0.7982  0.1574
 8440SOL    HW136956   4.527   1.871  10.996 -0.8845 -3.2763  1.1824
 8440SOL    HW236957   4.423   1.853  11.089 -2.9481  0.6554 -0.3886
 8441SOL     OW36958   3.188   1.624   0.865  0.0344  0.0853 -0.3280
 8441SOL    HW136959   3.104   1.610   0.909  0.5630 -0.4757  0.5042
 8441SOL    HW236960   3.193   1.552   0.803  1.9495 -1.0557  1.1692
 8442SOL     OW36961   1.385   2.360  15.684  0.3691 -0.0686  0.2768
 8442SOL    HW136962   1.308   2.320  15.644 -0.9006 -0.0451  2.6702
 8442SOL    HW236963   1.343   2.417  15.749  3.4767  0.5763  1.6996
 8443SOL     OW36964   2.878   1.008   2.545  0.3799 -0.3906 -0.3035
 8443SOL    HW136965   2.880   0.962   2.462 -0.3891  2.6531 -2.0200
 8443SOL    HW236966   2.918   0.933   2.588 -0.1230 -0.4132  0.1206
 8444SOL     OW36967   3.378   1.742   3.826  0.0078 -0.2572  0.5451
 8444SOL    HW136968   3.379   1.815   3.765 -1.5011 -0.8726 -0.2202
 8444SOL    HW236969   3.436   1.682   3.781  0.7516  1.1746 -0.3916
 8445SOL     OW36970   2.644   2.586   1.698  0.3225  0.0966 -0.2919
 8445SOL    HW136971   2.583   2.514   1.713 -0.2700  0.5312 -0.6258
 8445SOL    HW236972   2.590   2.665   1.699 -0.9778 -0.7866 -0.9555
 8446SOL     OW36973   1.737   2.781   7.618 -0.5237  0.1630  0.1971
 8446SOL    HW136974   1.746   2.795   7.523 -0.0600  0.8748  0.3434
 8446SOL    HW236975   1.757   2.688   7.613 -2.0483 -0.2105  1.3552
 8447SOL     OW36976   0.931   4.582   6.341  0.2494 -0.2427 -0.1717
 8447SOL    HW136977   0.927   4.600   6.434  3.0037 -2.3057  0.3332
 8447SOL    HW236978   0.850   4.621   6.307 -0.0551 -0.3162  0.4699
 8448SOL     OW36979   0.243   0.868  10.597  0.1191  0.2946 -0.0746
 8448SOL    HW136980   0.167   0.925  10.603 -0.5615 -0.1054 -4.7185
 8448SOL    HW236981   0.315   0.929  10.612  0.4293  0.3276 -1.6539
 8449SOL     OW36982   4.051   4.468   8.272 -0.6718  0.1192 -0.0910
 8449SOL    HW136983   4.007   4.450   8.356  1.4742 -2.5404  0.4563
 8449SOL    HW236984   4.133   4.500   8.309 -1.4501  1.8147  0.1585
 8450SOL     OW36985   0.719   2.256   8.127 -0.2886 -0.5083  0.2331
 8450SOL    HW136986   0.736   2.277   8.219  1.2060  0.0523 -0.1645
 8450SOL    HW236987   0.804   2.213   8.113  1.2383  1.8531  2.2117
 8451SOL     OW36988   0.832   3.025   0.213  1.1818  0.2320 -1.0234
 8451SOL    HW136989   0.899   2.978   0.164  0.4544 -1.9389  0.0547
 8451SOL    HW236990   0.889   3.059   0.283 -1.8072  2.1145  0.4896
 8452SOL     OW36991   3.679   4.082   7.282 -0.0944  0.0275 -0.6584
 8452SOL    HW136992   3.613   4.014   7.292  0.6235 -0.9380 -2.6467
 8452SOL    HW236993   3.642   4.143   7.346  1.1210  0.0787  0.0021
 8453SOL     OW36994   2.406   3.472   1.678  0.1599 -0.0514  0.3358
 8453SOL    HW136995   2.443   3.546   1.630 -2.1827  0.7023 -0.2970
 8453SOL    HW236996   2.314   3.496   1.669 -0.2944 -0.5273  3.5970
 8454SOL     OW36997   1.557   4.150   7.384  0.1643 -0.1741  0.5134
 8454SOL    HW136998   1.492   4.192   7.440 -1.5716 -1.5699 -0.4808
 8454SOL    HW236999   1.626   4.214   7.367  1.6704 -1.8871  0.1390
 8455SOL     OW37000   1.098   4.327   7.663 -0.2940  0.8971  0.4121
 8455SOL    HW137001   1.118   4.286   7.748  0.0984  2.3531  1.0139
 8455SOL    HW237002   1.116   4.419   7.679 -2.4773  1.9034 -3.0170
 8456SOL     OW37003   4.683   0.769  17.313  0.8083 -0.0512 -0.1272
 8456SOL    HW137004   4.699   0.863  17.304 -1.4432  0.2372 -0.9226
 8456SOL    HW237005   4.700   0.748  17.221 -0.2863 -1.0413 -0.1045
 8457SOL     OW37006   4.731   0.529   4.957  0.4602 -0.2789 -0.8390
 8457SOL    HW137007   4.656   0.494   5.005  0.4877 -0.1880 -0.7298
 8457SOL    HW237008   4.682   0.605   4.925 -0.2035 -0.7878 -1.0331
 8458SOL     OW37009   0.633   2.255   7.416  0.1699  0.3277  0.0807
 8458SOL    HW137010   0.593   2.241   7.329 -0.3280  0.7805  0.2357
 8458SOL    HW237011   0.697   2.317   7.380 -0.6660  0.5654 -0.9871
 8459SOL     OW37012   3.952   4.061  10.654  0.5303  0.5883 -0.4229
 8459SOL    HW137013   3.884   4.020  10.601  0.5766  1.0732 -0.8530
 8459SOL    HW237014   3.942   4.156  10.653  0.7957  0.6237  0.1229
 8460SOL     OW37015   2.715   3.338  10.485 -0.5319  0.0289 -0.0281
 8460SOL    HW137016   2.712   3.420  10.534  2.0497 -0.1513  0.4240
 8460SOL    HW237017   2.641   3.351  10.426 -1.0413  1.5969  0.9543
 8461SOL     OW37018   1.657   0.784   5.982 -0.1934 -0.3187 -0.6503
 8461SOL    HW137019   1.736   0.729   5.979  0.0810  0.0780 -0.6218
 8461SOL    HW237020   1.628   0.774   6.073  0.2874  2.1770 -0.2270
 8462SOL     OW37021   0.820   3.877  12.251  0.1727 -0.3702 -0.1057
 8462SOL    HW137022   0.790   3.958  12.291  1.4873 -0.0118  0.1198
 8462SOL    HW237023   0.804   3.894  12.158  3.2834 -3.3512 -1.1655
 8463SOL     OW37024   4.725   0.715  17.039 -0.3179  0.2805  0.2375
 8463SOL    HW137025   4.670   0.681  16.968  0.5230  0.3757 -0.4674
 8463SOL    HW237026   0.023   0.796  17.002  1.1392  1.0374  3.2807
 8464SOL     OW37027   1.688   3.624   3.308  0.3004 -0.4427  0.2548
 8464SOL    HW137028   1.640   3.631   3.390 -1.3576  2.2432 -0.9503
 8464SOL    HW237029   1.682   3.528   3.307  2.6065 -0.5940  0.1440
 8465SOL     OW37030   1.083   0.266   8.889 -0.2173  0.1864  0.0420
 8465SOL    HW137031   1.062   0.199   8.824  1.8707 -0.8377  0.4097
 8465SOL    HW237032   1.060   0.224   8.972  0.0121 -1.5448 -0.7730
 8466SOL     OW37033   3.632   2.090   4.702  0.2092  0.4092 -0.3068
 8466SOL    HW137034   3.639   2.011   4.647 -0.1874 -0.3062  0.6800
 8466SOL    HW237035   3.627   2.163   4.640 -2.0697 -0.1430 -0.7608
 8467SOL     OW37036   0.526   2.663  15.281  0.2111  0.4172 -0.1364
 8467SOL    HW137037   0.464   2.620  15.222  0.7884  2.1371 -1.9991
 8467SOL    HW237038   0.480   2.745  15.298  2.6785  1.2836  2.2910
 8468SOL     OW37039   4.436   2.632   8.539  0.2279  0.2950 -0.5253
 8468SOL    HW137040   4.341   2.633   8.532  0.2629  0.9982 -0.8569
 8468SOL    HW237041   4.457   2.602   8.450  1.0742 -0.2380 -0.1541
 8469SOL     OW37042   1.504   3.617   1.388  0.1213 -0.1170 -0.2772
 8469SOL    HW137043   1.577   3.626   1.450 -1.1630  1.0500  1.0528
 8469SOL    HW237044   1.446   3.587   1.459  0.1881  1.9300  0.6461
 8470SOL     OW37045   3.156   2.427   4.392 -0.3805 -0.3573  0.3470
 8470SOL    HW137046   3.209   2.348   4.395  0.9562  0.5208 -0.2671
 8470SOL    HW237047   3.087   2.401   4.453  1.5315 -4.3310  0.8186
 8471SOL     OW37048   0.654   0.813  13.830  0.0112 -0.4527 -0.3293
 8471SOL    HW137049   0.686   0.824  13.741  1.1918 -2.0007 -0.0932
 8471SOL    HW237050   0.711   0.876  13.874  2.0754 -2.7713  0.3093
 8472SOL     OW37051   4.209   3.793   4.654 -1.0320 -0.0725 -0.2084
 8472SOL    HW137052   4.201   3.751   4.568 -0.1793 -1.8976  0.6187
 8472SOL    HW237053   4.171   3.729   4.713 -0.0481 -0.1119  0.3923
 8473SOL     OW37054   4.175   4.149   9.177  0.2754  0.4324  0.3129
 8473SOL    HW137055   4.237   4.118   9.243 -0.6206 -2.2940 -0.1000
 8473SOL    HW237056   4.093   4.116   9.214  0.7455  1.3573  2.1468
 8474SOL     OW37057   1.721   0.143   5.821  0.4198 -0.2880  0.0800
 8474SOL    HW137058   1.675   0.133   5.905 -0.8140 -0.9089 -0.6642
 8474SOL    HW237059   1.784   0.215   5.827  1.4011 -0.9851 -1.6835
 8475SOL     OW37060   3.694   1.312  16.535  0.2317  0.2326 -0.0513
 8475SOL    HW137061   3.607   1.350  16.530  0.2420  0.0121 -1.7217
 8475SOL    HW237062   3.728   1.329  16.447  1.9200  1.8851  0.9084
 8476SOL     OW37063   3.254   1.202  11.760 -0.3096 -0.3571 -0.2241
 8476SOL    HW137064   3.251   1.147  11.838 -0.8677 -2.4906 -1.7338
 8476SOL    HW237065   3.176   1.184  11.707  0.0718 -4.9452  0.8048
 8477SOL     OW37066   0.767   1.637   7.140  0.0481 -0.7010 -0.1565
 8477SOL    HW137067   0.808   1.579   7.205  0.3360 -1.6961 -1.2176
 8477SOL    HW237068   0.778   1.592   7.056  1.3476  0.1235 -0.4241
 8478SOL     OW37069   4.394   4.114   3.183  0.2415  0.1774  0.0130
 8478SOL    HW137070   4.481   4.140   3.214 -0.0907  1.4859 -0.1690
 8478SOL    HW237071   4.411   4.050   3.114 -1.1208  0.3073 -0.4477
 8479SOL     OW37072   0.475   2.494   7.485 -0.1236  0.3054 -0.2641
 8479SOL    HW137073   0.459   2.497   7.579  1.8932  0.4875  0.0575
 8479SOL    HW237074   0.389   2.524   7.455 -0.0536  0.1370 -0.6341
 8480SOL     OW37075   0.957   0.537   2.263 -0.2809  0.3880 -0.0524
 8480SOL    HW137076   0.891   0.536   2.332  1.8743 -0.1552  1.9954
 8480SOL    HW237077   0.918   0.592   2.195 -0.8847 -1.5074 -1.2313
 8481SOL     OW37078   1.036   3.715   4.502 -0.2465 -0.2432 -0.3339
 8481SOL    HW137079   0.971   3.786   4.497  0.8656  0.7970 -0.1045
 8481SOL    HW237080   1.000   3.650   4.562 -1.7394 -0.5971 -1.6047
 8482SOL     OW37081   3.010   1.920   1.336 -0.1700 -0.7223 -0.4447
 8482SOL    HW137082   3.082   1.872   1.376 -0.6859 -0.6835  0.5275
 8482SOL    HW237083   2.938   1.865   1.367  0.6094 -1.5643 -0.1258
 8483SOL     OW37084   1.091   2.829  14.313  0.0977  0.7875  0.6021
 8483SOL    HW137085   0.997   2.850  14.313  0.6394  3.2510  0.8090
 8483SOL    HW237086   1.099   2.817  14.407  0.8773  0.9359  0.5548
 8484SOL     OW37087   2.325   2.631   5.631  0.4303 -0.6334 -0.2657
 8484SOL    HW137088   2.310   2.619   5.725  1.5132  0.9222  0.1098
 8484SOL    HW237089   2.368   2.717   5.638 -0.7121 -0.3160  3.2619
 8485SOL     OW37090   3.154   0.985   2.880  0.4023 -0.1930 -0.9361
 8485SOL    HW137091   3.145   1.019   2.790 -0.7105  0.6072 -0.5324
 8485SOL    HW237092   3.237   1.024   2.906  0.6711 -1.1278 -0.4119
 8486SOL     OW37093   4.584   1.355   6.218  0.1267  0.0173  0.0117
 8486SOL    HW137094   4.490   1.342   6.207  0.2317  0.8911 -1.9063
 8486SOL    HW237095   4.586   1.338   6.312  0.4613  0.2012  0.0416
 8487SOL     OW37096   1.200   0.638   3.589 -0.2011 -0.0754  0.6421
 8487SOL    HW137097   1.216   0.577   3.661  0.6141 -0.7126 -0.0721
 8487SOL    HW237098   1.105   0.635   3.585 -0.0485 -3.0773 -1.2879
 8488SOL     OW37099   3.591   0.653   0.293  0.1118  0.0146  0.2762
 8488SOL    HW137100   3.534   0.725   0.320 -3.0560 -2.4845  0.2124
 8488SOL    HW237101   3.591   0.605   0.376 -1.4865  2.5022  1.7219
 8489SOL     OW37102   0.169   0.833   9.866 -0.1966  0.0047  0.3838
 8489SOL    HW137103   0.231   0.813   9.936  0.7943  0.4031 -0.3893
 8489SOL    HW237104   0.179   0.746   9.827 -0.9317 -0.0785  0.3703
 8490SOL     OW37105   4.323   4.586  10.099 -0.1778  0.0671  0.3591
 8490SOL    HW137106   4.229   4.574  10.093 -0.7031  3.3842  2.0440
 8490SOL    HW237107   4.350   4.516  10.159  0.2507 -0.4838 -0.4810
 8491SOL     OW37108   1.459   1.666   6.615 -0.2421 -0.5762  0.7224
 8491SOL    HW137109   1.422   1.666   6.703 -1.0773  1.6156  0.3546
 8491SOL    HW237110   1.543   1.706   6.637  0.7593 -2.0517 -0.3644
 8492SOL     OW37111   2.203   1.340  17.585 -0.1359  0.0221 -0.0513
 8492SOL    HW137112   2.282   1.388  17.609 -0.9956  1.4940 -0.1824
 8492SOL    HW237113   2.186   1.311  17.675 -0.3104 -1.3733 -0.5337
 8493SOL     OW37114   0.503   2.408   7.998  0.0604  0.2638  0.5142
 8493SOL    HW137115   0.582   2.379   8.045  0.6291 -0.0253 -0.6161
 8493SOL    HW237116   0.459   2.448   8.074  1.7999  1.5304  0.8682
 8494SOL     OW37117   1.672   0.362   2.097  0.7988  0.0960 -0.1829
 8494SOL    HW137118   1.647   0.379   2.188 -0.6224 -0.2099 -0.5214
 8494SOL    HW237119   1.629   0.277   2.091 -2.7747  1.8593  0.5514
 8495SOL     OW37120   1.994   2.972  12.046  0.2448 -0.4823  0.0620
 8495SOL    HW137121   2.062   2.927  12.096 -1.3006 -0.7884  1.8523
 8495SOL    HW237122   1.920   2.929  12.087 -0.2096 -0.8194 -1.1145
 8496SOL     OW37123   3.964   4.699   2.932 -0.4443 -0.1044  0.0505
 8496SOL    HW137124   4.001   4.655   2.855 -1.8523 -0.9749 -0.1336
 8496SOL    HW237125   4.025   4.675   3.001 -0.4460  0.4651  0.2481
 8497SOL     OW37126   4.206   0.465   5.728 -0.9720 -0.1353 -0.0963
 8497SOL    HW137127   4.202   0.556   5.699 -1.2751  0.3491  1.5019
 8497SOL    HW237128   4.251   0.433   5.650 -0.8898 -0.3471  0.0373
 8498SOL     OW37129   2.565   4.146   2.819  0.0168 -0.5080  0.1461
 8498SOL    HW137130   2.493   4.207   2.800  0.9702 -0.0171 -1.8343
 8498SOL    HW237131   2.510   4.084   2.867 -0.7618  1.9087  2.3587
 8499SOL     OW37132   2.162   3.012   8.902  0.7460 -0.3580 -0.1990
 8499SOL    HW137133   2.153   3.088   8.960 -0.2296 -0.3144 -0.3971
 8499SOL    HW237134   2.114   3.037   8.824  0.4663  0.5882  0.2730
 8500SOL     OW37135   0.015   4.377   9.884  0.6519  0.0877 -0.4317
 8500SOL    HW137136   4.696   4.300   9.881 -0.3476  0.8114  0.1961
 8500SOL    HW237137   0.061   4.377   9.968 -0.5362 -0.3509  0.2147
 8501SOL     OW37138   4.159   2.891  10.073 -0.8343  0.0823  0.1360
 8501SOL    HW137139   4.143   2.947  10.149  1.1760 -0.4613  0.9702
 8501SOL    HW237140   4.156   2.802  10.110  3.2905 -0.0005  0.3184
 8502SOL     OW37141   0.651   3.655   2.275  0.4639  0.2014  0.1672
 8502SOL    HW137142   0.738   3.662   2.235  0.7873  1.3527  1.0946
 8502SOL    HW237143   0.663   3.695   2.361  0.0468 -1.1847  0.8728
 8503SOL     OW37144   0.187   3.484   3.850 -0.0767  0.1693  0.6401
 8503SOL    HW137145   0.158   3.523   3.932  0.7578 -2.9988  2.4672
 8503SOL    HW237146   0.200   3.392   3.874  0.4135  0.1909  0.4760
 8504SOL     OW37147   2.692   0.448   1.456 -0.0987 -0.2157 -0.2501
 8504SOL    HW137148   2.680   0.541   1.440  0.3505 -0.0790  0.1947
 8504SOL    HW237149   2.779   0.441   1.496 -0.7419  0.3490  1.2835
 8505SOL     OW37150   2.520   3.644  12.187  0.3904  0.2161  0.0554
 8505SOL    HW137151   2.443   3.675  12.140 -0.7948  0.1405  1.9372
 8505SOL    HW237152   2.489   3.650  12.278 -1.6764 -1.0031 -0.5788
 8506SOL     OW37153   2.472   4.571   5.127  0.0927  0.5312  0.6667
 8506SOL    HW137154   2.507   4.630   5.194 -0.5209  0.0656  1.3954
 8506SOL    HW237155   2.429   4.508   5.185 -1.0493 -1.8043 -2.7084
 8507SOL     OW37156   2.464   1.542   7.748  0.0734 -0.1580  0.2175
 8507SOL    HW137157   2.368   1.546   7.750  0.0500  0.1638 -1.2526
 8507SOL    HW237158   2.484   1.616   7.806  0.0672 -1.7073  2.1931
 8508SOL     OW37159   2.193   2.166   8.189 -0.6567 -0.2821  0.1019
 8508SOL    HW137160   2.244   2.199   8.115 -2.0001 -1.3081 -1.2862
 8508SOL    HW237161   2.101   2.182   8.164  0.1271 -2.0371 -3.8959
 8509SOL     OW37162   1.465   2.478   9.720 -0.6071 -0.4172  0.0899
 8509SOL    HW137163   1.407   2.462   9.646 -0.3002 -3.5650  0.5019
 8509SOL    HW237164   1.429   2.563   9.745  0.3907  0.3675 -1.1105
 8510SOL     OW37165   1.592   0.465   5.851 -0.0840 -0.1075  0.5092
 8510SOL    HW137166   1.686   0.457   5.831 -0.1944  1.1663 -0.4938
 8510SOL    HW237167   1.595   0.439   5.943 -0.9728  0.3756  0.6728
 8511SOL     OW37168   4.233   2.162  10.623  0.7529 -0.5599  0.4871
 8511SOL    HW137169   4.224   2.083  10.676 -0.2050  0.6342  2.1021
 8511SOL    HW237170   4.290   2.121  10.558  1.0659  0.4165  0.1405
 8512SOL     OW37171   3.777   2.523   2.449  0.0264 -0.1215 -0.3082
 8512SOL    HW137172   3.796   2.440   2.492 -1.7632 -0.5912 -0.4041
 8512SOL    HW237173   3.806   2.584   2.516 -1.1555  1.0332 -0.8363
 8513SOL     OW37174   0.034   4.574   1.646 -0.1850 -0.0825  0.2431
 8513SOL    HW137175   4.681   4.542   1.643  0.0099 -0.7039  0.8971
 8513SOL    HW237176   0.076   4.537   1.568 -3.2744  1.3443 -2.0779
 8514SOL     OW37177   4.501   4.115   4.514  0.4230  0.1525  0.2787
 8514SOL    HW137178   4.476   4.171   4.587  1.2607  0.7263  0.1160
 8514SOL    HW237179   4.512   4.178   4.442 -0.1343  0.8236  0.7797
 8515SOL     OW37180   1.682   3.570  14.608  0.4410  1.0589  0.6586
 8515SOL    HW137181   1.643   3.487  14.633  1.0588  0.7248  0.5059
 8515SOL    HW237182   1.735   3.541  14.534 -0.1195  1.7410 -0.0155
 8516SOL     OW37183   1.732   0.023   4.483  0.1857  0.1753 -0.5323
 8516SOL    HW137184   1.695   4.710   4.412 -0.3393 -0.3340  0.1065
 8516SOL    HW237185   1.759   4.692   4.544 -1.8678 -1.1597 -1.1371
 8517SOL     OW37186   4.665   3.769   9.612 -0.1221  0.2252 -0.7878
 8517SOL    HW137187   0.015   3.735   9.631  0.0906  2.1047  1.6125
 8517SOL    HW237188   4.695   3.847   9.566 -2.2190  1.6418  0.2295
 8518SOL     OW37189   0.305   1.158   7.701 -0.1266 -0.1947  0.4193
 8518SOL    HW137190   0.400   1.151   7.693 -0.0553  0.6528  0.4417
 8518SOL    HW237191   0.285   1.248   7.727 -0.6095  0.5498 -2.5961
 8519SOL     OW37192   1.695   0.739   1.149 -0.4463  0.7028  0.4092
 8519SOL    HW137193   1.665   0.690   1.226 -0.7508 -1.3753 -1.0398
 8519SOL    HW237194   1.619   0.796   1.138 -0.8544  0.3911  1.5817
 8520SOL     OW37195   0.178   2.730   8.972 -0.3033 -0.9084 -0.2251
 8520SOL    HW137196   0.154   2.821   8.990 -0.2704 -0.7350 -1.0599
 8520SOL    HW237197   0.130   2.686   9.042 -1.7481 -0.7131 -1.1086
 8521SOL     OW37198   3.525   1.192   5.889 -0.0220 -0.2062 -0.0147
 8521SOL    HW137199   3.582   1.217   5.962 -0.3072  0.5009 -0.0372
 8521SOL    HW237200   3.443   1.203   5.938  0.4313  0.0741  0.6812
 8522SOL     OW37201   1.681   0.945   2.952 -0.0442 -0.3618 -0.0997
 8522SOL    HW137202   1.675   0.853   2.926  1.6053 -0.1382 -1.3090
 8522SOL    HW237203   1.602   0.988   2.921  0.3294  0.6970  0.4102
 8523SOL     OW37204   0.622   1.733  12.466  0.2518 -0.4594 -0.1420
 8523SOL    HW137205   0.590   1.802  12.408 -3.8642 -0.0887  2.5806
 8523SOL    HW237206   0.549   1.715  12.526  0.2123 -0.6671 -0.2505
 8524SOL     OW37207   0.760   3.052   2.639 -0.1646 -1.4085 -0.4246
 8524SOL    HW137208   0.785   3.144   2.643 -0.1869 -1.3857 -0.7540
 8524SOL    HW237209   0.677   3.057   2.686 -0.8555  0.4215 -1.8744
 8525SOL     OW37210   0.454   3.481   4.846  0.0873 -0.7262 -0.1493
 8525SOL    HW137211   0.402   3.503   4.924  0.0925 -1.8880  0.1716
 8525SOL    HW237212   0.400   3.530   4.783 -0.5229 -1.9913 -0.6065
 8526SOL     OW37213   3.883   1.960   8.787 -0.1820  0.4867 -0.1949
 8526SOL    HW137214   3.919   2.005   8.710  1.1526  0.6692  0.5352
 8526SOL    HW237215   3.895   1.867   8.770  0.7153  0.4988  0.3550
 8527SOL     OW37216   1.863   3.082   2.619 -0.4272 -0.1645  0.3734
 8527SOL    HW137217   1.949   3.059   2.585 -0.6690  1.4485 -1.3121
 8527SOL    HW237218   1.808   3.084   2.540  0.2527  0.6871 -0.0799
 8528SOL     OW37219   2.797   1.640   5.449 -0.0249  0.0476  0.1842
 8528SOL    HW137220   2.871   1.623   5.391  0.7108 -1.0241  1.4550
 8528SOL    HW237221   2.796   1.736   5.444 -0.0311  0.0769  0.7523
 8529SOL     OW37222   2.399   3.556   6.846 -0.2241  0.4391  0.3631
 8529SOL    HW137223   2.411   3.492   6.776  3.1872  2.5649 -1.0177
 8529SOL    HW237224   2.439   3.641   6.829  0.9621 -0.2102 -0.1171
 8530SOL     OW37225   2.681   3.502  13.456 -0.1129  0.2090 -0.0417
 8530SOL    HW137226   2.688   3.543  13.370  0.1895 -0.2570 -0.2385
 8530SOL    HW237227   2.742   3.431  13.438 -0.6063 -0.2503  0.0970
 8531SOL     OW37228   1.069   4.194   9.456 -0.1467 -0.0195 -0.7211
 8531SOL    HW137229   1.045   4.274   9.410  1.6962 -0.4571 -2.4387
 8531SOL    HW237230   0.992   4.163   9.505  0.1310  1.0538  0.3801
 8532SOL     OW37231   1.766   3.031   0.392 -0.0623  0.1484 -0.4409
 8532SOL    HW137232   1.852   2.999   0.419 -0.8191 -1.1996  0.3509
 8532SOL    HW237233   1.720   2.951   0.418  2.2470 -1.0034  0.1577
 8533SOL     OW37234   0.083   2.598  17.122  1.0621 -0.1210  0.0808
 8533SOL    HW137235   0.004   2.647  17.142  2.2101  0.7840  2.3154
 8533SOL    HW237236   0.065   2.582  17.029  0.3111  1.1282  0.0136
 8534SOL     OW37237   4.574   1.280   5.900  0.2128 -0.1191 -0.4162
 8534SOL    HW137238   4.580   1.375   5.904  1.0949  0.0008 -4.0616
 8534SOL    HW237239   4.482   1.259   5.919  1.2156 -2.9791  1.2400
 8535SOL     OW37240   3.362   3.316   0.458 -0.3387 -0.2591 -0.2034
 8535SOL    HW137241   3.413   3.238   0.437  0.2049  0.0415 -0.0127
 8535SOL    HW237242   3.283   3.273   0.428  0.6679 -2.1633 -0.1161
 8536SOL     OW37243   1.821   1.401   5.855 -0.1884 -0.2344 -0.4285
 8536SOL    HW137244   1.818   1.433   5.945 -0.3265 -1.0340 -0.1532
 8536SOL    HW237245   1.810   1.309   5.877 -1.2759 -0.2342 -0.9780
 8537SOL     OW37246   0.811   0.332   3.654 -0.4099 -0.7237  0.0847
 8537SOL    HW137247   0.749   0.380   3.599 -0.8937  0.3846  1.5745
 8537SOL    HW237248   0.780   0.243   3.641  0.1361 -1.4389  3.4890
 8538SOL     OW37249   3.202   3.377   8.157  0.1747 -0.6786  0.5199
 8538SOL    HW137250   3.176   3.463   8.124  1.4953 -1.2860 -2.1018
 8538SOL    HW237251   3.247   3.410   8.234  0.9300 -0.0379 -0.1921
 8539SOL     OW37252   1.358   1.883   6.103  0.2443  0.4778 -0.2229
 8539SOL    HW137253   1.425   1.888   6.171 -0.9305 -0.0011  0.9878
 8539SOL    HW237254   1.402   1.835   6.032 -2.1808 -0.7621 -0.8838
 8540SOL     OW37255   3.017   3.802   8.717 -0.6644  0.2273  0.3603
 8540SOL    HW137256   2.958   3.831   8.647  1.2797 -0.2783 -1.4811
 8540SOL    HW237257   3.021   3.707   8.706 -1.7504  0.3189 -0.9283
 8541SOL     OW37258   1.425   1.592   2.235  0.3075  0.7082  0.4034
 8541SOL    HW137259   1.479   1.581   2.156 -0.0619 -3.0770  0.6540
 8541SOL    HW237260   1.484   1.549   2.298  1.1938  1.9807  0.4455
 8542SOL     OW37261   1.115   0.843   2.734 -0.2327  0.3203 -0.1948
 8542SOL    HW137262   1.124   0.889   2.650 -0.9281 -1.6569 -1.3387
 8542SOL    HW237263   1.149   0.758   2.709  0.7106  0.0573  1.9791
 8543SOL     OW37264   4.442   0.663   6.414  0.1460  0.2113 -0.2642
 8543SOL    HW137265   4.353   0.686   6.388  0.0640  0.0808 -0.1007
 8543SOL    HW237266   4.494   0.742   6.399  0.6313 -0.1480 -0.4722
 8544SOL     OW37267   2.654   3.477   3.365 -0.2704 -0.7501 -0.0721
 8544SOL    HW137268   2.610   3.413   3.421 -0.4749  0.4533  1.1299
 8544SOL    HW237269   2.588   3.540   3.336  1.0561  0.6571 -0.0443
 8545SOL     OW37270   2.215   2.460   9.999 -0.0272 -0.3220  0.4820
 8545SOL    HW137271   2.127   2.481  10.032  0.3964  2.7842 -0.3742
 8545SOL    HW237272   2.203   2.408   9.920 -0.7082  0.8597 -0.1813
 8546SOL     OW37273   2.904   3.034   3.632 -0.5971  0.0867 -0.1234
 8546SOL    HW137274   2.921   3.060   3.541  0.5550  0.8560  0.3256
 8546SOL    HW237275   2.960   3.097   3.677  0.4706 -1.3494  0.5362
 8547SOL     OW37276   0.404   0.834   5.555  0.2991 -0.2243  0.1726
 8547SOL    HW137277   0.403   0.917   5.604 -1.2020 -0.3086  0.2782
 8547SOL    HW237278   0.446   0.856   5.472 -2.2636  2.1697 -0.4849
 8548SOL     OW37279   1.057   3.990   9.817 -0.2104 -0.2463 -0.3721
 8548SOL    HW137280   1.132   3.973   9.760  0.9764  1.0482  0.8061
 8548SOL    HW237281   0.983   3.943   9.777 -0.1676  0.1379 -0.8981
 8549SOL     OW37282   4.354   4.328  15.898  0.3285 -0.0857 -0.4907
 8549SOL    HW137283   4.281   4.273  15.928  0.1809 -0.6862 -1.9679
 8549SOL    HW237284   4.419   4.285  15.954  2.7901  1.0861 -2.4589
 8550SOL     OW37285   4.155   1.747   8.776  0.8183 -0.3682  0.3066
 8550SOL    HW137286   4.134   1.759   8.868  2.1490 -0.9727  0.6981
 8550SOL    HW237287   4.070   1.751   8.732  1.2399  0.0820 -0.4747
 8551SOL     OW37288   1.864   3.691   6.783 -0.4390 -0.5901 -0.4475
 8551SOL    HW137289   1.805   3.630   6.827 -1.7179  0.0378 -1.2644
 8551SOL    HW237290   1.947   3.670   6.825 -0.1688  0.9309 -0.2321
 8552SOL     OW37291   3.446   4.136  13.247  0.1276  0.5521 -0.4931
 8552SOL    HW137292   3.461   4.181  13.330 -0.4492  0.8395 -0.5380
 8552SOL    HW237293   3.533   4.098  13.236  1.3837  3.1642  0.4708
 8553SOL     OW37294   3.384   3.226   8.746  0.0476 -0.2477 -0.1642
 8553SOL    HW137295   3.293   3.243   8.774 -0.2067 -0.8199 -0.6498
 8553SOL    HW237296   3.400   3.301   8.689  2.5870 -0.7036 -0.0259
 8554SOL     OW37297   1.841   2.945   5.133 -0.1522  0.5318 -0.2677
 8554SOL    HW137298   1.830   2.866   5.081  0.9022  0.3792 -0.2643
 8554SOL    HW237299   1.802   3.016   5.082  0.6738  0.0751 -1.5299
 8555SOL     OW37300   0.938   0.790   7.613  0.2322  0.3773  0.1145
 8555SOL    HW137301   0.985   0.820   7.535 -0.5141  1.6310  0.1457
 8555SOL    HW237302   1.006   0.727   7.636 -1.2899 -0.7007  1.6477
 8556SOL     OW37303   2.488   3.608  10.198  0.3831 -0.7388  0.4631
 8556SOL    HW137304   2.446   3.522  10.194 -1.9461  0.5801 -2.5379
 8556SOL    HW237305   2.446   3.629  10.281 -2.8790  3.0641 -2.1651
 8557SOL     OW37306   3.767   2.789   6.668  0.1084 -0.0917 -0.2281
 8557SOL    HW137307   3.743   2.765   6.757 -0.6823  1.7801  0.0533
 8557SOL    HW237308   3.765   2.702   6.629  1.6287 -0.1205 -0.2550
 8558SOL     OW37309   0.032   2.332   5.173  0.7316  0.0122 -0.2909
 8558SOL    HW137310   0.117   2.375   5.187  1.9217 -1.4768 -3.0611
 8558SOL    HW237311   4.714   2.406   5.198  0.0355 -1.9346  3.9186
 8559SOL     OW37312   2.437   4.455   6.987  0.1495  0.3799  0.3544
 8559SOL    HW137313   2.502   4.425   6.923 -1.5908  2.1800 -2.2695
 8559SOL    HW237314   2.362   4.443   6.929 -1.1487  1.0144  1.9116
 8560SOL     OW37315   3.147   0.869  15.348 -0.0397  0.2976 -0.1687
 8560SOL    HW137316   3.149   0.943  15.409 -0.1327 -1.0033  1.4308
 8560SOL    HW237317   3.235   0.831  15.342  0.1671  0.7480 -0.0113
 8561SOL     OW37318   0.674   3.629   3.422  0.3209 -0.1112 -0.4980
 8561SOL    HW137319   0.587   3.664   3.445 -0.0303 -0.6164 -1.0684
 8561SOL    HW237320   0.716   3.714   3.411  0.2451 -0.1068 -0.7458
 8562SOL     OW37321   3.078   2.617   5.697  0.1724 -0.5173  0.2096
 8562SOL    HW137322   2.984   2.624   5.713  0.1154  0.2887 -0.5328
 8562SOL    HW237323   3.074   2.613   5.602 -0.1217 -0.9779  0.2416
 8563SOL     OW37324   0.574   2.174  10.072  0.3282  0.4152  0.5580
 8563SOL    HW137325   0.636   2.247  10.069  1.7918 -0.8137  0.6139
 8563SOL    HW237326   0.545   2.190  10.162 -0.3420 -2.4929  0.8805
 8564SOL     OW37327   0.061   1.629  10.082  0.0857  0.1611  0.4010
 8564SOL    HW137328   0.155   1.635  10.101  0.2550 -1.3620  0.0770
 8564SOL    HW237329   0.038   1.719  10.060  0.1253  0.3725  1.2192
 8565SOL     OW37330   2.165   0.058   9.126  0.2790  0.6019  0.3031
 8565SOL    HW137331   2.099   0.124   9.147 -2.8255 -2.5108  0.3741
 8565SOL    HW237332   2.245   0.111   9.128  0.2034  0.6919  1.2945
 8566SOL     OW37333   3.355   0.550   2.128  0.0559 -0.4059 -0.2662
 8566SOL    HW137334   3.349   0.526   2.220  1.9991 -1.5742 -0.4392
 8566SOL    HW237335   3.443   0.586   2.121 -0.6039  1.5250  1.5778
 8567SOL     OW37336   3.824   3.909   9.364 -0.7504  0.4649 -0.6476
 8567SOL    HW137337   3.906   3.873   9.329 -1.0128  0.5015 -1.3000
 8567SOL    HW237338   3.753   3.870   9.314 -0.8224 -0.8827  0.5194
 8568SOL     OW37339   1.904   2.158  13.794  0.0592  0.1175 -0.3415
 8568SOL    HW137340   1.935   2.168  13.704 -2.2979  1.5317 -1.0029
 8568SOL    HW237341   1.840   2.087  13.782  0.2217 -0.3930  1.8296
 8569SOL     OW37342   4.280   3.598  10.860 -0.1240 -0.2364 -0.1455
 8569SOL    HW137343   4.202   3.572  10.910  0.1927 -1.1648 -0.1313
 8569SOL    HW237344   4.327   3.516  10.842  3.7992  1.9331  0.2820
 8570SOL     OW37345   2.272   3.785   1.213 -0.4327  0.0761  0.9580
 8570SOL    HW137346   2.258   3.877   1.235  0.5178  0.8235 -1.5568
 8570SOL    HW237347   2.251   3.748   1.299 -2.2154  0.6323  0.7722
 8571SOL     OW37348   2.690   1.098  13.708 -0.2319 -0.6092  0.2213
 8571SOL    HW137349   2.775   1.131  13.678 -0.3770 -0.3332  0.1095
 8571SOL    HW237350   2.632   1.129  13.638  2.0904  2.6478 -0.2356
 8572SOL     OW37351   2.629   1.883   7.124  0.3576  0.4540 -0.3240
 8572SOL    HW137352   2.643   1.909   7.215 -0.4598 -2.3888  0.6041
 8572SOL    HW237353   2.661   1.793   7.127 -2.6489 -0.6047 -0.3456
 8573SOL     OW37354   2.897   2.811   3.959  0.5784 -0.1001 -0.1400
 8573SOL    HW137355   2.897   2.826   4.053 -1.0892 -1.4732  0.0943
 8573SOL    HW237356   2.803   2.805   3.940  0.7152  0.0393 -0.8909
 8574SOL     OW37357   4.113   3.051   7.440  0.2198  0.1324  0.9690
 8574SOL    HW137358   4.056   3.123   7.469 -1.4574 -1.2539  1.0791
 8574SOL    HW237359   4.195   3.077   7.482 -0.3226  2.6262  0.4919
 8575SOL     OW37360   2.268   0.693   1.525 -0.2525  0.5133  0.1639
 8575SOL    HW137361   2.339   0.679   1.588  0.1211  0.0201 -0.3680
 8575SOL    HW237362   2.295   0.762   1.465 -0.7108  1.1814  0.7265
 8576SOL     OW37363   3.880   3.760   6.820  0.0889 -0.2418 -0.4546
 8576SOL    HW137364   3.846   3.670   6.819 -1.9122  0.5205 -1.8806
 8576SOL    HW237365   3.914   3.765   6.909  1.1483 -0.4171 -0.8432
 8577SOL     OW37366   1.317   3.485   1.960  0.2772  0.5202 -0.2725
 8577SOL    HW137367   1.222   3.482   1.948  0.4531 -3.3200 -0.7950
 8577SOL    HW237368   1.356   3.536   1.889 -0.1553  0.1543 -0.7755
 8578SOL     OW37369   3.308   2.545   8.707 -0.5247 -0.2327 -0.1225
 8578SOL    HW137370   3.297   2.494   8.786  1.0882  0.5036  0.5886
 8578SOL    HW237371   3.227   2.595   8.700 -0.3376 -0.0773 -1.2729
 8579SOL     OW37372   2.638   1.931  12.741 -0.2093 -0.4486  0.0595
 8579SOL    HW137373   2.665   1.861  12.681 -0.2418  0.2174 -0.7239
 8579SOL    HW237374   2.675   2.013  12.709  0.9370 -0.3864  1.5356
 8580SOL     OW37375   0.221   4.028   8.095  0.2710  0.7086  0.0843
 8580SOL    HW137376   0.202   4.108   8.144  0.0679 -0.4947  1.9718
 8580SOL    HW237377   0.142   3.977   8.116  0.2079  0.7653 -0.0165
 8581SOL     OW37378   1.348   1.684   4.714 -0.8156  0.1416 -0.1261
 8581SOL    HW137379   1.439   1.668   4.687 -0.6145  2.1812 -0.6360
 8581SOL    HW237380   1.302   1.637   4.644 -1.4777 -1.6341  1.5323
 8582SOL     OW37381   2.965   3.755   4.141 -0.0178 -0.5558  0.1082
 8582SOL    HW137382   2.941   3.848   4.141 -1.6132 -0.9794  2.6492
 8582SOL    HW237383   2.894   3.720   4.195 -1.1572 -1.8091 -2.1884
 8583SOL     OW37384   0.895   1.583   4.358  0.2577 -0.1122  0.8929
 8583SOL    HW137385   0.911   1.564   4.450  0.0396 -0.1240  0.9282
 8583SOL    HW237386   0.973   1.537   4.327 -2.3198 -2.2813 -2.4670
 8584SOL     OW37387   3.009   3.464   6.974 -0.8004  0.2985 -0.1086
 8584SOL    HW137388   3.054   3.382   6.952  0.7339  1.1654 -0.1682
 8584SOL    HW237389   2.921   3.442   6.943  0.2612 -1.9798 -1.4858
 8585SOL     OW37390   0.757   3.800  15.067  0.3590 -0.0503 -0.0843
 8585SOL    HW137391   0.766   3.813  14.972 -3.9081  0.0408 -0.4588
 8585SOL    HW237392   0.700   3.723  15.070  1.2555 -0.6610  1.4383
 8586SOL     OW37393   4.291   1.551   2.268  0.5747  0.2009  0.8242
 8586SOL    HW137394   4.267   1.460   2.252  0.2971  1.2376 -4.5766
 8586SOL    HW237395   4.209   1.587   2.301  0.8003  1.3667  0.1049
 8587SOL     OW37396   3.600   0.530  15.456 -0.4468 -0.4130 -0.2470
 8587SOL    HW137397   3.570   0.439  15.449  1.1014 -0.9387 -0.0676
 8587SOL    HW237398   3.519   0.582  15.459 -0.6241 -0.8281  1.7193
 8588SOL     OW37399   3.877   0.084   8.824  0.6817  0.8964 -0.3246
 8588SOL    HW137400   3.817   0.030   8.773  1.8692 -1.2382  0.5601
 8588SOL    HW237401   3.868   0.159   8.765 -1.0258  0.7336 -0.2501
 8589SOL     OW37402   0.661   4.404  10.342 -0.1760 -0.0010 -0.1066
 8589SOL    HW137403   0.580   4.360  10.318  1.6365 -1.4642 -3.5974
 8589SOL    HW237404   0.701   4.338  10.398 -0.3316 -0.5803 -0.6756
 8590SOL     OW37405   3.578   1.286   7.789  0.3507 -0.4107  0.4308
 8590SOL    HW137406   3.516   1.343   7.833 -1.1060 -1.6895  0.0342
 8590SOL    HW237407   3.544   1.281   7.700 -0.6399  0.1350  0.7921
 8591SOL     OW37408   3.433   0.241   1.478 -0.0788 -0.1598  0.3796
 8591SOL    HW137409   3.338   0.255   1.483 -0.0890  0.1628 -0.6756
 8591SOL    HW237410   3.450   0.225   1.385 -1.3460  1.7830 -0.2042
 8592SOL     OW37411   0.817   2.460   6.149 -0.7176  0.3058 -0.7229
 8592SOL    HW137412   0.874   2.389   6.179  2.2438  2.0995 -2.1529
 8592SOL    HW237413   0.740   2.407   6.127 -0.6409 -0.5965  1.1745
 8593SOL     OW37414   2.046   4.402   9.536  0.5434  0.2423  0.4745
 8593SOL    HW137415   1.962   4.357   9.530 -0.2938  1.8062  0.5040
 8593SOL    HW237416   2.044   4.464   9.463  0.7592 -0.4103 -0.0832
 8594SOL     OW37417   2.447   1.344  17.266  0.1080 -0.0594  0.5824
 8594SOL    HW137418   2.382   1.279  17.291  0.9918 -1.7843 -1.7028
 8594SOL    HW237419   2.392   1.423  17.261  1.1128  0.4808 -1.7993
 8595SOL     OW37420   2.062   2.301  14.271  0.3098  0.0416 -0.2469
 8595SOL    HW137421   2.035   2.292  14.180  2.9776 -1.2507 -0.9123
 8595SOL    HW237422   2.119   2.226  14.287 -0.8575  0.0985  4.2679
 8596SOL     OW37423   2.442   1.590   4.352 -0.2785  0.1631  0.8073
 8596SOL    HW137424   2.493   1.584   4.271  3.5524  3.7048  2.9556
 8596SOL    HW237425   2.506   1.640   4.403  0.3259 -0.0439  0.2632
 8597SOL     OW37426   1.906   0.668   6.010  0.2033 -0.4010  0.0339
 8597SOL    HW137427   1.932   0.656   6.101 -0.2569  2.3985  0.5592
 8597SOL    HW237428   1.975   0.607   5.984  0.7218  0.1743  0.0413
 8598SOL     OW37429   4.497   0.312   8.863  0.0494 -0.1327  0.0834
 8598SOL    HW137430   4.583   0.346   8.840  0.2930 -1.4023 -0.8494
 8598SOL    HW237431   4.452   0.390   8.831 -1.3923  0.0584  2.5468
 8599SOL     OW37432   0.914   2.443   1.530 -0.0474  0.5220  0.0610
 8599SOL    HW137433   0.994   2.464   1.578  0.4603 -0.7350 -0.2341
 8599SOL    HW237434   0.948   2.400   1.452  0.7506  2.0913 -0.4497
 8600SOL     OW37435   1.720   1.916  13.811 -0.2508  0.2769  0.5352
 8600SOL    HW137436   1.787   1.850  13.791  1.8641  2.7107 -0.4297
 8600SOL    HW237437   1.640   1.865  13.825  1.2452 -2.0575  0.7051
 8601SOL     OW37438   3.285   3.209   9.762 -0.1727 -0.1930  0.0830
 8601SOL    HW137439   3.328   3.221   9.846  2.8382  0.0550 -1.5101
 8601SOL    HW237440   3.191   3.196   9.779 -0.5987  0.0925 -1.9899
 8602SOL     OW37441   1.099   3.706  15.566 -0.4317  0.2478  0.5965
 8602SOL    HW137442   1.135   3.756  15.493  0.9190 -0.0415  1.0788
 8602SOL    HW237443   1.149   3.724  15.645  0.6472  0.1804 -0.0788
 8603SOL     OW37444   3.081   2.652   0.169  0.1866  0.4241 -0.2431
 8603SOL    HW137445   3.052   2.569   0.132 -1.5980  0.4042  1.1330
 8603SOL    HW237446   3.023   2.668   0.245 -1.4490 -0.4232 -1.3108
 8604SOL     OW37447   4.441   4.270   5.641 -0.3144 -0.1275 -0.4338
 8604SOL    HW137448   4.394   4.238   5.565 -2.5843  0.5489  0.6851
 8604SOL    HW237449   4.528   4.229   5.639 -0.2882 -0.1472  0.7695
 8605SOL     OW37450   0.503   0.571   7.491 -0.0269 -0.1725  0.4193
 8605SOL    HW137451   0.596   0.590   7.500  0.4297 -2.9168  1.4065
 8605SOL    HW237452   0.464   0.628   7.556  0.4355 -0.7024  1.1552
 8606SOL     OW37453   0.585   1.732   5.451 -0.0645  0.0490  0.3251
 8606SOL    HW137454   0.646   1.674   5.498  1.6008  1.9936  0.5914
 8606SOL    HW237455   0.647   1.786   5.401 -0.1241 -0.2160 -0.0291
 8607SOL     OW37456   3.322   4.219   2.256 -0.1804 -0.5464  0.1049
 8607SOL    HW137457   3.232   4.209   2.223 -0.2492 -0.4018  0.2466
 8607SOL    HW237458   3.366   4.135   2.241  0.7550 -0.1030  0.4101
 8608SOL     OW37459   3.363   3.338  14.710  0.3040 -0.5624  0.4444
 8608SOL    HW137460   3.269   3.334  14.725  0.4214 -1.0256  1.0558
 8608SOL    HW237461   3.385   3.418  14.757 -1.3140  0.0441  0.1814
 8609SOL     OW37462   1.230   4.364  11.760  0.3208 -0.3293  0.7255
 8609SOL    HW137463   1.302   4.319  11.804  0.5758 -2.4654 -1.8415
 8609SOL    HW237464   1.250   4.455  11.783 -0.6786  0.1231 -0.2000
 8610SOL     OW37465   0.463   0.514   2.298 -0.2910  0.5806  0.6549
 8610SOL    HW137466   0.437   0.575   2.229 -0.2337  0.6067  0.6569
 8610SOL    HW237467   0.471   0.429   2.254  0.5136  0.9077  0.1646
 8611SOL     OW37468   3.188   2.764   0.932 -0.3926 -0.3364 -0.0875
 8611SOL    HW137469   3.106   2.721   0.952 -0.2270 -1.8792 -2.6775
 8611SOL    HW237470   3.190   2.735   0.841  1.1689 -0.3845 -0.0483
 8612SOL     OW37471   3.974   3.995  17.269  0.2583 -0.5080  0.4020
 8612SOL    HW137472   3.981   4.074  17.216  2.4533  0.6951  2.5124
 8612SOL    HW237473   4.000   4.031  17.354 -0.0615 -1.0058  0.7094
 8613SOL     OW37474   0.948   2.360   6.844 -0.8018 -0.3521  0.1708
 8613SOL    HW137475   0.977   2.361   6.753  2.0329  0.0278  1.0938
 8613SOL    HW237476   0.930   2.267   6.851 -0.1898 -0.7010 -2.7454
 8614SOL     OW37477   1.752   2.646   4.548  0.3267 -0.3428 -0.4736
 8614SOL    HW137478   1.832   2.598   4.570  0.1665 -0.1776  0.4490
 8614SOL    HW237479   1.693   2.579   4.580  1.1805 -1.6794 -1.6551
 8615SOL     OW37480   0.400   2.303   3.410 -0.1541  0.2436  0.4581
 8615SOL    HW137481   0.429   2.385   3.369 -2.0810  0.3471 -0.7414
 8615SOL    HW237482   0.308   2.307   3.383 -1.0718 -1.8929  3.2274
 8616SOL     OW37483   3.196   0.006  11.891  0.0947 -0.0659  0.4165
 8616SOL    HW137484   3.179   0.020  11.984  0.9079  3.3364  0.0830
 8616SOL    HW237485   3.133   4.674  11.874  0.8596 -0.1504 -1.9787
 8617SOL     OW37486   1.879   2.277   8.463 -0.2657 -0.3549 -0.0380
 8617SOL    HW137487   1.830   2.350   8.500  0.7084  1.2706 -1.9482
 8617SOL    HW237488   1.965   2.290   8.504 -0.2558  1.6786 -0.6938
 8618SOL     OW37489   2.959   2.385   0.442 -0.1471  0.3204 -0.1585
 8618SOL    HW137490   2.868   2.354   0.439  0.2666 -0.7008 -2.2690
 8618SOL    HW237491   2.980   2.409   0.352 -0.2358  2.3730  0.3828
 8619SOL     OW37492   3.519   0.940   8.444  0.2383  0.4439  0.0190
 8619SOL    HW137493   3.511   0.850   8.411  3.9278 -0.8386  2.5666
 8619SOL    HW237494   3.452   0.989   8.397 -0.4534 -0.3703  0.1702
 8620SOL     OW37495   2.246   1.993   1.312 -0.1960 -0.5562  0.0243
 8620SOL    HW137496   2.310   1.995   1.241 -2.2846 -2.1545 -1.9263
 8620SOL    HW237497   2.195   1.914   1.291  1.2000 -1.3852 -0.2555
 8621SOL     OW37498   3.947   1.793  11.706 -0.1383  0.1132 -0.7760
 8621SOL    HW137499   3.970   1.731  11.775  3.2666  2.4565  0.1525
 8621SOL    HW237500   3.857   1.810  11.734  0.4055 -0.3294  1.2485
 8622SOL     OW37501   3.771   2.685  14.745 -0.0689  0.0836 -0.2265
 8622SOL    HW137502   3.682   2.665  14.775  0.8886 -1.5070  1.5459
 8622SOL    HW237503   3.759   2.697  14.651 -1.6508  0.4747  0.0190
 8623SOL     OW37504   2.278   4.253   4.274  0.0673 -0.0736 -0.2992
 8623SOL    HW137505   2.342   4.324   4.287  0.4140 -0.4647  0.1187
 8623SOL    HW237506   2.333   4.184   4.237 -0.0963 -0.7520  0.7240
 8624SOL     OW37507   4.162   4.395   4.486  0.2133  0.6277  0.3112
 8624SOL    HW137508   4.129   4.437   4.566 -5.2361 -1.6211 -0.7235
 8624SOL    HW237509   4.245   4.442   4.477  0.1422  0.4344 -1.2796
 8625SOL     OW37510   2.452   1.362  11.632 -0.0486 -0.4035 -0.3724
 8625SOL    HW137511   2.395   1.385  11.705 -0.3588 -2.3462  0.0196
 8625SOL    HW237512   2.402   1.401  11.561  0.8272  0.6030 -0.4354
 8626SOL     OW37513   4.164   1.193   3.774  0.2689 -0.1136  0.1959
 8626SOL    HW137514   4.081   1.240   3.774  0.6665  0.5843  0.6122
 8626SOL    HW237515   4.200   1.244   3.701 -0.9001  1.1333  0.4928
 8627SOL     OW37516   0.591   0.573   6.726 -0.0187  0.0267  0.3851
 8627SOL    HW137517   0.646   0.651   6.721 -3.0095  2.1443  0.3142
 8627SOL    HW237518   0.627   0.529   6.649  2.4563  4.3025 -0.8881
 8628SOL     OW37519   2.704   4.676   6.817  0.2434 -0.0046 -0.2697
 8628SOL    HW137520   2.727   0.007   6.755 -2.5574 -0.3251 -1.6309
 8628SOL    HW237521   2.700   4.595   6.766  0.8136 -0.5939  0.6159
 8629SOL     OW37522   0.625   1.604   9.202 -0.0699  0.8260 -0.5740
 8629SOL    HW137523   0.713   1.573   9.182  0.2639  0.0522  1.9646
 8629SOL    HW237524   0.649   1.686   9.245  0.1612  0.3813  0.1388
 8630SOL     OW37525   0.069   0.894   3.130  0.7876  0.1202 -0.0423
 8630SOL    HW137526   0.109   0.960   3.186  0.0348 -0.9889  1.7854
 8630SOL    HW237527   0.121   0.897   3.050 -1.6365  0.1022 -1.6397
 8631SOL     OW37528   0.957   4.133   0.526 -1.0742  0.3464  0.0346
 8631SOL    HW137529   0.892   4.184   0.573 -0.2897 -1.9166  3.5601
 8631SOL    HW237530   0.890   4.082   0.482 -1.8868  0.4026  1.2199
 8632SOL     OW37531   0.577   2.894   9.979  0.0819  0.0883  0.1227
 8632SOL    HW137532   0.481   2.895   9.974  0.0067 -1.0526  1.2024
 8632SOL    HW237533   0.598   2.809  10.017  0.5355 -0.9702 -2.4871
 8633SOL     OW37534   4.050   2.634   3.666 -0.6498 -0.3541  0.1108
 8633SOL    HW137535   4.037   2.722   3.630  0.2176 -0.8650 -1.4208
 8633SOL    HW237536   4.000   2.636   3.748 -1.0298  0.2380 -0.1380
 8634SOL     OW37537   3.981   0.076   0.562 -0.2094  0.1060 -0.6140
 8634SOL    HW137538   4.036   0.078   0.640 -0.6192  2.4569 -0.3667
 8634SOL    HW237539   3.946   4.726   0.577  0.2944  0.2099  1.1605
 8635SOL     OW37540   3.032   0.627   8.427 -0.4858 -0.2993 -0.3003
 8635SOL    HW137541   3.031   0.712   8.471 -3.4106 -0.6923  0.3929
 8635SOL    HW237542   3.091   0.650   8.356  2.3059 -2.3744  1.3444
 8636SOL     OW37543   3.455   1.983   4.315 -0.2202  0.4443 -0.0047
 8636SOL    HW137544   3.378   2.019   4.271  0.9753 -1.9692 -4.0372
 8636SOL    HW237545   3.439   1.890   4.329  0.1574  0.5841  1.3411
 8637SOL     OW37546   3.199   0.523  16.756 -0.1180  0.1345  0.6325
 8637SOL    HW137547   3.165   0.611  16.775 -0.9279 -0.4002  1.6423
 8637SOL    HW237548   3.121   0.472  16.736  0.9899 -1.5089  0.5819
 8638SOL     OW37549   2.733   1.153   6.244  0.1826  0.0769 -0.0059
 8638SOL    HW137550   2.709   1.245   6.257  1.1163  0.4100 -0.6426
 8638SOL    HW237551   2.670   1.114   6.184 -2.3024 -0.5192  3.0042
 8639SOL     OW37552   2.192   1.606   4.853 -0.7806  0.4223  0.4195
 8639SOL    HW137553   2.261   1.540   4.862  0.1460  1.6191  2.1593
 8639SOL    HW237554   2.199   1.619   4.758 -0.7854 -1.2645  0.1913
 8640SOL     OW37555   1.746   1.099  13.685  0.5123  0.4558 -0.4559
 8640SOL    HW137556   1.782   1.015  13.659  0.6187  0.0041  1.1340
 8640SOL    HW237557   1.826   1.153  13.689 -0.7422  2.3747 -1.2360
 8641SOL     OW37558   3.615   4.636   5.984  0.1201  0.0265 -0.3288
 8641SOL    HW137559   3.709   4.653   5.975  0.0678  0.0734 -0.8223
 8641SOL    HW237560   3.593   4.696   6.055  0.2203 -0.1183 -0.1767
 8642SOL     OW37561   4.474   1.115   5.090  0.0381 -0.2657  0.5341
 8642SOL    HW137562   4.537   1.132   5.021  0.2727  0.7421  0.9865
 8642SOL    HW237563   4.400   1.087   5.036 -0.2671  1.9978 -0.2181
 8643SOL     OW37564   3.220   3.084   6.572 -0.2361  0.2009 -0.0424
 8643SOL    HW137565   3.173   3.050   6.495 -2.9770  2.1746  0.7449
 8643SOL    HW237566   3.157   3.144   6.612  0.3577  2.2285 -2.1479
 8644SOL     OW37567   2.799   0.484   6.235 -0.1834  0.8002 -0.4576
 8644SOL    HW137568   2.769   0.431   6.161  1.4546 -0.1886 -0.4174
 8644SOL    HW237569   2.894   0.483   6.224 -0.0403  0.1997  0.8024
 8645SOL     OW37570   0.819   3.056   9.227  0.1612 -0.1724 -0.1561
 8645SOL    HW137571   0.816   2.968   9.188 -1.4738 -0.0377 -0.3341
 8645SOL    HW237572   0.852   3.033   9.314 -1.6122 -0.4097  0.4603
 8646SOL     OW37573   1.499   1.052  12.326  0.0378  0.3603 -0.4323
 8646SOL    HW137574   1.529   1.097  12.405  0.1907  1.4785 -1.1339
 8646SOL    HW237575   1.578   0.999  12.315 -0.7862 -1.1047  0.7748
 8647SOL     OW37576   0.198   3.915   4.600 -0.3982 -0.0300  0.5754
 8647SOL    HW137577   0.154   3.884   4.680 -0.4866 -1.0334  0.1364
 8647SOL    HW237578   0.137   3.965   4.546 -1.4745 -1.4299  0.5152
 8648SOL     OW37579   0.559   0.566   4.427  0.1028  0.3501  0.2789
 8648SOL    HW137580   0.589   0.484   4.390 -1.0279 -0.4926  1.2016
 8648SOL    HW237581   0.484   0.528   4.474  0.5263  1.2900  1.7296
 8649SOL     OW37582   0.935   1.285   7.016  1.0992 -0.0185  0.0851
 8649SOL    HW137583   0.932   1.224   6.942  1.6307  0.6561 -0.4992
 8649SOL    HW237584   0.857   1.250   7.058  0.9169  1.5114  1.0228
 8650SOL     OW37585   0.693   0.469   9.037 -0.0746 -0.1920 -0.4774
 8650SOL    HW137586   0.610   0.424   9.019 -0.1983 -0.0919 -0.1601
 8650SOL    HW237587   0.747   0.434   8.966  0.3813  2.0528 -1.2535
 8651SOL     OW37588   3.253   4.105  11.774  0.4986  0.7487  0.6573
 8651SOL    HW137589   3.209   4.033  11.729 -0.3606  0.5485  1.8085
 8651SOL    HW237590   3.233   4.181  11.720  0.5082 -0.6821 -1.3926
 8652SOL     OW37591   3.215   0.224   8.221  0.2770 -0.2148  0.1005
 8652SOL    HW137592   3.173   0.300   8.180  1.1420 -0.4309 -1.2166
 8652SOL    HW237593   3.194   0.232   8.314  0.0238 -1.0027  0.1068
 8653SOL     OW37594   1.395   2.736  11.353  0.1454  0.4467 -0.0811
 8653SOL    HW137595   1.390   2.677  11.428 -0.3090  2.4609  1.4652
 8653SOL    HW237596   1.367   2.690  11.273 -0.1290 -0.9056  0.7934
 8654SOL     OW37597   0.044   2.506  13.511  0.1204 -0.1025  0.2061
 8654SOL    HW137598   0.019   2.433  13.454  1.5952  0.2850 -0.9199
 8654SOL    HW237599   0.126   2.470  13.544  1.0326 -0.2257 -2.1836
 8655SOL     OW37600   0.146   1.822   4.439  0.1044  0.0408  0.0459
 8655SOL    HW137601   0.207   1.896   4.437 -1.6439  1.4468 -1.5198
 8655SOL    HW237602   0.067   1.865   4.407  1.0328  1.9339  0.2985
 8656SOL     OW37603   2.879   3.637   6.142 -0.1523  0.6803  0.5462
 8656SOL    HW137604   2.972   3.644   6.123 -0.6458 -1.0840 -2.4473
 8656SOL    HW237605   2.875   3.725   6.179  0.3841  1.2559 -0.7682
 8657SOL     OW37606   0.013   0.473   1.486 -0.5206  0.2071 -0.1985
 8657SOL    HW137607   4.702   0.456   1.406  0.9085 -1.6518 -0.6715
 8657SOL    HW237608   4.705   0.556   1.500 -0.6604 -0.4971  3.6883
 8658SOL     OW37609   1.618   0.287   0.225  0.8264  0.6143  0.0472
 8658SOL    HW137610   1.636   0.264   0.316  1.2173  1.2546  0.1328
 8658SOL    HW237611   1.594   0.200   0.191 -1.4072 -0.2312  3.8666
 8659SOL     OW37612   3.151   3.777   8.385 -0.5092 -0.7408 -0.4762
 8659SOL    HW137613   3.206   3.845   8.424  0.2325 -1.5112 -0.1622
 8659SOL    HW237614   3.193   3.693   8.406 -0.4350 -0.3200  1.0825
 8660SOL     OW37615   1.302   4.204  16.312  0.4568 -0.2144  0.3026
 8660SOL    HW137616   1.208   4.215  16.299  0.5262  0.5639  0.4378
 8660SOL    HW237617   1.335   4.219  16.224 -2.2956  2.1254 -0.3501
 8661SOL     OW37618   4.372   0.000   4.219 -0.2544 -0.0194  0.2637
 8661SOL    HW137619   4.464   0.008   4.195 -0.1906  0.1155  0.5567
 8661SOL    HW237620   4.381   0.059   4.294 -2.3727 -0.1174  0.5954
 8662SOL     OW37621   0.820   0.266   2.929  0.0762 -0.0574 -0.6151
 8662SOL    HW137622   0.781   0.235   3.010 -1.2091 -1.0602 -1.6179
 8662SOL    HW237623   0.756   0.336   2.914  2.2982  1.9591 -0.6379
 8663SOL     OW37624   2.748   4.152   3.580 -0.2256  0.5831 -0.2893
 8663SOL    HW137625   2.786   4.064   3.587 -0.0992  0.7234  0.7833
 8663SOL    HW237626   2.669   4.134   3.528 -0.1132  0.0981 -0.2917
 8664SOL     OW37627   1.017   3.023   2.941 -0.2258  0.6270  0.0606
 8664SOL    HW137628   1.040   2.984   2.856  0.4974  2.5473 -0.6518
 8664SOL    HW237629   0.943   3.077   2.914 -0.3724  1.0568  1.3232
 8665SOL     OW37630   2.287   4.495   7.896  0.4563 -0.5844 -0.1894
 8665SOL    HW137631   2.339   4.542   7.831 -0.5513 -1.2869 -1.5033
 8665SOL    HW237632   2.217   4.561   7.894  0.1320 -0.9036  0.4344
 8666SOL     OW37633   4.711   3.021  11.962  0.3233 -0.5253 -0.0265
 8666SOL    HW137634   0.042   2.956  11.943  1.0750  0.7111 -1.4946
 8666SOL    HW237635   4.721   3.021  12.057  2.7945 -1.5504 -0.2886
 8667SOL     OW37636   3.196   2.844   6.090 -0.4218  0.1021  0.3781
 8667SOL    HW137637   3.164   2.930   6.118 -0.5147 -0.6229  2.4911
 8667SOL    HW237638   3.141   2.826   6.013  0.4466  3.8145 -1.0813
 8668SOL     OW37639   0.478   0.304  14.540 -0.3822 -0.3006 -0.5621
 8668SOL    HW137640   0.396   0.328  14.583  0.9355  0.3917  1.5481
 8668SOL    HW237641   0.446   0.245  14.472 -0.5293  0.3760 -1.0855
 8669SOL     OW37642   3.577   4.072  15.634 -0.3166 -0.1557  0.5055
 8669SOL    HW137643   3.641   4.003  15.651  0.4824 -0.0916 -2.2526
 8669SOL    HW237644   3.616   4.131  15.570  0.8167  0.1669  1.5049
 8670SOL     OW37645   0.824   0.800  14.065 -0.0515  0.2319  0.4230
 8670SOL    HW137646   0.840   0.893  14.050 -0.3706  0.0858 -0.8472
 8670SOL    HW237647   0.911   0.767  14.089  0.4445  1.1572 -0.1227
 8671SOL     OW37648   2.804   4.499   0.213  0.3591 -0.1494  0.3617
 8671SOL    HW137649   2.750   4.575   0.234 -0.9382 -0.2662 -2.6001
 8671SOL    HW237650   2.839   4.534   0.131  3.3508  0.3916  1.8689
 8672SOL     OW37651   2.421   1.811   1.801 -0.4172 -0.1744 -0.2098
 8672SOL    HW137652   2.382   1.760   1.730 -1.7466 -0.6150  0.8334
 8672SOL    HW237653   2.513   1.829   1.784 -0.3058 -0.2883  0.2888
 8673SOL     OW37654   2.277   0.386  15.816  0.5358 -0.3990  0.1338
 8673SOL    HW137655   2.343   0.449  15.846 -0.2140  1.2301 -1.6570
 8673SOL    HW237656   2.207   0.411  15.876  1.8025 -0.9147  1.8365
 8674SOL     OW37657   1.568   2.517  15.573  0.5811 -0.1224  1.0747
 8674SOL    HW137658   1.505   2.454  15.607  2.1162 -0.5666  3.0995
 8674SOL    HW237659   1.648   2.521  15.627  0.3999  2.4924  1.1773
 8675SOL     OW37660   0.599   0.316   5.442  0.0932 -0.5683 -0.2454
 8675SOL    HW137661   0.541   0.251   5.402  0.2620 -1.3869  0.8290
 8675SOL    HW237662   0.540   0.388   5.463  1.5562  1.0259 -1.6043
 8676SOL     OW37663   3.025   0.515   3.011 -0.2566  0.4305  0.2495
 8676SOL    HW137664   3.037   0.609   3.025  2.2603 -0.1142  1.7152
 8676SOL    HW237665   3.078   0.489   3.085  0.9881 -1.2565 -1.2394
 8677SOL     OW37666   1.541   1.699  10.035 -0.6235  0.2639  0.6558
 8677SOL    HW137667   1.599   1.742   9.972 -0.0948  0.1026  1.0337
 8677SOL    HW237668   1.579   1.612  10.041 -2.3375 -0.6167 -0.9730
 8678SOL     OW37669   0.148   1.366  16.816 -0.0471 -0.3792  0.2872
 8678SOL    HW137670   0.133   1.288  16.763  0.3315  0.2336 -0.7309
 8678SOL    HW237671   0.178   1.428  16.749 -2.0660  0.5354  0.2468
 8679SOL     OW37672   2.053   1.249   4.091 -0.1448 -0.4007  0.1264
 8679SOL    HW137673   2.010   1.172   4.128  0.4352 -0.3311  0.9559
 8679SOL    HW237674   2.140   1.210   4.086  0.5968  1.1725  0.7391
 8680SOL     OW37675   2.329   2.955   9.224 -0.3881 -0.7136 -0.1130
 8680SOL    HW137676   2.395   2.922   9.163  0.9203 -0.3536  1.1138
 8680SOL    HW237677   2.307   2.875   9.272 -0.8148 -0.3411  0.3145
 8681SOL     OW37678   3.608   1.480  15.202  0.0010  0.1094 -0.4955
 8681SOL    HW137679   3.532   1.438  15.160 -1.5685  1.4596  0.9807
 8681SOL    HW237680   3.588   1.571  15.222  0.4294 -0.0031  0.4150
 8682SOL     OW37681   2.017   0.184   5.101  0.3866  0.3221 -0.2022
 8682SOL    HW137682   2.068   0.124   5.155 -0.8571 -0.1043  0.4901
 8682SOL    HW237683   2.048   0.264   5.144  1.5728  0.3976 -1.1980
 8683SOL     OW37684   1.279   0.449   1.980  0.3454 -0.4731  0.1569
 8683SOL    HW137685   1.302   0.501   2.057  0.5755  1.1430 -0.9979
 8683SOL    HW237686   1.308   0.512   1.914 -0.3032  1.3756  1.6489
 8684SOL     OW37687   2.060   2.877   6.829 -0.5591 -0.1084 -0.4399
 8684SOL    HW137688   2.001   2.807   6.803 -0.4839  0.5593 -2.3932
 8684SOL    HW237689   2.119   2.831   6.889  0.1649  3.1271  1.3583
 8685SOL     OW37690   2.596   3.275  11.328  0.2365  0.2314  0.0576
 8685SOL    HW137691   2.576   3.182  11.317 -0.1896  0.3387 -0.0591
 8685SOL    HW237692   2.549   3.295  11.409  0.8556  0.4447  0.3613
 8686SOL     OW37693   4.405   3.420   2.581 -0.1830  0.0237  0.0908
 8686SOL    HW137694   4.449   3.433   2.497  0.1804  0.7457  0.3954
 8686SOL    HW237695   4.381   3.328   2.574 -1.0310  0.2135  0.5672
 8687SOL     OW37696   4.712   2.072   8.236  0.0568  0.1995  0.1704
 8687SOL    HW137697   0.051   2.119   8.269  3.2812 -3.1739 -2.4506
 8687SOL    HW237698   4.706   2.106   8.147 -0.8553 -2.2695 -0.7204
 8688SOL     OW37699   2.500   3.106   6.184 -0.3418 -0.1335  0.5578
 8688SOL    HW137700   2.422   3.162   6.183  0.2562  0.6846 -1.9052
 8688SOL    HW237701   2.566   3.175   6.178  1.5204 -2.0345 -0.7641
 8689SOL     OW37702   1.045   4.619   3.372  0.1925 -0.0234 -0.5074
 8689SOL    HW137703   0.980   4.604   3.302  0.0655  1.8521 -0.7798
 8689SOL    HW237704   1.016   4.707   3.394  0.9570  0.2470 -0.6110
 8690SOL     OW37705   1.001   3.828  10.706  0.1189  0.0128 -0.1487
 8690SOL    HW137706   1.031   3.879  10.781 -0.4441 -0.5592  0.4695
 8690SOL    HW237707   1.080   3.822  10.653  1.3245  0.5842  1.5943
 8691SOL     OW37708   3.966   3.809   7.505  0.4495  0.0532  0.1179
 8691SOL    HW137709   3.873   3.835   7.503  0.4766  0.2234  1.2480
 8691SOL    HW237710   4.003   3.897   7.504  2.1939 -0.6418  3.1443
 8692SOL     OW37711   1.257   2.545   5.374  0.4058  0.1961  0.8353
 8692SOL    HW137712   1.322   2.614   5.361  0.4272 -0.5068 -2.5746
 8692SOL    HW237713   1.199   2.567   5.302  1.1339  0.6891  0.4043
 8693SOL     OW37714   2.218   1.210  12.016 -0.1155 -0.3838  0.2359
 8693SOL    HW137715   2.194   1.300  12.041  0.6834 -0.3419  0.8764
 8693SOL    HW237716   2.238   1.206  11.923  0.7097 -0.6717  0.4256
 8694SOL     OW37717   3.510   4.046   2.843  0.0270 -0.0012  0.0389
 8694SOL    HW137718   3.602   4.020   2.845  0.0737  0.1994  0.6227
 8694SOL    HW237719   3.476   4.008   2.763 -1.3581 -0.3829  0.8067
 8695SOL     OW37720   3.624   3.531   4.498 -0.0539 -0.2411  0.0760
 8695SOL    HW137721   3.614   3.495   4.586 -1.5888  2.6364  1.0794
 8695SOL    HW237722   3.570   3.609   4.503 -0.1875 -0.5843  4.1087
 8696SOL     OW37723   4.408   3.970   5.651 -0.6509  0.2273  0.1698
 8696SOL    HW137724   4.486   4.025   5.644  0.0132 -0.6893  0.3765
 8696SOL    HW237725   4.404   3.949   5.745 -0.4423 -1.8059 -0.2798
 8697SOL     OW37726   3.028   0.712   4.567  0.0613 -0.2678  0.2491
 8697SOL    HW137727   3.089   0.784   4.554  2.4230 -2.3066  0.1114
 8697SOL    HW237728   2.953   0.759   4.604 -0.2907 -1.1139  0.6029
 8698SOL     OW37729   2.395   3.419   6.246 -0.4115 -0.2056  0.0636
 8698SOL    HW137730   2.337   3.456   6.312  0.4824 -2.2915  2.0107
 8698SOL    HW237731   2.479   3.438   6.288 -0.8197  2.0186 -0.1172
 8699SOL     OW37732   2.074   0.998   2.386 -0.1202  0.0586  0.0991
 8699SOL    HW137733   2.072   1.006   2.481 -0.7420  1.1274 -0.0008
 8699SOL    HW237734   2.135   0.924   2.378 -1.7819 -1.4224  1.1661
 8700SOL     OW37735   3.537   4.433  12.407 -0.2128 -0.0727 -0.6684
 8700SOL    HW137736   3.451   4.458  12.372  0.2710  0.1527 -1.6943
 8700SOL    HW237737   3.555   4.362  12.346 -1.9874 -1.0872 -0.0130
 8701SOL     OW37738   4.188   4.639   1.945 -0.3747 -0.1509  0.0209
 8701SOL    HW137739   4.137   4.561   1.924  1.1764 -0.6437 -1.9101
 8701SOL    HW237740   4.259   4.603   1.999 -1.6017 -2.9250 -0.1956
 8702SOL     OW37741   3.168   4.160   3.152 -0.0908  0.1594 -0.0795
 8702SOL    HW137742   3.230   4.150   3.224  0.3840  1.3289 -0.3232
 8702SOL    HW237743   3.114   4.081   3.150 -0.6451  0.4978  1.2768
 8703SOL     OW37744   0.221   1.040   0.477  0.0129 -0.6101  0.6885
 8703SOL    HW137745   0.167   0.961   0.475 -0.6981 -0.1417  1.2971
 8703SOL    HW237746   0.230   1.074   0.388  0.1928 -1.7132  0.2903
 8704SOL     OW37747   2.092   1.018   8.561 -0.5553 -0.2912 -0.1045
 8704SOL    HW137748   2.103   0.940   8.507  0.7113 -0.3441  0.2342
 8704SOL    HW237749   2.165   1.001   8.621 -0.3265  0.9075 -0.0336
 8705SOL     OW37750   1.151   4.243   2.311 -0.0360 -0.0949 -0.5319
 8705SOL    HW137751   1.212   4.207   2.375  1.0211 -0.4846 -1.7480
 8705SOL    HW237752   1.074   4.248   2.367 -0.7491 -2.1698 -1.3349
 8706SOL     OW37753   1.921   3.667  10.845 -0.0403  0.1487 -0.3579
 8706SOL    HW137754   1.906   3.642  10.754  0.9614  1.5108 -0.9065
 8706SOL    HW237755   1.961   3.753  10.832  1.1773 -0.1086  1.6977
 8707SOL     OW37756   1.686   2.977   9.322  0.2061  0.3439  0.2804
 8707SOL    HW137757   1.653   3.026   9.246 -0.0742  1.0703  0.8806
 8707SOL    HW237758   1.772   3.016   9.336 -0.6454  1.7581  1.5875
 8708SOL     OW37759   2.356   2.693  10.012 -0.6989  0.3081 -0.2186
 8708SOL    HW137760   2.295   2.621  10.001 -0.2697  0.3480 -2.9317
 8708SOL    HW237761   2.305   2.772  10.029 -1.5070 -0.0042 -1.1952
 8709SOL     OW37762   3.026   3.924  10.469 -0.4715 -0.7651  0.0641
 8709SOL    HW137763   3.032   4.010  10.428 -2.9217  0.5865  2.5093
 8709SOL    HW237764   2.945   3.883  10.439 -0.8368  0.2065 -0.2731
 8710SOL     OW37765   3.703   3.601   3.207  0.0597 -0.3732  0.6329
 8710SOL    HW137766   3.625   3.561   3.244  0.7205 -0.6913  1.6708
 8710SOL    HW237767   3.678   3.694   3.202  2.0701  0.0685 -1.4050
 8711SOL     OW37768   4.389   2.766   6.931 -0.6128 -0.4082  0.0427
 8711SOL    HW137769   4.297   2.786   6.943 -0.6721 -2.2461  2.8416
 8711SOL    HW237770   4.428   2.820   7.000 -2.1125 -1.7978  1.9943
 8712SOL     OW37771   2.760   0.706   0.437  0.2137 -0.2507  0.2436
 8712SOL    HW137772   2.767   0.648   0.361 -3.3692 -1.7861  1.0727
 8712SOL    HW237773   2.754   0.648   0.513 -0.1649 -1.1414 -0.4732
 8713SOL     OW37774   0.049   3.602   0.916  0.1125  0.5044  0.5814
 8713SOL    HW137775   0.023   3.527   0.862  1.5350  1.2577 -1.1521
 8713SOL    HW237776   0.099   3.552   0.981  0.7575 -0.1742 -0.4131
 8714SOL     OW37777   0.149   2.013   1.759  0.1306 -0.2673  0.2406
 8714SOL    HW137778   0.138   2.092   1.812 -1.4702  0.0874 -0.6429
 8714SOL    HW237779   0.133   2.041   1.669 -1.4010 -3.6229 -0.5519
 8715SOL     OW37780   2.674   4.523   6.601 -0.4713 -0.3688  0.0441
 8715SOL    HW137781   2.613   4.588   6.567 -2.6001 -2.3580  0.0357
 8715SOL    HW237782   2.622   4.445   6.622 -0.8747  0.1715  1.0550
 8716SOL     OW37783   1.190   2.329   2.778  0.4730 -0.0125 -0.2617
 8716SOL    HW137784   1.127   2.394   2.747 -0.6829 -0.4569  1.1876
 8716SOL    HW237785   1.145   2.247   2.759 -0.0084  0.2597 -0.3064
 8717SOL     OW37786   1.164   2.896   5.443  0.5887  0.6277  0.0584
 8717SOL    HW137787   1.208   2.901   5.358 -1.8159 -0.2075 -1.2537
 8717SOL    HW237788   1.240   2.910   5.498  0.6729  0.5021 -0.0250
 8718SOL     OW37789   3.949   0.662   2.523  0.1958 -0.3861  0.6255
 8718SOL    HW137790   3.961   0.621   2.609  3.7821  3.2947  1.8737
 8718SOL    HW237791   3.947   0.585   2.467  1.3060  0.0646 -0.0459
 8719SOL     OW37792   1.928   0.621   8.935  0.1836 -0.4373  0.1087
 8719SOL    HW137793   1.855   0.676   8.906  0.7099 -0.1983 -0.7457
 8719SOL    HW237794   1.990   0.693   8.947 -0.6473  0.1457  0.9257
 8720SOL     OW37795   1.102   3.395   8.001 -0.1010  0.0508  0.4362
 8720SOL    HW137796   1.077   3.303   7.993  1.7829 -0.1727 -3.0977
 8720SOL    HW237797   1.196   3.382   8.010 -0.0215  1.8517  2.0993
 8721SOL     OW37798   1.623   0.509   4.823  0.3553  0.1056  0.9539
 8721SOL    HW137799   1.558   0.556   4.875 -1.1763 -0.0925 -0.7854
 8721SOL    HW237800   1.662   0.583   4.776 -0.8711  0.5571  0.6646
 8722SOL     OW37801   3.546   0.268  15.524 -0.0616 -0.4058  0.2065
 8722SOL    HW137802   3.455   0.259  15.495 -0.0569  2.6537 -0.7699
 8722SOL    HW237803   3.534   0.271  15.619  1.0008  0.2761  0.3189
 8723SOL     OW37804   1.083   0.611   7.412  0.2141 -0.1041  0.1320
 8723SOL    HW137805   0.994   0.608   7.378  0.2709 -0.9721  0.0615
 8723SOL    HW237806   1.106   0.703   7.399 -0.8864 -0.0415 -1.3695
 8724SOL     OW37807   0.459   0.632  14.071  0.0636  0.1144  0.2019
 8724SOL    HW137808   0.385   0.575  14.091  0.4936 -0.4906  0.0987
 8724SOL    HW237809   0.419   0.688  14.005 -0.0116  0.3100  0.4162
 8725SOL     OW37810   0.520   4.725   3.322 -0.1748 -0.0851 -0.1766
 8725SOL    HW137811   0.594   4.700   3.268 -0.9797 -2.8737  0.0335
 8725SOL    HW237812   0.447   4.732   3.260 -0.3025 -2.5712 -0.2844
 8726SOL     OW37813   1.795   4.024   2.243  0.1822 -0.3032  0.1510
 8726SOL    HW137814   1.806   3.984   2.329  0.5679 -1.3273 -0.3714
 8726SOL    HW237815   1.867   4.087   2.232 -1.1163  1.2056  0.3437
 8727SOL     OW37816   0.224   2.578   6.439 -0.0856  0.2063 -0.5276
 8727SOL    HW137817   0.158   2.621   6.493  0.3599 -0.9835  0.9755
 8727SOL    HW237818   0.225   2.490   6.477  2.5538  0.2818 -0.3685
 8728SOL     OW37819   3.464   1.884   6.566  0.0956 -0.2481  0.0644
 8728SOL    HW137820   3.432   1.861   6.654  1.1818  0.9438  0.7744
 8728SOL    HW237821   3.446   1.796   6.534  1.9643 -1.0971  1.3882
 8729SOL     OW37822   3.812   1.279   2.444  0.3411  0.2870 -0.3068
 8729SOL    HW137823   3.828   1.303   2.352  2.1986  1.4381  0.3209
 8729SOL    HW237824   3.877   1.209   2.454  0.5800  0.5181 -0.2276
 8730SOL     OW37825   4.517   0.515   6.161  0.0916 -0.3655 -0.0154
 8730SOL    HW137826   4.448   0.497   6.097  0.2294 -3.1889  0.6360
 8730SOL    HW237827   4.479   0.591   6.204  0.8263  0.1450 -0.2723
 8731SOL     OW37828   3.247   2.065   6.429 -0.7753  0.1085 -0.5502
 8731SOL    HW137829   3.320   2.019   6.471  0.3096  1.1035 -1.3476
 8731SOL    HW237830   3.299   2.138   6.394 -0.6616  0.7327  0.9372
 8732SOL     OW37831   3.782   1.548   3.348  0.5914 -0.2897 -0.0339
 8732SOL    HW137832   3.794   1.506   3.434  1.6188  0.5546  0.2418
 8732SOL    HW237833   3.764   1.639   3.370 -0.3319 -0.7647  1.1651
 8733SOL     OW37834   2.681   1.564  12.382  0.2947  0.0131  0.0815
 8733SOL    HW137835   2.691   1.630  12.451  0.6602 -0.2998  0.3321
 8733SOL    HW237836   2.619   1.503  12.423  0.4209 -0.8952 -1.0802
 8734SOL     OW37837   2.280   0.445   7.431  0.4434  0.3251 -0.3032
 8734SOL    HW137838   2.242   0.441   7.343 -0.4571 -0.8850  0.1404
 8734SOL    HW237839   2.266   0.539   7.441 -0.4990  0.3294 -1.6237
 8735SOL     OW37840   4.049   4.407  17.171  0.5985 -0.7114 -0.8896
 8735SOL    HW137841   3.961   4.438  17.148  1.3881  0.9965 -1.5935
 8735SOL    HW237842   4.098   4.486  17.149  1.5372 -1.6030 -1.9611
 8736SOL     OW37843   1.209   2.543   5.651 -0.5120 -0.3259 -0.4209
 8736SOL    HW137844   1.204   2.524   5.557  0.5460  1.0218 -0.7389
 8736SOL    HW237845   1.144   2.612   5.656 -1.5389 -1.4966  2.7676
 8737SOL     OW37846   0.234   4.362   5.731 -0.5674  0.3175  0.0199
 8737SOL    HW137847   0.328   4.352   5.719 -0.4880 -0.5813  1.3316
 8737SOL    HW237848   0.203   4.358   5.641 -2.4676  0.6700  0.6610
 8738SOL     OW37849   3.525   2.396   4.824  0.2615 -0.3825  0.0274
 8738SOL    HW137850   3.435   2.399   4.791 -0.0335 -0.8885  0.7945
 8738SOL    HW237851   3.556   2.357   4.742  0.0888 -0.4969  0.0186
 8739SOL     OW37852   1.132   2.421   0.882  0.1881  0.0663 -0.7543
 8739SOL    HW137853   1.077   2.457   0.812  2.5370  0.2521 -2.5126
 8739SOL    HW237854   1.149   2.331   0.856 -1.4302 -0.0762 -1.2581
 8740SOL     OW37855   0.556   0.272   7.846 -0.1367 -0.0392 -0.0303
 8740SOL    HW137856   0.488   0.210   7.873 -1.2314  0.7182 -1.0484
 8740SOL    HW237857   0.534   0.293   7.755  1.5813  0.4174 -0.3291
 8741SOL     OW37858   1.457   2.269   5.642  0.1569  0.4915  0.1092
 8741SOL    HW137859   1.457   2.184   5.598 -3.3535 -0.2232  1.5661
 8741SOL    HW237860   1.543   2.307   5.625 -0.5703  2.4363  0.8134
 8742SOL     OW37861   4.128   4.420   6.653  0.2333  0.6595 -0.3108
 8742SOL    HW137862   4.134   4.418   6.748  1.8085  4.8901 -0.2868
 8742SOL    HW237863   4.216   4.453   6.635  0.5746 -0.4695 -0.6941
 8743SOL     OW37864   4.177   1.622  17.570  0.1445  0.5083  0.2350
 8743SOL    HW137865   4.196   1.553  17.633 -1.4992 -1.4626 -1.4466
 8743SOL    HW237866   4.256   1.619  17.515  1.0173 -1.1316  1.6006
 8744SOL     OW37867   2.295   3.867   4.860  0.2531  0.3557 -0.0667
 8744SOL    HW137868   2.364   3.888   4.922  0.1505 -2.4323  0.9984
 8744SOL    HW237869   2.330   3.910   4.782  2.7702 -3.7173 -1.1403
 8745SOL     OW37870   2.941   3.112   8.675  0.3398  1.0476  0.2762
 8745SOL    HW137871   2.860   3.069   8.700  0.9533  0.5212  1.3425
 8745SOL    HW237872   3.004   3.044   8.700  0.6124  1.7903  1.5704
 8746SOL     OW37873   0.899   0.140   5.960  0.0953  0.3750 -0.3571
 8746SOL    HW137874   0.975   0.164   5.907  1.3425 -0.7840  0.9298
 8746SOL    HW237875   0.934   0.135   6.049 -1.1597  2.2956  0.2521
 8747SOL     OW37876   0.494   0.367   6.416 -0.0728 -0.2456 -0.5096
 8747SOL    HW137877   0.487   0.459   6.392  3.0207  0.7171  2.1671
 8747SOL    HW237878   0.521   0.340   6.328 -1.9666  0.6992 -1.3675
 8748SOL     OW37879   2.117   0.956   4.980 -0.5269  0.2599 -0.6050
 8748SOL    HW137880   2.091   0.973   4.890  0.7678  1.0756 -0.8268
 8748SOL    HW237881   2.136   1.045   5.010  0.2158  0.1177 -0.6449
 8749SOL     OW37882   2.807   2.221  15.458 -0.3657 -0.0170 -0.2042
 8749SOL    HW137883   2.844   2.308  15.443 -1.0113  0.3458  0.3620
 8749SOL    HW237884   2.879   2.176  15.502  0.3335  1.3908  0.0813
 8750SOL     OW37885   3.507   0.945   6.781  0.1227 -0.2170  0.2864
 8750SOL    HW137886   3.444   1.001   6.736  0.7115  2.4330  2.7282
 8750SOL    HW237887   3.589   0.969   6.738  1.0139  0.3813  2.3189
 8751SOL     OW37888   2.962   4.671   2.564  0.2130 -0.4460  0.2772
 8751SOL    HW137889   2.924   4.695   2.649  0.9274  0.7940  0.2416
 8751SOL    HW237890   2.943   0.014   2.517 -0.3050  0.1659  1.5344
 8752SOL     OW37891   3.181   0.052  13.695  0.4830  0.4543 -0.3741
 8752SOL    HW137892   3.260   4.737  13.706 -0.1492 -1.4380 -4.9110
 8752SOL    HW237893   3.157   0.013  13.611 -1.1648 -1.2974  0.9332
 8753SOL     OW37894   2.984   2.598   0.967 -0.4131  0.5058 -0.0097
 8753SOL    HW137895   2.983   2.516   0.917  0.6075 -0.4533  1.5354
 8753SOL    HW237896   2.894   2.630   0.967  0.0184  1.6738  1.9496
 8754SOL     OW37897   4.526   0.270   2.543 -0.6209  0.1168 -0.2531
 8754SOL    HW137898   4.606   0.318   2.524 -0.1607 -1.4091 -2.2462
 8754SOL    HW237899   4.479   0.283   2.461  1.4449  2.5931 -1.0256
 8755SOL     OW37900   3.877   0.163  14.416 -0.5084  0.1043 -0.3691
 8755SOL    HW137901   3.961   0.204  14.396 -0.0827  0.1486  1.4887
 8755SOL    HW237902   3.912   0.083  14.454 -1.5233 -0.2811 -0.2562
 8756SOL     OW37903   3.040   1.729   8.168  0.2227  0.6102  0.1812
 8756SOL    HW137904   3.107   1.797   8.176 -1.6163  2.3489  0.5974
 8756SOL    HW237905   3.088   1.647   8.182  1.4965  0.9851 -1.8242
 8757SOL     OW37906   4.563   3.396   1.944  0.2302 -0.0722 -0.3645
 8757SOL    HW137907   4.531   3.464   2.003 -4.5512 -1.8965 -0.9106
 8757SOL    HW237908   4.549   3.315   1.994  1.1217 -1.2289 -1.9620
 8758SOL     OW37909   3.381   4.554   8.518  0.3803  0.3051  0.6059
 8758SOL    HW137910   3.401   4.631   8.465  4.9607 -0.1830  1.6407
 8758SOL    HW237911   3.305   4.514   8.474  1.2585  1.4412 -1.9841
 8759SOL     OW37912   2.984   2.583  12.134 -0.4986 -0.3799  0.3142
 8759SOL    HW137913   3.022   2.636  12.064  2.3827 -0.0446  2.1289
 8759SOL    HW237914   2.913   2.538  12.087 -0.6012  1.4884 -1.3127
 8760SOL     OW37915   0.037   2.654   1.391 -0.4840  0.3413  0.3406
 8760SOL    HW137916   0.005   2.633   1.303 -3.0824 -0.3669  1.4519
 8760SOL    HW237917   0.052   2.562   1.412  0.1212  0.0486 -1.3469
 8761SOL     OW37918   0.140   4.303   5.467 -0.1292  0.1040  0.1671
 8761SOL    HW137919   0.046   4.306   5.451 -0.0409 -0.3341 -0.4092
 8761SOL    HW237920   0.158   4.218   5.429 -2.2515  0.0391 -0.6657
 8762SOL     OW37921   4.688   4.356   2.990 -0.1041 -0.2309 -0.0202
 8762SOL    HW137922   4.688   4.367   2.895  0.8273  0.4848  0.0579
 8762SOL    HW237923   4.613   4.298   2.998  1.0263 -1.5985  0.7036
 8763SOL     OW37924   2.618   3.011  14.675 -0.0204  0.2420  0.0861
 8763SOL    HW137925   2.548   2.952  14.703 -0.0358  0.1250 -0.1995
 8763SOL    HW237926   2.625   3.074  14.747 -2.7746 -0.9268  1.3540
 8764SOL     OW37927   1.018   2.626   3.759 -0.1230  0.0443  0.7986
 8764SOL    HW137928   0.928   2.635   3.728  0.0676  0.8542  0.4843
 8764SOL    HW237929   1.019   2.678   3.839 -0.1550  2.9748 -1.0869
 8765SOL     OW37930   3.356   4.236  11.096  0.0693 -0.2837 -0.5130
 8765SOL    HW137931   3.371   4.323  11.057  0.7055  0.4687  1.3852
 8765SOL    HW237932   3.335   4.181  11.020 -2.6095  1.7103 -1.1923
 8766SOL     OW37933   2.982   3.757   4.536 -0.2283 -0.3002 -0.3525
 8766SOL    HW137934   2.910   3.789   4.590  1.0870 -0.0278  1.2381
 8766SOL    HW237935   2.934   3.742   4.454  0.6147  2.7133 -1.3848
 8767SOL     OW37936   2.537   3.288   3.112  0.1130  0.6937 -0.1638
 8767SOL    HW137937   2.560   3.377   3.084  0.0095  0.6276 -0.4614
 8767SOL    HW237938   2.616   3.277   3.165  0.5055  2.2129 -0.4587
 8768SOL     OW37939   4.103   3.709   5.956  0.0826 -0.4623  0.1807
 8768SOL    HW137940   4.072   3.714   6.046 -0.6371 -3.2392  0.0839
 8768SOL    HW237941   4.104   3.800   5.928  0.9227 -1.1825 -2.0871
 8769SOL     OW37942   0.965   1.026  14.438  0.8775 -0.7828 -0.6328
 8769SOL    HW137943   1.004   1.002  14.354 -0.0931 -1.6327 -0.8393
 8769SOL    HW237944   0.953   1.119  14.416 -1.1178 -0.4915  1.6173
 8770SOL     OW37945   3.780   4.362   1.448 -0.0628 -0.5610 -0.2769
 8770SOL    HW137946   3.868   4.341   1.415 -0.0469 -1.0887  0.1109
 8770SOL    HW237947   3.734   4.284   1.418 -0.3337 -0.4427 -0.1683
 8771SOL     OW37948   3.148   2.605   4.951  0.0116 -0.5574  0.1549
 8771SOL    HW137949   3.061   2.614   4.912 -0.7739 -2.6457  1.4372
 8771SOL    HW237950   3.170   2.697   4.965 -1.0484 -0.2699 -0.0416
 8772SOL     OW37951   1.451   4.480  15.547 -0.1169  0.8453  0.0847
 8772SOL    HW137952   1.369   4.505  15.590 -0.1256  0.0707  0.5207
 8772SOL    HW237953   1.447   4.384  15.550 -0.6114  0.8354 -0.7937
 8773SOL     OW37954   3.651   3.376  15.608  0.4609 -0.3288 -0.1148
 8773SOL    HW137955   3.628   3.465  15.581 -0.5864 -0.0581  1.6264
 8773SOL    HW237956   3.568   3.329  15.599 -0.0922  0.4754  0.7056
 8774SOL     OW37957   2.678   2.754   1.406 -0.3589 -0.1310  0.2174
 8774SOL    HW137958   2.684   2.849   1.398 -1.6351 -0.0798 -0.0477
 8774SOL    HW237959   2.767   2.720   1.420 -0.8979 -0.9794  1.5131
 8775SOL     OW37960   3.787   0.086   5.084  0.0208  0.1409 -0.2435
 8775SOL    HW137961   3.790   0.060   5.176  0.9621 -0.6289 -0.4895
 8775SOL    HW237962   3.700   0.048   5.072 -0.6513  1.9273 -0.9660
 8776SOL     OW37963   0.937   1.471   8.103 -0.0673 -0.7245  0.1967
 8776SOL    HW137964   0.905   1.385   8.129 -0.2116 -0.2429  1.6366
 8776SOL    HW237965   1.021   1.450   8.063 -0.9226 -1.5904 -1.1429
 8777SOL     OW37966   3.014   1.753  12.718  0.7929 -0.0258 -0.1703
 8777SOL    HW137967   3.064   1.680  12.680 -1.5352 -0.1889 -2.9638
 8777SOL    HW237968   3.084   1.812  12.744 -0.5149  0.7207  1.6597
 8778SOL     OW37969   1.218   1.226  15.813 -0.7661 -0.0203 -0.0967
 8778SOL    HW137970   1.263   1.153  15.856  1.9698  0.9807 -1.2412
 8778SOL    HW237971   1.159   1.243  15.886 -0.1832  1.0860  0.1052
 8779SOL     OW37972   1.231   1.606  16.506  0.0943 -0.2398  0.1546
 8779SOL    HW137973   1.295   1.619  16.577 -0.3369  1.0914  0.3111
 8779SOL    HW237974   1.294   1.627  16.437  2.2812 -0.5874  2.0173
 8780SOL     OW37975   0.420   1.560   5.660  0.0617 -0.3417  0.0765
 8780SOL    HW137976   0.471   1.483   5.684 -0.5865 -0.2598  1.6952
 8780SOL    HW237977   0.481   1.628   5.691 -1.7785  0.9412  0.8483
 8781SOL     OW37978   4.473   3.888   1.444 -0.0937  0.3650  0.0073
 8781SOL    HW137979   4.482   3.894   1.348  0.7800 -1.2234 -0.0070
 8781SOL    HW237980   4.432   3.802   1.451  0.3393  0.0324 -1.4589
 8782SOL     OW37981   1.110   0.942   6.315 -0.9551 -0.5506 -0.2841
 8782SOL    HW137982   1.173   1.002   6.353 -1.4180 -0.4706  0.3662
 8782SOL    HW237983   1.134   0.953   6.223 -2.1784  2.2641 -0.2525
 8783SOL     OW37984   0.592   0.473  13.603  0.0766  0.1450  0.0612
 8783SOL    HW137985   0.511   0.513  13.574 -0.9461 -1.9848 -0.0245
 8783SOL    HW237986   0.589   0.465  13.698  0.5665  0.2336  0.0839
 8784SOL     OW37987   0.220   0.830   6.302  0.0643 -0.4219  0.1721
 8784SOL    HW137988   0.237   0.805   6.393 -0.3324 -0.1017  0.3331
 8784SOL    HW237989   0.173   0.753   6.271  0.4824 -0.5065 -0.2504
 8785SOL     OW37990   0.481   0.483   4.803 -0.0566 -0.3250  0.0314
 8785SOL    HW137991   0.555   0.544   4.806 -0.8160  0.7719 -3.0447
 8785SOL    HW237992   0.434   0.504   4.883 -0.9009  0.3193 -0.6337
 8786SOL     OW37993   4.275   1.390   3.579  0.0161  0.0777  0.2511
 8786SOL    HW137994   4.214   1.397   3.505 -0.2948  1.5175  0.6389
 8786SOL    HW237995   4.321   1.473   3.564  0.7614 -0.5653 -1.0334
 8787SOL     OW37996   3.983   1.632   4.742 -0.1950  0.4223  0.0957
 8787SOL    HW137997   3.971   1.686   4.663  0.9666  0.1473 -0.2760
 8787SOL    HW237998   3.896   1.631   4.781 -0.2833  0.1037 -0.1090
 8788SOL     OW37999   1.079   2.647  16.564  0.3557  0.1851 -0.0864
 8788SOL    HW138000   1.095   2.721  16.623 -1.6868  1.1717 -0.7416
 8788SOL    HW238001   1.149   2.586  16.585  0.5238  0.4373  0.0926
 8789SOL     OW38002   2.075   4.144  15.611  0.0974 -0.5761  0.0639
 8789SOL    HW138003   2.069   4.070  15.671 -0.3327 -0.8288 -0.2918
 8789SOL    HW238004   1.993   4.190  15.627 -1.0389 -2.6893  0.3113
 8790SOL     OW38005   3.938   2.898   7.812 -0.4043  0.6089 -0.2522
 8790SOL    HW138006   3.869   2.891   7.878  0.2909  1.5572  0.5797
 8790SOL    HW238007   3.953   2.992   7.805  1.2176  0.3123 -0.6985
 8791SOL     OW38008   3.976   4.079   7.488 -0.1940  0.6435  0.5359
 8791SOL    HW138009   4.068   4.079   7.463  0.2749 -0.0909  2.2772
 8791SOL    HW238010   3.927   4.098   7.407 -0.2025 -0.9478  0.1796
 8792SOL     OW38011   2.133   2.001  11.397  0.2223  0.0055  0.0677
 8792SOL    HW138012   2.204   2.047  11.352 -1.2160  2.9508  0.8451
 8792SOL    HW238013   2.109   2.072  11.456 -1.4623  0.4164 -1.1121
 8793SOL     OW38014   2.318   2.467   7.763 -0.3737  0.2789 -0.1634
 8793SOL    HW138015   2.364   2.464   7.680 -3.2352 -0.3177 -1.7323
 8793SOL    HW238016   2.385   2.439   7.825 -1.0820 -2.6262 -0.7000
 8794SOL     OW38017   0.902   1.586   4.627  0.1343  0.0897 -0.2752
 8794SOL    HW138018   0.852   1.510   4.655  0.3420 -0.2114 -0.7215
 8794SOL    HW238019   0.834   1.651   4.644 -0.2875 -0.8292  1.4845
 8795SOL     OW38020   1.005   3.490   9.007  0.6698 -0.4947 -0.4727
 8795SOL    HW138021   0.973   3.577   9.028 -0.0231 -0.9898  0.5463
 8795SOL    HW238022   0.977   3.427   9.074  0.8953  1.8434  1.8370
 8796SOL     OW38023   4.387   3.580   7.651  0.1632  0.5266 -0.3867
 8796SOL    HW138024   4.396   3.666   7.692  1.2190  0.9022 -1.4076
 8796SOL    HW238025   4.334   3.534   7.716 -0.6737 -0.3782 -1.7054
 8797SOL     OW38026   1.864   0.460   7.866 -0.2169 -0.4131  0.3105
 8797SOL    HW138027   1.861   0.409   7.947  0.4424 -0.6255  0.2046
 8797SOL    HW238028   1.773   0.488   7.864  0.5404  1.9833 -1.1663
 8798SOL     OW38029   4.187   3.408   7.858 -0.2817 -0.0297 -0.2552
 8798SOL    HW138030   4.170   3.496   7.823  1.1043  0.9236  1.4672
 8798SOL    HW238031   4.172   3.426   7.951  0.6227 -2.8668  0.4322
 8799SOL     OW38032   1.071   0.650   4.335 -0.2671 -0.3984 -0.1449
 8799SOL    HW138033   1.079   0.624   4.244 -2.3403  0.6970 -0.6583
 8799SOL    HW238034   1.013   0.583   4.371 -2.3695  0.9038 -1.1060
 8800SOL     OW38035   1.849   2.111   4.053  0.1350 -0.2506  0.6904
 8800SOL    HW138036   1.774   2.074   4.006 -1.1054  0.4683  2.0992
 8800SOL    HW238037   1.802   2.164   4.118  0.5757 -0.2730  1.0277
 8801SOL     OW38038   2.212   3.442  12.993 -0.0483 -0.0054 -0.1251
 8801SOL    HW138039   2.185   3.378  13.059 -2.5561  0.6040 -0.5648
 8801SOL    HW238040   2.135   3.495  12.972  1.0397  0.8679 -1.9096
 8802SOL     OW38041   3.312   2.846   1.880  0.3618  0.1845  0.0079
 8802SOL    HW138042   3.299   2.764   1.832 -0.5328  0.6960 -0.6209
 8802SOL    HW238043   3.255   2.831   1.955  1.9336 -1.9962  0.7851
 8803SOL     OW38044   0.631   4.631  11.653  0.0395  0.3251 -0.3606
 8803SOL    HW138045   0.580   4.551  11.641 -0.6266  0.4470  1.6566
 8803SOL    HW238046   0.607   4.680  11.574 -1.0838 -1.2633 -0.9861
 8804SOL     OW38047   1.941   2.822  12.317 -0.6542 -0.5381  0.2039
 8804SOL    HW138048   1.876   2.831  12.247  0.1295  0.3274 -0.4151
 8804SOL    HW238049   1.974   2.735  12.294  0.2211  0.4301 -2.2472
 8805SOL     OW38050   4.092   1.714   2.404  0.2327  0.3463 -0.3326
 8805SOL    HW138051   4.173   1.733   2.452  0.2793  1.6849 -0.9549
 8805SOL    HW238052   4.024   1.694   2.469  0.9022 -0.7969  0.0120
 8806SOL     OW38053   2.018   1.357   7.656 -0.0860 -0.2696  0.2287
 8806SOL    HW138054   1.941   1.383   7.607  1.1797  1.2836 -0.9086
 8806SOL    HW238055   1.963   1.340   7.733  0.5157 -2.1210  0.2444
 8807SOL     OW38056   0.785   0.579   7.559  0.8702  0.5191 -0.2426
 8807SOL    HW138057   0.827   0.664   7.575 -0.0018  1.3444 -2.3981
 8807SOL    HW238058   0.783   0.558   7.652  0.6230  1.9766  0.0851
 8808SOL     OW38059   2.972   1.760   8.833  0.0540  0.0520 -0.2172
 8808SOL    HW138060   2.925   1.774   8.750  0.1613  0.4634 -0.2075
 8808SOL    HW238061   2.909   1.705   8.880 -0.9644  1.3179 -0.1241
 8809SOL     OW38062   2.446   3.455   4.541 -0.4139  0.5906 -0.3282
 8809SOL    HW138063   2.440   3.368   4.581  0.0219  1.0550  0.7755
 8809SOL    HW238064   2.453   3.509   4.620  0.9405  2.1924 -1.5458
 8810SOL     OW38065   0.953   4.413  11.413  0.1265 -0.4529  0.1267
 8810SOL    HW138066   0.962   4.391  11.321  0.6182 -0.0990  0.0927
 8810SOL    HW238067   0.979   4.335  11.462 -0.5848 -0.4326  0.5406
 8811SOL     OW38068   0.058   3.466   8.745 -0.4325  0.0724 -0.2375
 8811SOL    HW138069   0.127   3.513   8.791  1.0805 -1.2103 -1.1731
 8811SOL    HW238070   0.015   3.531   8.689 -1.3601  0.0383  0.4506
 8812SOL     OW38071   1.727   0.103  16.427 -0.1205 -0.2824 -0.2276
 8812SOL    HW138072   1.664   0.166  16.463 -0.5617 -0.3596 -0.8479
 8812SOL    HW238073   1.677   0.023  16.443 -0.6744  0.0096 -0.5012
 8813SOL     OW38074   0.517   3.137   8.000  0.0904 -1.0205  0.2635
 8813SOL    HW138075   0.431   3.175   7.984  1.6831  2.1436 -0.8573
 8813SOL    HW238076   0.569   3.217   8.015 -0.7736 -0.3572 -0.2524
 8814SOL     OW38077   4.484   3.427   4.139  0.3415 -0.0913 -0.2945
 8814SOL    HW138078   4.404   3.445   4.189 -1.7366 -0.9285 -3.2626
 8814SOL    HW238079   4.462   3.481   4.063  0.6265 -0.8708 -0.9296
 8815SOL     OW38080   2.172   4.370  15.481 -0.5891  0.3681 -0.0145
 8815SOL    HW138081   2.214   4.343  15.400 -2.4512 -3.0009  0.1125
 8815SOL    HW238082   2.177   4.289  15.532  0.1833  0.5109  0.1414
 8816SOL     OW38083   3.606   3.777  10.719 -0.2210  0.4693  0.5939
 8816SOL    HW138084   3.581   3.869  10.730 -1.3485  0.4903 -2.3692
 8816SOL    HW238085   3.585   3.733  10.801 -3.8876  1.8492  0.4053
 8817SOL     OW38086   4.673   3.439  10.645  0.3677 -0.0448  0.1914
 8817SOL    HW138087   4.648   3.526  10.613  0.0554 -0.8136 -1.6607
 8817SOL    HW238088   4.605   3.411  10.706  1.1979 -0.9976  0.6772
 8818SOL     OW38089   4.389   0.704  12.285 -0.1262 -0.1632  0.0969
 8818SOL    HW138090   4.446   0.746  12.220 -0.2645  0.7080  0.5325
 8818SOL    HW238091   4.458   0.644  12.312  1.0232  0.0936 -2.3087
 8819SOL     OW38092   1.091   2.372   5.063 -0.3625 -0.6789 -0.0923
 8819SOL    HW138093   1.095   2.285   5.103  0.9492 -0.9629 -0.8551
 8819SOL    HW238094   1.061   2.425   5.137 -1.3916 -0.9790 -0.2965
 8820SOL     OW38095   1.963   0.992  11.746 -0.0263 -0.2547 -0.5555
 8820SOL    HW138096   2.009   0.925  11.696  1.9133 -1.2077  2.4774
 8820SOL    HW238097   1.957   0.960  11.836  1.8767  0.0611 -0.3298
 8821SOL     OW38098   4.044   1.369  14.356  0.7282  0.1029 -0.6277
 8821SOL    HW138099   3.961   1.411  14.333  0.2736  0.1876  1.1206
 8821SOL    HW238100   4.057   1.405  14.444  0.1417  0.3550 -0.6477
 8822SOL     OW38101   4.645   4.369  14.041 -0.3009  0.6204  0.1367
 8822SOL    HW138102   4.681   4.378  13.953 -0.7549  0.4277 -0.0648
 8822SOL    HW238103   4.569   4.314  14.022 -0.3218  0.5792  0.3334
 8823SOL     OW38104   4.397   0.682   8.369  0.3409 -0.1396 -0.5297
 8823SOL    HW138105   4.304   0.659   8.378 -0.2152  2.0047 -0.6819
 8823SOL    HW238106   4.398   0.756   8.430  0.2551 -1.2494  0.8102
 8824SOL     OW38107   3.383   2.705  14.697  0.4076  0.2300  0.1296
 8824SOL    HW138108   3.390   2.697  14.793  1.4418  1.0242  0.1194
 8824SOL    HW238109   3.320   2.635  14.677 -1.4357  1.2202  2.4076
 8825SOL     OW38110   1.979   2.290   5.501 -0.0047 -0.4315  0.4344
 8825SOL    HW138111   1.935   2.249   5.575 -2.8695 -0.3873 -1.2414
 8825SOL    HW238112   1.997   2.371   5.549  2.5558 -0.6419 -0.1792
 8826SOL     OW38113   2.907   2.017   3.167  0.1427 -0.0727 -0.0049
 8826SOL    HW138114   2.888   2.099   3.123  0.3243  1.4125  2.6846
 8826SOL    HW238115   2.823   1.973   3.154 -0.4781  0.7666  1.2074
 8827SOL     OW38116   4.655   0.809   8.726 -0.4648 -0.1515 -0.6767
 8827SOL    HW138117   4.566   0.778   8.707 -0.9872  1.6658 -1.1546
 8827SOL    HW238118   4.677   0.861   8.648 -0.7229 -0.9484 -1.2885
 8828SOL     OW38119   3.752   2.266   4.355  0.5887  0.1905 -0.0695
 8828SOL    HW138120   3.729   2.222   4.273 -1.3981 -1.1037  1.1921
 8828SOL    HW238121   3.835   2.220   4.371  1.2756  1.0972 -0.9944
 8829SOL     OW38122   4.054   3.452   3.893 -0.6186  0.7201 -0.2142
 8829SOL    HW138123   4.125   3.399   3.858 -1.9950 -0.9929 -0.4145
 8829SOL    HW238124   4.073   3.532   3.843  3.4024  0.7006  1.3120
 8830SOL     OW38125   2.086   0.943  13.999  0.0216  0.0151  0.4276
 8830SOL    HW138126   2.145   0.881  13.958  1.7425 -0.1608  3.1673
 8830SOL    HW238127   2.138   1.023  13.991 -0.7457  0.3946 -0.6730
 8831SOL     OW38128   3.422   4.109  12.508 -0.1606  0.0073  0.2509
 8831SOL    HW138129   3.498   4.090  12.564 -0.2256  0.0064  0.3378
 8831SOL    HW238130   3.347   4.065  12.548  0.4670 -0.2146  1.1889
 8832SOL     OW38131   4.237   3.422   6.948  0.4235  0.3278  0.0599
 8832SOL    HW138132   4.310   3.483   6.933  1.0965 -0.0640  1.7925
 8832SOL    HW238133   4.264   3.355   6.886 -0.2557 -0.9250  1.1277
 8833SOL     OW38134   1.314   4.143   7.180  0.0905 -0.0324  0.2536
 8833SOL    HW138135   1.293   4.169   7.270 -0.0415  0.0478  0.2009
 8833SOL    HW238136   1.381   4.209   7.162 -0.3858 -0.3535 -2.8293
 8834SOL     OW38137   0.555   3.079   7.394  0.3325  0.2075  0.0443
 8834SOL    HW138138   0.546   2.983   7.389 -1.4666  0.3395  0.5314
 8834SOL    HW238139   0.608   3.078   7.474 -1.2404 -2.8974  1.0611
 8835SOL     OW38140   3.281   1.023  17.495  0.8847  0.1426  0.2174
 8835SOL    HW138141   3.200   1.074  17.496  1.5538  1.2415 -1.9951
 8835SOL    HW238142   3.322   1.031  17.581 -3.3056  0.6178  2.1903
 8836SOL     OW38143   4.483   3.942   6.385  0.0775  0.5121 -0.2420
 8836SOL    HW138144   4.393   3.929   6.356 -0.2966  1.6779  0.4034
 8836SOL    HW238145   4.519   4.005   6.323  2.6483  0.3460  1.0614
 8837SOL     OW38146   2.129   0.551   5.937  0.7603  0.3431  0.2098
 8837SOL    HW138147   2.148   0.560   5.844  0.4333  1.0012  0.2019
 8837SOL    HW238148   2.218   0.552   5.972  0.9029  1.8060 -0.1899
 8838SOL     OW38149   0.876   2.026   7.518  0.8321 -1.2142  0.1715
 8838SOL    HW138150   0.815   2.092   7.484  1.2985 -0.7645  0.2171
 8838SOL    HW238151   0.885   1.970   7.442 -0.0562  0.4594 -1.1659
 8839SOL     OW38152   3.130   1.495   8.217  0.6138 -0.1975  0.2175
 8839SOL    HW138153   3.219   1.468   8.194  0.3429  0.1246 -1.2530
 8839SOL    HW238154   3.077   1.420   8.190 -1.8674  1.8453 -0.6330
 8840SOL     OW38155   0.599   1.914   7.360 -0.2626  0.3441 -0.3800
 8840SOL    HW138156   0.568   1.999   7.330 -1.1719 -0.2539 -1.1248
 8840SOL    HW238157   0.519   1.877   7.399  0.2902  1.2405  1.6138
 8841SOL     OW38158   3.395   2.538  11.570 -0.5992  0.2356 -0.0146
 8841SOL    HW138159   3.332   2.474  11.604  0.2162 -1.2620 -1.3358
 8841SOL    HW238160   3.355   2.571  11.490  0.7017 -0.3941 -0.9359
 8842SOL     OW38161   4.361   3.948   7.956 -0.2276 -0.1551  0.2336
 8842SOL    HW138162   4.400   3.861   7.961  1.6742  0.7836  2.1080
 8842SOL    HW238163   4.441   4.000   7.947 -0.4229  0.6995  3.2666
 8843SOL     OW38164   2.771   4.493   2.100  0.1353  0.0588 -0.2195
 8843SOL    HW138165   2.780   4.456   2.188  1.1578  1.2623  0.1859
 8843SOL    HW238166   2.678   4.476   2.088 -0.0526  0.5291  0.6154
 8844SOL     OW38167   3.607   0.541   8.409  0.4987 -0.5425 -0.1904
 8844SOL    HW138168   3.698   0.555   8.385  0.8453 -2.0132  0.2791
 8844SOL    HW238169   3.593   0.448   8.393 -0.1436 -0.0647 -2.4877
 8845SOL     OW38170   0.501   2.594  17.439 -0.2629  0.9173 -0.8771
 8845SOL    HW138171   0.506   2.689  17.430 -0.3745  1.0306  0.2790
 8845SOL    HW238172   0.430   2.580  17.377 -0.7221 -0.6715  0.0026
 8846SOL     OW38173   0.474   4.142  15.581 -0.1699  0.2271  0.7388
 8846SOL    HW138174   0.506   4.052  15.587  1.3923  0.7712  0.5820
 8846SOL    HW238175   0.380   4.127  15.574 -0.2945  1.5466 -0.3086
 8847SOL     OW38176   0.003   2.415   6.079  0.0586  0.8878  0.1510
 8847SOL    HW138177   0.071   2.430   6.013 -0.1630 -1.8727 -0.6988
 8847SOL    HW238178   0.015   2.321   6.090  1.2258  1.0690  0.3964
 8848SOL     OW38179   3.218   1.092   5.244 -0.4887 -0.4350 -0.2274
 8848SOL    HW138180   3.232   1.076   5.337  2.0597  1.6475 -0.2295
 8848SOL    HW238181   3.305   1.122   5.214 -0.2175 -0.9030  0.0972
 8849SOL     OW38182   1.495   0.853  16.458  0.1082  0.2423 -0.1726
 8849SOL    HW138183   1.482   0.855  16.363 -0.7658 -1.4372 -0.0871
 8849SOL    HW238184   1.581   0.810  16.465  0.2339 -0.0693 -3.7113
 8850SOL     OW38185   4.390   0.800   8.099 -0.0406  0.5639  0.1416
 8850SOL    HW138186   4.410   0.756   8.181 -0.8228  1.0859  0.6097
 8850SOL    HW238187   4.415   0.727   8.042  0.5331 -0.6009  1.8919
 8851SOL     OW38188   3.783   4.526   8.161  0.6270  0.2412 -0.4100
 8851SOL    HW138189   3.755   4.549   8.072 -1.8565 -1.3917 -0.0396
 8851SOL    HW238190   3.877   4.510   8.149  0.2761 -2.4019  0.3765
 8852SOL     OW38191   4.277   0.776   4.494  0.1231  0.7135 -0.1717
 8852SOL    HW138192   4.356   0.749   4.541 -1.3913 -1.6384  1.0098
 8852SOL    HW238193   4.311   0.850   4.444 -0.4986 -0.4203 -2.2878
 8853SOL     OW38194   0.511   3.975   4.150  0.2640  0.0446  0.1233
 8853SOL    HW138195   0.465   4.007   4.072 -1.3883  3.1887  2.3833
 8853SOL    HW238196   0.592   4.026   4.155  0.5393 -0.2574 -1.3162
 8854SOL     OW38197   0.807   0.445   0.551 -0.1149  0.3853 -0.5840
 8854SOL    HW138198   0.827   0.519   0.608  2.5391  0.1528 -1.2158
 8854SOL    HW238199   0.808   0.476   0.461  1.4784  2.3475  0.1209
 8855SOL     OW38200   1.265   2.979   2.490 -1.0119  0.0970  0.6471
 8855SOL    HW138201   1.336   2.920   2.466 -0.4797  0.4116  1.4514
 8855SOL    HW238202   1.217   2.931   2.558 -0.7266  0.9599  1.4533
 8856SOL     OW38203   3.835   0.905   8.292 -0.5218  0.5472 -0.0976
 8856SOL    HW138204   3.880   0.932   8.212  0.6776 -0.3598  0.2889
 8856SOL    HW238205   3.897   0.857   8.346 -0.0551  1.7590  0.4594
 8857SOL     OW38206   0.838   0.205   5.372  0.4789  0.4901  0.2094
 8857SOL    HW138207   0.827   0.206   5.277 -0.4660 -1.3057  0.2980
 8857SOL    HW238208   0.758   0.252   5.396 -0.3791 -1.0317  0.3203
 8858SOL     OW38209   0.019   1.596  16.204 -0.2049 -0.1307 -0.0113
 8858SOL    HW138210   4.719   1.510  16.186 -0.0770 -0.1253 -0.2911
 8858SOL    HW238211   0.045   1.571  16.293 -0.1153  0.3536  0.1002
 8859SOL     OW38212   4.692   0.625   0.608 -0.7479  0.0467  0.3426
 8859SOL    HW138213   4.633   0.680   0.661  0.2945  1.3515  0.1469
 8859SOL    HW238214   4.632   0.599   0.538  0.9368 -0.2506 -0.9794
 8860SOL     OW38215   2.464   2.437   0.461 -0.3343 -0.1795  0.2036
 8860SOL    HW138216   2.400   2.488   0.411 -0.0144 -0.6197 -0.6573
 8860SOL    HW238217   2.399   2.396   0.519 -0.7269  0.6425  0.3410
 8861SOL     OW38218   1.530   0.572   7.401  0.1985  0.8179 -0.2131
 8861SOL    HW138219   1.490   0.570   7.314  3.7068 -2.2153 -1.7876
 8861SOL    HW238220   1.613   0.617   7.383 -0.3944  2.0959  0.2641
 8862SOL     OW38221   1.676   0.831   4.366  0.2461  0.0655 -0.2068
 8862SOL    HW138222   1.684   0.744   4.404  1.1754 -1.1723 -3.2480
 8862SOL    HW238223   1.581   0.842   4.357  0.1612 -1.0296 -0.5695
 8863SOL     OW38224   0.564   0.555   6.185 -0.0856  0.4120 -0.2965
 8863SOL    HW138225   0.656   0.536   6.169 -0.1048 -0.9651  1.2571
 8863SOL    HW238226   0.554   0.647   6.207 -0.8873  0.2997 -0.1624
 8864SOL     OW38227   3.788   0.002   1.231 -0.0763 -0.2436 -0.2883
 8864SOL    HW138228   3.737   4.676   1.282  0.3374 -0.0416  0.3713
 8864SOL    HW238229   3.801   0.061   1.305 -1.9640 -0.9471  0.5981
 8865SOL     OW38230   3.525   1.198   7.317  0.5432  0.1903 -0.0476
 8865SOL    HW138231   3.460   1.236   7.376 -0.4087  0.0243 -0.9713
 8865SOL    HW238232   3.596   1.262   7.326  2.0140 -1.2943 -1.1221
 8866SOL     OW38233   0.937   2.994   5.816  0.5554 -0.0570  0.1295
 8866SOL    HW138234   0.874   2.980   5.745  0.4891 -1.0639  0.3770
 8866SOL    HW238235   0.947   2.903   5.847 -1.5889  0.1832  1.5506
 8867SOL     OW38236   2.710   1.184   6.661  0.9611 -0.6634 -0.2725
 8867SOL    HW138237   2.623   1.197   6.699  1.5520 -0.6410  1.0747
 8867SOL    HW238238   2.679   1.127   6.591 -0.8629  0.0188 -0.0083
 8868SOL     OW38239   4.101   1.586  13.216  0.2835 -0.1553  0.1819
 8868SOL    HW138240   4.052   1.505  13.233  2.7870 -1.3839  1.4939
 8868SOL    HW238241   4.072   1.641  13.288 -0.5320 -1.1157  0.5903
 8869SOL     OW38242   2.420   1.615  14.412 -0.3147  0.0542 -0.0654
 8869SOL    HW138243   2.462   1.558  14.476  0.3725 -1.0493 -1.5006
 8869SOL    HW238244   2.347   1.554  14.396 -2.8703  3.5592 -1.5857
 8870SOL     OW38245   1.464   0.920   2.291  0.7286  0.3346  0.3124
 8870SOL    HW138246   1.380   0.953   2.259  1.1449 -1.4323 -2.6145
 8870SOL    HW238247   1.507   1.000   2.323  0.6896  0.1263  0.8752
 8871SOL     OW38248   2.986   0.563  12.809  0.1196 -0.3650  0.5547
 8871SOL    HW138249   3.043   0.486  12.805  0.6812  0.0546  0.5533
 8871SOL    HW238250   3.023   0.620  12.742 -1.1055 -1.0455 -0.7318
 8872SOL     OW38251   0.110   1.134  16.712  0.2520 -0.4568 -0.4869
 8872SOL    HW138252   0.114   1.039  16.727  0.6587 -0.2970  0.4232
 8872SOL    HW238253   0.068   1.132  16.627 -0.5322  0.7342 -0.1189
 8873SOL     OW38254   4.618   1.014   4.606 -0.5994  0.0262 -0.0242
 8873SOL    HW138255   4.607   0.982   4.516 -1.2455 -0.0315  0.0779
 8873SOL    HW238256   4.700   0.972   4.630  0.8083  2.8085  0.1313
 8874SOL     OW38257   0.986   0.859   3.830 -0.2500 -0.3769 -0.4642
 8874SOL    HW138258   0.976   0.786   3.769  1.4655  0.9562 -2.3109
 8874SOL    HW238259   1.058   0.916   3.803 -0.4514 -0.1341 -0.4838
 8875SOL     OW38260   3.813   4.068   4.390 -0.1411  0.2234 -0.0690
 8875SOL    HW138261   3.748   4.115   4.338 -1.1328 -0.7627  0.2767
 8875SOL    HW238262   3.758   4.067   4.469  0.6876 -0.1366  0.5047
 8876SOL     OW38263   0.431   2.677   8.876  0.0070  0.3935  0.7698
 8876SOL    HW138264   0.342   2.704   8.896 -0.5259 -0.8587  0.0600
 8876SOL    HW238265   0.428   2.696   8.783  0.9744 -1.1755  0.4160
 8877SOL     OW38266   1.160   0.545  13.888  0.1743  0.3654  0.2208
 8877SOL    HW138267   1.226   0.600  13.845  1.2325 -0.2321  1.1055
 8877SOL    HW238268   1.082   0.561  13.835  0.8090  2.1468 -0.1727
 8878SOL     OW38269   3.141   2.039  15.282 -0.1730  0.2999  0.0159
 8878SOL    HW138270   3.198   2.000  15.216 -1.7028  0.7003 -1.5307
 8878SOL    HW238271   3.170   2.130  15.277 -1.3848  0.7283  0.5705
 8879SOL     OW38272   3.842   3.239   4.752  0.3309 -0.4565  0.3351
 8879SOL    HW138273   3.845   3.154   4.795 -0.7391 -0.2316  0.8681
 8879SOL    HW238274   3.913   3.285   4.797  0.8025 -1.4598  0.6134
 8880SOL     OW38275   3.521   4.515   9.466  0.1944 -0.5849  0.0700
 8880SOL    HW138276   3.428   4.513   9.447  0.5642 -0.2287 -1.7571
 8880SOL    HW238277   3.542   4.568   9.543 -2.1179 -0.7185  0.7857
 8881SOL     OW38278   4.208   0.243   2.144 -0.2666 -0.6787  0.3316
 8881SOL    HW138279   4.158   0.185   2.087  0.4385 -0.9723  0.0132
 8881SOL    HW238280   4.134   0.297   2.174 -0.8246  0.7976 -3.7604
 8882SOL     OW38281   2.925   3.085   6.907 -0.4955  0.1060 -0.1497
 8882SOL    HW138282   2.884   2.999   6.907 -0.7406  0.2407 -2.1351
 8882SOL    HW238283   3.004   3.062   6.957 -2.5665 -2.4513  1.8928
 8883SOL     OW38284   0.619   0.226   1.243  0.2820  0.1709 -0.0642
 8883SOL    HW138285   0.550   0.172   1.282  0.4496 -0.3797 -0.5218
 8883SOL    HW238286   0.692   0.168   1.264 -0.8872 -2.2679 -2.7901
 8884SOL     OW38287   2.404   4.350   5.281 -0.2559  0.2621 -0.5013
 8884SOL    HW138288   2.474   4.286   5.295  0.3164  1.0410  0.2334
 8884SOL    HW238289   2.373   4.346   5.372 -0.0557 -0.2822 -0.4585
 8885SOL     OW38290   3.189   3.175   2.539  0.3719  0.3875  0.0519
 8885SOL    HW138291   3.168   3.092   2.495 -1.0801  0.5228  0.5131
 8885SOL    HW238292   3.277   3.179   2.500 -0.1693  1.4446 -1.0510
 8886SOL     OW38293   0.742   3.586   7.035  0.0635  0.3164 -0.2222
 8886SOL    HW138294   0.769   3.523   7.102  1.3996  0.6459 -0.4516
 8886SOL    HW238295   0.822   3.602   6.985  0.1128  0.3841 -0.1222
 8887SOL     OW38296   3.526   0.394   2.818 -0.1678 -0.3796  0.7042
 8887SOL    HW138297   3.456   0.401   2.883 -1.5300 -1.2362 -0.6623
 8887SOL    HW238298   3.538   0.300   2.804 -0.9293 -0.5698  1.3093
 8888SOL     OW38299   1.462   0.907   1.213 -0.0030 -0.7929 -0.3170
 8888SOL    HW138300   1.411   0.920   1.293 -0.1543 -0.3144 -0.4909
 8888SOL    HW238301   1.389   0.877   1.159  1.2492  0.1151 -2.5154
 8889SOL     OW38302   2.522   1.110  15.606  0.8260  0.9295  0.1901
 8889SOL    HW138303   2.591   1.158  15.560  0.5621  0.0378 -1.1262
 8889SOL    HW238304   2.554   1.020  15.610  0.1807  0.7164  0.6216
 8890SOL     OW38305   2.499   0.731   2.440  0.2766 -0.1881 -0.1702
 8890SOL    HW138306   2.585   0.754   2.476  0.5623 -0.3419 -0.7508
 8890SOL    HW238307   2.490   0.636   2.447 -0.5927 -0.1984 -1.4856
 8891SOL     OW38308   2.660   4.558   4.117  0.8621 -0.0712  0.1644
 8891SOL    HW138309   2.647   4.501   4.041  1.3657 -0.5066  0.4087
 8891SOL    HW238310   2.576   4.557   4.162  0.9819  0.3036  0.4029
 8892SOL     OW38311   0.766   4.351   9.600  0.0192  0.6529  0.3151
 8892SOL    HW138312   0.750   4.425   9.659  1.1555 -1.1088  2.8234
 8892SOL    HW238313   0.697   4.378   9.539  1.2455  1.9149 -0.5117
 8893SOL     OW38314   1.616   4.589   4.869  1.0339  0.3710 -0.0087
 8893SOL    HW138315   1.640   4.557   4.782  0.4051 -0.4755  0.1249
 8893SOL    HW238316   1.527   4.619   4.848  1.2828  0.9171 -0.2859
 8894SOL     OW38317   1.979   1.308  10.381 -0.6790 -0.3256  0.0833
 8894SOL    HW138318   2.051   1.257  10.417 -0.7646  0.3404  1.2018
 8894SOL    HW238319   1.933   1.349  10.454 -0.8400 -0.4937  0.0766
 8895SOL     OW38320   3.804   1.353  12.270  0.0738  0.2625  0.5435
 8895SOL    HW138321   3.762   1.395  12.195  0.1056  2.0485  1.5192
 8895SOL    HW238322   3.889   1.334  12.230  0.1517  0.3388  0.6720
 8896SOL     OW38323   3.102   2.965   9.723 -0.2464  0.0500 -0.4787
 8896SOL    HW138324   3.107   2.927   9.811  1.2257  0.2437 -0.4828
 8896SOL    HW238325   3.049   3.040   9.750 -1.4373 -0.6605 -0.8655
 8897SOL     OW38326   2.603   4.077   5.912  0.1161  0.0521  0.5755
 8897SOL    HW138327   2.690   4.117   5.915 -0.0999  0.6205 -0.5238
 8897SOL    HW238328   2.607   3.983   5.895  1.4268  0.6557 -2.4132
 8898SOL     OW38329   2.461   2.253   0.870  0.3405  0.2595 -0.0406
 8898SOL    HW138330   2.373   2.214   0.876  0.1700  0.7084  0.3281
 8898SOL    HW238331   2.473   2.278   0.961 -0.6143  1.1929 -0.1721
 8899SOL     OW38332   1.218   2.259  16.873 -0.4052  0.3883  0.6497
 8899SOL    HW138333   1.200   2.257  16.967 -1.3117  1.2782  0.4944
 8899SOL    HW238334   1.304   2.300  16.879 -0.3442  0.3071  0.3286
 8900SOL     OW38335   1.217   2.984   5.906  0.0461  0.5960 -0.3962
 8900SOL    HW138336   1.130   3.006   5.873 -0.0170  0.2013 -0.4949
 8900SOL    HW238337   1.208   2.957   5.997  0.6173 -0.4193 -0.6413
 8901SOL     OW38338   2.960   3.323  10.572  0.4135  0.0308 -0.1916
 8901SOL    HW138339   3.004   3.356  10.494  0.4092  0.0944 -0.1673
 8901SOL    HW238340   2.869   3.332  10.544 -0.1560  1.7402  2.2172
 8902SOL     OW38341   2.326   3.126   3.066  0.8794 -0.2865 -0.0821
 8902SOL    HW138342   2.388   3.198   3.072 -0.5265  0.8797  0.4370
 8902SOL    HW238343   2.304   3.105   3.157 -2.7059  0.2008 -0.8142
 8903SOL     OW38344   0.976   4.159   2.503  0.0564 -0.5304 -0.0125
 8903SOL    HW138345   0.997   4.077   2.458  0.8664 -0.3558  0.0514
 8903SOL    HW238346   0.971   4.135   2.595 -2.4829  0.2958  0.0634
 8904SOL     OW38347   2.425   1.023   7.061  0.4090 -0.8456 -0.5740
 8904SOL    HW138348   2.435   1.019   7.156  0.0293  2.3037 -0.4147
 8904SOL    HW238349   2.372   0.943   7.052 -2.1474  0.9904 -1.9643
 8905SOL     OW38350   0.098   1.638   3.463 -0.1174 -0.4090  0.7776
 8905SOL    HW138351   0.176   1.586   3.485  0.2931 -0.1012  0.0617
 8905SOL    HW238352   0.150   1.717   3.451 -0.2702 -0.3540  0.4845
 8906SOL     OW38353   4.508   3.498   6.724 -0.4617 -0.4574 -0.0097
 8906SOL    HW138354   4.565   3.533   6.655 -0.5792  2.2413  1.2817
 8906SOL    HW238355   4.531   3.406   6.706 -2.0403 -0.6543 -1.0710
 8907SOL     OW38356   2.986   1.076   8.286 -0.1672 -0.4196 -0.1870
 8907SOL    HW138357   3.011   1.121   8.205 -1.5806 -0.2546 -0.5206
 8907SOL    HW238358   2.910   1.131   8.303  0.1334 -0.0377 -0.0877
 8908SOL     OW38359   0.951   1.906   9.042  0.1136 -0.4799 -0.2473
 8908SOL    HW138360   0.963   1.828   8.989  0.6524 -0.4648 -0.1428
 8908SOL    HW238361   0.865   1.881   9.078 -0.6775  0.1419 -1.7149
 8909SOL     OW38362   1.852   0.790   4.134  0.0213  0.1742  0.0042
 8909SOL    HW138363   1.783   0.796   4.201  1.4906  1.4215  1.3828
 8909SOL    HW238364   1.827   0.713   4.083 -0.9931  0.7439 -0.3769
 8910SOL     OW38365   4.654   0.305   6.260 -0.1762  0.2243  0.2400
 8910SOL    HW138366   4.718   0.284   6.192  0.0441 -0.1500  0.5669
 8910SOL    HW238367   4.595   0.366   6.215 -0.4910  0.0564  0.4255
 8911SOL     OW38368   1.957   3.601   3.510  0.2228 -0.0801 -0.0646
 8911SOL    HW138369   1.862   3.604   3.522  0.2962  4.0884 -0.5540
 8911SOL    HW238370   1.987   3.641   3.592 -1.4447  0.0128  0.4977
 8912SOL     OW38371   2.873   0.161   1.374 -0.0030 -0.0340 -0.4208
 8912SOL    HW138372   2.952   0.115   1.403 -0.1890 -0.2036 -0.1784
 8912SOL    HW238373   2.847   0.174   1.465  0.1259  0.3931 -0.4491
 8913SOL     OW38374   3.870   4.422   4.463  0.0124  0.4600 -0.4109
 8913SOL    HW138375   3.844   4.384   4.547 -2.2612 -1.1682 -1.8551
 8913SOL    HW238376   3.965   4.417   4.460 -0.0065 -0.9293  1.1693
 8914SOL     OW38377   1.665   4.314  16.551  0.3422 -0.1830  0.2895
 8914SOL    HW138378   1.646   4.407  16.539 -0.3459 -0.3161  0.3375
 8914SOL    HW238379   1.587   4.278  16.594 -0.4380 -2.0665 -2.6924
 8915SOL     OW38380   0.171   4.700   4.576  0.4351 -0.3759 -0.3805
 8915SOL    HW138381   0.256   4.726   4.612 -0.1880  0.6547  0.3521
 8915SOL    HW238382   0.135   4.636   4.636 -1.4367  0.0448 -1.0712
 8916SOL     OW38383   0.703   0.418  13.207 -0.1824  0.4301 -0.2584
 8916SOL    HW138384   0.768   0.434  13.276 -0.5661  0.9369 -0.0075
 8916SOL    HW238385   0.633   0.375  13.256 -0.0513  1.0662  0.4941
 8917SOL     OW38386   1.960   4.283   7.670 -0.1605 -0.6834  0.1086
 8917SOL    HW138387   1.997   4.254   7.587  1.7532 -0.7070  0.9573
 8917SOL    HW238388   1.996   4.372   7.679 -0.1963 -0.6738  0.1529
 8918SOL     OW38389   4.097   0.731  12.237  0.6877  0.2204  0.3716
 8918SOL    HW138390   4.184   0.700  12.261  0.2110  0.0345  1.8186
 8918SOL    HW238391   4.120   0.762  12.149 -0.3549  1.9547  0.7006
 8919SOL     OW38392   1.329   0.064   7.374 -0.0678  0.1333  0.5230
 8919SOL    HW138393   1.239   0.073   7.344  0.1353 -1.0396 -0.4271
 8919SOL    HW238394   1.308   0.072   7.467 -0.5453 -1.7759  0.5747
 8920SOL     OW38395   3.782   4.094  14.008  0.4204 -0.1860  0.2312
 8920SOL    HW138396   3.801   4.070  14.099  2.5757 -0.3547 -0.2590
 8920SOL    HW238397   3.820   4.014  13.971  5.7371  2.9338 -1.0775
 8921SOL     OW38398   2.755   1.372   4.445  0.1960  0.3188  0.2331
 8921SOL    HW138399   2.688   1.303   4.436 -1.2825  1.6404  1.0375
 8921SOL    HW238400   2.723   1.418   4.523  1.9311 -1.5263  2.0390
 8922SOL     OW38401   3.045   3.697  10.968 -0.4236  0.6303 -0.3147
 8922SOL    HW138402   3.016   3.627  11.026 -0.0422  2.0165  1.5427
 8922SOL    HW238403   2.995   3.772  11.000 -0.6714 -0.2324  1.3076
 8923SOL     OW38404   1.504   0.251  16.864  0.7288 -0.0746 -0.3287
 8923SOL    HW138405   1.491   0.232  16.771 -0.2895 -0.8144 -0.0462
 8923SOL    HW238406   1.479   0.343  16.868 -3.2078 -1.0735 -1.9073
 8924SOL     OW38407   3.381   4.126   1.273 -0.3023 -0.0077  0.0943
 8924SOL    HW138408   3.476   4.117   1.276 -0.5377 -1.6783  2.5500
 8924SOL    HW238409   3.380   4.177   1.353  1.7065 -2.1695  1.4953
 8925SOL     OW38410   4.468   4.664   8.172 -0.3336 -0.0841 -0.0591
 8925SOL    HW138411   4.440   4.575   8.149 -0.0817 -0.9321  3.0009
 8925SOL    HW238412   4.385   4.708   8.191  0.4993  1.5180 -0.1374
 8926SOL     OW38413   3.587   2.300   9.560 -1.1842  0.3558 -0.2372
 8926SOL    HW138414   3.552   2.216   9.531 -2.2602  0.2091  1.4734
 8926SOL    HW238415   3.680   2.287   9.542 -1.5133  0.4628 -2.0544
 8927SOL     OW38416   0.227   2.319   4.228  0.2975  0.3994 -0.0244
 8927SOL    HW138417   0.245   2.359   4.143 -0.9849 -0.1662 -0.5656
 8927SOL    HW238418   0.150   2.271   4.196 -1.5543  2.8911  0.6415
 8928SOL     OW38419   2.568   1.803  17.426 -0.6125 -0.5717 -0.1808
 8928SOL    HW138420   2.510   1.826  17.498 -0.9382  0.1876 -0.6882
 8928SOL    HW238421   2.656   1.811  17.463 -0.7834 -1.9028  0.5010
 8929SOL     OW38422   0.690   0.217   8.589 -0.4770 -0.0833  0.2490
 8929SOL    HW138423   0.638   0.242   8.666 -0.2628  1.9710 -0.2622
 8929SOL    HW238424   0.693   0.122   8.601 -0.8163  0.5064  5.1344
 8930SOL     OW38425   3.707   0.619   8.101  0.3537 -0.1138 -0.1360
 8930SOL    HW138426   3.643   0.661   8.043 -1.3892 -0.6287  1.4141
 8930SOL    HW238427   3.720   0.681   8.172  0.8756  0.1679 -0.4770
 8931SOL     OW38428   4.409   4.419   8.116 -0.4106  0.9887  0.0402
 8931SOL    HW138429   4.427   4.349   8.053 -0.2821 -0.5468  1.7685
 8931SOL    HW238430   4.369   4.371   8.188 -0.9360  0.7528 -0.4103
 8932SOL     OW38431   1.859   3.839   6.238 -0.1681  0.1557 -0.1771
 8932SOL    HW138432   1.932   3.781   6.217 -1.4199 -1.9843  1.4050
 8932SOL    HW238433   1.795   3.769   6.247 -0.3440  0.5661  1.8567
 8933SOL     OW38434   3.983   1.486   3.988  0.2985  0.4078  0.0109
 8933SOL    HW138435   3.946   1.492   3.900  0.6091 -1.6097 -0.2451
 8933SOL    HW238436   4.047   1.556   3.977 -0.9203  1.6119  0.4668
 8934SOL     OW38437   0.815   0.722   1.285  0.3695 -0.8544 -0.0068
 8934SOL    HW138438   0.818   0.643   1.231 -2.0240  0.4846 -2.0903
 8934SOL    HW238439   0.770   0.692   1.364 -1.6384 -0.2676 -0.9228
 8935SOL     OW38440   3.545   0.032  17.394  0.1906 -0.3973  0.3985
 8935SOL    HW138441   3.518   0.124  17.387  0.4576 -0.3638 -0.2116
 8935SOL    HW238442   3.612   0.016  17.328 -1.6402 -0.7803 -1.3491
 8936SOL     OW38443   0.456   2.411   8.968  0.8535  0.2103 -0.2469
 8936SOL    HW138444   0.450   2.505   8.986 -3.3789 -0.0407 -0.3167
 8936SOL    HW238445   0.455   2.401   8.872 -1.1842 -0.3099 -0.1742
 8937SOL     OW38446   0.744   2.957   4.953 -0.0949  0.2637 -0.1565
 8937SOL    HW138447   0.783   2.884   4.904  0.8751  1.9628 -1.8928
 8937SOL    HW238448   0.776   3.033   4.905  0.0994  0.9923  1.1119
 8938SOL     OW38449   3.948   3.874   4.293 -0.4788 -0.8054  0.2581
 8938SOL    HW138450   3.917   3.950   4.342 -1.9828 -1.7066  0.7045
 8938SOL    HW238451   3.907   3.803   4.343  2.4177 -3.4934 -1.2093
 8939SOL     OW38452   3.711   3.598   5.126 -0.2376  0.1660  0.0261
 8939SOL    HW138453   3.751   3.614   5.041 -0.3091  1.8004  0.3089
 8939SOL    HW238454   3.617   3.604   5.112  0.1893  0.2645 -2.6907
 8940SOL     OW38455   4.106   3.844  10.709  0.1599 -0.6403 -0.5235
 8940SOL    HW138456   4.033   3.787  10.686  0.6145 -0.7070 -1.7933
 8940SOL    HW238457   4.056   3.926  10.705 -0.9478 -1.2987 -0.1649
 8941SOL     OW38458   3.122   3.387   9.196  0.2102 -0.1072  0.0078
 8941SOL    HW138459   3.028   3.400   9.205  0.5517  2.2258  0.2030
 8941SOL    HW238460   3.154   3.395   9.286  0.3696 -2.0997  0.1395
 8942SOL     OW38461   0.709   2.867   7.548  0.0500  0.7722  0.4416
 8942SOL    HW138462   0.674   2.815   7.476  1.6802 -0.0458  0.2492
 8942SOL    HW238463   0.800   2.866   7.519 -0.1707 -0.8262 -0.2028
 8943SOL     OW38464   2.248   1.238   3.759 -0.0018 -0.0807  0.1002
 8943SOL    HW138465   2.194   1.184   3.816 -0.3326  1.0249  0.8204
 8943SOL    HW238466   2.331   1.239   3.807  1.0111 -0.6169 -1.6381
 8944SOL     OW38467   0.038   2.220   5.692 -0.0681  0.4188  0.0770
 8944SOL    HW138468   0.073   2.208   5.780 -1.4401  2.1416  0.8371
 8944SOL    HW238469   0.013   2.133   5.660 -0.2483  0.0721  1.1705
 8945SOL     OW38470   2.001   1.725   3.012  0.1044  0.4352  0.0881
 8945SOL    HW138471   1.910   1.710   2.989  0.0326 -0.8676  1.2286
 8945SOL    HW238472   2.012   1.665   3.086 -1.9509 -2.3072 -1.8472
 8946SOL     OW38473   3.865   3.922   3.188  0.4782 -0.4275  0.1006
 8946SOL    HW138474   3.960   3.932   3.174  0.0067 -1.0100 -3.6341
 8946SOL    HW238475   3.856   3.905   3.281 -1.0628 -0.8972 -0.1368
 8947SOL     OW38476   0.689   4.255  16.767  0.2324  0.1036  0.5796
 8947SOL    HW138477   0.689   4.327  16.830 -0.5570  0.4466  0.1922
 8947SOL    HW238478   0.720   4.180  16.819  0.7114  0.7701  1.2487
 8948SOL     OW38479   0.018   2.925  16.519  0.5568 -0.0208  0.8714
 8948SOL    HW138480   4.679   2.980  16.535  0.5523  0.4789 -0.9499
 8948SOL    HW238481   0.054   2.932  16.608  0.0101 -1.5593  1.2118
 8949SOL     OW38482   0.589   1.688   3.471  0.1162 -0.6307 -0.4989
 8949SOL    HW138483   0.662   1.749   3.474 -1.7736  1.5954  0.2427
 8949SOL    HW238484   0.536   1.703   3.393 -0.0638  5.2233  0.8018
 8950SOL     OW38485   4.462   2.027   6.524 -0.1945 -0.7115  0.1687
 8950SOL    HW138486   4.479   1.965   6.595 -1.2487 -1.2956 -0.0967
 8950SOL    HW238487   4.539   2.010   6.469  0.6653 -1.3237  1.5685
 8951SOL     OW38488   1.160   2.994  17.624 -0.5174  0.4166 -0.1782
 8951SOL    HW138489   1.164   3.076  17.672 -1.4146 -0.6993  1.7955
 8951SOL    HW238490   1.222   3.001  17.551  0.5275 -1.9742  0.4792
 8952SOL     OW38491   4.589   4.587   7.079  0.0475  0.2354  0.1796
 8952SOL    HW138492   4.598   4.648   7.153  1.1431 -2.8327  2.5879
 8952SOL    HW238493   4.684   4.571   7.077 -0.0416 -0.2812  0.2106
 8953SOL     OW38494   2.302   0.098   2.103  0.0069  0.7902 -0.1802
 8953SOL    HW138495   2.241   0.137   2.040  1.0894 -0.5777 -2.0671
 8953SOL    HW238496   2.291   0.140   2.188 -0.4082 -0.7578  0.5415
 8954SOL     OW38497   1.446   4.700   6.296  0.0019  0.1709 -0.0844
 8954SOL    HW138498   1.367   4.699   6.350 -1.1694 -1.4337 -1.8255
 8954SOL    HW238499   1.427   4.634   6.230  1.0172  0.6362 -0.8387
 8955SOL     OW38500   2.947   3.214   6.264 -0.1116 -0.0054 -0.1318
 8955SOL    HW138501   2.932   3.127   6.301  1.4179  0.7539  2.2780
 8955SOL    HW238502   2.948   3.191   6.171 -0.0196 -0.6158  0.0212
 8956SOL     OW38503   4.303   4.131   4.048 -0.3950 -0.3217 -0.3363
 8956SOL    HW138504   4.285   4.159   4.137 -2.2562 -0.6575 -0.6027
 8956SOL    HW238505   4.363   4.059   4.068 -0.9710 -0.9770 -0.9732
 8957SOL     OW38506   0.383   2.870   4.747 -0.1884 -0.6213 -0.0921
 8957SOL    HW138507   0.471   2.856   4.714  0.4835  2.5211  0.3482
 8957SOL    HW238508   0.332   2.904   4.673  2.1663  1.6833 -0.6614
 8958SOL     OW38509   4.270   4.090   7.178  0.2162  0.6017  0.0918
 8958SOL    HW138510   4.363   4.087   7.155  0.1919 -2.7593  0.4099
 8958SOL    HW238511   4.254   4.181   7.204 -2.9654 -0.3650  1.5548
 8959SOL     OW38512   3.776   4.518   2.239 -0.5340  0.1596 -0.0258
 8959SOL    HW138513   3.710   4.454   2.213 -0.7908  1.0921 -1.7333
 8959SOL    HW238514   3.748   4.601   2.200 -1.2489  0.3466  0.8970
 8960SOL     OW38515   3.780   4.213   7.835 -0.5081 -0.1311 -0.4921
 8960SOL    HW138516   3.713   4.257   7.783 -2.2557 -3.8315 -1.4016
 8960SOL    HW238517   3.746   4.124   7.847  3.3625 -1.3327  1.4937
 8961SOL     OW38518   0.858   3.146  10.888  0.4878  0.0114 -0.1864
 8961SOL    HW138519   0.918   3.071  10.882 -0.0576 -0.4383 -0.0710
 8961SOL    HW238520   0.794   3.115  10.952 -0.9112  1.3789 -0.9115
 8962SOL     OW38521   3.645   2.143   8.085 -0.0452 -0.0044  0.2386
 8962SOL    HW138522   3.645   2.094   8.167  0.2261 -1.1749 -0.4668
 8962SOL    HW238523   3.647   2.226   8.134 -1.4745 -0.4633  1.0662
 8963SOL     OW38524   2.427   2.959   8.931  0.0675 -0.0948 -0.1112
 8963SOL    HW138525   2.335   2.986   8.928  0.0548  0.0227  1.5656
 8963SOL    HW238526   2.425   2.867   8.905 -1.4508 -0.7849  2.5117
 8964SOL     OW38527   1.156   0.575   6.547  0.2922 -0.0062 -0.2346
 8964SOL    HW138528   1.119   0.494   6.581  0.0607  0.4547  0.6197
 8964SOL    HW238529   1.251   0.583   6.555  0.1124  1.1190  0.8973
 8965SOL     OW38530   4.090   0.435   8.889 -0.7569  0.1312 -0.1487
 8965SOL    HW138531   4.040   0.445   8.970  0.0052  1.0825  0.1948
 8965SOL    HW238532   4.175   0.406   8.921 -0.9850 -0.4775 -0.0960
 8966SOL     OW38533   4.345   1.884   5.241  0.2037  0.3221 -0.0278
 8966SOL    HW138534   4.416   1.860   5.301 -1.2820 -2.3707  0.6342
 8966SOL    HW238535   4.271   1.882   5.301  0.3718 -3.7799  0.0513
 8967SOL     OW38536   3.035   1.118  10.762  0.2538 -0.2248  0.2229
 8967SOL    HW138537   2.959   1.172  10.739  1.3020  0.9138 -0.5406
 8967SOL    HW238538   3.091   1.153  10.694 -0.0199  0.3862  0.3183
 8968SOL     OW38539   4.397   1.690   6.709 -0.4044  0.1052 -1.1726
 8968SOL    HW138540   4.368   1.629   6.776  0.1178  1.6583  0.4818
 8968SOL    HW238541   4.490   1.693   6.731 -1.2406  0.5415  2.2162
 8969SOL     OW38542   3.427   3.254   1.755 -0.1832 -0.2004 -0.2099
 8969SOL    HW138543   3.415   3.293   1.841  1.3359 -0.3442  0.0620
 8969SOL    HW238544   3.489   3.183   1.770  1.3547  1.4789  1.3671
 8970SOL     OW38545   0.811   0.264   0.742  0.3153 -0.3762  0.1489
 8970SOL    HW138546   0.901   0.273   0.775  0.2155 -0.2130  0.3840
 8970SOL    HW238547   0.795   0.333   0.677 -0.5832 -0.2265  0.5294
 8971SOL     OW38548   0.684   0.464  15.679 -0.8738  0.1166 -0.2536
 8971SOL    HW138549   0.741   0.485  15.753  0.6742  1.1045 -1.7357
 8971SOL    HW238550   0.629   0.394  15.716  2.2434 -2.6391 -0.8503
 8972SOL     OW38551   2.343   0.224   4.978  0.3583  0.2588  0.6658
 8972SOL    HW138552   2.353   0.133   4.949 -3.8515  0.1156 -0.4113
 8972SOL    HW238553   2.412   0.235   5.043 -0.7031  1.7912  1.5306
 8973SOL     OW38554   4.605   1.870   9.644  0.2918  0.0471  0.5059
 8973SOL    HW138555   4.533   1.923   9.678  0.7966  0.2925  1.1855
 8973SOL    HW238556   4.633   1.924   9.571 -0.1492 -1.5912 -0.8764
 8974SOL     OW38557   3.442   1.137  16.494  0.1688 -0.0424  0.6751
 8974SOL    HW138558   3.510   1.115  16.557  0.8402  0.9486  0.3002
 8974SOL    HW238559   3.385   1.186  16.553  1.6632  3.7287 -0.9942
 8975SOL     OW38560   3.640   2.400   8.212 -0.1619 -0.2067  0.3818
 8975SOL    HW138561   3.674   2.416   8.124  3.1890  2.2621  2.1372
 8975SOL    HW238562   3.649   2.490   8.243  0.1914  0.1518 -0.7829
 8976SOL     OW38563   4.128   0.353   5.226  0.8056 -0.0805  0.0521
 8976SOL    HW138564   4.154   0.443   5.244  0.8914 -0.0210 -0.3785
 8976SOL    HW238565   4.048   0.375   5.178  0.3217  0.1309  0.9443
 8977SOL     OW38566   1.265   1.202   1.490 -0.3316  0.4101  0.0612
 8977SOL    HW138567   1.337   1.265   1.482 -0.8412  0.7177 -2.1867
 8977SOL    HW238568   1.200   1.249   1.542 -0.7417  1.1249 -1.1008
 8978SOL     OW38569   4.160   1.283  15.533  0.2013  0.0044 -0.0501
 8978SOL    HW138570   4.150   1.377  15.519  0.2559 -0.1419 -1.0320
 8978SOL    HW238571   4.116   1.238  15.461  1.2260 -1.1748  0.0573
 8979SOL     OW38572   3.647   2.754   3.981  0.2623  0.1109  0.0389
 8979SOL    HW138573   3.644   2.836   3.931  0.5031 -0.6146 -1.1762
 8979SOL    HW238574   3.737   2.748   4.013  0.5316 -0.0912 -0.7517
 8980SOL     OW38575   3.675   4.102   8.396  0.9276 -0.6793 -0.1273
 8980SOL    HW138576   3.653   4.177   8.341  1.0885 -1.8735 -1.8188
 8980SOL    HW238577   3.731   4.059   8.331  1.1531  2.9684 -2.3740
 8981SOL     OW38578   2.195   0.627   7.753  0.2184  0.3292 -0.6676
 8981SOL    HW138579   2.255   0.555   7.776  0.9862  0.1542 -3.2421
 8981SOL    HW238580   2.114   0.604   7.799  0.4034  2.0251  0.5019
 8982SOL     OW38581   2.834   3.848   6.313  0.4384  0.2809 -0.3773
 8982SOL    HW138582   2.739   3.856   6.314  0.6235  2.4523 -0.5259
 8982SOL    HW238583   2.862   3.930   6.355 -1.1402  0.1735  0.8791
 8983SOL     OW38584   1.228   2.805   0.593  0.1378  0.2064  0.0741
 8983SOL    HW138585   1.241   2.898   0.611 -1.0306  0.4558 -0.3523
 8983SOL    HW238586   1.242   2.813   0.499 -0.3071 -1.0742 -0.1017
 8984SOL     OW38587   0.303   1.201   2.871  0.1094  0.4209  0.8191
 8984SOL    HW138588   0.384   1.236   2.907  0.5676  1.2924 -1.0374
 8984SOL    HW238589   0.234   1.243   2.923  0.7416  1.0705  1.1319
 8985SOL     OW38590   4.222   2.888   2.387 -0.3529  0.2505  0.4894
 8985SOL    HW138591   4.303   2.839   2.402  0.7690  1.6425 -1.0434
 8985SOL    HW238592   4.192   2.842   2.309 -0.3660  3.3908 -1.3374
 8986SOL     OW38593   1.631   1.857  13.489  0.5316 -0.0606 -0.6926
 8986SOL    HW138594   1.694   1.817  13.549  2.0281 -0.7647 -2.7407
 8986SOL    HW238595   1.572   1.918  13.532  0.6150 -0.2673 -0.2833
 8987SOL     OW38596   3.331   0.101  15.409 -0.4567 -0.3890  0.1158
 8987SOL    HW138597   3.254   0.081  15.356 -0.0960 -0.7080 -0.2862
 8987SOL    HW238598   3.393   0.048  15.359  0.3567 -0.3556  1.0736
 8988SOL     OW38599   3.146   2.942   4.288  0.2965  0.0337  0.7934
 8988SOL    HW138600   3.181   3.024   4.251 -1.0342 -1.3012 -3.3885
 8988SOL    HW238601   3.226   2.894   4.309 -0.2131 -0.8815  0.6247
 8989SOL     OW38602   1.680   1.669   4.370 -0.3135  0.1715 -0.6262
 8989SOL    HW138603   1.647   1.759   4.369 -0.4692  0.1302  0.4439
 8989SOL    HW238604   1.658   1.633   4.456  2.8151  1.0128  0.5340
 8990SOL     OW38605   1.179   3.745   2.072 -0.2566  0.1898 -0.4799
 8990SOL    HW138606   1.085   3.736   2.084 -0.2033 -0.1987 -0.3470
 8990SOL    HW238607   1.210   3.719   2.159 -0.6808  0.0281 -0.3801
 8991SOL     OW38608   2.677   3.484   5.792 -0.2067  0.6788  0.1779
 8991SOL    HW138609   2.745   3.418   5.781  0.7446  1.5954  0.6034
 8991SOL    HW238610   2.666   3.515   5.702 -2.5252 -3.4496 -0.9757
 8992SOL     OW38611   2.360   2.690   8.122 -0.1075  0.6646 -0.0987
 8992SOL    HW138612   2.283   2.663   8.174  1.6413 -0.3899  1.9494
 8992SOL    HW238613   2.413   2.619   8.159 -0.6200 -0.6747 -1.9161
 8993SOL     OW38614   1.073   3.672   3.735  0.2089 -0.3991 -0.2488
 8993SOL    HW138615   1.075   3.615   3.658  1.2223 -0.6806 -0.0044
 8993SOL    HW238616   1.162   3.705   3.728 -0.0064  0.3743  0.7371
 8994SOL     OW38617   2.353   3.377  11.788 -0.2691 -0.0631  0.3310
 8994SOL    HW138618   2.272   3.354  11.834 -1.5496 -0.3787 -2.0574
 8994SOL    HW238619   2.411   3.363  11.863  0.0607 -1.6081 -0.1942
 8995SOL     OW38620   2.811   1.194  10.180  0.2499 -0.2582  0.8097
 8995SOL    HW138621   2.860   1.113  10.166 -2.2461 -1.5334 -0.5380
 8995SOL    HW238622   2.732   1.176  10.232  0.1799  1.8291  1.4080
 8996SOL     OW38623   1.499   3.656   8.534  0.2128  0.3176 -0.4483
 8996SOL    HW138624   1.497   3.589   8.602  1.5431  1.3704  0.6140
 8996SOL    HW238625   1.559   3.619   8.468  2.1012  0.6642  1.0849
 8997SOL     OW38626   4.508   0.287   7.564 -0.1214  0.2151  0.5783
 8997SOL    HW138627   4.547   0.240   7.639  0.2148 -0.4233  0.0039
 8997SOL    HW238628   4.553   0.371   7.561 -0.7746  0.5904  1.1796
 8998SOL     OW38629   4.315   1.310   8.402 -0.3516  0.4122 -0.8735
 8998SOL    HW138630   4.339   1.402   8.395  2.5379 -0.1596  1.4584
 8998SOL    HW238631   4.256   1.302   8.327 -2.8975 -0.5345  1.2120
 8999SOL     OW38632   1.177   4.530   4.746 -0.4405 -0.2425  0.2485
 8999SOL    HW138633   1.235   4.605   4.755 -2.5339  1.6069 -1.6396
 8999SOL    HW238634   1.179   4.495   4.835 -3.6430  1.8852  1.1680
 9000SOL     OW38635   4.729   1.300  14.304 -0.4243  0.5449  0.3508
 9000SOL    HW138636   0.023   1.369  14.363 -0.3525  1.0144 -0.2380
 9000SOL    HW238637   4.735   1.221  14.358 -2.7142  0.3890  0.4050
 9001SOL     OW38638   0.765   4.398   0.385  0.0400 -0.0034 -0.0579
 9001SOL    HW138639   0.682   4.447   0.388 -0.3405 -0.6427 -0.1700
 9001SOL    HW238640   0.829   4.468   0.371 -1.0038  0.6868 -1.4150
 9002SOL     OW38641   1.278   0.925  12.579  0.1072 -0.3218 -0.5203
 9002SOL    HW138642   1.309   0.961  12.496  2.3645 -0.0916  0.4305
 9002SOL    HW238643   1.348   0.860  12.589 -1.7457 -1.8705  2.3440
 9003SOL     OW38644   2.114   4.691   7.828  0.2522 -0.9309  0.4993
 9003SOL    HW138645   2.056   4.629   7.784 -0.2646  0.7889 -1.2644
 9003SOL    HW238646   2.058   4.725   7.898  2.1119  0.1202  1.4795
 9004SOL     OW38647   4.531   3.765   4.540  0.5002  0.8301 -0.6762
 9004SOL    HW138648   4.602   3.712   4.502  1.4375  3.6746 -2.9313
 9004SOL    HW238649   4.511   3.822   4.465 -2.3377 -0.2696 -0.7435
 9005SOL     OW38650   3.294   2.781   0.038  0.2602 -0.4871  0.1815
 9005SOL    HW138651   3.372   2.741   0.075  0.9715 -1.9422 -2.8413
 9005SOL    HW238652   3.225   2.756   0.100 -0.0455 -1.7301 -0.6503
 9006SOL     OW38653   2.649   1.152   2.088  0.0158 -0.5148 -0.0442
 9006SOL    HW138654   2.638   1.194   2.003 -0.3124  1.7900  1.1402
 9006SOL    HW238655   2.572   1.095   2.091 -1.3851  1.4949  2.0345
 9007SOL     OW38656   4.537   3.668   5.853 -0.0944 -0.1983 -0.3096
 9007SOL    HW138657   4.520   3.669   5.947  2.0597 -0.2697  0.0833
 9007SOL    HW238658   4.582   3.753   5.851 -0.7238  0.1252 -0.7691
 9008SOL     OW38659   3.757   2.875   8.913 -0.2219  0.2655 -0.2597
 9008SOL    HW138660   3.679   2.928   8.930  0.3332  0.7613  0.7337
 9008SOL    HW238661   3.826   2.941   8.920  0.1641 -0.4920  3.3711
 9009SOL     OW38662   4.127   2.782   7.994 -0.1097 -0.4103  0.4613
 9009SOL    HW138663   4.105   2.854   7.935  1.6751 -0.8220 -0.7171
 9009SOL    HW238664   4.041   2.744   8.009 -1.7477  2.8688 -0.7111
 9010SOL     OW38665   0.240   3.241   4.001  0.3153 -0.6046  0.0478
 9010SOL    HW138666   0.164   3.184   3.997 -0.1594  0.2091 -2.4814
 9010SOL    HW238667   0.270   3.246   4.091  0.2565  0.1464  0.0218
 9011SOL     OW38668   1.555   2.078   2.395 -0.1094 -0.1320  0.5192
 9011SOL    HW138669   1.645   2.083   2.364 -0.2718 -1.5908 -0.1407
 9011SOL    HW238670   1.572   2.103   2.486 -0.8457 -0.6318  0.7948
 9012SOL     OW38671   2.651   1.115  15.057 -0.2509  0.6032 -0.2690
 9012SOL    HW138672   2.566   1.158  15.052 -0.5547 -0.2162 -2.2301
 9012SOL    HW238673   2.710   1.190  15.050  0.5624 -0.0999 -0.9474
 9013SOL     OW38674   4.715   3.589   2.457  0.4834  0.3453  0.4397
 9013SOL    HW138675   4.690   3.578   2.549 -1.6964  0.4483 -0.1292
 9013SOL    HW238676   0.071   3.573   2.462  0.5190 -0.7615 -3.5699
 9014SOL     OW38677   3.608   3.870   1.359  0.0213  0.3982 -0.0321
 9014SOL    HW138678   3.615   3.811   1.285  1.3855  0.9686 -0.3522
 9014SOL    HW238679   3.544   3.825   1.415  0.2280  0.1740  0.0242
 9015SOL     OW38680   1.199   2.943   8.191 -0.5271 -0.0517 -0.0403
 9015SOL    HW138681   1.198   2.865   8.247  0.4929 -1.3737 -1.8939
 9015SOL    HW238682   1.118   2.984   8.223 -0.4287 -0.1353  0.3210
 9016SOL     OW38683   1.555   4.717  14.183  0.0048 -0.2770  0.0341
 9016SOL    HW138684   1.530   0.045  14.117  0.3865 -1.3333 -1.1563
 9016SOL    HW238685   1.490   4.648  14.172  0.6841 -0.4864 -2.6710
 9017SOL     OW38686   3.627   0.173  14.487 -0.4032  0.3680 -0.3715
 9017SOL    HW138687   3.717   0.168  14.455 -0.0473 -0.4967  0.7811
 9017SOL    HW238688   3.604   0.248  14.432  1.5154 -0.4358 -2.2559
 9018SOL     OW38689   2.046   0.312   6.612 -0.1416  0.2345 -0.0419
 9018SOL    HW138690   1.987   0.270   6.548  1.5504 -1.9190 -0.1710
 9018SOL    HW238691   1.985   0.357   6.671 -0.0046  0.2994  0.0487
 9019SOL     OW38692   0.261   0.856  17.095 -0.5133 -0.2425  0.1947
 9019SOL    HW138693   0.250   0.931  17.152 -0.2525  0.8619 -1.2085
 9019SOL    HW238694   0.327   0.891  17.035  1.0214 -3.5118 -0.0866
 9020SOL     OW38695   3.176   4.453   0.507  0.4326 -0.4762 -0.1930
 9020SOL    HW138696   3.119   4.468   0.432  1.6904 -0.7923 -1.2174
 9020SOL    HW238697   3.168   4.529   0.564 -0.4445 -0.0814 -0.8488
 9021SOL     OW38698   2.520   2.911  13.612  1.0703  0.0739 -0.1289
 9021SOL    HW138699   2.549   2.834  13.661 -1.6716 -2.4399 -2.4530
 9021SOL    HW238700   2.491   2.964  13.687 -0.5191 -0.5616 -0.2858
 9022SOL     OW38701   4.357   0.304   3.466  0.8195 -0.3820  0.1427
 9022SOL    HW138702   4.349   0.234   3.532 -0.9260  0.2800  0.6501
 9022SOL    HW238703   4.329   0.250   3.392  1.3511 -3.4374  2.1525
 9023SOL     OW38704   3.458   2.831   0.909  0.3078  0.1154 -0.6209
 9023SOL    HW138705   3.363   2.837   0.922  0.5685 -1.1024  1.8315
 9023SOL    HW238706   3.482   2.923   0.897  0.4033  0.2283  0.3927
 9024SOL     OW38707   0.794   3.117   7.875  0.1258  0.5656 -0.1006
 9024SOL    HW138708   0.725   3.055   7.898  0.8697 -0.1105  0.3445
 9024SOL    HW238709   0.856   3.059   7.830 -0.6190 -0.0896 -0.2804
 9025SOL     OW38710   3.099   2.900   8.718  0.6122 -0.8516 -1.3719
 9025SOL    HW138711   3.069   2.818   8.679  0.2474  0.1521 -3.2243
 9025SOL    HW238712   3.192   2.881   8.707  1.2622  0.3960  1.9032
 9026SOL     OW38713   2.314   4.000   5.415  0.1480 -0.9895 -0.2996
 9026SOL    HW138714   2.376   4.023   5.485  0.4800  0.3649 -1.0344
 9026SOL    HW238715   2.233   4.029   5.457  1.3425  2.4831 -0.3555
 9027SOL     OW38716   4.127   2.613   1.123 -0.4075 -0.1237  0.2781
 9027SOL    HW138717   4.202   2.671   1.110 -1.2890  1.1438  0.8608
 9027SOL    HW238718   4.131   2.546   1.054 -0.6388  0.1746 -0.0237
 9028SOL     OW38719   3.749   2.856   6.240  0.0263  0.1258  0.1318
 9028SOL    HW138720   3.755   2.951   6.250 -1.0287  0.3842 -1.6489
 9028SOL    HW238721   3.656   2.837   6.232  0.2555 -0.4703 -1.0369
 9029SOL     OW38722   2.018   2.282   3.947 -0.1773  0.0206 -0.2604
 9029SOL    HW138723   1.964   2.223   4.000 -1.1256  0.2528 -0.9764
 9029SOL    HW238724   2.108   2.275   3.979 -0.5335 -0.9050  0.5560
 9030SOL     OW38725   3.659   4.444   4.006 -0.7801  0.2424  0.3910
 9030SOL    HW138726   3.686   4.496   4.081 -1.2515  0.6238  0.3007
 9030SOL    HW238727   3.659   4.509   3.935  2.3674 -0.6300 -0.4048
 9031SOL     OW38728   0.287   2.077   4.419 -0.1838 -0.1994 -0.2054
 9031SOL    HW138729   0.300   2.155   4.365  2.0912 -0.1762  0.4115
 9031SOL    HW238730   0.267   2.124   4.500  1.9036 -0.1523  0.2656
 9032SOL     OW38731   2.558   2.110  13.549 -0.0234  0.3118 -0.0160
 9032SOL    HW138732   2.594   2.093  13.636  0.0596 -0.4668 -0.2043
 9032SOL    HW238733   2.467   2.136  13.567 -0.2434 -1.1868  1.0130
 9033SOL     OW38734   0.324   0.529   2.545 -0.1459  0.1678 -0.1470
 9033SOL    HW138735   0.406   0.540   2.592 -0.8893  0.9030  0.9565
 9033SOL    HW238736   0.364   0.509   2.460  0.1754 -0.9540  0.2627
 9034SOL     OW38737   3.161   1.975   4.626  0.0949  0.1323 -0.1465
 9034SOL    HW138738   3.075   1.933   4.622  0.3120 -0.1410 -2.0140
 9034SOL    HW238739   3.148   1.987   4.720  0.2906 -0.9709  0.0232
 9035SOL     OW38740   4.196   4.068   1.065 -0.0728  0.4358  0.2077
 9035SOL    HW138741   4.196   4.160   1.091  1.0762  0.8917 -1.4270
 9035SOL    HW238742   4.114   4.039   1.106  0.6184 -2.7395 -0.6258
 9036SOL     OW38743   1.593   3.881   7.428 -0.3513  0.2125 -0.0139
 9036SOL    HW138744   1.500   3.869   7.408 -0.5820  0.6897  0.7580
 9036SOL    HW238745   1.588   3.977   7.429  0.6652  0.2692 -0.1990
 9037SOL     OW38746   3.871   1.523  16.636  0.5938  0.0381 -0.5388
 9037SOL    HW138747   3.874   1.603  16.687  3.7953 -0.4329 -0.0044
 9037SOL    HW238748   3.779   1.503  16.656  1.1424 -1.2461  0.7350
 9038SOL     OW38749   0.325   2.974  10.242 -0.8210 -0.0671  0.4275
 9038SOL    HW138750   0.368   2.893  10.268 -0.0253  0.6235  1.2946
 9038SOL    HW238751   0.294   3.009  10.325 -0.7777 -0.5015  0.6228
 9039SOL     OW38752   0.300   3.952  11.160 -0.1825 -0.4775 -0.1705
 9039SOL    HW138753   0.241   3.980  11.090 -0.0913 -2.3499 -1.0021
 9039SOL    HW238754   0.323   3.861  11.142  0.4519 -0.1377 -1.1048
 9040SOL     OW38755   1.599   4.086  10.308 -0.2995 -0.1907  0.0326
 9040SOL    HW138756   1.505   4.095  10.319 -0.2758 -0.6797  0.6064
 9040SOL    HW238757   1.621   4.176  10.332 -0.0920  0.1120 -1.2417
 9041SOL     OW38758   3.258   3.251  10.320  0.6130  0.1151  0.3107
 9041SOL    HW138759   3.336   3.305  10.337  0.3383  1.5781 -3.0122
 9041SOL    HW238760   3.203   3.324  10.349 -2.2771 -1.6323 -0.7640
 9042SOL     OW38761   4.503   2.913   7.140 -0.1202 -0.2665 -0.0264
 9042SOL    HW138762   4.598   2.902   7.146 -0.0233  0.0939 -0.8846
 9042SOL    HW238763   4.465   2.922   7.228 -0.1495 -0.8065  0.0113
 9043SOL     OW38764   1.872   2.839   2.278 -0.9066  0.2425 -0.3905
 9043SOL    HW138765   1.891   2.758   2.230 -0.9534 -0.1732  0.2888
 9043SOL    HW238766   1.899   2.817   2.367  2.0430  1.0950 -1.0807
 9044SOL     OW38767   0.881   4.454   5.334  0.0475  0.4816 -0.1066
 9044SOL    HW138768   0.788   4.448   5.356 -0.1933 -2.2575 -1.9335
 9044SOL    HW238769   0.880   4.520   5.265  1.0992 -1.6938 -2.2032
 9045SOL     OW38770   2.243   1.661   4.570  0.0001 -0.5793 -0.4936
 9045SOL    HW138771   2.313   1.616   4.522  0.5852 -0.1354 -0.0595
 9045SOL    HW238772   2.230   1.736   4.512 -0.4684 -0.5307 -0.3268
 9046SOL     OW38773   1.912   2.368   2.045  0.1048 -0.1876  0.0027
 9046SOL    HW138774   1.935   2.449   2.091  0.3006 -0.7603  0.9075
 9046SOL    HW238775   1.827   2.348   2.083 -1.0098  2.5274 -1.0778
 9047SOL     OW38776   4.377   4.526   2.549  0.1927 -0.2083 -0.0566
 9047SOL    HW138777   4.307   4.526   2.484  0.5500 -4.4285 -0.4005
 9047SOL    HW238778   4.321   4.564   2.616 -0.3664  0.8059 -1.0866
 9048SOL     OW38779   0.274   1.526  16.540  0.5523 -0.6435 -0.5271
 9048SOL    HW138780   0.363   1.559  16.531  0.6295 -0.7947 -0.3032
 9048SOL    HW238781   0.260   1.474  16.461 -1.9144 -0.8413  0.0436
 9049SOL     OW38782   3.788   2.646   5.733  0.7816 -0.2061 -0.3240
 9049SOL    HW138783   3.847   2.578   5.764  0.7560  0.4951  1.2475
 9049SOL    HW238784   3.708   2.645   5.785  0.9588 -3.1448 -0.1518
 9050SOL     OW38785   0.557   4.644   1.556  0.1556 -0.0020  0.2586
 9050SOL    HW138786   0.473   4.684   1.579 -0.6132 -0.9866 -0.7829
 9050SOL    HW238787   0.528   4.596   1.478  0.3345  1.6190 -0.7949
 9051SOL     OW38788   4.246   3.438  17.173 -0.4527 -0.6396 -0.0385
 9051SOL    HW138789   4.175   3.458  17.112  0.9294  1.4326 -0.9347
 9051SOL    HW238790   4.224   3.345  17.175  0.2261 -0.7921  0.3479
 9052SOL     OW38791   1.191   0.711   2.338 -0.1091 -0.3506  0.0808
 9052SOL    HW138792   1.113   0.738   2.289 -0.5778  0.8693  1.5166
 9052SOL    HW238793   1.166   0.622   2.361 -0.2752 -0.1905  0.5104
 9053SOL     OW38794   1.006   0.071   2.955  0.1624 -0.0833  0.4044
 9053SOL    HW138795   0.941   0.139   2.937  0.5318 -0.2426 -1.5312
 9053SOL    HW238796   0.965   4.732   2.912 -1.4344  1.6638 -1.1807
 9054SOL     OW38797   2.247   0.990   7.414 -0.2504  0.1631 -0.3941
 9054SOL    HW138798   2.261   0.902   7.451  0.2184 -0.0402 -1.0520
 9054SOL    HW238799   2.334   1.027   7.425 -0.7204  0.8845  0.8654
 9055SOL     OW38800   2.906   4.569  12.914 -0.1712  0.4877 -0.1463
 9055SOL    HW138801   2.876   4.598  12.828 -2.5174 -1.2234  0.1014
 9055SOL    HW238802   2.873   4.640  12.968  0.3105  0.4905  0.1386
 9056SOL     OW38803   4.466   4.197   9.617  0.1240 -0.1682  0.5841
 9056SOL    HW138804   4.560   4.210   9.602  0.3438 -2.0435  0.3469
 9056SOL    HW238805   4.457   4.135   9.689 -1.1459 -0.4961  0.1418
 9057SOL     OW38806   3.308   2.031  10.821 -0.5151 -0.1268 -0.0629
 9057SOL    HW138807   3.383   1.975  10.841  0.8591  1.2471 -1.4011
 9057SOL    HW238808   3.344   2.118  10.838  2.2505 -1.7062  2.1269
 9058SOL     OW38809   3.766   0.445   3.997 -0.3986 -0.2236  0.3549
 9058SOL    HW138810   3.821   0.470   4.071  3.6430 -0.7312 -2.4655
 9058SOL    HW238811   3.750   0.530   3.958 -1.0292 -0.2657  0.5291
 9059SOL     OW38812   1.714   2.301  10.186 -0.2971  0.1006  0.2413
 9059SOL    HW138813   1.666   2.359  10.244  3.0068  0.9227  2.1891
 9059SOL    HW238814   1.660   2.313  10.108 -0.0571 -0.1212  0.0371
 9060SOL     OW38815   3.776   3.854   9.608  0.4816 -0.3147 -0.3461
 9060SOL    HW138816   3.815   3.867   9.521 -0.2706  0.3638 -0.5830
 9060SOL    HW238817   3.741   3.766   9.591 -0.1447  0.3345 -2.4138
 9061SOL     OW38818   0.288   1.254   6.144  0.3740  0.1974 -0.5145
 9061SOL    HW138819   0.212   1.230   6.091 -0.4012  1.0140  0.2306
 9061SOL    HW238820   0.238   1.275   6.223  0.2867 -2.5523  0.1406
 9062SOL     OW38821   0.475   4.478   5.113  0.1371 -0.0765  1.1727
 9062SOL    HW138822   0.545   4.412   5.117  3.2607  3.2004  1.2018
 9062SOL    HW238823   0.475   4.473   5.208  1.1909 -3.0414  1.0186
 9063SOL     OW38824   1.606   3.838  11.824 -0.7481  0.3118  0.5249
 9063SOL    HW138825   1.637   3.765  11.771 -1.5409  1.0648 -0.9840
 9063SOL    HW238826   1.605   3.912  11.764 -0.0929  3.1253  3.9534
 9064SOL     OW38827   3.539   0.913  16.131 -0.3025 -0.3094 -0.2985
 9064SOL    HW138828   3.513   0.989  16.184  0.6144 -1.2634  1.5090
 9064SOL    HW238829   3.576   0.971  16.064 -0.3038 -0.0606 -0.0871
 9065SOL     OW38830   4.139   4.364   1.650  0.0081 -0.3556  0.0591
 9065SOL    HW138831   4.212   4.315   1.686  0.9757  0.3830 -0.8804
 9065SOL    HW238832   4.086   4.380   1.728  2.1418 -1.0156  1.6231
 9066SOL     OW38833   1.734   0.450   3.474  0.3905 -0.1277  0.0787
 9066SOL    HW138834   1.654   0.437   3.422  0.0160 -1.1761  0.8919
 9066SOL    HW238835   1.790   0.388   3.428  2.7106  1.1636  1.1746
 9067SOL     OW38836   0.689   3.239   4.088 -0.7474 -0.0627  0.0420
 9067SOL    HW138837   0.727   3.225   4.001  0.3172 -0.5064  0.5820
 9067SOL    HW238838   0.641   3.321   4.076  0.3190  0.1305 -2.8827
 9068SOL     OW38839   4.400   3.572   6.363 -0.2432  0.0047  0.0086
 9068SOL    HW138840   4.391   3.550   6.270  0.5742 -3.2547  0.7041
 9068SOL    HW238841   4.494   3.563   6.377 -0.2089  0.8498  0.3344
 9069SOL     OW38842   3.966   2.555  15.836  0.1312  0.0609  0.1565
 9069SOL    HW138843   3.900   2.585  15.900  0.3727 -1.6866  1.2341
 9069SOL    HW238844   3.970   2.632  15.780 -0.0469 -1.2025 -1.6056
 9070SOL     OW38845   2.725   1.298   3.649  0.4386  0.1096  0.6105
 9070SOL    HW138846   2.781   1.229   3.615 -0.0445 -0.1288  0.2973
 9070SOL    HW238847   2.798   1.352   3.680  0.5925  0.0330  0.3831
 9071SOL     OW38848   4.566   0.877   6.933  0.5045  0.1293 -0.7370
 9071SOL    HW138849   4.641   0.826   6.964  0.3974  0.2343 -0.3096
 9071SOL    HW238850   4.497   0.847   6.992  1.5862  1.4227  1.1715
 9072SOL     OW38851   3.922   2.059  10.811  0.4160  0.8558  0.7130
 9072SOL    HW138852   3.921   2.039  10.905 -1.7643  1.3657  0.7967
 9072SOL    HW238853   3.846   2.117  10.823  0.2804  1.0028 -0.8877
 9073SOL     OW38854   3.495   2.472   2.413 -0.3328  0.6078 -0.1574
 9073SOL    HW138855   3.448   2.391   2.431 -0.5601  0.5445 -1.0370
 9073SOL    HW238856   3.573   2.458   2.467 -1.8489 -1.2560  1.5078
 9074SOL     OW38857   4.159   2.281   3.082 -0.4048  0.2759  0.1247
 9074SOL    HW138858   4.117   2.302   2.999  0.2259  1.2987  0.0642
 9074SOL    HW238859   4.161   2.368   3.121  1.9290 -0.0134  0.6512
 9075SOL     OW38860   0.620   1.108   3.015  0.5313 -0.3304 -0.0872
 9075SOL    HW138861   0.562   1.176   3.051 -1.5822 -0.7057 -2.7915
 9075SOL    HW238862   0.641   1.159   2.937  3.6279 -1.6129 -0.0735
 9076SOL     OW38863   3.018   1.508   4.642 -0.1413  0.0023  0.3954
 9076SOL    HW138864   2.962   1.501   4.720 -1.1445 -0.9833 -0.4262
 9076SOL    HW238865   3.082   1.569   4.678  0.6614 -0.0638 -0.9142
 9077SOL     OW38866   0.574   4.568   2.594 -0.1342 -0.0300  0.4332
 9077SOL    HW138867   0.575   4.638   2.528  1.2574  0.9587  1.4975
 9077SOL    HW238868   0.665   4.539   2.600 -0.6489 -1.9410 -1.1649
 9078SOL     OW38869   2.425   3.348   7.876  0.1785 -0.0838  0.2549
 9078SOL    HW138870   2.429   3.266   7.927  0.3521 -0.8082 -0.9222
 9078SOL    HW238871   2.484   3.340   7.802 -0.6783  0.0930 -0.4522
 9079SOL     OW38872   3.846   3.382   3.154 -0.2028  0.2528 -0.2457
 9079SOL    HW138873   3.874   3.436   3.080 -0.8444  2.6544  1.2942
 9079SOL    HW238874   3.824   3.453   3.214 -1.2590 -1.4349  1.3519
 9080SOL     OW38875   3.815   3.139   2.580  0.5995 -0.1021  0.1955
 9080SOL    HW138876   3.901   3.177   2.561  1.6074 -2.6257 -0.3827
 9080SOL    HW238877   3.770   3.165   2.500 -1.7788 -2.1598  0.8653
 9081SOL     OW38878   3.298   2.006  14.349 -0.4149 -0.3225 -0.2276
 9081SOL    HW138879   3.273   1.988  14.259  0.1887  0.9039 -0.6390
 9081SOL    HW238880   3.288   1.920  14.389  1.3158 -0.6918 -0.6210
 9082SOL     OW38881   2.508   0.020   3.060 -0.1582 -0.6616  0.3020
 9082SOL    HW138882   2.577   4.691   3.056  1.8164  1.2628  1.9991
 9082SOL    HW238883   2.498   0.032   3.155 -0.9210  3.8503 -0.3231
 9083SOL     OW38884   3.806   4.080   9.046  0.0471  0.0493 -0.0252
 9083SOL    HW138885   3.774   4.154   8.995 -1.5025 -2.5900 -2.8786
 9083SOL    HW238886   3.746   4.085   9.120  0.4963 -1.1381  0.4256
 9084SOL     OW38887   2.753   3.980   9.762 -0.4623  0.2492  0.1982
 9084SOL    HW138888   2.799   4.063   9.770 -0.0582  0.2399 -1.8300
 9084SOL    HW238889   2.809   3.932   9.700  0.1783  2.2875 -0.7977
 9085SOL     OW38890   2.190   3.493   7.342 -0.0052 -0.3867 -0.7317
 9085SOL    HW138891   2.152   3.542   7.269 -0.2354  0.9193  0.2729
 9085SOL    HW238892   2.231   3.561   7.395 -0.0899  0.2133 -1.4418
 9086SOL     OW38893   1.949   4.401   9.129 -0.2903 -0.6856  0.0195
 9086SOL    HW138894   1.975   4.485   9.167  2.6899 -1.6684  0.1660
 9086SOL    HW238895   1.927   4.359   9.213  0.7347  0.4600  0.8734
 9087SOL     OW38896   1.046   2.141   1.635 -0.1111 -0.0816 -0.1058
 9087SOL    HW138897   1.117   2.128   1.572  1.1198 -2.1195  1.6900
 9087SOL    HW238898   0.974   2.147   1.573 -0.3476  0.1814  0.2011
 9088SOL     OW38899   3.314   0.188   7.766  0.8541  0.1432  0.0988
 9088SOL    HW138900   3.358   0.161   7.846  0.1235 -0.0418  0.4360
 9088SOL    HW238901   3.248   0.253   7.791  0.3379 -0.2898 -0.1454
 9089SOL     OW38902   0.328   1.510  10.383  0.2284  0.3108  0.1094
 9089SOL    HW138903   0.245   1.538  10.421 -0.2911  1.0316 -1.5470
 9089SOL    HW238904   0.326   1.542  10.293  1.8747 -1.8833 -0.7056
 9090SOL     OW38905   4.642   2.151   3.939  0.5101  0.5748 -0.2585
 9090SOL    HW138906   4.693   2.083   3.896 -1.8719 -2.2198  1.3521
 9090SOL    HW238907   4.628   2.218   3.873 -1.0616 -1.7369 -2.2695
 9091SOL     OW38908   1.922   3.400   9.763 -0.0276  0.0489  0.9103
 9091SOL    HW138909   1.893   3.310   9.751 -1.0896  0.7561 -1.9138
 9091SOL    HW238910   1.994   3.398   9.826  0.6488  0.1440  0.1544
 9092SOL     OW38911   2.302   3.993   8.525  0.3665  0.0936  0.2017
 9092SOL    HW138912   2.331   3.985   8.434 -1.2715  0.0263 -0.3038
 9092SOL    HW238913   2.285   3.903   8.553  0.7351  0.1527  0.6199
 9093SOL     OW38914   3.567   4.590   4.448 -0.4549 -0.6776 -0.5816
 9093SOL    HW138915   3.555   4.495   4.450  1.3250 -0.9220 -1.1909
 9093SOL    HW238916   3.487   4.611   4.400 -0.1301  2.3545  0.2176
 9094SOL     OW38917   4.068   3.749   9.363 -0.3459 -0.0692  0.4373
 9094SOL    HW138918   4.006   3.676   9.356 -2.6730  2.3458 -3.2627
 9094SOL    HW238919   4.150   3.702   9.346  0.1813 -0.0174  2.8312
 9095SOL     OW38920   1.055   0.681  14.123 -0.1693  0.0258  0.2301
 9095SOL    HW138921   1.086   0.637  14.043  1.5301 -1.2990  1.6112
 9095SOL    HW238922   1.128   0.661  14.182  0.3448  0.7445 -0.1633
 9096SOL     OW38923   2.059   0.619   8.009  0.0809  0.2966  0.0981
 9096SOL    HW138924   2.028   0.534   8.039  0.0856 -0.4526 -2.0274
 9096SOL    HW238925   1.971   0.652   7.989  0.5670  0.6062 -1.5632
 9097SOL     OW38926   0.742   4.603   8.364  0.2431 -0.5552  0.7229
 9097SOL    HW138927   0.765   4.642   8.448  0.9776  0.6081 -0.0275
 9097SOL    HW238928   0.815   4.545   8.340  1.5944  1.8344 -0.8792
 9098SOL     OW38929   4.547   1.318  17.098 -0.0505 -0.1814  0.0249
 9098SOL    HW138930   4.600   1.326  17.177  1.5099 -0.5683 -0.9639
 9098SOL    HW238931   4.529   1.411  17.082 -3.1664 -0.6648  0.7739
 9099SOL     OW38932   3.199   3.935   1.330 -0.0073 -1.0080 -0.3952
 9099SOL    HW138933   3.136   3.934   1.257 -0.7788  3.1836  0.1933
 9099SOL    HW238934   3.251   4.014   1.311  0.2086 -1.2205 -0.6847
 9100SOL     OW38935   3.711   2.980   2.135 -0.4727  0.3773 -0.3123
 9100SOL    HW138936   3.702   2.905   2.194  0.4933  1.4814  1.2656
 9100SOL    HW238937   3.633   3.025   2.168 -1.3630  0.8793 -3.1130
 9101SOL     OW38938   4.695   2.808   7.708 -0.1091  0.2618  0.4527
 9101SOL    HW138939   4.651   2.893   7.701 -0.1723  0.1544 -0.4803
 9101SOL    HW238940   4.661   2.781   7.793  0.3014  1.6394  1.0426
 9102SOL     OW38941   2.707   0.274   2.972  0.2515  1.1041  0.1517
 9102SOL    HW138942   2.795   0.261   3.007  0.0357 -1.6812 -0.3301
 9102SOL    HW238943   2.663   0.213   3.031  1.4685 -1.4583 -1.5945
 9103SOL     OW38944   2.613   1.963   4.296 -0.2735  0.3584 -0.1338
 9103SOL    HW138945   2.588   1.888   4.350  0.0109 -0.7387 -1.5349
 9103SOL    HW238946   2.526   2.004   4.294 -1.5888 -2.4156  0.3152
 9104SOL     OW38947   1.192   0.316  14.937 -0.1507 -0.6243  0.2660
 9104SOL    HW138948   1.163   0.310  14.846  0.1270 -0.1750  0.1476
 9104SOL    HW238949   1.278   0.274  14.926 -0.4948 -1.2563 -0.0155
 9105SOL     OW38950   4.652   4.697   6.660 -0.2982  0.6383 -0.1100
 9105SOL    HW138951   4.737   4.656   6.643 -1.2939 -0.9191 -1.3569
 9105SOL    HW238952   4.617   4.638   6.728 -0.8884  0.6419 -0.4092
 9106SOL     OW38953   1.606   4.346  12.043  0.0488  0.1502 -0.1990
 9106SOL    HW138954   1.610   4.428  11.994 -0.4813  0.7921  0.8474
 9106SOL    HW238955   1.685   4.347  12.098  0.0603  1.1260 -0.2377
 9107SOL     OW38956   2.821   3.369   2.169 -0.2783 -0.2123  0.2052
 9107SOL    HW138957   2.840   3.282   2.204  0.1784 -0.1113  0.2067
 9107SOL    HW238958   2.820   3.358   2.073  0.9775 -0.7831  0.2646
 9108SOL     OW38959   2.757   3.592   9.653 -0.1659 -0.6775  0.1012
 9108SOL    HW138960   2.848   3.565   9.641  0.3280  0.1873  2.0628
 9108SOL    HW238961   2.743   3.657   9.584 -3.0192 -0.5064  0.8624
 9109SOL     OW38962   2.837   2.786   7.293  0.2959  0.4602 -0.3152
 9109SOL    HW138963   2.841   2.858   7.356 -0.4905  0.2642 -0.0393
 9109SOL    HW238964   2.865   2.710   7.343  1.5195  0.9246 -0.3021
 9110SOL     OW38965   3.936   2.879   8.603  0.1715  0.1955  0.0163
 9110SOL    HW138966   3.960   2.971   8.618  1.4161 -0.3299  1.3055
 9110SOL    HW238967   3.850   2.901   8.569  0.2891 -1.7727 -1.5348
 9111SOL     OW38968   3.799   2.747  10.896 -0.0147 -0.1724 -0.1107
 9111SOL    HW138969   3.851   2.703  10.828 -0.3931  0.4244 -0.7933
 9111SOL    HW238970   3.865   2.754  10.965 -0.6946 -0.3788  0.5588
 9112SOL     OW38971   3.759   2.763   2.302  0.1438 -0.4252 -0.0389
 9112SOL    HW138972   3.785   2.688   2.355 -1.8517 -1.2612 -0.2166
 9112SOL    HW238973   3.687   2.720   2.254  0.0879 -0.0462 -0.2914
 9113SOL     OW38974   0.773   4.202   4.593  0.3536 -0.1059  0.4816
 9113SOL    HW138975   0.796   4.275   4.651 -0.1463 -0.5319  1.2104
 9113SOL    HW238976   0.740   4.245   4.515  1.2435  0.0543  0.1952
 9114SOL     OW38977   2.531   4.483   8.362 -0.6301  0.1907  0.2753
 9114SOL    HW138978   2.538   4.470   8.268 -0.1237 -0.7999  0.4500
 9114SOL    HW238979   2.436   4.476   8.368 -0.6889  1.1393  0.4188
 9115SOL     OW38980   1.497   1.979   3.195  0.6406  0.6354  0.6581
 9115SOL    HW138981   1.564   2.038   3.230 -0.4051 -0.2123  4.0524
 9115SOL    HW238982   1.532   1.893   3.217  1.0631 -0.0442 -2.7059
 9116SOL     OW38983   0.603   2.180   3.942 -0.2918 -0.3644 -0.5084
 9116SOL    HW138984   0.557   2.177   3.858 -0.0806 -1.5494 -0.5856
 9116SOL    HW238985   0.679   2.123   3.926 -0.6568 -1.5828  2.0906
 9117SOL     OW38986   4.705   2.054  15.763 -0.1593  0.5005  0.4373
 9117SOL    HW138987   4.728   2.068  15.855  0.4529 -1.0878  0.5284
 9117SOL    HW238988   0.015   2.130  15.731  1.8001 -0.6199  0.6765
 9118SOL     OW38989   2.032   0.664   2.146 -0.7192  0.1920  0.3412
 9118SOL    HW138990   2.116   0.704   2.166 -0.1209 -1.2620  0.7516
 9118SOL    HW238991   2.032   0.597   2.214  1.3534 -1.4288 -1.2358
 9119SOL     OW38992   1.646   0.527  12.328  0.5037  0.0567  0.6995
 9119SOL    HW138993   1.551   0.530  12.332  0.3644 -3.6973  0.0642
 9119SOL    HW238994   1.660   0.439  12.292  0.2787 -1.3253  4.0037
 9120SOL     OW38995   1.235   1.902  15.075  0.9421  0.0165  0.1528
 9120SOL    HW138996   1.294   1.972  15.049  0.3050  0.3294 -0.4346
 9120SOL    HW238997   1.202   1.861  14.995  0.5181  2.9545 -1.1683
 9121SOL     OW38998   4.617   4.732   9.022  0.0342  0.3961  0.0058
 9121SOL    HW138999   4.570   4.727   8.939  0.8302  0.0942 -0.4205
 9121SOL    HW239000   4.553   4.694   9.083  0.0775 -0.7612 -0.6589
 9122SOL     OW39001   2.104   1.449  12.089 -0.0615 -0.1859 -0.0172
 9122SOL    HW139002   2.073   1.527  12.043 -0.3794 -1.0508 -1.2713
 9122SOL    HW239003   2.036   1.432  12.155  0.4914  1.8298  1.0651
 9123SOL     OW39004   0.292   1.313  11.546 -0.3102  0.0634 -0.2520
 9123SOL    HW139005   0.283   1.219  11.535  0.1693 -0.1022  0.7627
 9123SOL    HW239006   0.205   1.333  11.582 -0.1535 -0.2332  0.3038
 9124SOL     OW39007   0.884   3.935   7.240  0.0820  0.0692  0.7925
 9124SOL    HW139008   0.820   3.904   7.176  2.4055 -0.3612 -1.3123
 9124SOL    HW239009   0.878   3.872   7.313 -1.8585 -0.0084  0.5811
 9125SOL     OW39010   2.495   3.494   0.718  0.1950  0.1039  0.4811
 9125SOL    HW139011   2.508   3.554   0.791  2.2501  0.1470  0.0736
 9125SOL    HW239012   2.562   3.426   0.727  0.0309 -0.0404  0.6162
 9126SOL     OW39013   1.944   0.941   5.977 -0.2019  0.0440  0.4830
 9126SOL    HW139014   1.981   0.972   5.894 -0.4775 -0.4145  0.1871
 9126SOL    HW239015   1.938   0.846   5.965  0.4808  0.0585 -0.0063
 9127SOL     OW39016   4.167   2.129   6.113 -0.6834 -0.4772 -0.4744
 9127SOL    HW139017   4.200   2.076   6.185 -0.5249 -0.0727 -0.2496
 9127SOL    HW239018   4.144   2.060   6.051 -0.8614 -0.0339 -0.9058
 9128SOL     OW39019   4.655   2.113   5.048  0.4804 -0.4667  0.3087
 9128SOL    HW139020   4.685   2.195   5.086 -0.6916  0.6542 -1.2045
 9128SOL    HW239021   4.640   2.064   5.129 -0.9732 -2.4837 -1.1762
 9129SOL     OW39022   1.229   1.957   3.121 -0.3552  0.0059 -0.3248
 9129SOL    HW139023   1.323   1.972   3.131 -0.1388 -1.3259 -0.2960
 9129SOL    HW239024   1.213   1.973   3.214  0.1667  0.2122 -0.2674
 9130SOL     OW39025   3.324   4.563   5.512  0.0097 -0.2380 -0.5949
 9130SOL    HW139026   3.280   4.546   5.596  2.1658 -0.2212  0.5326
 9130SOL    HW239027   3.412   4.537   5.538 -0.0935  0.5092  0.4993
 9131SOL     OW39028   1.542   3.112   9.123  0.1908  0.2179  0.3969
 9131SOL    HW139029   1.587   3.193   9.099  0.9154 -0.0917  0.6997
 9131SOL    HW239030   1.520   3.085   9.035  0.1467  0.0667  0.4545
 9132SOL     OW39031   3.243   3.696   4.128  0.0994  0.4721  0.1664
 9132SOL    HW139032   3.251   3.679   4.222  3.2064  0.3086 -0.1203
 9132SOL    HW239033   3.150   3.715   4.130 -0.5454 -2.6773 -0.4166
 9133SOL     OW39034   0.361   3.755   6.159 -0.0807  0.0014 -0.5524
 9133SOL    HW139035   0.436   3.723   6.210 -0.6213 -1.2578 -0.5504
 9133SOL    HW239036   0.332   3.682   6.105  0.5478 -1.6014  1.2823
 9134SOL     OW39037   3.348   3.324   9.484 -0.2209 -0.5374  0.0231
 9134SOL    HW139038   3.272   3.381   9.476  0.8828  1.0004  0.5329
 9134SOL    HW239039   3.325   3.300   9.573  1.8386 -1.8680  0.2012
 9135SOL     OW39040   0.270   4.461   1.761  0.2506  0.2178  0.0798
 9135SOL    HW139041   0.204   4.528   1.744  0.2963  0.1952 -0.1897
 9135SOL    HW239042   0.217   4.389   1.793 -0.1452  0.5770  0.2255
 9136SOL     OW39043   1.555   3.956   5.584  0.1102 -0.6569 -0.2563
 9136SOL    HW139044   1.606   3.903   5.645  1.6396 -0.1186 -1.0757
 9136SOL    HW239045   1.524   4.034   5.630 -1.3153 -0.7845 -0.9965
 9137SOL     OW39046   1.055   0.332  10.859  0.2408  0.2621  0.1360
 9137SOL    HW139047   0.963   0.344  10.837  0.1017  0.4137  0.7991
 9137SOL    HW239048   1.095   0.313  10.774 -1.6508  3.0712 -1.3855
 9138SOL     OW39049   4.639   2.931   2.202  0.1030 -0.5796 -0.3034
 9138SOL    HW139050   4.587   2.859   2.166 -0.9019 -0.5149  1.0157
 9138SOL    HW239051   4.729   2.898   2.201 -0.0266 -0.8876 -2.6564
 9139SOL     OW39052   0.513   0.677   9.107  0.9341 -0.1027 -0.6169
 9139SOL    HW139053   0.562   0.596   9.094  0.5064 -0.7402  1.7297
 9139SOL    HW239054   0.500   0.670   9.201  1.6095  0.8322 -0.4646
 9140SOL     OW39055   2.242   1.073   6.846  0.7771 -0.0827 -0.3178
 9140SOL    HW139056   2.211   0.986   6.819  0.3918 -0.4458  1.3183
 9140SOL    HW239057   2.318   1.067   6.904 -0.3054 -4.9383  0.5952
 9141SOL     OW39058   3.874   0.019  12.050 -0.3637 -0.6444 -0.4614
 9141SOL    HW139059   3.940   0.064  12.102  0.5780 -0.3331 -1.9267
 9141SOL    HW239060   3.879   4.664  12.072  0.7268 -0.1782  1.2169
 9142SOL     OW39061   4.077   4.512   4.701  0.4679  0.3450 -0.4085
 9142SOL    HW139062   4.044   4.482   4.786  0.3328  1.4865 -0.0583
 9142SOL    HW239063   4.149   4.565   4.735  0.3897  0.2122 -0.0354
 9143SOL     OW39064   3.072   2.143   6.032  0.1398 -0.3679 -0.1456
 9143SOL    HW139065   3.041   2.058   6.002  0.2790 -0.6848  0.6029
 9143SOL    HW239066   3.025   2.146   6.116 -1.5526 -0.6819 -1.0924
 9144SOL     OW39067   0.088   2.896   8.011 -0.0011 -0.3511  0.1818
 9144SOL    HW139068   0.144   2.933   8.079  1.1715  1.0701 -1.5222
 9144SOL    HW239069   0.152   2.877   7.942 -0.5669  0.1253 -0.4726
 9145SOL     OW39070   2.923   1.997   8.380  0.0474 -0.5077  0.0226
 9145SOL    HW139071   2.848   1.952   8.419 -0.3749  3.6575  3.9425
 9145SOL    HW239072   2.885   1.993   8.292 -0.4236  0.4961  0.1799
 9146SOL     OW39073   4.728   3.006  16.182 -0.4244  0.0998  0.0084
 9146SOL    HW139074   4.642   3.046  16.172  0.2503  1.4206 -0.6375
 9146SOL    HW239075   0.040   3.056  16.116  0.5411  1.9128  2.0946
 9147SOL     OW39076   2.847   0.807   9.049 -0.3301 -0.2193  0.5584
 9147SOL    HW139077   2.858   0.716   9.076 -2.8808 -1.2497 -1.8525
 9147SOL    HW239078   2.911   0.860   9.096 -1.1832  2.4161 -1.2723
 9148SOL     OW39079   3.656   3.942   7.876  0.2463  0.3186  0.6584
 9148SOL    HW139080   3.582   3.881   7.879  0.5217 -0.0706 -0.6012
 9148SOL    HW239081   3.720   3.873   7.855 -0.3737  0.0335 -0.2922
 9149SOL     OW39082   0.831   2.787   9.564 -0.4622 -0.3413 -0.2380
 9149SOL    HW139083   0.851   2.856   9.628 -1.3738 -1.4267  1.2305
 9149SOL    HW239084   0.889   2.711   9.574 -0.0179  0.2524  1.7386
 9150SOL     OW39085   1.769   4.216   6.453  0.2811 -0.3331 -0.8434
 9150SOL    HW139086   1.703   4.259   6.398 -0.0314 -1.5029 -1.3757
 9150SOL    HW239087   1.803   4.285   6.510  0.1516  0.8530 -2.1921
 9151SOL     OW39088   2.875   1.672   4.460  0.3875  0.3323  0.0743
 9151SOL    HW139089   2.899   1.609   4.528  0.4637  2.2892  1.8749
 9151SOL    HW239090   2.937   1.649   4.391  1.4894 -2.4665  2.0013
 9152SOL     OW39091   4.383   3.834   9.591  0.0504  0.0957 -0.7167
 9152SOL    HW139092   4.471   3.796   9.581  0.3282  0.2247  1.0947
 9152SOL    HW239093   4.351   3.796   9.673  1.5078 -0.1435 -0.2461
 9153SOL     OW39094   2.284   2.349   0.643 -0.9266  0.0720 -0.2019
 9153SOL    HW139095   2.270   2.395   0.726 -0.6876 -1.3791  0.6397
 9153SOL    HW239096   2.195   2.344   0.609 -0.7387  1.0823 -0.8450
 9154SOL     OW39097   3.869   3.852   3.444 -0.0638  0.0475 -0.2821
 9154SOL    HW139098   3.828   3.911   3.507  0.0662  0.7386 -0.8408
 9154SOL    HW239099   3.964   3.865   3.449 -0.1020  0.2242 -0.0132
 9155SOL     OW39100   3.494   0.972   3.485  0.4242  0.0057 -0.4848
 9155SOL    HW139101   3.547   0.977   3.565 -1.2229  1.5836  0.4997
 9155SOL    HW239102   3.421   0.913   3.506  0.7964  0.1520  1.2620
 9156SOL     OW39103   0.752   0.667   1.724 -0.0293 -0.0579  0.3408
 9156SOL    HW139104   0.757   0.591   1.666 -1.0279  0.9418 -1.0322
 9156SOL    HW239105   0.658   0.681   1.735 -0.1429  0.2549 -1.0542
 9157SOL     OW39106   1.365   3.734   3.671 -0.2744  0.2401  0.1916
 9157SOL    HW139107   1.413   3.814   3.651 -0.1200 -0.2678 -1.4629
 9157SOL    HW239108   1.430   3.678   3.715 -0.8917  0.5255  1.4825
 9158SOL     OW39109   3.517   4.117   1.659  0.5712  0.1711 -0.0464
 9158SOL    HW139110   3.607   4.090   1.641  0.6515  1.0886 -0.9894
 9158SOL    HW239111   3.495   4.069   1.739  1.0604 -2.2860 -1.3902
 9159SOL     OW39112   1.844   0.207   4.285 -0.5231 -0.5000 -0.8618
 9159SOL    HW139113   1.873   0.127   4.328 -1.2308  0.1927  0.8859
 9159SOL    HW239114   1.751   0.194   4.271 -1.0598  0.6400  1.7958
 9160SOL     OW39115   3.849   1.235  14.097 -0.5964  0.2172 -0.0980
 9160SOL    HW139116   3.924   1.257  14.042 -0.6086  2.4055  0.7806
 9160SOL    HW239117   3.879   1.251  14.186 -1.9125 -1.9070  0.7479
 9161SOL     OW39118   4.658   4.220   1.327 -0.6086 -0.0372 -0.2341
 9161SOL    HW139119   4.611   4.166   1.263 -0.5041 -1.8402  1.2303
 9161SOL    HW239120   4.674   4.160   1.399 -0.9529 -1.3509 -1.2666
 9162SOL     OW39121   0.106   2.146   6.313 -0.6623  0.0229  0.2030
 9162SOL    HW139122   0.045   2.089   6.359 -1.0809 -0.0657 -0.4565
 9162SOL    HW239123   0.068   2.138   6.225 -0.0632 -1.8863  0.1036
 9163SOL     OW39124   4.018   2.300   7.779  0.5908 -0.0038 -0.2041
 9163SOL    HW139125   4.092   2.315   7.838  1.7264 -1.4276 -1.2544
 9163SOL    HW239126   4.036   2.369   7.715  2.3851 -0.8178 -0.5650
 9164SOL     OW39127   0.810   3.512  15.454  0.4213 -0.5191 -0.1079
 9164SOL    HW139128   0.872   3.439  15.451  0.0701 -0.8660  0.8936
 9164SOL    HW239129   0.855   3.587  15.416 -0.2703 -0.2880 -0.4872
 9165SOL     OW39130   1.614   2.684   6.660  0.0600  0.5504  0.0657
 9165SOL    HW139131   1.556   2.619   6.620 -0.2617  1.9229 -1.7053
 9165SOL    HW239132   1.566   2.767   6.655 -2.0605 -0.6565  0.1006
 9166SOL     OW39133   4.722   4.229   5.939  0.1103 -0.2753  0.1043
 9166SOL    HW139134   0.003   4.323   5.930 -1.8118  0.2693  1.9382
 9166SOL    HW239135   0.050   4.189   5.882 -0.0353  0.1041 -0.3311
 9167SOL     OW39136   4.152   2.039   7.742 -0.4511  0.8832 -0.0575
 9167SOL    HW139137   4.067   1.997   7.757 -0.1492 -0.6807 -2.6550
 9167SOL    HW239138   4.127   2.131   7.746 -1.5809  0.5644  0.4533
 9168SOL     OW39139   0.700   4.391   6.049 -0.3285  0.1770 -0.1068
 9168SOL    HW139140   0.710   4.368   5.956  1.1338  1.5194 -0.2870
 9168SOL    HW239141   0.734   4.313   6.091 -1.8960  0.3761  1.5105
 9169SOL     OW39142   3.071   0.191   7.489  0.2597  0.3726  0.2632
 9169SOL    HW139143   3.013   0.261   7.459  1.7314  1.4723 -0.0091
 9169SOL    HW239144   3.155   0.228   7.462  2.3436 -1.4597  4.1770
 9170SOL     OW39145   2.283   2.220  16.968  0.3362  0.1703 -0.1168
 9170SOL    HW139146   2.261   2.142  16.917  0.9024  0.7868 -1.2804
 9170SOL    HW239147   2.269   2.284  16.898 -2.5766  0.9319  1.1294
 9171SOL     OW39148   4.102   4.733   8.712 -0.1322  0.1567 -0.5765
 9171SOL    HW139149   4.113   0.084   8.677 -2.9946  1.9034  2.8929
 9171SOL    HW239150   4.023   0.000   8.767  0.7720 -0.2263  0.7578
 9172SOL     OW39151   1.081   3.695   6.653  0.3368  0.8798  0.2387
 9172SOL    HW139152   1.165   3.737   6.636  0.8338 -0.0221  0.4335
 9172SOL    HW239153   1.046   3.718   6.567 -0.8038  0.5990  0.6319
 9173SOL     OW39154   0.751   2.666   3.748  0.4694  0.1946 -0.0055
 9173SOL    HW139155   0.716   2.730   3.810  0.7948  0.6624 -0.3105
 9173SOL    HW239156   0.668   2.642   3.707 -0.1298 -0.8217  1.7980
 9174SOL     OW39157   1.840   1.647   2.502  0.1083  0.1801  0.0114
 9174SOL    HW139158   1.880   1.642   2.589 -3.3387  2.3090  1.7052
 9174SOL    HW239159   1.879   1.728   2.469 -1.2769 -0.6973 -3.6980
 9175SOL     OW39160   3.525   1.999   9.470  0.1489 -0.0004 -0.2180
 9175SOL    HW139161   3.541   2.041   9.386 -2.0223  0.6244 -0.3009
 9175SOL    HW239162   3.510   1.910   9.438  2.2160 -0.0665 -1.0473
 9176SOL     OW39163   0.175   4.639   6.627  0.5576 -0.5055 -0.2031
 9176SOL    HW139164   0.255   4.660   6.675  1.2288  2.6635 -2.7774
 9176SOL    HW239165   0.191   4.706   6.561  0.2876 -1.0582 -0.8279
 9177SOL     OW39166   2.256   0.220   5.398  0.0854 -0.1251 -0.1959
 9177SOL    HW139167   2.284   0.258   5.481 -0.9529 -0.8805  0.5037
 9177SOL    HW239168   2.208   0.295   5.364 -0.2985 -0.9787 -1.5609
 9178SOL     OW39169   2.020   1.793   7.427 -0.6067  0.4519 -0.1154
 9178SOL    HW139170   2.097   1.825   7.382 -0.7202  0.6791 -0.1488
 9178SOL    HW239171   2.021   1.697   7.422  0.8862  0.4412  0.4782
 9179SOL     OW39172   0.589   0.575  11.948  0.4830  0.1202  0.3076
 9179SOL    HW139173   0.653   0.644  11.933  0.0214  0.3828 -0.4230
 9179SOL    HW239174   0.638   0.492  11.954  1.9058  0.7964 -1.9836
 9180SOL     OW39175   1.070   0.624  14.735 -0.0873 -0.1419  0.1883
 9180SOL    HW139176   1.142   0.653  14.792  0.6605 -1.2254 -0.2005
 9180SOL    HW239177   1.022   0.705  14.715  0.9503  0.8079  1.4842
 9181SOL     OW39178   3.794   3.212   3.368 -0.3936  0.2248 -0.3062
 9181SOL    HW139179   3.699   3.217   3.358 -0.3760 -0.7425 -0.9231
 9181SOL    HW239180   3.824   3.255   3.287 -0.9824 -0.2051 -0.7490
 9182SOL     OW39181   2.712   4.693   1.265  0.2202  0.5507  0.2054
 9182SOL    HW139182   2.774   0.024   1.287  0.9834 -0.4927  1.2638
 9182SOL    HW239183   2.636   4.721   1.316 -0.8804 -0.6338 -0.7824
 9183SOL     OW39184   1.570   0.852  11.180  0.1408 -0.2981 -0.5844
 9183SOL    HW139185   1.629   0.792  11.226  0.7346 -0.2510 -1.2692
 9183SOL    HW239186   1.523   0.904  11.245  0.1111 -1.2827  0.1715
 9184SOL     OW39187   2.120   0.516   1.243  0.3546  0.4854  0.2366
 9184SOL    HW139188   2.059   0.586   1.267  0.0923 -0.2006  1.5738
 9184SOL    HW239189   2.072   0.469   1.175  1.3764  2.1892 -1.6393
 9185SOL     OW39190   0.520   3.708  14.696 -0.2790 -0.3209  0.6070
 9185SOL    HW139191   0.427   3.691  14.685  0.3572 -4.3914  1.5876
 9185SOL    HW239192   0.556   3.620  14.685 -2.3726 -0.7573 -2.6259
 9186SOL     OW39193   3.968   3.480   8.157  0.3419 -0.2323  0.4651
 9186SOL    HW139194   3.963   3.463   8.251 -0.9246  1.8328  0.7682
 9186SOL    HW239195   4.054   3.514   8.133  0.1927 -1.9887 -2.6500
 9187SOL     OW39196   3.846   2.300   2.611  0.0127  0.0379  0.0117
 9187SOL    HW139197   3.825   2.223   2.558 -1.3007 -0.2609  0.9510
 9187SOL    HW239198   3.911   2.268   2.673  0.2973 -1.2914 -0.9801
 9188SOL     OW39199   3.678   2.226  11.677  0.2035  0.1716 -0.6157
 9188SOL    HW139200   3.680   2.321  11.666  3.5907  0.4636  2.3649
 9188SOL    HW239201   3.587   2.205  11.698  0.1966  1.3727  0.5578
 9189SOL     OW39202   2.702   3.188   1.916 -0.8410 -0.2916 -0.4929
 9189SOL    HW139203   2.797   3.178   1.906 -0.7324 -2.2309  2.3969
 9189SOL    HW239204   2.673   3.134   1.843  0.4719 -0.7254 -0.6860
 9190SOL     OW39205   0.500   3.083   4.205  0.4836  0.1412 -0.1693
 9190SOL    HW139206   0.564   3.126   4.148 -1.0095  2.7079  0.0880
 9190SOL    HW239207   0.531   3.111   4.292  1.5473 -0.9099 -0.2089
 9191SOL     OW39208   1.481   1.823   8.685  0.1207  0.0509  0.1724
 9191SOL    HW139209   1.553   1.815   8.622 -0.3596  2.1458 -0.6437
 9191SOL    HW239210   1.509   1.907   8.721 -1.3684 -0.5471  2.7037
 9192SOL     OW39211   0.161   0.968  11.215 -0.1310  0.2040  0.2980
 9192SOL    HW139212   0.126   1.051  11.182  1.2608 -0.3698 -2.6241
 9192SOL    HW239213   0.121   0.898  11.163  1.2185  0.4268 -1.0151
 9193SOL     OW39214   4.041   3.027   3.263  0.0294  0.1828 -0.0084
 9193SOL    HW139215   4.085   2.968   3.324  0.3308  1.0387  0.6013
 9193SOL    HW239216   3.985   3.079   3.321  0.5809  0.1282  0.5646
 9194SOL     OW39217   1.033   2.394   6.590 -0.5124 -0.2005  0.5420
 9194SOL    HW139218   0.986   2.324   6.544 -2.4921 -0.6403  3.2266
 9194SOL    HW239219   1.040   2.471   6.533 -2.4375 -0.1778  0.3490
 9195SOL     OW39220   0.241   1.874   3.413  0.4932  0.5115 -0.0728
 9195SOL    HW139221   0.331   1.875   3.444  0.5847  0.8613 -0.3488
 9195SOL    HW239222   0.212   1.963   3.433 -1.6863 -0.1621 -0.1689
 9196SOL     OW39223   0.834   2.708  14.231  0.1526  0.1854 -0.0406
 9196SOL    HW139224   0.835   2.788  14.177 -0.1453 -0.2587 -0.7004
 9196SOL    HW239225   0.756   2.664  14.199  0.4121  0.0332 -0.4536
 9197SOL     OW39226   0.291   4.530  12.866  0.3770 -0.2927  0.2349
 9197SOL    HW139227   0.340   4.598  12.912 -0.7828  0.9449 -0.3487
 9197SOL    HW239228   0.208   4.546  12.911 -2.0534  0.8026 -4.6624
 9198SOL     OW39229   1.397   0.681   1.523  0.1926  0.1356  0.4636
 9198SOL    HW139230   1.376   0.768   1.488  1.0957  0.3134  0.3599
 9198SOL    HW239231   1.316   0.634   1.506  0.6791  0.0789 -1.7113
 9199SOL     OW39232   2.422   3.733  12.459 -0.3441  0.1510  0.3748
 9199SOL    HW139233   2.459   3.821  12.468 -0.0594  0.1269 -0.6085
 9199SOL    HW239234   2.332   3.750  12.487 -0.6182  0.3729 -0.6400
 9200SOL     OW39235   0.377   1.393   7.901  0.7537 -0.0185  0.3021
 9200SOL    HW139236   0.302   1.414   7.846 -0.3384 -1.3225  1.2814
 9200SOL    HW239237   0.399   1.476   7.944 -0.8075  0.4597  0.1917
 9201SOL     OW39238   1.939   0.175   9.253 -0.4410  0.5942 -0.1224
 9201SOL    HW139239   1.866   0.119   9.226  0.8198 -0.5047 -1.3006
 9201SOL    HW239240   1.932   0.174   9.349 -2.7675 -0.4080 -0.3174
 9202SOL     OW39241   4.185   1.844  11.985  0.5206 -0.6125 -0.2752
 9202SOL    HW139242   4.167   1.806  12.070  1.6038  0.9490  0.6650
 9202SOL    HW239243   4.148   1.773  11.932  0.0357  1.3178 -2.5430
 9203SOL     OW39244   1.740   3.855   8.632  0.3453  0.3306 -0.4168
 9203SOL    HW139245   1.662   3.877   8.683  0.5223 -1.1446  0.4817
 9203SOL    HW239246   1.710   3.794   8.565 -1.0215  1.3167 -0.6906
 9204SOL     OW39247   3.937   3.877   2.198  0.2857  0.5272 -0.4328
 9204SOL    HW139248   3.904   3.797   2.158  0.4838 -0.3016  1.0618
 9204SOL    HW239249   4.006   3.833   2.249 -0.8630 -0.5970  0.1336
 9205SOL     OW39250   4.678   0.198   6.808  1.1383 -0.8570  0.4767
 9205SOL    HW139251   4.676   0.130   6.739 -1.0169 -0.9598  0.6264
 9205SOL    HW239252   4.599   0.176   6.858  1.5963 -0.4565  1.3609
 9206SOL     OW39253   0.440   4.308   4.234 -0.1753  0.1883  0.3112
 9206SOL    HW139254   0.392   4.388   4.258 -0.0126  0.3120  0.2286
 9206SOL    HW239255   0.508   4.334   4.172 -0.7258  0.2300 -0.2730
 9207SOL     OW39256   0.022   2.886   4.943  0.3651 -0.1079  0.1079
 9207SOL    HW139257   0.093   2.950   4.939  1.2858 -1.3899 -3.5397
 9207SOL    HW239258   4.688   2.939   4.980  0.2193  1.4072 -2.3389
 9208SOL     OW39259   0.514   1.885  14.718 -0.3612  0.0483 -0.4695
 9208SOL    HW139260   0.557   1.956  14.767 -0.5253 -0.7288  0.7937
 9208SOL    HW239261   0.508   1.931  14.634 -0.1284 -2.2869 -1.7472
 9209SOL     OW39262   0.021   2.887   3.465 -0.0192  0.6726  0.1563
 9209SOL    HW139263   0.053   2.868   3.377  0.7640  1.6842  0.2269
 9209SOL    HW239264   0.092   2.934   3.509  0.5971  0.2740 -0.3962
 9210SOL     OW39265   4.601   1.247   4.289  0.8164  0.1215  0.7560
 9210SOL    HW139266   4.609   1.285   4.202  3.2804  0.3178  1.0605
 9210SOL    HW239267   4.653   1.305   4.345  0.1635 -0.4577  1.9721
 9211SOL     OW39268   1.380   3.014   1.368 -0.1901  0.2190 -0.5009
 9211SOL    HW139269   1.345   2.968   1.444  2.2459  1.3869  1.3510
 9211SOL    HW239270   1.429   3.088   1.403  0.2313  0.1203 -0.8707
 9212SOL     OW39271   0.319   3.621   1.627 -0.7996  0.6412 -0.5543
 9212SOL    HW139272   0.283   3.537   1.600  2.1112 -0.4980 -0.8504
 9212SOL    HW239273   0.285   3.627   1.717  0.4081 -2.1695  0.0717
 9213SOL     OW39274   1.065   3.986  17.179  0.0490 -0.3056  0.1723
 9213SOL    HW139275   1.111   4.061  17.215  2.1135 -1.1949 -0.6064
 9213SOL    HW239276   1.098   3.912  17.230  1.3596  0.0695 -0.1321
 9214SOL     OW39277   3.828   0.305   8.349  0.0878 -0.3002 -0.3308
 9214SOL    HW139278   3.856   0.335   8.263  0.3078 -1.0675 -0.5336
 9214SOL    HW239279   3.878   0.225   8.369 -0.2783 -0.7403 -1.1868
 9215SOL     OW39280   2.309   0.969  15.888  0.3683 -0.1443 -0.1379
 9215SOL    HW139281   2.317   0.978  15.793  1.6584  2.1762  0.1744
 9215SOL    HW239282   2.327   1.061  15.909 -0.7591 -0.2474  1.3103
 9216SOL     OW39283   3.467   1.438   6.290  0.0218  0.2172  0.0852
 9216SOL    HW139284   3.451   1.532   6.289 -0.0599  0.2086  0.7952
 9216SOL    HW239285   3.429   1.411   6.206 -1.3203 -0.3616  0.8828
 9217SOL     OW39286   3.134   4.576   1.257 -0.4093 -0.3605  0.3540
 9217SOL    HW139287   3.053   4.525   1.249 -0.3851 -0.5058  0.9778
 9217SOL    HW239288   3.144   4.608   1.168  1.7069 -0.2666  0.6200
 9218SOL     OW39289   3.655   1.616   8.911  0.3644 -0.0439  0.4665
 9218SOL    HW139290   3.654   1.524   8.940 -1.8451  0.4144  1.8350
 9218SOL    HW239291   3.666   1.668   8.990  1.1070 -0.5928  0.7221
 9219SOL     OW39292   1.422   3.295   1.630 -0.2958 -0.4662 -0.1121
 9219SOL    HW139293   1.444   3.304   1.537 -0.1505  3.0068  0.2551
 9219SOL    HW239294   1.497   3.242   1.658 -0.8115 -2.0368 -1.6833
 9220SOL     OW39295   3.247   2.583   6.259  0.1144 -0.1416 -0.1721
 9220SOL    HW139296   3.276   2.624   6.340 -1.0999  0.6074 -0.1101
 9220SOL    HW239297   3.283   2.655   6.207 -0.0582 -0.0714 -0.1944
 9221SOL     OW39298   2.560   0.661   4.562  0.0310 -0.5555  0.2196
 9221SOL    HW139299   2.549   0.589   4.501 -0.9476 -0.7258  0.5933
 9221SOL    HW239300   2.648   0.698   4.571 -0.1840  0.0263 -0.0211
 9222SOL     OW39301   4.537   1.840  10.311 -0.4346  0.6071  0.2545
 9222SOL    HW139302   4.554   1.746  10.318 -1.8833  0.3782  0.5616
 9222SOL    HW239303   4.537   1.851  10.215  0.7734  2.4284  0.4571
 9223SOL     OW39304   0.207   0.931   8.206 -0.0521 -0.6932  0.8209
 9223SOL    HW139305   0.194   0.937   8.111 -0.1308  3.7532  1.1185
 9223SOL    HW239306   0.289   0.980   8.207 -0.2054 -0.3714 -2.1676
 9224SOL     OW39307   2.498   3.733   5.378  0.1948  0.2381  0.5123
 9224SOL    HW139308   2.513   3.806   5.317  2.9319  0.1508  1.0904
 9224SOL    HW239309   2.456   3.772   5.455  1.3080 -1.5798  2.0476
 9225SOL     OW39310   2.688   2.908   6.108 -0.2550 -0.2066  0.0786
 9225SOL    HW139311   2.648   2.821   6.113  0.1449 -0.4946 -1.5748
 9225SOL    HW239312   2.615   2.966   6.128  1.2062  1.3467  0.9384
 9226SOL     OW39313   0.489   0.336  13.353  0.4435  0.0854 -0.4472
 9226SOL    HW139314   0.398   0.359  13.369  0.7761  0.4778  0.8313
 9226SOL    HW239315   0.525   0.339  13.441  1.4680  0.8557 -0.8915
 9227SOL     OW39316   1.658   2.684  14.685 -0.6766 -0.0404  0.0948
 9227SOL    HW139317   1.640   2.774  14.656  0.5162 -0.3762 -1.6977
 9227SOL    HW239318   1.749   2.670  14.659 -1.3474 -2.5352 -0.8238
 9228SOL     OW39319   1.916   0.359   5.902 -0.4249  0.2969  0.3413
 9228SOL    HW139320   1.999   0.393   5.935 -1.6827  1.7281  1.9752
 9228SOL    HW239321   1.907   0.380   5.809  1.4086  1.1704  0.3666
 9229SOL     OW39322   2.169   0.215   7.764 -0.1628  0.0952  0.2662
 9229SOL    HW139323   2.082   0.239   7.732  0.7720  3.2980  0.1143
 9229SOL    HW239324   2.151   0.124   7.787 -1.3336  0.1734 -0.3568
 9230SOL     OW39325   4.062   3.533   4.445  0.2446 -0.0694 -0.2052
 9230SOL    HW139326   3.987   3.589   4.426 -1.1616 -0.6946  3.4537
 9230SOL    HW239327   4.079   3.484   4.365  1.6301  1.3327 -0.7661
 9231SOL     OW39328   0.868   2.213  15.066 -0.2301  0.2989 -0.1942
 9231SOL    HW139329   0.901   2.268  14.995  1.0578  0.5991  0.6571
 9231SOL    HW239330   0.774   2.209  15.046  0.3655  2.0340 -3.4531
 9232SOL     OW39331   1.115   2.282  13.473 -0.5169 -0.3289 -0.7711
 9232SOL    HW139332   1.031   2.237  13.464  0.0098 -1.1745 -1.5017
 9232SOL    HW239333   1.131   2.258  13.564 -1.4977 -2.2820 -1.0954
 9233SOL     OW39334   2.692   4.135   7.585 -0.4902 -0.3599  0.4279
 9233SOL    HW139335   2.668   4.182   7.505  3.5614  0.4210 -0.3712
 9233SOL    HW239336   2.607   4.103   7.612  1.0178 -3.3004  1.6762
 9234SOL     OW39337   0.795   0.780   7.263  0.7971 -0.0608 -0.1333
 9234SOL    HW139338   0.716   0.806   7.217 -1.3599 -0.5463  3.2635
 9234SOL    HW239339   0.786   0.685   7.268  0.5549  0.0475  1.6131
 9235SOL     OW39340   0.247   3.166   2.569 -0.1657 -0.1677  0.4015
 9235SOL    HW139341   0.277   3.151   2.659  1.6780  0.6644 -0.0922
 9235SOL    HW239342   0.316   3.215   2.525 -1.8409 -0.2708 -2.3131
 9236SOL     OW39343   3.279   2.382   4.654 -0.0051  0.2512 -0.0723
 9236SOL    HW139344   3.193   2.366   4.693  0.6596 -2.5676  0.2795
 9236SOL    HW239345   3.298   2.303   4.602  0.4660  1.6484 -2.0239
 9237SOL     OW39346   3.879   2.764   9.833 -0.1039  0.0666  0.3049
 9237SOL    HW139347   3.850   2.681   9.871 -1.3456 -0.4631 -1.8293
 9237SOL    HW239348   3.805   2.779   9.775  0.3681  1.8460  0.1557
 9238SOL     OW39349   0.144   2.853   2.533 -0.3712 -0.4513  0.1698
 9238SOL    HW139350   0.206   2.926   2.524 -1.4553  0.0899 -2.9529
 9238SOL    HW239351   0.192   2.786   2.485  0.9695 -0.4948  1.5772
 9239SOL     OW39352   4.517   1.331   2.053  0.2929 -0.0293  0.3522
 9239SOL    HW139353   4.454   1.336   1.981  0.6312 -1.7604 -0.0663
 9239SOL    HW239354   4.552   1.242   2.044 -0.4265 -0.1324 -1.5258
 9240SOL     OW39355   0.310   0.963   2.520  0.1598 -0.5769 -0.0280
 9240SOL    HW139356   0.242   0.951   2.586  1.6760 -1.2357  1.4289
 9240SOL    HW239357   0.334   1.054   2.541  1.4881 -0.4510 -2.1024
 9241SOL     OW39358   2.943   2.015  13.966 -0.4039  0.4049 -0.3088
 9241SOL    HW139359   2.884   2.085  13.993  0.1152  1.2584 -1.3877
 9241SOL    HW239360   2.974   2.050  13.882 -1.0910  0.9428 -0.3333
 9242SOL     OW39361   2.759   4.336   2.908  0.0670  0.0721 -0.1611
 9242SOL    HW139362   2.716   4.260   2.869  2.2046 -1.2363  0.0359
 9242SOL    HW239363   2.836   4.354   2.854  0.8013 -0.4321  0.7165
 9243SOL     OW39364   3.313   0.431   5.882 -0.6080 -0.0684 -0.2988
 9243SOL    HW139365   3.232   0.382   5.867 -1.3574  2.2182 -3.7357
 9243SOL    HW239366   3.265   0.513   5.887 -0.2022  0.2153 -1.0452
 9244SOL     OW39367   0.635   1.691   2.090  0.3227  0.0693  0.1650
 9244SOL    HW139368   0.628   1.595   2.089 -2.4485  0.2638 -1.2123
 9244SOL    HW239369   0.567   1.718   2.028 -0.7475 -0.7115  0.9984
 9245SOL     OW39370   1.293   0.942   4.034 -0.2484  0.2481 -0.0722
 9245SOL    HW139371   1.268   0.861   3.990 -0.7674  0.2216  0.2792
 9245SOL    HW239372   1.294   0.915   4.126 -0.3912 -0.1534 -0.1910
 9246SOL     OW39373   1.091   4.011   4.477  0.3691 -0.3645 -0.5814
 9246SOL    HW139374   1.169   3.963   4.503  0.1293 -0.5270 -0.1669
 9246SOL    HW239375   1.108   4.086   4.534  1.4613 -0.5857 -0.6106
 9247SOL     OW39376   1.421   2.157   8.427 -0.1511 -0.0694 -0.3772
 9247SOL    HW139377   1.406   2.131   8.518 -2.1610 -0.5702 -0.8773
 9247SOL    HW239378   1.448   2.249   8.421 -2.7763  0.7422  0.3732
 9248SOL     OW39379   2.303   2.394   3.908  0.3931  0.0522  0.3277
 9248SOL    HW139380   2.382   2.448   3.917  1.0733 -0.6044 -1.4813
 9248SOL    HW239381   2.322   2.332   3.978  3.1565  0.3136 -0.1677
 9249SOL     OW39382   3.304   0.836   3.179 -0.7572  0.0615  0.0300
 9249SOL    HW139383   3.386   0.797   3.210  0.1089  2.6790  1.0500
 9249SOL    HW239384   3.329   0.922   3.146 -0.8738  0.3169  0.6131
 9250SOL     OW39385   0.392   2.953   8.460 -0.3597  0.4018 -0.6929
 9250SOL    HW139386   0.379   3.048   8.463 -2.8550 -0.0095  1.5945
 9250SOL    HW239387   0.325   2.932   8.395 -1.9085 -0.0211  1.0427
 9251SOL     OW39388   3.016   4.577  10.300 -0.0361 -0.3886 -0.2058
 9251SOL    HW139389   3.001   4.545  10.211 -2.2512 -1.5608  0.5960
 9251SOL    HW239390   3.088   4.522  10.334 -0.0310  1.7730  3.2968
 9252SOL     OW39391   3.637   4.605   1.426  0.1953  0.1524 -0.5707
 9252SOL    HW139392   3.565   4.545   1.406 -0.4908 -0.1836  2.8652
 9252SOL    HW239393   3.708   4.541   1.426  1.4022  1.4712 -0.1455
 9253SOL     OW39394   0.745   0.065   2.627 -0.0152 -0.1181 -0.0437
 9253SOL    HW139395   0.665   0.095   2.583  0.4377  1.9971  0.6063
 9253SOL    HW239396   0.814   0.116   2.585 -1.0068 -0.9548 -2.6884
 9254SOL     OW39397   0.065   2.217   2.776  0.5502 -0.0606 -0.3802
 9254SOL    HW139398   0.031   2.303   2.750  0.4673  0.6703  2.1458
 9254SOL    HW239399   0.139   2.196   2.719  1.3673 -2.8607  1.7389
 9255SOL     OW39400   4.502   4.420   1.444 -0.3988  0.0341  0.3511
 9255SOL    HW139401   4.467   4.485   1.382 -0.8528  0.7277  1.3286
 9255SOL    HW239402   4.536   4.358   1.380  0.1864  2.1977 -1.4468
 9256SOL     OW39403   0.245   4.509   9.369  0.1622 -0.2680  0.1169
 9256SOL    HW139404   0.188   4.433   9.368  0.0380 -0.1272 -2.0484
 9256SOL    HW239405   0.181   4.580   9.365 -0.4196 -0.6279  2.7768
 9257SOL     OW39406   1.838   3.258   6.233  0.3626 -0.0317  0.2031
 9257SOL    HW139407   1.787   3.332   6.267  1.0328  0.6054 -0.1568
 9257SOL    HW239408   1.794   3.243   6.149  1.7076 -3.3908  0.0986
 9258SOL     OW39409   3.127   3.447   4.823  0.2192 -0.8602 -0.1486
 9258SOL    HW139410   3.102   3.381   4.888 -1.2731  1.7172  1.9396
 9258SOL    HW239411   3.218   3.432   4.798 -0.5037  1.2061 -3.9508
 9259SOL     OW39412   2.358   1.657  13.146  0.1116  0.1853 -0.3160
 9259SOL    HW139413   2.414   1.669  13.069 -1.4919 -0.0603 -1.5227
 9259SOL    HW239414   2.276   1.632  13.104  0.0950  1.2803 -0.9352
 9260SOL     OW39415   1.573   2.783   9.499 -0.0299 -0.2878  0.2313
 9260SOL    HW139416   1.624   2.842   9.444  1.7850 -2.4420 -0.4392
 9260SOL    HW239417   1.518   2.741   9.433  0.3182 -0.8414  0.2912
 9261SOL     OW39418   2.877   4.714   2.846 -0.0343 -0.2262 -0.2324
 9261SOL    HW139419   2.814   0.010   2.909 -1.1107  0.3666 -1.6167
 9261SOL    HW239420   2.889   4.624   2.877 -1.0555 -0.4359 -0.4558
 9262SOL     OW39421   0.034   1.506  14.509 -0.7892 -0.0152  0.2431
 9262SOL    HW139422   4.694   1.562  14.518  0.7141  1.9539  0.9661
 9262SOL    HW239423   0.030   1.449  14.587  0.5024 -1.8289 -1.0206
 9263SOL     OW39424   0.173   4.380  14.444 -0.7740 -0.3288  0.0914
 9263SOL    HW139425   0.229   4.372  14.368 -0.8345 -0.6846  0.0862
 9263SOL    HW239426   0.101   4.435  14.412  0.5478  1.3831  0.0878
 9264SOL     OW39427   3.433   2.917   5.607  0.4592  0.6883  0.6646
 9264SOL    HW139428   3.461   2.965   5.529 -1.2600  2.0638  0.8985
 9264SOL    HW239429   3.480   2.836   5.585  0.9734  0.5844  2.1400
 9265SOL     OW39430   2.678   3.721  13.611  0.0054 -0.8155  0.2647
 9265SOL    HW139431   2.692   3.648  13.552 -0.7573 -1.5038  0.9422
 9265SOL    HW239432   2.586   3.704  13.630  0.1700  0.2203  1.9821
 9266SOL     OW39433   4.317   2.613   0.719  0.3050 -0.4268 -0.0306
 9266SOL    HW139434   4.261   2.687   0.745  1.8630  0.0365  2.0069
 9266SOL    HW239435   4.288   2.540   0.775  2.4384 -2.0834 -1.0828
 9267SOL     OW39436   3.764   3.888   2.462 -0.4606  0.1819  0.4281
 9267SOL    HW139437   3.846   3.873   2.415 -0.6127  0.1119  0.1775
 9267SOL    HW239438   3.752   3.802   2.502  2.4137 -0.2068  0.4601
 9268SOL     OW39439   3.110   4.381   0.843 -0.4968  0.6717 -0.5818
 9268SOL    HW139440   3.164   4.460   0.835  0.1776  0.4263  1.5514
 9268SOL    HW239441   3.107   4.374   0.938  1.4183 -0.0995 -0.5816
 9269SOL     OW39442   4.127   0.100   4.999 -0.2362  0.0049  0.3146
 9269SOL    HW139443   4.168   0.149   5.069 -1.1489  1.5601 -0.2333
 9269SOL    HW239444   4.055   0.161   4.983 -0.4490 -0.6668 -1.3483
 9270SOL     OW39445   4.362   2.353   6.231  0.1851  0.1279 -0.2916
 9270SOL    HW139446   4.269   2.373   6.246  0.5028 -0.8043  2.8474
 9270SOL    HW239447   4.377   2.426   6.171 -1.9512  1.1949  0.4639
 9271SOL     OW39448   3.525   2.982   1.777  0.2205 -0.2421 -0.4098
 9271SOL    HW139449   3.596   2.921   1.799  2.5323  2.3769 -0.5736
 9271SOL    HW239450   3.448   2.947   1.822  0.2488  0.6732  0.3438
 9272SOL     OW39451   1.973   3.293   5.037  0.5731  0.0149  0.0418
 9272SOL    HW139452   2.003   3.256   5.120 -0.9375 -2.0666 -0.3530
 9272SOL    HW239453   1.882   3.266   5.026 -0.1980  1.4407  3.1137
 9273SOL     OW39454   1.375   0.618   2.168  0.3777 -0.5988  0.0466
 9273SOL    HW139455   1.451   0.633   2.225 -0.2932  1.2961  0.4556
 9273SOL    HW239456   1.308   0.640   2.233 -1.4433  1.5335 -2.5436
 9274SOL     OW39457   2.959   3.101   5.996  0.7274  0.2994 -0.0002
 9274SOL    HW139458   3.039   3.131   5.951  1.2797 -0.3150  0.5817
 9274SOL    HW239459   2.946   3.015   5.957 -1.3923 -0.5390  2.6310
 9275SOL     OW39460   2.961   4.246   3.980  0.0094  0.1742  0.1327
 9275SOL    HW139461   2.986   4.338   3.971 -1.3998  0.6268  0.9254
 9275SOL    HW239462   2.933   4.235   3.889  2.1564  0.0176 -0.5113
 9276SOL     OW39463   2.375   0.832   4.367  0.3006  0.3292  0.2271
 9276SOL    HW139464   2.350   0.749   4.327 -0.5122  0.7475 -0.1458
 9276SOL    HW239465   2.439   0.802   4.431  0.6640  0.5575 -0.0301
 9277SOL     OW39466   1.109   0.522   2.533 -0.6809  0.6108 -0.0505
 9277SOL    HW139467   1.139   0.443   2.488 -0.3198  0.3795  0.5779
 9277SOL    HW239468   1.028   0.489   2.573  0.1788 -2.5005 -0.8104
 9278SOL     OW39469   2.872   4.396  17.066 -0.2178  0.0858 -0.3878
 9278SOL    HW139470   2.778   4.413  17.056 -0.2862 -1.4265 -2.3297
 9278SOL    HW239471   2.884   4.304  17.043 -0.6207  0.3760 -1.7579
 9279SOL     OW39472   1.384   0.897   6.806  0.0439  0.3777  0.0494
 9279SOL    HW139473   1.396   0.860   6.718 -1.3663  1.5813 -0.6552
 9279SOL    HW239474   1.291   0.915   6.790 -0.4556 -1.3114  1.0689
 9280SOL     OW39475   0.329   2.859   7.812 -0.2577  0.2109  0.0624
 9280SOL    HW139476   0.290   2.863   7.725  0.0220 -0.7345 -0.1036
 9280SOL    HW239477   0.362   2.949   7.821  0.2232 -0.1349  1.6648
 9281SOL     OW39478   3.388   4.471   3.122 -0.0715 -0.1097  0.1829
 9281SOL    HW139479   3.472   4.494   3.082 -0.7451  1.0639 -0.5269
 9281SOL    HW239480   3.376   4.380   3.094 -0.9631 -0.1625  0.7214
 9282SOL     OW39481   1.965   0.512  14.381 -0.1619  0.0932 -0.1782
 9282SOL    HW139482   2.046   0.486  14.337 -0.9896  0.1527 -1.7107
 9282SOL    HW239483   2.018   0.534  14.458 -2.2432  0.4225  1.1590
 9283SOL     OW39484   4.080   4.569   6.313 -0.1852 -0.1044 -0.6360
 9283SOL    HW139485   4.092   4.651   6.361 -1.3110  0.3191 -1.0990
 9283SOL    HW239486   4.019   4.525   6.372 -1.9643  1.1469 -1.5397
 9284SOL     OW39487   3.553   2.690   8.702 -0.4760  0.4983  0.4804
 9284SOL    HW139488   3.472   2.640   8.703 -0.0140 -0.2322  1.2010
 9284SOL    HW239489   3.524   2.781   8.698 -1.5887 -0.0074 -3.0969
 9285SOL     OW39490   1.047   4.014   3.236  0.1303  0.1646  0.1765
 9285SOL    HW139491   1.033   4.108   3.230 -0.2884  0.1262  0.5852
 9285SOL    HW239492   1.067   3.986   3.146  3.2406  1.8663  0.3291
 9286SOL     OW39493   4.281   3.284   6.449  0.4190 -0.8626 -0.0169
 9286SOL    HW139494   4.281   3.379   6.438  0.2215 -1.0584 -1.7625
 9286SOL    HW239495   4.317   3.260   6.363  0.0567 -1.2825 -0.0450
 9287SOL     OW39496   3.589   4.053  10.768 -0.1368  0.4158  0.8597
 9287SOL    HW139497   3.627   4.119  10.709 -1.0767  2.0702  2.0912
 9287SOL    HW239498   3.629   4.078  10.852 -0.8741 -1.8157  1.8827
 9288SOL     OW39499   3.901   1.150   0.130  0.4364  0.4169 -0.2341
 9288SOL    HW139500   3.873   1.099   0.206 -0.6520  0.4965 -0.5897
 9288SOL    HW239501   3.948   1.086   0.076 -1.6050  0.7206 -2.3576
 9289SOL     OW39502   3.717   3.636   3.622 -0.4068 -0.1661 -0.3167
 9289SOL    HW139503   3.763   3.645   3.538 -0.5004 -1.1674 -0.4716
 9289SOL    HW239504   3.627   3.654   3.595 -0.2165 -0.8227 -1.4135
 9290SOL     OW39505   3.959   0.309  11.142 -0.0857 -0.1148 -0.2166
 9290SOL    HW139506   3.910   0.343  11.217 -2.0298  0.3245 -1.6865
 9290SOL    HW239507   4.050   0.323  11.170  0.5741  1.0044 -2.9098
 9291SOL     OW39508   3.731   0.226   4.803  0.2357 -0.0586  0.0703
 9291SOL    HW139509   3.782   0.161   4.852  3.3074  0.6851 -2.1492
 9291SOL    HW239510   3.716   0.199   4.712 -1.9433 -0.9350  0.6739
 9292SOL     OW39511   4.031   0.079   8.372  0.0910  0.3912  0.5370
 9292SOL    HW139512   4.097   0.145   8.394  0.4639  0.0716  0.3720
 9292SOL    HW239513   4.031   0.079   8.277 -1.8005 -0.6632  0.5344
 9293SOL     OW39514   0.914   4.431   3.955  0.5971  0.7592 -0.7157
 9293SOL    HW139515   0.924   4.342   3.920  0.3223 -0.4676  2.3333
 9293SOL    HW239516   0.871   4.476   3.883 -3.2086  0.6319  1.4527
 9294SOL     OW39517   4.288   0.284  11.007  0.6696 -0.9485 -0.2308
 9294SOL    HW139518   4.269   0.191  11.011 -2.2624 -0.2490  1.6456
 9294SOL    HW239519   4.277   0.306  11.100  1.5289  1.6295 -0.7241
 9295SOL     OW39520   0.780   3.153   2.899  0.7884  0.1233 -0.0080
 9295SOL    HW139521   0.748   3.225   2.954  0.7723  0.3199 -0.2747
 9295SOL    HW239522   0.698   3.108   2.876  0.0527  1.3534  0.1536
 9296SOL     OW39523   4.058   4.178   9.522 -0.0418 -0.2175 -0.2501
 9296SOL    HW139524   4.102   4.113   9.467  1.3174 -0.9192  1.6854
 9296SOL    HW239525   4.045   4.140   9.609  1.8156  1.0776  0.5807
 9297SOL     OW39526   2.212   1.940   8.337 -0.5657  0.0331  0.2272
 9297SOL    HW139527   2.200   2.029   8.303 -2.6852  0.0579  1.0269
 9297SOL    HW239528   2.223   1.961   8.430 -1.9534 -2.2520  0.9246
 9298SOL     OW39529   2.475   3.176  13.719  0.3021 -0.6379  0.1265
 9298SOL    HW139530   2.568   3.156  13.726  0.7494  0.6156 -2.0985
 9298SOL    HW239531   2.445   3.130  13.797 -0.9381 -0.5552 -0.2977
 9299SOL     OW39532   0.252   3.072   4.935  0.7931 -0.6691 -0.4155
 9299SOL    HW139533   0.316   3.139   4.909 -0.6916  0.0598 -2.1443
 9299SOL    HW239534   0.300   2.994   4.905  2.8440  0.6112 -0.4363
 9300SOL     OW39535   3.414   0.769   6.345  0.4109  0.2679 -0.1094
 9300SOL    HW139536   3.381   0.859   6.348  2.5775  1.1275 -2.0490
 9300SOL    HW239537   3.457   0.742   6.426 -2.5761  0.1770  1.4501
 9301SOL     OW39538   1.464   2.415   8.342  0.8633  0.1438  0.2891
 9301SOL    HW139539   1.392   2.457   8.296 -0.8244 -0.6494  2.1526
 9301SOL    HW239540   1.508   2.490   8.382 -0.9580  0.5920  1.4696
 9302SOL     OW39541   3.326   3.956   7.890 -0.3702 -0.8560  0.7935
 9302SOL    HW139542   3.314   3.862   7.903  1.2723 -1.1100  0.5616
 9302SOL    HW239543   3.241   3.969   7.848  1.1477  0.0028 -2.0376
 9303SOL     OW39544   0.449   4.353   3.721  0.3798  0.2777 -0.8842
 9303SOL    HW139545   0.362   4.346   3.761  0.7795 -1.0140 -0.2574
 9303SOL    HW239546   0.465   4.262   3.697  0.8389 -0.3139  1.6892
 9304SOL     OW39547   0.000   3.535   4.684 -0.6353 -0.0944 -0.6602
 9304SOL    HW139548   0.026   3.456   4.731  0.7443  0.4789 -0.4521
 9304SOL    HW239549   4.704   3.589   4.756 -0.2059 -1.1141  0.3052
 9305SOL     OW39550   3.448   4.317   2.579 -1.1516  0.2527  0.2588
 9305SOL    HW139551   3.364   4.290   2.541 -0.8445  0.3463 -0.4821
 9305SOL    HW239552   3.492   4.232   2.575 -2.6523 -0.4250 -1.8783
 9306SOL     OW39553   0.692   1.368   4.409 -0.2784 -0.0207 -0.4458
 9306SOL    HW139554   0.759   1.436   4.406 -0.8796  0.7476  3.2808
 9306SOL    HW239555   0.624   1.421   4.452  1.9216  1.1343  1.6046
 9307SOL     OW39556   1.063   1.071   9.352 -0.3207 -0.6854 -0.3608
 9307SOL    HW139557   1.018   1.128   9.290 -0.2721 -0.9457 -0.6393
 9307SOL    HW239558   1.152   1.106   9.351 -0.3393 -0.6002  1.5890
 9308SOL     OW39559   0.330   0.408  14.840 -0.0923 -0.5404  0.4256
 9308SOL    HW139560   0.424   0.390  14.836 -0.0488  0.6523 -4.3091
 9308SOL    HW239561   0.306   0.365  14.922  2.4989 -0.6351  1.1466
 9309SOL     OW39562   1.278   4.062   3.425 -0.5917  0.3062  0.3068
 9309SOL    HW139563   1.209   4.037   3.363  0.4729  1.4704 -1.3645
 9309SOL    HW239564   1.300   4.151   3.400 -2.2445  0.5048 -0.4017
 9310SOL     OW39565   4.168   4.096   6.070  0.0421  0.6642  0.5667
 9310SOL    HW139566   4.132   4.183   6.085 -0.1468  0.2139  2.8516
 9310SOL    HW239567   4.209   4.076   6.154  0.3239  0.6927  0.4346
 9311SOL     OW39568   3.711   1.014   4.269  0.6912 -0.7861 -0.2140
 9311SOL    HW139569   3.723   1.044   4.179 -1.7193 -1.0977 -0.6200
 9311SOL    HW239570   3.786   1.050   4.317  1.9298  2.4851 -4.6712
 9312SOL     OW39571   4.560   4.231  14.768 -0.0475  0.3616 -0.7265
 9312SOL    HW139572   4.579   4.305  14.826  1.1715 -1.7758  1.5896
 9312SOL    HW239573   4.616   4.161  14.802  1.1790  1.0895 -1.2411
 9313SOL     OW39574   2.027   3.083   3.733 -0.8112 -0.1116 -0.0002
 9313SOL    HW139575   1.934   3.088   3.709 -0.1279  0.8965 -2.3818
 9313SOL    HW239576   2.032   2.996   3.774  1.7231 -0.0638 -0.2364
 9314SOL     OW39577   1.008   4.541   6.008 -0.3686  0.6310 -0.7314
 9314SOL    HW139578   0.973   4.585   6.086 -1.1886 -0.0678 -0.7062
 9314SOL    HW239579   1.068   4.608   5.976 -0.5239  0.6701 -0.9444
 9315SOL     OW39580   1.278   1.926  10.200  0.2119  0.5118 -0.1592
 9315SOL    HW139581   1.225   1.850  10.178  0.3567 -0.2537  2.1648
 9315SOL    HW239582   1.273   1.912  10.294 -2.3546 -1.8991 -0.6784
 9316SOL     OW39583   4.357   3.657   1.370  0.0802  0.0244  0.2759
 9316SOL    HW139584   4.280   3.646   1.313 -0.2232 -1.0897  0.8965
 9316SOL    HW239585   4.417   3.623   1.303  1.0291  0.1494  1.0666
 9317SOL     OW39586   3.956   4.459   8.536 -0.1165  0.6307  0.9112
 9317SOL    HW139587   3.897   4.450   8.611  0.4008 -0.6655  1.1591
 9317SOL    HW239588   4.016   4.520   8.579  1.5317  0.3469 -0.9463
 9318SOL     OW39589   2.601   1.262   4.851 -0.3624 -0.3340 -0.1405
 9318SOL    HW139590   2.613   1.167   4.850 -0.7483 -0.4020  1.7981
 9318SOL    HW239591   2.676   1.286   4.905 -1.6067  0.4834  1.2343
 9319SOL     OW39592   3.316   0.638   8.949  0.1319  0.6682  0.2724
 9319SOL    HW139593   3.335   0.593   8.866 -0.3356 -0.5944  0.8615
 9319SOL    HW239594   3.390   0.632   9.010 -1.1011  0.0430  1.6690
 9320SOL     OW39595   3.999   3.433  15.587 -0.6249  0.6119  0.7507
 9320SOL    HW139596   3.957   3.349  15.607  1.2261 -0.7243 -1.0152
 9320SOL    HW239597   3.987   3.429  15.492 -1.9795 -1.0251  0.9778
 9321SOL     OW39598   0.661   0.872   7.789 -0.0958 -0.2023 -0.1220
 9321SOL    HW139599   0.697   0.857   7.876  0.4023  1.3188 -0.0612
 9321SOL    HW239600   0.738   0.883   7.733  0.5267 -0.6217  0.6488
 9322SOL     OW39601   3.084   0.054  10.170  0.3549 -0.1048 -0.3912
 9322SOL    HW139602   3.052   4.728  10.235  0.4898 -0.3141 -0.5285
 9322SOL    HW239603   3.008   0.109  10.152  0.9504  0.2832 -1.7552
 9323SOL     OW39604   2.514   4.002  12.445 -0.3028  0.0331  0.1667
 9323SOL    HW139605   2.569   4.029  12.371  0.6074  0.7781  1.1342
 9323SOL    HW239606   2.518   4.084  12.495  0.6274  0.1809 -0.1518
 9324SOL     OW39607   1.623   1.343   7.264 -0.1217  0.0282 -0.2469
 9324SOL    HW139608   1.588   1.406   7.201 -0.4489  0.4035  0.3012
 9324SOL    HW239609   1.549   1.283   7.268 -1.5378  1.7198 -0.7185
 9325SOL     OW39610   4.590   2.444   1.570  0.0119 -0.4996 -0.0581
 9325SOL    HW139611   4.663   2.431   1.510  2.6021  2.0630  2.5752
 9325SOL    HW239612   4.546   2.512   1.519  0.1179  0.6557  1.3839
 9326SOL     OW39613   2.872   1.361   6.482  0.7615  0.0277  0.2009
 9326SOL    HW139614   2.793   1.331   6.438  1.7355 -0.6882 -1.0749
 9326SOL    HW239615   2.862   1.316   6.566  1.5034  0.3782  0.4794
 9327SOL     OW39616   1.180   1.211   7.493  0.0625 -0.4455  0.4884
 9327SOL    HW139617   1.237   1.158   7.548 -1.3927 -2.1199  0.3870
 9327SOL    HW239618   1.236   1.286   7.474  0.1442 -0.2533  1.5252
 9328SOL     OW39619   3.840   2.063  13.874  0.7484  0.2510  0.2638
 9328SOL    HW139620   3.903   2.096  13.938 -2.2553  0.6156  3.0838
 9328SOL    HW239621   3.893   2.003  13.822  0.0600 -0.3944  0.3119
 9329SOL     OW39622   3.805   1.678  15.555  1.1210 -0.1938  0.4977
 9329SOL    HW139623   3.850   1.676  15.471 -0.7973  0.5869 -0.5558
 9329SOL    HW239624   3.718   1.699  15.519  2.8442  2.9708 -1.7891
 9330SOL     OW39625   1.464   2.907   6.561  0.1360 -0.1034  0.5638
 9330SOL    HW139626   1.376   2.943   6.574 -0.5097 -1.5853  0.2256
 9330SOL    HW239627   1.450   2.856   6.481 -0.3464  0.1891  0.4596
 9331SOL     OW39628   3.605   4.529  15.555  0.0301 -0.0379 -0.3687
 9331SOL    HW139629   3.638   4.615  15.528 -1.8106  0.2957 -1.5405
 9331SOL    HW239630   3.658   4.517  15.634  2.7575 -0.5679 -2.2451
 9332SOL     OW39631   1.922   1.807   5.513 -0.1807 -0.4263 -0.0087
 9332SOL    HW139632   1.987   1.751   5.471 -1.3400 -2.7384  1.2761
 9332SOL    HW239633   1.967   1.891   5.518  1.0792 -1.0476 -0.8233
 9333SOL     OW39634   3.068   1.617   8.489  0.8178 -0.1764 -0.4043
 9333SOL    HW139635   3.088   1.542   8.544  0.3200  0.2570  0.3541
 9333SOL    HW239636   3.084   1.584   8.400 -0.7811 -0.1821 -0.6925
 9334SOL     OW39637   0.962   3.076  13.003  0.2240  0.1694 -0.0891
 9334SOL    HW139638   0.926   2.993  12.971  0.9778  0.5985 -2.0069
 9334SOL    HW239639   0.889   3.092  13.064  0.5663  1.3650  0.0121
 9335SOL     OW39640   0.794   2.400  10.117  0.2000  0.2154  0.8025
 9335SOL    HW139641   0.859   2.418  10.048 -1.6782 -0.7143 -1.2011
 9335SOL    HW239642   0.855   2.362  10.180 -0.0595  0.2213  1.0570
 9336SOL     OW39643   2.658   2.843   5.666  0.4859  0.0685 -0.7512
 9336SOL    HW139644   2.567   2.854   5.641  0.1827  1.0457  0.7982
 9336SOL    HW239645   2.663   2.918   5.725  1.1502  0.0757 -0.8123
 9337SOL     OW39646   0.521   4.203  14.790 -0.0177  0.2593  0.1741
 9337SOL    HW139647   0.479   4.207  14.876 -1.2517  1.3694 -0.4887
 9337SOL    HW239648   0.450   4.234  14.735  0.6403 -0.9552 -1.3451
 9338SOL     OW39649   4.685   3.669  12.462 -0.2817  0.3966 -0.3900
 9338SOL    HW139650   0.025   3.618  12.485 -0.8704 -1.4651 -2.4703
 9338SOL    HW239651   4.667   3.611  12.387  0.1720  0.3532 -0.4650
 9339SOL     OW39652   3.529   0.816   5.116 -0.3454  0.1619  0.1185
 9339SOL    HW139653   3.547   0.763   5.038  0.3505  1.0934 -0.3580
 9339SOL    HW239654   3.524   0.751   5.185  0.7554 -1.7787 -1.6198
 9340SOL     OW39655   0.516   1.581   6.912 -0.4640 -0.3373  0.2757
 9340SOL    HW139656   0.552   1.585   6.824  1.4035 -1.3229  0.9903
 9340SOL    HW239657   0.584   1.632   6.957 -0.7462  0.3066 -0.0331
 9341SOL     OW39658   2.120   3.620   4.256 -0.2479  0.0538  0.3467
 9341SOL    HW139659   2.030   3.652   4.266 -0.4425 -0.7039  0.9670
 9341SOL    HW239660   2.164   3.640   4.339 -1.9717 -1.5376  1.6566
 9342SOL     OW39661   1.934   4.458   2.680 -0.0044  0.2944 -0.0364
 9342SOL    HW139662   1.879   4.501   2.614 -0.6814 -1.6590 -0.7581
 9342SOL    HW239663   1.884   4.462   2.761  1.1418 -1.8392  0.7805
 9343SOL     OW39664   4.003   1.549   6.043  0.4188 -0.0339 -0.7629
 9343SOL    HW139665   4.049   1.611   6.101 -0.7170 -1.1544  1.3231
 9343SOL    HW239666   4.027   1.586   5.958  0.3516 -0.0582 -0.7918
 9344SOL     OW39667   0.535   0.797   2.554 -0.4878 -0.3689 -0.2322
 9344SOL    HW139668   0.501   0.744   2.627  1.1506 -1.8343 -0.5381
 9344SOL    HW239669   0.459   0.855   2.547 -1.2567 -1.4511 -0.9157
 9345SOL     OW39670   1.335   3.829   5.423 -0.3329 -0.2302  0.0044
 9345SOL    HW139671   1.360   3.755   5.367 -3.0214 -0.3452 -1.0594
 9345SOL    HW239672   1.420   3.859   5.456  0.6818 -2.8737 -0.1711
 9346SOL     OW39673   1.757   0.800  16.474  0.2541 -0.0478 -0.5244
 9346SOL    HW139674   1.792   0.716  16.444 -1.4273 -0.6653 -0.7413
 9346SOL    HW239675   1.799   0.854  16.407 -2.2008  0.0917 -1.9511
 9347SOL     OW39676   0.667   3.614   4.690  0.1281 -0.5101 -0.7472
 9347SOL    HW139677   0.637   3.635   4.602 -0.1544 -1.2667 -0.8369
 9347SOL    HW239678   0.592   3.566   4.726 -0.1463  0.8786  0.5004
 9348SOL     OW39679   2.771   3.151   5.429  0.4259  0.0505  0.1985
 9348SOL    HW139680   2.757   3.072   5.378  0.3810 -1.0420  1.8857
 9348SOL    HW239681   2.681   3.180   5.443  0.6904  1.0825 -0.2812
 9349SOL     OW39682   1.979   2.775   5.433  0.3945 -0.2757  0.4698
 9349SOL    HW139683   2.050   2.711   5.439 -0.8904 -1.7622 -0.1871
 9349SOL    HW239684   1.916   2.748   5.500  0.9740 -1.7727  0.3998
 9350SOL     OW39685   4.617   4.070   7.861 -0.5366  0.1254  0.3914
 9350SOL    HW139686   4.650   4.154   7.894 -1.7367  1.2789 -1.3347
 9350SOL    HW239687   4.680   4.004   7.890 -1.9010 -0.8793  1.0485
 9351SOL     OW39688   0.070   3.575  12.173 -0.2301  0.2111  0.2700
 9351SOL    HW139689   0.005   3.627  12.126  0.4222 -1.8224 -2.8593
 9351SOL    HW239690   0.033   3.487  12.164 -0.0791  0.1966 -0.1992
 9352SOL     OW39691   0.713   1.835   8.184  0.0233 -0.4508 -0.6179
 9352SOL    HW139692   0.675   1.751   8.159 -0.6698 -0.1516 -0.5722
 9352SOL    HW239693   0.770   1.859   8.110  1.7715 -1.1558  0.5082
 9353SOL     OW39694   0.471   1.375  10.601  0.8058  0.4188  0.2595
 9353SOL    HW139695   0.426   1.394  10.519 -0.6170  0.7433  1.1225
 9353SOL    HW239696   0.564   1.388  10.582  1.0874 -1.0890  0.5571
 9354SOL     OW39697   1.119   4.545   9.283 -0.4511  0.2302 -0.6507
 9354SOL    HW139698   1.140   4.495   9.205 -0.3087 -1.9007  0.7526
 9354SOL    HW239699   1.024   4.539   9.272 -0.4092 -0.6082 -0.5737
 9355SOL     OW39700   2.713   0.911   8.548  0.5935  0.1740  0.6736
 9355SOL    HW139701   2.724   0.820   8.521 -0.5833 -0.0067  0.8040
 9355SOL    HW239702   2.757   0.905   8.633  4.7167 -2.2606 -1.6224
 9356SOL     OW39703   2.778   4.305   5.957 -0.0825  0.5604 -0.2090
 9356SOL    HW139704   2.732   4.386   5.978 -0.3690  0.7312 -1.4851
 9356SOL    HW239705   2.850   4.309   6.020  1.1415  0.8771 -1.6330
 9357SOL     OW39706   0.776   0.791   5.529  0.6184 -0.3571 -0.0771
 9357SOL    HW139707   0.742   0.859   5.586 -0.9195 -0.1559 -1.2416
 9357SOL    HW239708   0.860   0.769   5.570  0.2771 -1.0435  0.2416
 9358SOL     OW39709   4.562   2.610   3.785 -0.6526  0.5951  0.3110
 9358SOL    HW139710   4.559   2.524   3.826  1.6126 -0.3582 -1.5456
 9358SOL    HW239711   4.587   2.664   3.861 -2.7042  0.4373  1.1014
 9359SOL     OW39712   2.410   2.379  10.327  0.2031 -0.2835 -0.3414
 9359SOL    HW139713   2.320   2.362  10.298  0.4077 -1.8162 -0.0567
 9359SOL    HW239714   2.437   2.443  10.261 -1.7128  1.7605  0.8529
 9360SOL     OW39715   3.475   4.081   6.797  0.0494  0.1627 -0.2565
 9360SOL    HW139716   3.507   4.004   6.844 -0.3235  1.0247  1.3818
 9360SOL    HW239717   3.401   4.100   6.854 -0.6452  0.0419 -1.1187
 9361SOL     OW39718   3.437   1.487   6.019  0.3536  0.3060  0.1442
 9361SOL    HW139719   3.395   1.549   5.959  0.2098 -0.7271 -0.8106
 9361SOL    HW239720   3.526   1.511   5.992  0.4281  0.2893  0.3739
 9362SOL     OW39721   1.583   1.722   3.159  0.1537  0.0712  0.0328
 9362SOL    HW139722   1.507   1.693   3.110  1.0384 -0.6093 -0.9232
 9362SOL    HW239723   1.649   1.727   3.090 -1.1691  1.7747 -1.1214
 9363SOL     OW39724   3.197   1.142   8.510  0.1314  0.4044  0.2765
 9363SOL    HW139725   3.192   1.070   8.573  0.0441  1.1442  1.1108
 9363SOL    HW239726   3.131   1.116   8.445 -0.3895 -1.0735  1.3767
 9364SOL     OW39727   2.980   3.237   6.691  0.2074  0.3434 -0.6717
 9364SOL    HW139728   2.887   3.232   6.672 -0.4826  0.3208  2.7584
 9364SOL    HW239729   2.980   3.187   6.772  1.5859  2.6192  0.7451
 9365SOL     OW39730   2.233   1.935   6.587  0.1815 -0.1395  0.2769
 9365SOL    HW139731   2.252   1.952   6.679  2.5731  0.1244 -0.2877
 9365SOL    HW239732   2.216   2.024   6.555  0.8847 -0.6610 -1.5302
 9366SOL     OW39733   3.220   2.219   8.046  0.5981  0.3488  0.6777
 9366SOL    HW139734   3.283   2.165   7.998  0.1683 -0.0329  0.5368
 9366SOL    HW239735   3.269   2.269   8.111  2.7303 -1.5198  0.4882
 9367SOL     OW39736   1.322   4.154   3.820  0.0856 -0.1943  0.0402
 9367SOL    HW139737   1.271   4.103   3.757  2.4289 -1.1010 -1.1414
 9367SOL    HW239738   1.313   4.239   3.776  2.4574 -0.5228 -1.1025
 9368SOL     OW39739   1.910   1.830   3.967 -0.0453  0.0604  0.0902
 9368SOL    HW139740   1.985   1.825   4.027  0.4908 -0.6682 -0.6343
 9368SOL    HW239741   1.873   1.913   3.994  0.0170  0.0625  0.1703
 9369SOL     OW39742   1.721   0.123   3.505 -0.3885 -0.3628 -0.1347
 9369SOL    HW139743   1.663   0.047   3.506  2.2918 -2.4190  1.1344
 9369SOL    HW239744   1.680   0.188   3.562  0.7406 -1.3141  1.7808
 9370SOL     OW39745   1.729   1.891   7.842  0.0515  0.2665 -0.2785
 9370SOL    HW139746   1.793   1.889   7.772 -0.8665  0.7322 -1.1316
 9370SOL    HW239747   1.688   1.973   7.814  2.2784  1.7862  0.9351
 9371SOL     OW39748   1.201   2.933   7.206 -0.7295 -0.1062  1.1539
 9371SOL    HW139749   1.189   3.023   7.238  0.2776  1.5699 -3.1224
 9371SOL    HW239750   1.289   2.912   7.236 -0.2864 -2.2080 -1.6480
 9372SOL     OW39751   4.221   4.649   1.064 -0.6470 -0.1481  0.1162
 9372SOL    HW139752   4.143   4.704   1.063 -0.6317 -0.1385 -0.4336
 9372SOL    HW239753   4.260   4.668   0.979 -0.6288  0.8439  0.3462
 9373SOL     OW39754   3.988   3.304   7.481 -0.1170 -0.8211 -0.4234
 9373SOL    HW139755   3.993   3.399   7.470 -0.8194 -0.5292  1.6383
 9373SOL    HW239756   3.893   3.295   7.476 -0.5207  1.5924  2.5673
 9374SOL     OW39757   4.394   0.355   3.994  0.0783 -0.6801  0.3298
 9374SOL    HW139758   4.428   0.314   4.074 -0.3667  0.3761  1.0653
 9374SOL    HW239759   4.339   0.280   3.971 -2.3222  0.7935  1.1731
 9375SOL     OW39760   2.185   0.339   8.107 -0.1693 -0.1643 -0.2678
 9375SOL    HW139761   2.272   0.380   8.106 -0.5975  0.7227 -0.9596
 9375SOL    HW239762   2.159   0.357   8.197 -1.8643 -0.3598 -0.7181
 9376SOL     OW39763   1.259   1.582   4.109  0.1304 -0.2087  0.3713
 9376SOL    HW139764   1.250   1.629   4.192 -2.2224  0.5401 -0.2861
 9376SOL    HW239765   1.330   1.630   4.066 -1.8872  2.5270  0.0636
 9377SOL     OW39766   1.173   1.988   3.406 -0.3348  0.1257  0.3573
 9377SOL    HW139767   1.160   1.987   3.501  2.8232 -0.9084  0.7751
 9377SOL    HW239768   1.168   2.083   3.395  1.0626  0.3403  1.5022
 9378SOL     OW39769   4.289   1.286   3.087 -1.1665 -0.1230  0.8450
 9378SOL    HW139770   4.289   1.381   3.075  0.6112  0.4312  4.9455
 9378SOL    HW239771   4.316   1.255   3.001  0.6463 -0.7106  1.6123
 9379SOL     OW39772   1.913   2.987   4.442 -0.4410 -0.1972 -0.2174
 9379SOL    HW139773   1.960   3.015   4.521 -1.1376 -2.9007  1.1638
 9379SOL    HW239774   1.955   2.909   4.406 -0.9002 -1.2480  1.4829
 9380SOL     OW39775   2.694   0.957   9.355 -0.4432 -0.1478 -0.3216
 9380SOL    HW139776   2.763   0.988   9.296  0.5441 -2.2691 -0.2691
 9380SOL    HW239777   2.715   0.864   9.360  1.9595  0.4010  0.0795
 9381SOL     OW39778   2.814   1.258   8.548 -0.0812 -0.0347 -0.5593
 9381SOL    HW139779   2.887   1.240   8.607  0.9170  0.7897 -1.5258
 9381SOL    HW239780   2.748   1.216   8.603  0.5129 -0.8737 -0.4846
 9382SOL     OW39781   4.588   0.720  16.800  0.2680  0.3536  0.3480
 9382SOL    HW139782   4.531   0.684  16.733  4.5133 -1.3909 -2.3211
 9382SOL    HW239783   4.656   0.770  16.754 -0.0798 -0.3557 -0.9124
 9383SOL     OW39784   0.080   3.342   7.526 -0.5499  0.0575 -0.0215
 9383SOL    HW139785   0.020   3.409   7.560  1.7952  0.6604  2.8785
 9383SOL    HW239786   0.088   3.286   7.602 -0.5112  3.0599  2.1896
 9384SOL     OW39787   0.096   0.587   4.508  0.0563 -0.3300  0.1990
 9384SOL    HW139788   0.015   0.536   4.513 -0.6183  0.8100  1.0893
 9384SOL    HW239789   0.167   0.535   4.545  1.1592  0.7591 -0.3660
 9385SOL     OW39790   1.258   3.008   3.110 -0.5065  0.3711 -0.1120
 9385SOL    HW139791   1.307   2.967   3.038  2.8255  0.3754  2.1618
 9385SOL    HW239792   1.167   2.995   3.083 -0.2842  0.2491 -0.8179
 9386SOL     OW39793   0.656   3.305   7.292 -0.0147 -0.0759 -0.2031
 9386SOL    HW139794   0.728   3.337   7.348  0.8146  1.8287 -2.3439
 9386SOL    HW239795   0.638   3.217   7.326  2.0378  0.1192  1.4290
 9387SOL     OW39796   2.559   1.168   4.449 -0.2661 -0.1575 -0.6804
 9387SOL    HW139797   2.486   1.191   4.391 -1.3448  0.1430  0.7947
 9387SOL    HW239798   2.530   1.085   4.486 -2.3883 -0.1001 -2.2010
 9388SOL     OW39799   3.241   0.322   0.310 -0.3298 -0.4054  0.3293
 9388SOL    HW139800   3.224   0.346   0.219 -0.2484 -0.1173  0.3915
 9388SOL    HW239801   3.239   0.227   0.316 -1.0314 -0.3761  0.5990
 9389SOL     OW39802   1.848   3.988   2.915 -0.6194 -0.6110 -0.3318
 9389SOL    HW139803   1.838   3.893   2.915 -0.1085 -0.6678  0.1037
 9389SOL    HW239804   1.915   3.992   2.984  0.0131  3.3318 -1.1660
 9390SOL     OW39805   3.843   0.823   2.854  0.0008  0.2270  0.5285
 9390SOL    HW139806   3.848   0.732   2.881  0.2721 -0.2602 -1.1462
 9390SOL    HW239807   3.917   0.857   2.905  1.4983 -0.3467 -1.2364
 9391SOL     OW39808   1.859   0.349   8.131 -0.0072 -0.7079 -0.0468
 9391SOL    HW139809   1.887   0.341   8.222  1.2634 -0.1569 -0.3733
 9391SOL    HW239810   1.791   0.283   8.119  0.3039 -1.3570  1.8327
 9392SOL     OW39811   4.340   0.590  16.978  0.2043  0.1544 -0.1023
 9392SOL    HW139812   4.321   0.530  16.906 -1.4405  0.1561  0.3509
 9392SOL    HW239813   4.314   0.676  16.944  0.6152  0.4097  0.2246
 9393SOL     OW39814   2.260   3.538   0.138 -0.4863  0.2787 -0.6519
 9393SOL    HW139815   2.352   3.522   0.155 -0.2805  0.5910 -1.4588
 9393SOL    HW239816   2.256   3.608   0.072 -1.9320  1.9788  1.2464
 9394SOL     OW39817   0.035   4.464   3.233 -0.7137 -0.3710 -0.4360
 9394SOL    HW139818   0.026   4.436   3.142 -1.9086  0.6330 -0.6277
 9394SOL    HW239819   0.122   4.433   3.259 -0.8932  0.3437  1.0158
 9395SOL     OW39820   1.854   4.115   6.233  0.0559  0.3110 -0.0828
 9395SOL    HW139821   1.850   4.022   6.253  2.2386  0.3005  0.3507
 9395SOL    HW239822   1.839   4.152   6.320 -0.9264  2.3698 -1.1210
 9396SOL     OW39823   3.943   3.700   6.505  0.5347  0.3390 -0.1912
 9396SOL    HW139824   3.852   3.723   6.522  0.0731 -1.8746  0.3788
 9396SOL    HW239825   3.978   3.788   6.493  0.6714  0.3268  0.1269
 9397SOL     OW39826   3.255   0.827   3.545 -0.3981 -0.6751  0.0021
 9397SOL    HW139827   3.238   0.842   3.638  2.3457 -0.6544  0.4834
 9397SOL    HW239828   3.291   0.739   3.554  0.8262 -0.1323  0.3744
 9398SOL     OW39829   2.316   2.646  10.512  0.2658  0.4138  0.6538
 9398SOL    HW139830   2.399   2.612  10.545  0.7752  0.3780 -0.6326
 9398SOL    HW239831   2.319   2.600  10.428  1.0056  1.2678  0.2057
 9399SOL     OW39832   0.953   4.288   9.208  0.2651  0.2753 -0.1108
 9399SOL    HW139833   0.885   4.239   9.255  0.2199  2.5651  2.2180
 9399SOL    HW239834   0.905   4.369   9.191 -3.7880 -1.9350  0.6433
 9400SOL     OW39835   4.262   2.281  10.972  0.5842  0.5286 -0.0923
 9400SOL    HW139836   4.249   2.187  10.989  0.7860  0.5650  0.2737
 9400SOL    HW239837   4.173   2.314  10.970 -0.0345 -1.1640 -1.1856
 9401SOL     OW39838   2.832   1.866  10.833  0.3021 -0.0697 -0.1205
 9401SOL    HW139839   2.779   1.940  10.862 -3.2481 -2.4382 -0.5933
 9401SOL    HW239840   2.916   1.911  10.829 -0.7444  1.7558 -1.2882
 9402SOL     OW39841   4.098   1.609   0.282 -0.8592  0.4238 -0.5499
 9402SOL    HW139842   4.075   1.555   0.207  1.3207  2.2605 -2.5795
 9402SOL    HW239843   4.144   1.547   0.338 -0.1338 -1.8803 -3.7159
 9403SOL     OW39844   3.050   0.903   9.233  0.2973  0.5724 -0.1098
 9403SOL    HW139845   3.106   0.826   9.242 -0.4456  0.6146  4.4540
 9403SOL    HW239846   3.120   0.964   9.255  1.4715 -1.2832  1.3218
 9404SOL     OW39847   3.479   0.289   6.595  0.0372  0.0916 -0.1389
 9404SOL    HW139848   3.439   0.222   6.651  1.4271 -0.8056 -0.2053
 9404SOL    HW239849   3.572   0.268   6.596 -0.2293 -1.0787  0.4788
 9405SOL     OW39850   2.611   2.216   3.235  0.6657 -0.0547  0.7314
 9405SOL    HW139851   2.687   2.227   3.178 -1.3703  1.5005 -1.7010
 9405SOL    HW239852   2.551   2.177   3.171  1.5000  1.1740 -0.7925
 9406SOL     OW39853   2.262   2.957   4.292 -0.2267 -0.2409  0.0507
 9406SOL    HW139854   2.290   2.915   4.211 -0.3470 -1.1274  0.4702
 9406SOL    HW239855   2.174   2.919   4.292  0.3939 -1.6780  1.1052
 9407SOL     OW39856   3.194   3.508   3.346 -0.2016  0.1498  0.0940
 9407SOL    HW139857   3.215   3.473   3.432  1.0809  1.5152  0.3309
 9407SOL    HW239858   3.161   3.596   3.365 -0.6338 -0.0905  0.4496
 9408SOL     OW39859   4.537   0.868   3.071 -0.4786 -0.0141 -0.5917
 9408SOL    HW139860   4.623   0.898   3.098 -0.7209  1.4616 -1.4538
 9408SOL    HW239861   4.560   0.800   3.007  1.4714 -0.3764  0.4894
 9409SOL     OW39862   4.265   4.304   2.799  0.0895  0.5084 -0.4654
 9409SOL    HW139863   4.207   4.351   2.739 -1.2929 -2.5700 -1.5088
 9409SOL    HW239864   4.206   4.304   2.874  0.9015 -2.6224  0.1791
 9410SOL     OW39865   3.733   1.657  11.880  0.6917  0.0432  0.0319
 9410SOL    HW139866   3.732   1.686  11.971 -0.6091  2.3934 -0.7370
 9410SOL    HW239867   3.734   1.561  11.889  0.5235  0.0920  0.5674
 9411SOL     OW39868   1.777   0.821   8.828 -0.6293 -0.4262 -0.3314
 9411SOL    HW139869   1.698   0.805   8.775 -1.4451 -0.2776  0.8368
 9411SOL    HW239870   1.816   0.890   8.775 -2.8851  0.9044 -0.2686
 9412SOL     OW39871   1.718   4.564   4.290 -0.0667 -0.4766 -1.0318
 9412SOL    HW139872   1.691   4.493   4.348  0.5760  0.1677  0.0645
 9412SOL    HW239873   1.644   4.562   4.230 -0.8675  2.8510 -0.1588
 9413SOL     OW39874   0.634   3.607   8.170  0.2879 -0.3361  0.5441
 9413SOL    HW139875   0.548   3.625   8.209  1.3540  0.2977  2.5838
 9413SOL    HW239876   0.603   3.590   8.081  0.6778  0.4814  0.2530
 9414SOL     OW39877   2.187   1.333   0.113  0.4284 -0.7991  0.0241
 9414SOL    HW139878   2.270   1.365   0.148  1.0266 -1.5869 -0.6544
 9414SOL    HW239879   2.130   1.406   0.136  0.5159 -1.0808  1.1162
 9415SOL     OW39880   0.596   0.212   8.886 -0.0731  0.0227 -0.1819
 9415SOL    HW139881   0.537   0.260   8.944  1.6581  0.2443  1.4154
 9415SOL    HW239882   0.528   0.185   8.824  0.9745  0.1779 -1.3939
 9416SOL     OW39883   1.316   1.793   5.133  0.2928 -0.2730 -0.3195
 9416SOL    HW139884   1.330   1.827   5.045 -0.3460  0.4672 -0.1347
 9416SOL    HW239885   1.229   1.754   5.123 -1.9326  4.4110  0.9215
 9417SOL     OW39886   1.285   0.515   4.920 -0.2005  0.0635 -0.1023
 9417SOL    HW139887   1.267   0.452   4.851  2.8021  1.1157 -1.8221
 9417SOL    HW239888   1.216   0.495   4.984  0.8842  2.9659  2.0005
 9418SOL     OW39889   3.536   1.362   6.710  0.3184  0.5641  0.0702
 9418SOL    HW139890   3.499   1.434   6.761 -0.9057  0.0314 -0.0727
 9418SOL    HW239891   3.628   1.374   6.734  0.5983  0.6915 -1.0622
 9419SOL     OW39892   1.300   0.232   2.149 -1.0220  0.9245  0.8621
 9419SOL    HW139893   1.301   0.291   2.073  0.5939  0.5376  0.5794
 9419SOL    HW239894   1.378   0.182   2.127  2.1619  4.6336  3.7608
 9420SOL     OW39895   3.418   4.182  16.094 -0.2857 -0.4245 -0.4430
 9420SOL    HW139896   3.324   4.188  16.111 -0.1017  0.7781  0.1432
 9420SOL    HW239897   3.421   4.129  16.014  1.9458  0.2400 -0.8079
 9421SOL     OW39898   3.674   1.365   9.335  0.0690 -0.0781  0.2474
 9421SOL    HW139899   3.582   1.353   9.360 -0.1300 -2.6218 -1.6634
 9421SOL    HW239900   3.716   1.296   9.386 -1.6515  0.2342  2.0808
 9422SOL     OW39901   2.851   0.030   4.106 -0.3696 -0.0422 -0.0103
 9422SOL    HW139902   2.781   0.067   4.052 -0.8267  0.5268  0.9810
 9422SOL    HW239903   2.797   4.699   4.145 -0.1460 -1.9479 -3.0907
 9423SOL     OW39904   3.689   4.667  11.768 -0.1981  0.3054 -0.6215
 9423SOL    HW139905   3.768   4.615  11.781  0.3395  1.4999  0.8693
 9423SOL    HW239906   3.702   4.679  11.674 -0.6683  0.1552 -0.7049
 9424SOL     OW39907   0.430   1.661  16.234  0.1421 -0.0368 -0.1097
 9424SOL    HW139908   0.508   1.609  16.255  0.5023  0.5223 -0.0595
 9424SOL    HW239909   0.420   1.707  16.318  0.7852  3.1115 -1.7501
 9425SOL     OW39910   4.579   1.304   6.504 -0.3574  0.3895  0.7815
 9425SOL    HW139911   4.510   1.370   6.504  0.0678  0.8250  0.4148
 9425SOL    HW239912   4.595   1.296   6.598  1.9139  2.2884  0.5588
 9426SOL     OW39913   0.586   1.979  14.127  0.0235 -0.2096  0.3944
 9426SOL    HW139914   0.581   1.892  14.166  0.9306 -1.7421 -2.9052
 9426SOL    HW239915   0.643   2.026  14.187 -1.2695  0.9888  0.6803
 9427SOL     OW39916   2.533   3.048  17.274 -0.0436  0.0655 -0.3477
 9427SOL    HW139917   2.578   3.020  17.194 -0.8656 -3.1418  0.3118
 9427SOL    HW239918   2.470   2.976  17.267  0.0049  0.2873 -3.0928
 9428SOL     OW39919   3.165   3.651  15.055 -0.1526 -0.1875 -0.0619
 9428SOL    HW139920   3.234   3.710  15.024 -0.3943  0.0609 -0.1270
 9428SOL    HW239921   3.189   3.661  15.147 -0.0019 -0.6472 -0.0492
 9429SOL     OW39922   0.113   3.611   2.117 -0.1087  0.1155 -0.0155
 9429SOL    HW139923   0.199   3.589   2.155 -0.8223  0.3760  1.7570
 9429SOL    HW239924   0.061   3.536   2.146 -0.4060  0.6015  0.6960
 9430SOL     OW39925   3.158   0.387  11.977 -0.0964 -0.1991 -0.4220
 9430SOL    HW139926   3.191   0.467  12.017 -3.9292  0.2280  1.8510
 9430SOL    HW239927   3.099   0.365  12.049  1.8816  1.2494  1.6345
 9431SOL     OW39928   0.044   0.912  12.298 -1.0621 -0.2528  0.0047
 9431SOL    HW139929   0.079   0.989  12.342 -3.6609  0.2882  1.1338
 9431SOL    HW239930   0.046   0.838  12.359  0.5279 -1.0690 -1.0400
 9432SOL     OW39931   4.697   0.049   4.456  0.1146 -0.3077  0.1374
 9432SOL    HW139932   0.038   0.001   4.483  1.0566  1.0304 -0.2011
 9432SOL    HW239933   4.730   0.090   4.377 -0.6235 -1.8026 -0.9433
 9433SOL     OW39934   3.273   1.425  16.998 -0.6273 -0.3815  0.2149
 9433SOL    HW139935   3.267   1.498  17.060 -0.7606 -0.2002 -0.0116
 9433SOL    HW239936   3.341   1.450  16.935 -2.5130  0.0570 -1.6501
 9434SOL     OW39937   2.641   0.192  15.951  0.1063  0.5342  0.3905
 9434SOL    HW139938   2.548   0.195  15.975  0.3026 -0.1296  1.2339
 9434SOL    HW239939   2.656   0.102  15.980 -0.9311  0.4279  0.6152
 9435SOL     OW39940   1.230   3.897   2.643  0.7788  0.5777 -0.1762
 9435SOL    HW139941   1.259   3.860   2.727 -1.7081  1.1520  0.9485
 9435SOL    HW239942   1.308   3.889   2.589  0.0191 -0.3787 -1.1425
 9436SOL     OW39943   2.454   3.274  11.567 -0.5288 -0.5046  0.1738
 9436SOL    HW139944   2.418   3.198  11.613 -1.0625  0.3989  1.2575
 9436SOL    HW239945   2.437   3.339  11.635  0.5263 -1.0192  0.9339
 9437SOL     OW39946   4.479   1.346   3.764  0.6401 -0.5480 -0.4711
 9437SOL    HW139947   4.402   1.361   3.710  0.0515 -2.0728 -0.0675
 9437SOL    HW239948   4.453   1.386   3.847 -2.5129 -0.7333 -1.4005
 9438SOL     OW39949   1.687   2.642   0.002  0.6492 -0.3276  0.0909
 9438SOL    HW139950   1.605   2.634   0.049 -0.1067 -0.5123 -1.2596
 9438SOL    HW239951   1.707   2.729   0.037  1.8058 -1.1363  1.4363
 9439SOL     OW39952   2.024   0.057   6.182 -0.4238  0.1571  0.0505
 9439SOL    HW139953   2.044   0.015   6.098 -0.5546  0.6871 -0.2490
 9439SOL    HW239954   2.020   4.717   6.238  1.6271  0.0538  0.0725
 9440SOL     OW39955   2.289   2.164   4.045 -0.0096 -0.5152 -0.0723
 9440SOL    HW139956   2.304   2.085   3.994  1.9219  0.8387 -1.6347
 9440SOL    HW239957   2.317   2.139   4.134  2.6292  1.2084 -0.4141
 9441SOL     OW39958   4.596   4.501   5.637 -0.0835 -0.7376  0.0095
 9441SOL    HW139959   4.632   4.436   5.576 -1.8111  0.9799 -2.8255
 9441SOL    HW239960   4.507   4.469   5.647 -0.7444  1.4355  0.9056
 9442SOL     OW39961   1.088   4.054  11.196 -0.4709 -0.7292  0.0187
 9442SOL    HW139962   1.154   4.059  11.265  0.2604 -1.3886 -0.6239
 9442SOL    HW239963   1.038   4.136  11.196  0.1058 -0.3721 -0.8954
 9443SOL     OW39964   1.075   2.238   8.569 -0.1355  0.6582 -0.0045
 9443SOL    HW139965   1.023   2.218   8.647 -0.2005  0.8304 -0.0017
 9443SOL    HW239966   1.148   2.291   8.602  0.6848 -0.5203  0.0747
 9444SOL     OW39967   1.402   2.130   7.128  0.3243 -0.7072 -0.4372
 9444SOL    HW139968   1.461   2.084   7.187  2.2229  0.5941 -1.3114
 9444SOL    HW239969   1.347   2.174   7.193 -1.3286 -1.0884 -1.5706
 9445SOL     OW39970   3.678   1.719   8.002 -0.4856 -0.0801  0.3456
 9445SOL    HW139971   3.717   1.636   8.031 -1.9885 -0.4185  1.3728
 9445SOL    HW239972   3.634   1.697   7.920 -1.6508  1.3684  0.5857
 9446SOL     OW39973   2.963   3.148   1.865 -0.3188 -0.1269  0.2068
 9446SOL    HW139974   2.966   3.243   1.859  1.1144 -0.2727 -1.2664
 9446SOL    HW239975   3.039   3.125   1.811 -0.8387  0.5015 -0.7650
 9447SOL     OW39976   0.767   1.656   2.681  0.0603 -0.4429 -0.4987
 9447SOL    HW139977   0.775   1.581   2.620  1.0479  0.0838 -1.0199
 9447SOL    HW239978   0.853   1.647   2.722 -0.4861  0.6682  0.8580
 9448SOL     OW39979   2.741   1.250   8.844 -0.5528 -0.1398  0.0396
 9448SOL    HW139980   2.759   1.322   8.904 -1.1144 -0.1022  0.1576
 9448SOL    HW239981   2.827   1.217   8.818 -1.6017 -0.6275 -2.8435
 9449SOL     OW39982   4.549   0.568   2.018  0.0253  0.3097  0.5414
 9449SOL    HW139983   4.537   0.477   1.990  1.3279  0.7604 -1.4797
 9449SOL    HW239984   4.464   0.604   1.995  0.0381 -1.7592 -2.7922
 9450SOL     OW39985   2.188   3.256   5.636 -0.4309 -0.9194  0.2333
 9450SOL    HW139986   2.223   3.193   5.573  2.5759  0.3464  0.6479
 9450SOL    HW239987   2.150   3.201   5.705 -0.4716 -0.8029  0.3032
 9451SOL     OW39988   2.642   0.385  15.744  0.1295 -0.2961  0.0859
 9451SOL    HW139989   2.717   0.432  15.780  0.1605 -2.1499  2.4574
 9451SOL    HW239990   2.646   0.317  15.811  0.6062  0.4759  0.8298
 9452SOL     OW39991   3.687   0.260  16.608 -0.6517 -0.0420 -0.4048
 9452SOL    HW139992   3.647   0.319  16.545 -0.0858  0.4107 -0.3506
 9452SOL    HW239993   3.707   0.186  16.551 -0.4657 -1.0046  0.9059
 9453SOL     OW39994   3.452   3.463   8.630  0.0183  0.0531  0.3571
 9453SOL    HW139995   3.500   3.445   8.711 -1.0928 -1.3134  0.7006
 9453SOL    HW239996   3.479   3.555   8.621  0.3944 -0.1923 -1.0665
 9454SOL     OW39997   0.724   2.812  10.796  0.5788 -1.0715 -0.4983
 9454SOL    HW139998   0.662   2.754  10.840  1.7596 -0.7841  1.5484
 9454SOL    HW239999   0.715   2.879  10.864  2.1841 -1.6969  0.3261
 9455SOL     OW40000   2.507   4.509   4.529 -0.0214  0.6095 -0.4208
 9455SOL    HW140001   2.445   4.478   4.595 -0.3583  0.3971 -0.8323
 9455SOL    HW240002   2.591   4.469   4.551 -0.9509 -0.9057  0.3401
 9456SOL     OW40003   3.362   1.929   3.620  0.1251  0.7567 -0.9800
 9456SOL    HW140004   3.315   1.876   3.557  3.2522 -2.0828 -0.9291
 9456SOL    HW240005   3.334   2.017   3.595  0.6032  0.3982 -2.7535
 9457SOL     OW40006   3.042   4.616   9.244 -0.1192  0.3535 -0.4507
 9457SOL    HW140007   3.075   4.626   9.333 -0.5630 -1.4802 -0.0685
 9457SOL    HW240008   3.021   4.706   9.217 -1.2597  0.2135 -0.0436
 9458SOL     OW40009   4.075   4.236   8.125 -0.6758 -0.2592 -0.1213
 9458SOL    HW140010   4.163   4.249   8.158 -0.9505  2.4980 -0.5030
 9458SOL    HW240011   4.038   4.324   8.120 -0.2021 -0.1962 -2.2177
 9459SOL     OW40012   2.379   4.456   9.850 -0.3446  0.0879  0.2013
 9459SOL    HW140013   2.399   4.365   9.830  1.4390  0.4917  0.0530
 9459SOL    HW240014   2.324   4.434   9.925  0.2282 -1.9210  0.0236
 9460SOL     OW40015   2.028   0.866   8.957 -0.0526 -0.2797 -0.0361
 9460SOL    HW140016   1.956   0.922   8.986  1.0760  0.5040  1.2637
 9460SOL    HW240017   2.086   0.889   9.030  1.3082 -3.1235 -0.1971
 9461SOL     OW40018   2.501   4.709   1.960 -0.2450  0.3525 -0.6415
 9461SOL    HW140019   2.571   0.034   1.977 -0.4442  0.1881  0.8005
 9461SOL    HW240020   2.428   0.023   1.994 -0.2420 -1.2868  1.8572
 9462SOL     OW40021   2.736   0.374   3.689 -0.1437 -0.0717  0.1473
 9462SOL    HW140022   2.724   0.279   3.689  2.0908 -0.3576 -0.6671
 9462SOL    HW240023   2.646   0.402   3.707 -0.5882  0.2684 -2.5815
 9463SOL     OW40024   3.653   0.673   7.384 -0.6051  0.1815  0.8411
 9463SOL    HW140025   3.623   0.764   7.380 -1.6051 -0.2218 -0.7776
 9463SOL    HW240026   3.745   0.690   7.367 -1.5696  3.4612 -1.0539
 9464SOL     OW40027   0.111   4.173   3.523 -0.2494  0.5545 -0.4738
 9464SOL    HW140028   0.199   4.179   3.561  1.1366 -0.6718 -3.4691
 9464SOL    HW240029   0.125   4.103   3.459 -0.9925  1.6508 -1.8319
 9465SOL     OW40030   3.030   0.970   3.820  0.2657 -0.4341  0.1297
 9465SOL    HW140031   3.102   0.908   3.810  0.3264 -0.1978 -0.9057
 9465SOL    HW240032   2.997   0.972   3.730  1.6826 -0.4304 -0.3923
 9466SOL     OW40033   2.979   0.371   2.114  0.2305 -0.1694 -0.4382
 9466SOL    HW140034   2.894   0.383   2.157 -0.0408  0.8800 -1.2326
 9466SOL    HW240035   3.040   0.351   2.184 -1.4072 -0.7314  0.8325
 9467SOL     OW40036   0.288   2.710  16.300  0.2559 -0.0180 -0.0695
 9467SOL    HW140037   0.370   2.718  16.252  0.8244  0.7756  1.0403
 9467SOL    HW240038   0.307   2.630  16.349 -1.1843 -0.2352  0.1562
 9468SOL     OW40039   1.220   3.354   6.824  0.1365 -0.3238  0.1019
 9468SOL    HW140040   1.259   3.352   6.737  1.2869 -1.0809  0.6279
 9468SOL    HW240041   1.149   3.291   6.809 -2.0007  2.3426 -0.8180
 9469SOL     OW40042   1.168   1.686   6.208  0.3423  0.5520 -0.0098
 9469SOL    HW140043   1.247   1.704   6.260  1.2550  0.1747 -1.2535
 9469SOL    HW240044   1.121   1.769   6.218 -0.5096 -0.2883  3.0517
 9470SOL     OW40045   3.055   2.929   3.147 -0.0234 -0.1033 -0.2275
 9470SOL    HW140046   3.035   3.020   3.126 -0.1654  0.1549  1.0243
 9470SOL    HW240047   3.114   2.947   3.220  0.7972 -0.8747 -0.7062
 9471SOL     OW40048   1.868   3.348   8.016  0.7738 -0.0171 -0.0163
 9471SOL    HW140049   1.865   3.428   7.964  1.2317 -0.1302 -0.2134
 9471SOL    HW240050   1.946   3.316   7.971 -1.2030 -1.7107 -2.2579
 9472SOL     OW40051   2.029   3.337   7.045 -0.4347 -0.6420 -0.9396
 9472SOL    HW140052   1.999   3.269   6.984  0.5347  0.5984 -2.8036
 9472SOL    HW240053   1.954   3.326   7.103 -0.7250  1.2440 -0.9571
 9473SOL     OW40054   3.476   3.493   7.103 -0.2930  0.0011 -0.8068
 9473SOL    HW140055   3.546   3.479   7.167 -1.4280  0.5431  0.5584
 9473SOL    HW240056   3.508   3.445   7.027  1.3187 -2.6458  1.5607
 9474SOL     OW40057   4.134   0.548   4.421  0.3061  0.4222  0.3167
 9474SOL    HW140058   4.175   0.623   4.465  1.7566 -0.5169  0.5395
 9474SOL    HW240059   4.181   0.552   4.338 -1.3222  0.6497 -0.5943
 9475SOL     OW40060   0.944   2.500   0.705  0.0165  0.4550 -0.0524
 9475SOL    HW140061   0.936   2.585   0.662 -1.0175  1.2310  1.6762
 9475SOL    HW240062   0.917   2.439   0.637 -1.0330 -0.0926  0.8536
 9476SOL     OW40063   2.334   2.505   4.199  0.2452  0.5026 -0.5627
 9476SOL    HW140064   2.335   2.561   4.277 -1.6024 -2.0431  1.2902
 9476SOL    HW240065   2.242   2.486   4.183  0.0950 -0.1948  1.0786
 9477SOL     OW40066   4.447   4.026   5.164  0.4684 -0.5417 -0.3491
 9477SOL    HW140067   4.407   4.083   5.099  1.3137  0.1277 -0.2763
 9477SOL    HW240068   4.423   3.941   5.125 -0.8100  0.4233 -1.6712
 9478SOL     OW40069   3.528   0.078   6.176  0.3533 -0.1467  0.0721
 9478SOL    HW140070   3.533   0.157   6.122  0.7067  1.7934  2.9433
 9478SOL    HW240071   3.465   0.106   6.243 -0.1674  2.2879 -1.4715
 9479SOL     OW40072   0.897   0.451   1.626 -0.7144 -0.3860  0.3618
 9479SOL    HW140073   0.829   0.439   1.560  1.1466  2.4499 -2.0365
 9479SOL    HW240074   0.882   0.383   1.692  3.3038  0.5675  2.2344
 9480SOL     OW40075   0.508   4.212  16.475  0.0877  0.0511 -0.0420
 9480SOL    HW140076   0.532   4.263  16.398 -0.8074  0.0061 -0.3495
 9480SOL    HW240077   0.487   4.272  16.546  2.3024 -1.4963  1.9395
 9481SOL     OW40078   4.280   2.293   4.985 -0.9501 -0.1598 -0.7064
 9481SOL    HW140079   4.204   2.236   4.997 -0.1998 -0.8420  0.9061
 9481SOL    HW240080   4.314   2.287   5.075  0.6818  1.6296 -1.2198
 9482SOL     OW40081   3.630   1.714   6.834  0.4828  0.3615 -0.3185
 9482SOL    HW140082   3.642   1.677   6.746  2.1172 -0.6640  0.3416
 9482SOL    HW240083   3.537   1.739   6.833  0.3140 -0.2009  1.2643
 9483SOL     OW40084   3.923   3.855  12.341  0.1306 -0.1864 -0.3309
 9483SOL    HW140085   3.885   3.801  12.272 -0.9613  0.4411 -0.2244
 9483SOL    HW240086   4.005   3.811  12.361 -0.0388 -0.3451  0.0016
 9484SOL     OW40087   2.964   0.051   2.047 -0.1479 -0.3855  0.6212
 9484SOL    HW140088   2.937   4.700   2.021 -0.9939 -0.9214  3.3048
 9484SOL    HW240089   3.058   0.053   2.031 -0.3872  2.4601 -0.3357
 9485SOL     OW40090   2.956   2.114   5.635 -0.0846  0.1563 -0.6431
 9485SOL    HW140091   3.005   2.039   5.667 -1.0272 -0.5623 -0.8769
 9485SOL    HW240092   2.991   2.185   5.689  1.5372  0.1869 -1.7534
 9486SOL     OW40093   1.808   0.590   3.966 -0.5271  0.2384  0.4912
 9486SOL    HW140094   1.883   0.546   3.925  0.4561  1.3662  1.0934
 9486SOL    HW240095   1.773   0.521   4.022  0.2757 -0.2922  0.3383
 9487SOL     OW40096   2.211   2.258   3.095 -0.2507  0.5706 -0.0705
 9487SOL    HW140097   2.164   2.272   3.177  1.5529 -0.6790  1.1599
 9487SOL    HW240098   2.147   2.301   3.038 -1.6631  0.2665  1.2683
 9488SOL     OW40099   3.602   2.432   6.137  0.3229  0.2639 -1.0417
 9488SOL    HW140100   3.692   2.411   6.111  0.0828 -1.3605 -0.5649
 9488SOL    HW240101   3.580   2.503   6.076  0.1673  0.2157 -1.0419
 9489SOL     OW40102   0.134   2.158  17.593  0.1993  0.4300 -0.3309
 9489SOL    HW140103   0.165   2.247  17.608  2.4971 -0.7866  2.1688
 9489SOL    HW240104   0.043   2.164  17.563  0.5916 -0.4587 -1.6638
 9490SOL     OW40105   2.612   1.285   2.842  0.4454  0.1448 -0.5093
 9490SOL    HW140106   2.574   1.207   2.802 -1.6028  0.1362  1.4225
 9490SOL    HW240107   2.701   1.278   2.807  0.1696 -1.1877 -0.9355
 9491SOL     OW40108   4.176   2.097   3.941 -0.7963  0.1825 -0.6997
 9491SOL    HW140109   4.266   2.073   3.965 -1.2403 -1.6931 -0.8550
 9491SOL    HW240110   4.154   2.148   4.019  1.3447  2.1485 -1.3769
 9492SOL     OW40111   4.181   0.915   8.830 -0.0722  0.0053  0.2601
 9492SOL    HW140112   4.122   0.956   8.767  0.0821 -0.3214 -0.1003
 9492SOL    HW240113   4.164   0.964   8.911 -1.5653  0.7428 -0.5062
 9493SOL     OW40114   1.195   2.175   0.819 -0.4089 -0.3928 -0.3773
 9493SOL    HW140115   1.219   2.166   0.727  0.7620 -0.0634 -0.0925
 9493SOL    HW240116   1.277   2.140   0.854 -1.3156  1.1508  3.2711
 9494SOL     OW40117   0.482   2.055   2.833 -0.2564 -0.0252  0.1073
 9494SOL    HW140118   0.560   2.010   2.802 -0.6597 -1.0444  0.5984
 9494SOL    HW240119   0.521   2.140   2.856 -0.5601 -1.0118  4.3438
 9495SOL     OW40120   2.069   3.295   8.628  0.3840  0.5408  0.6404
 9495SOL    HW140121   2.003   3.289   8.697  1.8901 -2.6833  1.7892
 9495SOL    HW240122   2.012   3.249   8.566  0.9605  1.7743 -0.7949
 9496SOL     OW40123   0.195   1.039   6.946  0.1885 -0.0115  0.3429
 9496SOL    HW140124   0.159   1.108   7.002 -0.9990 -0.1709 -0.2129
 9496SOL    HW240125   0.116   1.003   6.905 -1.0691 -0.5475  3.2401
 9497SOL     OW40126   0.077   0.842   8.942  0.1854 -0.5980 -0.0255
 9497SOL    HW140127   0.052   0.775   9.006 -1.6936  0.2241  0.1009
 9497SOL    HW240128   0.018   0.834   8.868 -1.0162  1.7815  0.6846
 9498SOL     OW40129   3.836   2.913   3.103  0.0226 -0.7711  0.2605
 9498SOL    HW140130   3.915   2.940   3.150  0.1757 -1.0853  0.1832
 9498SOL    HW240131   3.844   2.967   3.024 -1.2309 -1.2939 -0.2076
 9499SOL     OW40132   3.949   4.331  10.548  0.1174  0.4875 -0.1159
 9499SOL    HW140133   3.979   4.409  10.595  0.5836 -0.8955  1.8869
 9499SOL    HW240134   3.994   4.354  10.467  2.8116 -2.0287  0.6516
 9500SOL     OW40135   2.437   1.662   3.929 -0.4994 -0.1021 -0.1101
 9500SOL    HW140136   2.496   1.607   3.981 -1.4930  0.5482  1.6879
 9500SOL    HW240137   2.408   1.602   3.860  1.2793 -0.9087 -0.1654
 9501SOL     OW40138   2.325   4.271   1.263  0.0346  0.2346  0.0395
 9501SOL    HW140139   2.321   4.316   1.347  0.0642  0.3658 -0.0303
 9501SOL    HW240140   2.389   4.335   1.233 -0.1542  1.2863  1.9093
 9502SOL     OW40141   0.680   3.896  11.994 -0.6111 -0.1528  0.4534
 9502SOL    HW140142   0.713   3.806  11.990 -0.0483  0.1140 -1.2367
 9502SOL    HW240143   0.587   3.885  12.009 -0.6995  0.2846  0.2456
 9503SOL     OW40144   2.622   0.544   4.993 -0.0018 -0.3118 -0.5232
 9503SOL    HW140145   2.577   0.477   5.045  2.5001 -2.3920 -1.0157
 9503SOL    HW240146   2.713   0.528   5.018  0.1312 -0.3396 -1.0271
 9504SOL     OW40147   0.595   1.263   7.315 -0.6468 -0.8707 -0.4377
 9504SOL    HW140148   0.524   1.230   7.370 -1.4951 -0.7073 -1.4220
 9504SOL    HW240149   0.568   1.354   7.306  1.0962 -0.3056  0.0995
 9505SOL     OW40150   2.134   0.183  16.936  0.3578 -0.4591 -0.2952
 9505SOL    HW140151   2.191   0.149  16.867  1.1324 -3.0333  1.6406
 9505SOL    HW240152   2.092   0.260  16.897 -0.0962 -0.9870 -0.8573
 9506SOL     OW40153   3.659   3.442   0.422 -0.0450 -0.3887 -0.2538
 9506SOL    HW140154   3.692   3.492   0.348  0.8181 -0.1991  0.2504
 9506SOL    HW240155   3.626   3.357   0.393 -1.2426  0.5636 -1.6208
 9507SOL     OW40156   0.540   4.192   8.465 -0.0849 -0.3999 -0.3646
 9507SOL    HW140157   0.633   4.168   8.472 -0.0436 -0.2376 -0.3573
 9507SOL    HW240158   0.504   4.104   8.471  0.4465 -0.4139  2.9265
 9508SOL     OW40159   1.191   4.259   0.539  0.3531 -0.7413 -0.1842
 9508SOL    HW140160   1.190   4.304   0.455 -1.4824  2.6495  1.6560
 9508SOL    HW240161   1.113   4.203   0.535 -0.4533  0.0310  4.0388
 9509SOL     OW40162   2.059   4.047   4.963  0.6222 -0.1681  0.4997
 9509SOL    HW140163   2.143   4.090   4.945 -0.0249  1.7898  2.2061
 9509SOL    HW240164   2.063   3.976   4.898 -0.1962  1.9741 -1.8775
 9510SOL     OW40165   1.007   0.636   6.035 -0.0807 -0.2398 -0.3151
 9510SOL    HW140166   1.090   0.624   5.989 -0.3378  1.1189 -1.1438
 9510SOL    HW240167   1.037   0.656   6.124 -2.4234  1.4263  0.0813
 9511SOL     OW40168   3.292   2.610   2.571  0.1494  0.6476  0.0475
 9511SOL    HW140169   3.349   2.626   2.646 -0.7668 -1.3197  1.1403
 9511SOL    HW240170   3.351   2.582   2.501  0.9380  0.3819  0.8274
 9512SOL     OW40171   4.169   2.655  17.376  0.0417 -0.6651 -0.1985
 9512SOL    HW140172   4.224   2.626  17.303 -0.6671 -0.1334 -0.9408
 9512SOL    HW240173   4.194   2.578  17.428 -2.3401 -1.6627 -0.5195
 9513SOL     OW40174   1.034   3.989  10.368  0.0268  0.3501  0.4555
 9513SOL    HW140175   1.080   3.945  10.439  0.9329 -0.6607 -0.7673
 9513SOL    HW240176   1.039   3.928  10.294  1.1885 -0.8240  1.5235
 9514SOL     OW40177   4.353   2.139   4.464  0.1399 -0.1508  0.4132
 9514SOL    HW140178   4.429   2.182   4.503  0.1170  1.2104 -1.0418
 9514SOL    HW240179   4.390   2.055   4.436 -0.8575  0.3210 -2.3420
 9515SOL     OW40180   3.655   3.437   4.780 -0.5484  0.3013  0.1555
 9515SOL    HW140181   3.703   3.355   4.765 -1.7765 -0.7365  1.9207
 9515SOL    HW240182   3.733   3.489   4.799  0.4203 -0.6194 -1.2532
 9516SOL     OW40183   1.084   0.967  17.129  0.3682 -0.5301 -0.1135
 9516SOL    HW140184   1.111   0.941  17.217  0.8711 -1.5748 -0.5755
 9516SOL    HW240185   1.121   0.898  17.073 -0.3015 -1.8023  1.0128
 9517SOL     OW40186   1.311   1.049   7.041  0.2153 -0.6015  0.2310
 9517SOL    HW140187   1.237   1.001   7.004 -0.2698 -0.0804  0.5247
 9517SOL    HW240188   1.368   1.031   6.966  1.7358 -0.8882  1.4509
 9518SOL     OW40189   2.340   0.203  14.151  0.3536  0.0628 -0.5624
 9518SOL    HW140190   2.302   0.219  14.064  1.4282  0.3649 -0.9774
 9518SOL    HW240191   2.386   0.122  14.130  0.5795 -0.5041  2.0745
 9519SOL     OW40192   4.660   1.468   7.901  0.1473  0.1371 -0.0245
 9519SOL    HW140193   4.671   1.544   7.957 -0.0945  1.1565 -1.3754
 9519SOL    HW240194   4.714   1.403   7.946  1.1710  2.4219  2.0030
 9520SOL     OW40195   1.518   1.631   7.167  0.4713 -0.2122 -0.0506
 9520SOL    HW140196   1.550   1.641   7.257  0.0738  2.5355 -0.2078
 9520SOL    HW240197   1.427   1.642   7.196  0.4533 -2.0556  0.5618
 9521SOL     OW40198   2.448   1.048  12.031  0.5851  0.1284  0.1158
 9521SOL    HW140199   2.371   1.095  12.063  0.1463 -1.6415  1.6716
 9521SOL    HW240200   2.440   1.064  11.937  1.6902 -0.3181 -0.0519
 9522SOL     OW40201   0.441   3.933   2.398 -0.0426 -0.0945 -0.2816
 9522SOL    HW140202   0.366   3.877   2.378 -1.6797  1.9716 -0.0781
 9522SOL    HW240203   0.435   4.005   2.335  0.4154  0.3159  0.1436
 9523SOL     OW40204   4.126   0.816  10.247  0.1509 -0.0449  0.1129
 9523SOL    HW140205   4.184   0.889  10.225 -0.1863  0.1758 -0.0326
 9523SOL    HW240206   4.182   0.743  10.218 -1.9737 -1.1470 -1.1528
 9524SOL     OW40207   0.455   4.017   4.483 -0.7387  0.2328 -0.3098
 9524SOL    HW140208   0.382   3.985   4.536 -0.5758  1.7089  0.7995
 9524SOL    HW240209   0.402   4.066   4.420  0.2606  0.6026 -0.8458
 9525SOL     OW40210   4.062   3.755   2.875 -0.0263 -0.4115  0.1971
 9525SOL    HW140211   3.996   3.758   2.805  0.0824  2.0791  0.2151
 9525SOL    HW240212   4.009   3.749   2.955  0.6357 -1.3919  0.5643
 9526SOL     OW40213   2.597   0.660   6.285  0.2234  0.2198 -0.0324
 9526SOL    HW140214   2.668   0.596   6.286 -2.3226 -2.5651 -0.5868
 9526SOL    HW240215   2.527   0.600   6.262  0.1683  0.6895 -1.0805
 9527SOL     OW40216   0.312   1.320   8.307  0.1486 -0.0417  0.0185
 9527SOL    HW140217   0.361   1.364   8.376  1.6765 -1.2207 -0.3216
 9527SOL    HW240218   0.380   1.261   8.274 -0.3490 -1.0648  0.7942
 9528SOL     OW40219   4.258   4.628   7.066 -0.2087 -0.3481  0.0894
 9528SOL    HW140220   4.332   4.607   7.010  2.2131  0.2674  3.0609
 9528SOL    HW240221   4.186   4.580   7.024 -0.2673 -0.3119  0.1477
 9529SOL     OW40222   2.503   2.703   6.155 -0.0746  0.3052  0.0998
 9529SOL    HW140223   2.424   2.679   6.106  0.6882 -2.3634  0.1992
 9529SOL    HW240224   2.498   2.637   6.224 -0.6418 -1.0908 -1.2935
 9530SOL     OW40225   0.113   4.655   7.750  0.2733  0.2901 -0.1025
 9530SOL    HW140226   0.098   4.649   7.656  1.4651  0.4677 -0.3116
 9530SOL    HW240227   0.208   4.672   7.752  0.3107  0.0580  0.0662
 9531SOL     OW40228   4.409   3.867  16.212  1.0404  0.0623 -0.0199
 9531SOL    HW140229   4.439   3.817  16.289 -0.5711 -0.0847  0.5023
 9531SOL    HW240230   4.324   3.890  16.250  1.9186  0.0512  1.9887
 9532SOL     OW40231   4.469   0.670   4.694  0.2211  0.1955  0.3234
 9532SOL    HW140232   4.443   0.615   4.768 -1.7836  0.1631 -0.4287
 9532SOL    HW240233   4.530   0.728   4.740  0.6385 -0.6844  0.8908
 9533SOL     OW40234   3.043   0.036   8.540 -0.2440  0.0962 -0.1867
 9533SOL    HW140235   2.990   0.106   8.503 -0.0272 -0.2671 -1.1920
 9533SOL    HW240236   3.135   0.062   8.534 -0.5631  0.7018 -2.4856
 9534SOL     OW40237   3.614   2.148   8.756 -0.4210 -0.0712 -0.2341
 9534SOL    HW140238   3.624   2.088   8.682  1.2803 -0.0879 -0.0034
 9534SOL    HW240239   3.682   2.213   8.735  0.4903  0.1582  3.3758
 9535SOL     OW40240   3.042   3.294   7.389  0.3536 -0.4308  0.1663
 9535SOL    HW140241   3.062   3.270   7.479  0.7728 -0.8513 -0.0375
 9535SOL    HW240242   3.132   3.304   7.356  0.9233 -0.8593  1.6126
 9536SOL     OW40243   2.025   2.299   6.157 -0.8308  0.1242  0.1514
 9536SOL    HW140244   2.045   2.208   6.179 -0.7145 -0.4519 -2.3598
 9536SOL    HW240245   2.111   2.336   6.177 -1.0952  1.3784 -1.0770
 9537SOL     OW40246   0.992   1.219  12.417  0.1102  0.1677 -0.4156
 9537SOL    HW140247   0.993   1.135  12.463  0.7843  0.4865  0.1494
 9537SOL    HW240248   1.081   1.233  12.382  0.1922 -1.7085 -0.9435
 9538SOL     OW40249   0.132   0.922   7.640  0.0628  0.3978 -0.1192
 9538SOL    HW140250   0.195   0.995   7.637  2.1265 -1.3966 -0.4013
 9538SOL    HW240251   0.117   0.904   7.547 -1.9312 -1.1714  0.5294
 9539SOL     OW40252   2.828   3.012   7.459 -0.2146  0.6310  0.7560
 9539SOL    HW140253   2.752   3.032   7.514 -0.4031 -0.0192  0.7327
 9539SOL    HW240254   2.824   3.076   7.388  0.6744  0.4378  0.5278
 9540SOL     OW40255   2.378   3.186   0.735 -0.5114 -0.1890 -0.6793
 9540SOL    HW140256   2.426   3.199   0.817 -2.1594  1.4357  0.0304
 9540SOL    HW240257   2.447   3.204   0.672  1.2586 -0.8260  1.0610
 9541SOL     OW40258   1.058   0.406  11.964 -0.0204  0.3585 -0.5373
 9541SOL    HW140259   1.104   0.323  11.972  0.8721  0.6226 -3.0831
 9541SOL    HW240260   1.106   0.448  11.892  3.1630 -3.0472 -0.3945
 9542SOL     OW40261   3.959   1.826   9.283 -0.3203  0.2038  0.0416
 9542SOL    HW140262   3.964   1.832   9.188 -1.6931 -0.9632 -0.1128
 9542SOL    HW240263   4.047   1.855   9.305  1.0090 -3.3753 -0.6079
 9543SOL     OW40264   3.078   3.560   3.084 -0.4521  0.0620 -0.4372
 9543SOL    HW140265   3.062   3.653   3.100 -0.7314  0.3094 -2.1463
 9543SOL    HW240266   3.119   3.534   3.166  0.6520  0.6919 -0.7988
 9544SOL     OW40267   3.958   2.816   2.501  0.0622 -0.0768  0.6899
 9544SOL    HW140268   4.044   2.824   2.460 -0.8080  1.1507 -0.9167
 9544SOL    HW240269   3.898   2.856   2.437  0.7442 -0.0685  0.0578
 9545SOL     OW40270   0.495   2.013   3.435 -0.0758  0.0074 -0.0595
 9545SOL    HW140271   0.551   1.985   3.362 -0.4853  0.6383 -0.6158
 9545SOL    HW240272   0.448   2.087   3.398 -0.2444  1.2531  2.6738
 9546SOL     OW40273   1.960   2.052   5.304 -0.4365 -0.1419 -0.1992
 9546SOL    HW140274   1.886   2.104   5.334  0.6509  1.5148 -0.4038
 9546SOL    HW240275   2.009   2.049   5.386  0.4000  2.1062 -0.6171
 9547SOL     OW40276   4.441   0.458   3.079 -0.2443 -0.0583 -0.5683
 9547SOL    HW140277   4.489   0.460   3.162 -1.3676  1.2303  0.0417
 9547SOL    HW240278   4.506   0.499   3.023  0.0435  0.7478  0.3522
 9548SOL     OW40279   1.225   2.705  15.793 -0.2827 -0.3966  0.0492
 9548SOL    HW140280   1.204   2.767  15.724 -2.8341 -0.2934  0.9291
 9548SOL    HW240281   1.220   2.759  15.873  2.5723 -0.3320  0.1853
 9549SOL     OW40282   3.923   0.105   3.750 -0.1434 -0.3649  0.5874
 9549SOL    HW140283   3.944   0.191   3.787  5.1466 -1.3996 -0.0496
 9549SOL    HW240284   3.973   0.088   3.670  0.1228  2.2993  0.1957
 9550SOL     OW40285   3.536   2.149   3.852  0.3163 -0.1858 -0.0685
 9550SOL    HW140286   3.456   2.100   3.836 -0.1534 -0.0384  1.8931
 9550SOL    HW240287   3.502   2.198   3.927  0.0169  0.4856 -0.6441
 9551SOL     OW40288   4.043   1.788   2.975  0.4883  0.0125 -0.1068
 9551SOL    HW140289   4.071   1.759   2.888  0.9247 -0.7109  0.2713
 9551SOL    HW240290   4.118   1.826   3.020  0.1867  2.5812 -1.7912
 9552SOL     OW40291   2.149   2.588   8.295 -0.1105 -0.4181 -0.0716
 9552SOL    HW140292   2.204   2.515   8.323  0.7011 -0.1839 -1.0303
 9552SOL    HW240293   2.075   2.542   8.256  0.1918 -2.3216  1.5908
 9553SOL     OW40294   2.257   4.229   7.967 -0.5538 -0.2279  0.2498
 9553SOL    HW140295   2.343   4.206   7.931 -0.5440 -2.7921  1.9604
 9553SOL    HW240296   2.256   4.322   7.946  1.1022 -0.2489  0.0663
 9554SOL     OW40297   3.194   4.206  13.077  0.4099 -0.0875 -0.4723
 9554SOL    HW140298   3.132   4.273  13.104 -1.1405 -2.8538  2.7743
 9554SOL    HW240299   3.246   4.196  13.157 -0.9702 -2.3197  0.1255
 9555SOL     OW40300   2.215   1.537   3.111 -0.1502 -0.3607  0.2288
 9555SOL    HW140301   2.280   1.467   3.121  1.3803  1.3571  2.2529
 9555SOL    HW240302   2.261   1.580   3.039  0.1450  1.5984  1.6038
 9556SOL     OW40303   0.484   2.530   5.802 -0.5346  0.0686  0.3391
 9556SOL    HW140304   0.449   2.563   5.719  1.9559 -1.8189 -1.4706
 9556SOL    HW240305   0.434   2.580   5.867  0.2396  0.9758  0.2305
 9557SOL     OW40306   1.253   4.417   6.569 -0.0134 -0.3789  0.1292
 9557SOL    HW140307   1.162   4.413   6.596 -0.3628 -1.0182 -1.1404
 9557SOL    HW240308   1.254   4.512   6.558  0.5163 -0.4516 -0.4525
 9558SOL     OW40309   0.731   1.552   5.597  0.4029  1.3203 -0.2855
 9558SOL    HW140310   0.684   1.514   5.671 -0.6689  1.7820 -0.7393
 9558SOL    HW240311   0.782   1.630   5.619  2.7639 -0.1914 -0.2831
 9559SOL     OW40312   3.681   3.462   1.978 -0.2240 -0.3437 -0.9244
 9559SOL    HW140313   3.611   3.462   1.913 -0.2830  1.0651 -0.8540
 9559SOL    HW240314   3.723   3.378   1.956 -0.0140 -0.9815  1.9505
 9560SOL     OW40315   1.128   3.572   6.222 -0.0999  0.1369 -0.1003
 9560SOL    HW140316   1.046   3.548   6.265  0.4884  1.0314  1.5438
 9560SOL    HW240317   1.123   3.666   6.241  0.8484  0.2327 -0.2973
 9561SOL     OW40318   0.710   2.244  12.167  0.1600  0.2897 -0.4757
 9561SOL    HW140319   0.770   2.189  12.116 -1.2219  0.5546 -2.3812
 9561SOL    HW240320   0.743   2.224  12.255 -0.1556 -1.2764 -0.7198
 9562SOL     OW40321   4.318   0.861   5.817 -0.0860  0.7398 -0.1264
 9562SOL    HW140322   4.239   0.916   5.814 -1.6936 -1.7529 -3.0713
 9562SOL    HW240323   4.381   0.907   5.762 -0.6107  0.9026 -0.5848
 9563SOL     OW40324   4.420   0.138   1.276 -0.3757  0.7133  0.5593
 9563SOL    HW140325   4.388   0.049   1.263 -0.1806  0.7492 -0.1668
 9563SOL    HW240326   4.493   0.136   1.214 -0.7122  0.1581  0.1792
 9564SOL     OW40327   0.670   3.672   6.559 -0.1399  0.0203 -0.0943
 9564SOL    HW140328   0.589   3.627   6.535 -0.2560  0.2019 -0.0360
 9564SOL    HW240329   0.711   3.618   6.626 -0.9951  2.2192  2.1943
 9565SOL     OW40330   1.531   2.333   9.990  0.4523  0.1146  0.2142
 9565SOL    HW140331   1.457   2.282  10.025  0.5286  0.1322  0.3994
 9565SOL    HW240332   1.496   2.356   9.904 -1.6925 -1.4880  0.6471
 9566SOL     OW40333   0.430   3.042  12.210  0.6180  0.6316 -1.0264
 9566SOL    HW140334   0.440   3.069  12.119  1.2988 -0.7548 -1.3605
 9566SOL    HW240335   0.349   2.998  12.185 -0.0679  1.6007 -0.5120
 9567SOL     OW40336   2.754   0.801   5.071  0.4673 -0.2058 -0.1860
 9567SOL    HW140337   2.830   0.785   5.127 -1.2216  1.2826  2.4567
 9567SOL    HW240338   2.724   0.710   5.065 -0.4565  0.1336 -0.6424
 9568SOL     OW40339   0.253   0.260  15.069 -0.0650  0.4967  0.5063
 9568SOL    HW140340   0.346   0.243  15.056 -0.3373  0.2887 -1.1268
 9568SOL    HW240341   0.220   0.171  15.077  3.1656 -0.7031  0.4883
 9569SOL     OW40342   3.451   3.798   4.285  0.3465 -0.1580  0.0900
 9569SOL    HW140343   3.391   3.857   4.238 -0.6496  0.3881  1.9980
 9569SOL    HW240344   3.510   3.767   4.217  0.5668 -0.7350  0.5427
   4.73739   4.73739  17.74783
