Membrane in water
40344
    1TMC1    C1    1   3.664   0.328  11.549  0.1758  0.4922 -0.1369
    1TMC1    C2    2   3.554   0.391  11.601 -0.0457 -0.3123 -0.5070
    1TMC1    C3    3   3.542   0.527  11.593  0.5376  0.0891 -0.4194
    1TMC1    C4    4   3.774   0.390  11.499  0.0111  0.2521  0.1692
    1TMC1    C5    5   3.757   0.532  11.485  0.3696  0.1502  0.5995
    1TMC1    C6    6   3.643   0.598  11.529 -0.5198  0.4945 -0.0725
    1TMC1     C    7   3.650   0.188  11.507  0.2152 -0.4270 -0.3713
    1TMC1     O    8   3.537   0.146  11.493  0.2050 -0.3457 -0.0260
    1TMC1     H    9   3.479   0.333  11.652  0.5749  0.0982  0.8875
    1TMC1    H1   10   3.857   0.335  11.456 -2.6171 -1.8645 -2.1355
    1TMC1    H2   11   3.632   0.706  11.520  1.9219  0.7902  0.4983
    1TMC1    C7   12   3.872   0.611  11.508  0.2268  1.0368 -0.4412
    1TMC1    C8   13   3.431   0.596  11.648 -0.3671 -0.1790 -0.0725
    1TMC1    O1   14   3.960   0.551  11.572 -0.9055 -0.1586  0.0084
    1TMC1    O2   15   3.427   0.715  11.674  0.1186  0.5232  0.2816
    1TMC1    O3   16   3.883   0.684  11.395 -0.5268  0.2844  0.1671
    1TMC1    H3   17   3.795   0.700  11.356 -1.0344 -2.5382  0.1719
    1TMC1    O5   18   3.317   0.523  11.631 -0.2355  0.4239 -0.5443
    1TMC1    H5   19   3.320   0.444  11.573 -1.2459  0.7291 -1.0313
    2MPD2     C   20   3.842   4.443  11.445  0.3747  0.1214 -0.2854
    2MPD2    C1   21   3.718   4.491  11.410  0.7949 -0.7799  0.0421
    2MPD2    C2   22   3.680   4.623  11.426  0.7749  0.2661  0.2587
    2MPD2    C3   23   3.781   4.716  11.485  0.0998 -0.3157 -0.3074
    2MPD2    C4   24   3.904   4.659  11.510 -0.2618 -0.5014  0.4483
    2MPD2    C5   25   3.931   4.531  11.488  0.3584  0.7115 -1.0075
    2MPD2     H   26   3.586   4.659  11.387  0.6788 -0.2056  0.0597
    2MPD2    H1   27   3.984   4.717  11.555 -0.8093  2.0067 -1.7907
    2MPD2    H2   28   3.875   4.343  11.421  1.2351  1.2308 -3.7694
    2MPD2    H3   29   4.025   4.485  11.515 -0.2823 -0.5770 -0.9633
    2MPD2     N   30   3.762   0.113  11.525 -0.1984  0.2917  0.5597
    2MPD2    H5   31   3.849   0.156  11.553 -0.9339  2.4953 -0.5638
    2MPD2    N1   32   3.620   4.420  11.344 -0.0409  0.1786 -0.1655
    2MPD2    H7   33   3.530   4.464  11.326  0.4671  0.5887 -1.6118
    3TMC1    C1   34   2.755   0.695  10.315 -0.7147  0.0191 -0.3922
    3TMC1    C2   35   2.697   0.579  10.271 -0.1876  0.0304  0.2465
    3TMC1    C3   36   2.778   0.489  10.207  0.1039  0.1848  0.2150
    3TMC1    C4   37   2.882   0.725  10.275 -0.3976  0.1858 -0.2610
    3TMC1    C5   38   2.952   0.632  10.203 -0.2527 -0.1451 -0.6900
    3TMC1    C6   39   2.906   0.514  10.166  0.3713 -0.0563 -0.5924
    3TMC1     C   40   2.688   0.786  10.401 -1.0520 -0.2351  0.6139
    3TMC1     O   41   2.717   0.905  10.392 -0.4983 -0.4892  0.0595
    3TMC1     H   42   2.595   0.546  10.283 -0.3847  0.2172 -0.9341
    3TMC1    H1   43   2.932   0.810  10.320 -1.4597  0.3560  0.5990
    3TMC1    H2   44   2.976   0.449  10.115  0.2479  0.9127 -1.9696
    3TMC1    C7   45   3.082   0.668  10.160 -0.1784 -1.3693  0.6466
    3TMC1    C8   46   2.717   0.367  10.161  0.0438 -0.1735 -0.2537
    3TMC1    O1   47   3.183   0.597  10.172  0.0130 -0.5412 -0.4396
    3TMC1    O2   48   2.779   0.296  10.082 -0.3386  0.1431 -0.7919
    3TMC1    O3   49   3.076   0.800  10.137 -0.3326  0.0909 -0.3514
    3TMC1    H3   50   2.988   0.842  10.138 -1.5219 -2.3808 -1.2048
    3TMC1    O5   51   2.639   0.324  10.262 -0.2917 -0.3683  0.4301
    3TMC1    H5   52   2.615   0.398  10.322 -0.2312  0.1981 -0.2407
    4MPD2     C   53   2.312   0.902  10.734 -0.3830  0.3936  0.0524
    4MPD2    C1   54   2.411   0.979  10.676 -0.3381 -0.2289  0.5619
    4MPD2    C2   55   2.508   0.921  10.594  0.0687 -0.3940 -1.0066
    4MPD2    C3   56   2.494   0.788  10.547 -0.1045  0.2465 -0.2129
    4MPD2    C4   57   2.388   0.714  10.604 -0.5984 -0.7521 -0.4625
    4MPD2    C5   58   2.301   0.769  10.700  0.3002  0.8450  0.0795
    4MPD2     H   59   2.586   0.986  10.557 -0.5471 -0.7172 -2.8454
    4MPD2    H1   60   2.363   0.614  10.573 -2.5682 -0.4080  0.0018
    4MPD2    H2   61   2.237   0.938  10.803 -2.5259  2.4578 -3.3642
    4MPD2    H3   62   2.219   0.708  10.736  0.0647  0.4945 -1.0364
    4MPD2     N   63   2.595   0.721  10.477 -0.4877 -0.8714 -0.2075
    4MPD2    H5   64   2.580   0.621  10.476  0.1758 -0.9547 -0.9500
    4MPD2    N1   65   2.428   1.116  10.701  0.4010 -0.0078 -0.2860
    4MPD2    H7   66   2.497   1.168  10.648  1.5637 -2.7827 -1.5189
    5TCq1    O1   67   3.462   2.154  11.613  0.4274 -0.1006  0.2945
    5TCq1    C1   68   3.444   2.139  11.481  0.8330  0.2527  0.2377
    5TCq1    O2   69   3.530   2.106  11.399 -0.3872  1.0369 -0.9207
    5TCq1    C2   70   3.329   2.217  11.435 -0.3766  0.4607  0.3342
    5TCq1    C3   71   3.258   2.294  11.521 -0.1472 -0.2242  0.7640
    5TCq1    C4   72   3.159   2.375  11.463 -0.1506  0.7900  0.4766
    5TCq1    C5   73   3.126   2.373  11.334 -0.0647  0.1804  0.0521
    5TCq1    C6   74   3.205   2.296  11.252  0.5613  0.0054  1.1420
    5TCq1    C7   75   3.309   2.222  11.301 -0.2639 -0.2203  0.0043
    5TCq1    C8   76   3.197   2.295  11.108 -0.5810 -0.1492 -0.0453
    5TCq1    O4   77   3.271   2.224  11.047 -0.3665  0.0390 -0.2084
    5TCq1    C9   78   3.079   2.448  11.552  0.1211  0.4787 -0.2564
    5TCq1    O5   79   3.128   2.501  11.659 -0.1290 -0.3495  0.1246
    5TCq1    O6   80   2.954   2.449  11.522 -0.3837  0.1690 -0.0448
    5TCq1    H1   81   3.381   2.157  11.668  0.9474 -1.9283  1.1331
    5TCq1    H2   82   3.264   2.299  11.629  1.0024 -1.1123  0.7283
    5TCq1    H3   83   3.033   2.416  11.297 -1.8493 -1.8177  2.2216
    5TCq1    H4   84   3.376   2.169  11.234  1.3744  0.1602  1.3510
    6MPD2     C   85   3.050   2.577  10.915 -0.0757  0.4176 -0.0697
    6MPD2    C1   86   3.119   2.457  10.936  0.3393  0.7285 -0.2868
    6MPD2    C2   87   3.191   2.404  10.825  0.3620  0.4743  0.0590
    6MPD2    C3   88   3.196   2.467  10.701 -0.4984  0.1500  0.3012
    6MPD2    C4   89   3.116   2.585  10.690  0.0461 -0.3038  0.1377
    6MPD2    C5   90   3.045   2.637  10.793  0.3869  0.1616  0.4521
    6MPD2     H   91   3.247   2.313  10.843 -1.0873 -0.8600 -2.1265
    6MPD2    H1   92   3.112   2.644  10.599 -2.9470  1.2334  1.2809
    6MPD2    H2   93   2.995   2.628  10.992  0.6658  1.6859 -0.3874
    6MPD2    H3   94   2.980   2.722  10.775  0.6442  0.4604  0.9242
    6MPD2     N   95   3.263   2.412  10.583  1.0879  0.1016 -0.1344
    6MPD2    H5   96   3.314   2.324  10.591 -0.6355 -0.7257  1.8978
    6MPD2    N1   97   3.127   2.404  11.070  0.1967 -0.4108 -0.1951
    6MPD2    H7   98   3.063   2.450  11.134  1.0336 -1.8941  1.7258
    7TCq1    O1   99   4.416   2.064  13.190 -0.0232 -0.1105 -0.0239
    7TCq1    C1  100   4.538   2.001  13.173  0.6268 -0.4285 -0.3291
    7TCq1    O2  101   4.652   2.051  13.172 -0.4307 -0.2252 -0.5712
    7TCq1    C2  102   4.524   1.859  13.216 -0.7348  1.1516 -0.3299
    7TCq1    C3  103   4.421   1.823  13.302 -0.1815 -0.7985 -0.3233
    7TCq1    C4  104   4.426   1.696  13.347  0.3720 -0.4979  0.2344
    7TCq1    C5  105   4.518   1.606  13.306 -0.0989 -0.2925 -0.8918
    7TCq1    C6  106   4.625   1.645  13.219 -0.1906  0.9945 -0.6965
    7TCq1    C7  107   4.625   1.779  13.169 -0.1959 -0.0194  0.4399
    7TCq1    C8  108   0.004   1.560  13.205 -0.3554  0.0699 -0.3470
    7TCq1    O4  109   0.017   1.467  13.281  0.0938  0.6051  0.1024
    7TCq1    C9  110   4.313   1.653  13.419  0.1608  0.1487 -0.1018
    7TCq1    O5  111   4.311   1.529  13.449 -0.3885 -0.3308  0.3466
    7TCq1    O6  112   4.236   1.739  13.475 -0.2181 -0.2175 -0.5992
    7TCq1    H1  113   4.342   2.002  13.174  2.2032 -2.6003 -0.8013
    7TCq1    H2  114   4.343   1.890  13.335 -0.4018 -0.3084 -1.8868
    7TCq1    H3  115   4.527   1.506  13.345  0.7826  0.1619  0.0884
    7TCq1    H4  116   4.702   1.823  13.107  0.2932  1.6114  2.2116
    8MPD2     C  117   0.189   1.273  12.833  0.6856  0.6042  0.1969
    8MPD2    C1  118   0.129   1.236  12.952 -0.3715 -0.3171  0.1694
    8MPD2    C2  119   0.103   1.335  13.038 -0.2262 -1.0029  0.2001
    8MPD2    C3  120   0.109   1.470  13.000  0.0102  0.1447  0.3054
    8MPD2    C4  121   0.173   1.502  12.883  0.7263 -0.1992  0.6918
    8MPD2    C5  122   0.209   1.408  12.797  0.1499  0.3242 -0.4796
    8MPD2     H  123   0.057   1.314  13.134 -0.9781  1.2046  0.3177
    8MPD2    H1  124   0.190   1.605  12.854 -0.8403  0.0784  0.7503
    8MPD2    H2  125   0.216   1.193  12.765  0.2308 -0.9136  1.7924
    8MPD2    H3  126   0.264   1.424  12.705  0.5837 -0.8124 -0.4208
    8MPD2     N  127   0.054   1.574  13.080 -0.2572 -0.5175 -0.1673
    8MPD2    H5  128   0.051   1.664  13.033 -0.8417 -0.2688  0.3423
    8MPD2    N1  129   0.112   1.098  12.983 -0.0856 -0.1468  0.0070
    8MPD2    H7  130   0.081   1.077  13.078  2.8179 -2.5050  0.4412
    9TMC1    C1  131   3.338   1.176  11.059 -0.8338 -0.2742  0.4436
    9TMC1    C2  132   3.435   1.077  11.069 -0.4271  0.3760  0.3991
    9TMC1    C3  133   3.561   1.102  11.016  0.1146 -0.9866  0.4953
    9TMC1    C4  134   3.359   1.291  10.992  0.8222 -0.5689  0.3041
    9TMC1    C5  135   3.481   1.308  10.926 -0.1956  0.0577 -0.1855
    9TMC1    C6  136   3.584   1.218  10.944  0.6642  0.7642 -0.0256
    9TMC1     C  137   3.213   1.168  11.124  0.0746 -0.0777  0.6942
    9TMC1     O  138   3.158   1.277  11.139  1.3956 -0.1307 -0.2556
    9TMC1     H  139   3.419   0.991  11.133  1.0089  0.1513  0.4517
    9TMC1    H1  140   3.277   1.359  10.971  1.1727  0.1433  1.2302
    9TMC1    H2  141   3.671   1.238  10.883  0.3839 -0.2599 -0.7437
    9TMC1    C7  142   3.496   1.443  10.868  0.0286  0.3530 -0.2721
    9TMC1    C8  143   3.644   0.984  11.004 -0.2127  0.2408 -0.4315
    9TMC1    O1  144   3.407   1.527  10.879  0.0485 -0.0159 -0.0525
    9TMC1    O2  145   3.591   0.876  10.972 -0.4850  0.3774 -0.2792
    9TMC1    O3  146   3.600   1.447  10.782 -0.4451 -0.0900  0.2258
    9TMC1    H3  147   3.673   1.387  10.810  0.4493  0.9449  0.1013
    9TMC1    O5  148   3.761   1.026  10.971 -0.0283  0.2893 -0.3126
    9TMC1    H5  149   3.782   1.113  11.009  1.1844  1.0181 -2.6557
   10MPD2     C  150   2.940   1.103  11.244 -0.1478 -0.8062  1.1703
   10MPD2    C1  151   3.036   1.005  11.210  0.1822 -0.3451  0.7313
   10MPD2    C2  152   3.002   0.871  11.236 -0.1678  0.3178  0.4209
   10MPD2    C3  153   2.876   0.838  11.264 -0.6345 -0.0643  0.4337
   10MPD2    C4  154   2.786   0.941  11.298 -0.7533  0.0651  0.4100
   10MPD2    C5  155   2.819   1.072  11.285 -0.1906  0.4893  0.2462
   10MPD2     H  156   3.067   0.789  11.207  1.5707  2.3700 -1.5700
   10MPD2    H1  157   2.686   0.914  11.330 -1.5438  1.3964 -0.9580
   10MPD2    H2  158   2.948   1.210  11.226  1.6635 -1.2196 -0.4153
   10MPD2    H3  159   2.751   1.154  11.303  1.1433  1.8892 -1.1479
   10MPD2     N  160   2.822   0.706  11.266 -0.2796  0.6377 -0.6817
   10MPD2    H5  161   2.730   0.698  11.308  0.6874 -0.0660  1.3184
   10MPD2    N1  162   3.167   1.039  11.154 -0.2735 -0.2828 -0.0781
   10MPD2    H7  163   3.223   0.959  11.127 -1.3454 -0.7699 -0.8550
   11TCq1    O1  164   3.355   4.408  13.452  0.2566 -0.1347  0.1833
   11TCq1    C1  165   3.352   4.540  13.429 -0.3377  0.4140  0.0995
   11TCq1    O2  166   3.419   4.595  13.334  0.2871  0.1273  0.0960
   11TCq1    C2  167   3.295   4.617  13.540 -0.2987 -0.0241 -0.1818
   11TCq1    C3  168   3.364   4.724  13.583  0.1979  0.7702  0.1531
   11TCq1    C4  169   3.320   0.065  13.684  0.3437 -0.8242  0.7911
   11TCq1    C5  170   3.198   0.036  13.738 -0.1836 -0.3014  1.3177
   11TCq1    C6  171   3.137   4.655  13.701  0.2959 -0.5862  0.2678
   11TCq1    C7  172   3.173   4.580  13.591 -0.5593  0.4502  0.5238
   11TCq1    C8  173   3.003   4.638  13.751 -0.1647 -0.7093 -0.6034
   11TCq1    O4  174   2.956   4.724  13.824 -0.4314  0.4922 -0.0526
   11TCq1    C9  175   3.397   0.182  13.734 -0.3622  0.5027 -0.4298
   11TCq1    O5  176   3.379   0.214  13.857 -0.3118 -0.4486  0.2497
   11TCq1    O6  177   3.494   0.225  13.665 -0.9120 -0.0493  0.3314
   11TCq1    H1  178   3.302   4.386  13.531 -0.2948  0.2022 -0.0988
   11TCq1    H2  179   3.461   0.013  13.541  0.4065 -0.7501 -0.2204
   11TCq1    H3  180   3.182   0.080  13.836 -1.1427  1.9984  0.1338
   11TCq1    H4  181   3.124   4.488  13.562 -0.2857  0.5923 -0.3948
   12MPD2     C  182   2.738   4.535  13.827 -0.4272  0.1810 -1.1870
   12MPD2    C1  183   2.841   4.451  13.798 -0.3094  0.0469 -0.3163
   12MPD2    C2  184   2.824   4.315  13.810  0.0867  0.8208 -0.1726
   12MPD2    C3  185   2.702   4.263  13.867  0.2016  0.0106  1.0030
   12MPD2    C4  186   2.600   4.351  13.895  0.5305  0.3513  0.1404
   12MPD2    C5  187   2.623   4.486  13.880 -0.6502 -0.1290  0.1310
   12MPD2     H  188   2.902   4.244  13.783 -1.5225 -1.1422  0.3161
   12MPD2    H1  189   2.500   4.320  13.923  0.7802  0.8518  1.5949
   12MPD2    H2  190   2.746   4.642  13.812  0.1120  0.2521 -0.4250
   12MPD2    H3  191   2.546   4.561  13.896  1.0092  1.1523  2.1097
   12MPD2     N  192   2.680   4.125  13.888 -0.1518 -0.3955 -0.0627
   12MPD2    H5  193   2.587   4.098  13.918 -0.1141  1.1676  1.4197
   12MPD2    N1  194   2.963   4.503  13.746 -0.1699 -0.2506 -0.2130
   12MPD2    H7  195   3.035   4.437  13.722  0.1144 -0.3365  0.8642
   13TCq1    O1  196   3.480   1.059  10.158 -0.2502  0.1065 -0.1143
   13TCq1    C1  197   3.385   1.000  10.226 -0.1780  0.4293 -0.2984
   13TCq1    O2  198   3.273   1.045  10.237 -0.3138  0.5037  0.5413
   13TCq1    C2  199   3.430   0.882  10.297 -0.1387  0.1369  0.4796
   13TCq1    C3  200   3.497   0.782  10.229  0.5803  0.1374 -0.5344
   13TCq1    C4  201   3.491   0.661  10.290  0.3531  0.2812 -0.1961
   13TCq1    C5  202   3.414   0.632  10.398  0.1459  0.8745 -0.0307
   13TCq1    C6  203   3.346   0.729  10.465 -0.1770  0.4658  0.7645
   13TCq1    C7  204   3.355   0.858  10.411  0.2498 -0.2267 -0.0803
   13TCq1    C8  205   3.216   0.710  10.521  0.2042 -0.1154  0.4026
   13TCq1    O4  206   3.171   0.796  10.600  0.1187 -0.3625  0.5433
   13TCq1    C9  207   3.546   0.547  10.216  0.2760  0.2324 -0.3519
   13TCq1    O5  208   3.535   0.430  10.266 -0.5905 -0.1574  0.7365
   13TCq1    O6  209   3.589   0.561  10.096 -0.0447 -0.0926  0.0363
   13TCq1    H1  210   3.568   1.019  10.171 -0.8992 -1.0844  0.6599
   13TCq1    H2  211   3.545   0.805  10.135 -0.5901  2.2066 -0.6296
   13TCq1    H3  212   3.411   0.530  10.434 -0.1655  0.4649 -1.2238
   13TCq1    H4  213   3.291   0.939  10.444 -1.2486 -2.1257  1.6786
   14MPD2     C  214   3.017   0.415  10.465 -0.9869  0.5565  0.4111
   14MPD2    C1  215   3.050   0.528  10.523  0.0916  0.7628  0.3229
   14MPD2    C2  216   2.971   0.571  10.628  0.8570  0.0851  0.4300
   14MPD2    C3  217   2.850   0.514  10.647  0.2969  0.0572  0.1904
   14MPD2    C4  218   2.814   0.403  10.573 -0.3959  0.3446  0.3064
   14MPD2    C5  219   2.900   0.352  10.485 -0.4140 -0.3276  0.9591
   14MPD2     H  220   2.998   0.660  10.684  0.1526  0.1501  0.6694
   14MPD2    H1  221   2.717   0.354  10.575 -0.1029 -0.1957  1.5715
   14MPD2    H2  222   3.081   0.369  10.391 -0.0168 -0.9673  2.1756
   14MPD2    H3  223   2.868   0.260  10.438  3.2055  0.4472 -3.0659
   14MPD2     N  224   2.770   0.574  10.746 -0.4771 -0.1061  0.3114
   14MPD2    H5  225   2.815   0.652  10.793 -0.2872 -1.0539  1.6858
   14MPD2    N1  226   3.161   0.594  10.476  0.8675 -0.4886 -0.3828
   14MPD2    H7  227   3.215   0.546  10.406  0.2516 -1.5363 -0.1559
   15TCq1    O1  228   4.350   4.305   1.487 -0.0643 -0.1799 -0.1225
   15TCq1    C1  229   4.452   4.262   1.566 -0.0120  1.0944 -0.3080
   15TCq1    O2  230   4.501   4.325   1.659  0.4295 -0.1416 -0.2076
   15TCq1    C2  231   4.538   4.176   1.490  0.7002  0.5420  0.0588
   15TCq1    C3  232   4.649   4.132   1.557 -0.8985  0.4722 -0.2275
   15TCq1    C4  233   4.720   4.039   1.491 -0.5993 -0.1485 -0.4006
   15TCq1    C5  234   4.695   3.998   1.366  0.5970  0.3805  0.3433
   15TCq1    C6  235   4.587   4.050   1.299 -0.5061 -0.9384 -0.5060
   15TCq1    C7  236   4.500   4.142   1.358  0.1667 -0.2439 -0.5229
   15TCq1    C8  237   4.562   3.995   1.170 -0.2548 -0.4891  0.2017
   15TCq1    O4  238   4.658   3.938   1.106  0.4900  0.0073  0.7289
   15TCq1    C9  239   0.107   3.999   1.552 -0.2540  1.1786  0.1113
   15TCq1    O5  240   0.136   4.056   1.659  0.3036  0.2005  0.7112
   15TCq1    O6  241   0.189   3.944   1.472 -0.1470  0.1222  0.1572
   15TCq1    H1  242   4.300   4.235   1.440  0.6538 -0.4343 -0.5058
   15TCq1    H2  243   4.658   4.143   1.664 -1.7326  1.1459 -0.2266
   15TCq1    H3  244   0.027   3.930   1.314 -0.3457  0.9788 -1.6867
   15TCq1    H4  245   4.449   4.212   1.293 -0.3283  0.7036  0.8838
   16MPD2     C  246   4.243   3.987   0.977  0.6356 -0.0230 -0.2611
   16MPD2    C1  247   4.378   3.974   1.001  0.0359 -0.2532  0.4382
   16MPD2    C2  248   4.449   3.914   0.900 -0.6740 -0.3536  0.7484
   16MPD2    C3  249   4.396   3.888   0.775 -0.5292  0.0155 -0.0740
   16MPD2    C4  250   4.263   3.919   0.751 -0.2112  0.0313 -0.2738
   16MPD2    C5  251   4.188   3.962   0.858 -0.6548 -0.3357  0.1908
   16MPD2     H  252   4.547   3.873   0.920 -0.7014  0.0239  1.6227
   16MPD2    H1  253   4.213   3.904   0.656  0.0434  2.4377 -0.7818
   16MPD2    H2  254   4.172   4.023   1.050 -1.5090 -2.1376 -1.3193
   16MPD2    H3  255   4.082   3.986   0.853 -0.1479  1.4951 -2.0139
   16MPD2     N  256   4.487   3.833   0.681 -0.6551 -0.4299 -0.4087
   16MPD2    H5  257   4.583   3.817   0.710 -1.5669 -1.3091  2.0911
   16MPD2    N1  258   4.432   4.015   1.124 -0.0193 -0.3871 -0.0909
   16MPD2    H7  259   4.370   4.059   1.191 -2.7299 -4.3547  0.0236
   17TMC1    C1  260   2.401   3.816   9.689 -0.2022  0.3066  0.1539
   17TMC1    C2  261   2.377   3.756   9.813 -0.1783  0.4912 -0.1420
   17TMC1    C3  262   2.287   3.650   9.815 -0.5266  0.8127  0.4172
   17TMC1    C4  263   2.335   3.778   9.575 -0.0919  0.4034  0.4550
   17TMC1    C5  264   2.259   3.662   9.587  0.5226 -0.0688 -0.0096
   17TMC1    C6  265   2.227   3.598   9.706  0.8609 -0.3999  0.0899
   17TMC1     C  266   2.504   3.913   9.677  0.3146 -0.4548 -0.5711
   17TMC1     O  267   2.538   3.941   9.565 -0.6210  0.3079  0.4598
   17TMC1     H  268   2.429   3.785   9.904  0.3012  0.1006 -0.2907
   17TMC1    H1  269   2.360   3.830   9.483  1.0963 -0.4838  0.2814
   17TMC1    H2  270   2.161   3.512   9.711 -0.3590  0.5162 -0.1894
   17TMC1    C7  271   2.210   3.600   9.466  0.2305  0.8853 -0.1068
   17TMC1    C8  272   2.270   3.595   9.951  0.0492  0.3616  0.2648
   17TMC1    O1  273   2.127   3.513   9.479 -0.0869  0.0243  0.1921
   17TMC1    O2  274   2.306   3.658  10.047  0.7632  0.1022  0.9293
   17TMC1    O3  275   2.310   3.602   9.375 -0.2778  0.4357 -0.0053
   17TMC1    H3  276   2.389   3.655   9.398 -0.4284  1.1891 -1.1884
   17TMC1    O5  277   2.212   3.473   9.940 -0.0046 -0.0127  0.3672
   17TMC1    H5  278   2.208   3.432   9.851  1.0902  0.0973  0.2636
   18MPD2     C  279   2.714   4.124   9.683  0.9259  0.0345 -0.1477
   18MPD2    C1  280   2.636   4.085   9.792  0.2346 -0.3244 -0.2466
   18MPD2    C2  281   2.663   4.147   9.913  0.2395  0.1520 -0.3174
   18MPD2    C3  282   2.752   4.254   9.939  0.0833  0.3400  0.8294
   18MPD2    C4  283   2.820   4.291   9.823  0.3388 -0.1015  0.0381
   18MPD2    C5  284   2.806   4.226   9.707 -0.5176  0.3106  0.1051
   18MPD2     H  285   2.602   4.123  10.000 -1.2430  0.5142 -1.2509
   18MPD2    H1  286   2.895   4.369   9.818  1.4916 -1.0837  2.0661
   18MPD2    H2  287   2.719   4.077   9.586  1.2183 -1.9791  0.8261
   18MPD2    H3  288   2.877   4.257   9.631  1.3620 -0.6418  1.5034
   18MPD2     N  289   2.769   4.323  10.061  0.0084  0.6686  0.4418
   18MPD2    H5  290   2.841   4.394  10.054 -0.1641  0.8865  0.8609
   18MPD2    N1  291   2.539   3.978   9.789  0.3485 -0.7894  0.2145
   18MPD2    H7  292   2.498   3.948   9.877  3.4756 -0.5130  1.7683
   19TMC2    C1  293   4.012   0.251  13.748 -0.3755  0.3106 -0.4111
   19TMC2    C2  294   3.935   0.365  13.754  0.4671  0.5910 -0.8510
   19TMC2    C3  295   3.801   0.353  13.784 -0.0917  0.0937  0.1402
   19TMC2    C4  296   3.960   0.125  13.769 -0.2077  0.7035  0.4157
   19TMC2    C5  297   3.827   0.124  13.810 -0.0454  1.0237 -0.9072
   19TMC2    C6  298   3.751   0.238  13.825 -0.1906  0.2252  0.1484
   19TMC2     C  299   4.146   0.272  13.760 -0.4725  0.3787 -0.6862
   19TMC2     O  300   4.198   0.374  13.721 -0.2640 -0.2985  0.5230
   19TMC2     H  301   3.981   0.462  13.735  0.7121  0.5846 -0.3000
   19TMC2    H1  302   4.017   0.034  13.758 -0.7906  0.4166 -0.2402
   19TMC2    H2  303   3.647   0.235  13.855  0.0748 -1.2636  0.8982
   19TMC2    C7  304   3.780   4.724  13.851  0.4204 -0.2690 -0.0073
   19TMC2    C8  305   3.721   0.468  13.776  0.0148  0.0652  0.1674
   19TMC2    O1  306   3.864   4.639  13.835  0.4036  0.1013 -0.4248
   19TMC2    O2  307   3.782   0.575  13.781 -0.2040  0.3979  0.1816
   19TMC2    O5  308   3.657   0.436  13.661 -0.5671 -0.1947 -0.2880
   19TMC2    H5  309   3.616   0.348  13.671 -0.8940 -0.1157 -0.9740
   20MPD2     C  310   4.442   0.257  13.844  0.5462  0.3910  0.4196
   20MPD2    C1  311   4.353   0.153  13.847  0.7623 -0.3828 -0.1179
   20MPD2    C2  312   4.398   0.022  13.879 -0.4743 -0.1093 -0.2407
   20MPD2    C3  313   4.533   0.011  13.902 -0.4559 -0.1581  0.7688
   20MPD2    C4  314   4.619   0.119  13.900  0.0545  0.6775 -0.4788
   20MPD2    C5  315   4.574   0.242  13.871  0.3619  0.2058  0.0180
   20MPD2     H  316   4.327   4.678  13.902 -1.0992  0.3690 -0.5247
   20MPD2    H1  317   4.726   0.109  13.919 -0.1623 -1.6794 -0.6134
   20MPD2    H2  318   4.415   0.362  13.834  2.7730  0.7518 -1.7364
   20MPD2    H3  319   4.642   0.326  13.878  2.7271 -1.6913 -0.4553
   20MPD2     N  320   4.597   4.622  13.929  0.2449 -0.2226  0.4416
   20MPD2    H5  321   4.695   4.625  13.954  0.3853  1.4285 -0.2615
   20MPD2    N1  322   4.213   0.162  13.821  0.0160 -0.3821 -0.0590
   20MPD2    H7  323   4.161   0.076  13.836 -0.8787  0.1224 -0.2547
   21TMC2    C1  324   1.714   0.275  13.857 -0.5927 -0.1577 -0.4020
   21TMC2    C2  325   1.729   0.142  13.857  0.3082 -0.4152  0.3025
   21TMC2    C3  326   1.731   0.081  13.979  0.3276  0.3297 -0.0439
   21TMC2    C4  327   1.683   0.336  13.977  0.1432  0.2407 -0.4236
   21TMC2    C5  328   1.693   0.269  14.096  0.5936  0.0649  0.2853
   21TMC2    C6  329   1.725   0.139  14.101  0.3376  0.6111  0.3405
   21TMC2     C  330   1.831   0.340  13.785 -0.2043 -0.1403 -0.1075
   21TMC2     O  331   1.917   0.256  13.763  0.0175  0.3666 -0.6834
   21TMC2     H  332   1.740   0.090  13.763 -3.5928  2.6065 -1.8278
   21TMC2    H1  333   1.649   0.439  13.973  2.1662  0.9577  0.4747
   21TMC2    H2  334   1.724   0.083  14.193 -1.4551 -0.1635 -0.1512
   21TMC2    C7  335   1.653   0.329  14.225  0.5033  0.8831  0.5535
   21TMC2    C8  336   1.776   4.680  13.972 -0.7568  0.5341 -0.7505
   21TMC2    O1  337   1.705   0.290  14.329  0.0169  0.1256  0.8259
   21TMC2    O2  338   1.711   4.600  13.899 -0.4111  0.6653  0.1545
   21TMC2    O5  339   1.912   4.684  13.975 -0.3284  0.8856  0.1072
   21TMC2    H5  340   1.950   0.030  14.014  0.2452 -0.4338  2.3109
   22MPD2     C  341   2.146   0.743  13.798 -0.6824 -0.1008 -0.6945
   22MPD2    C1  342   2.160   0.611  13.829 -0.2820  0.3046 -0.3213
   22MPD2    C2  343   2.055   0.519  13.818  0.3538 -0.2689 -0.0314
   22MPD2    C3  344   1.931   0.561  13.778 -0.4720 -0.4997  0.0716
   22MPD2    C4  345   1.911   0.695  13.751  0.4819  0.1167 -0.1879
   22MPD2    C5  346   2.022   0.779  13.757  0.1187 -0.3692  0.2619
   22MPD2     H  347   2.077   0.415  13.840 -0.2385 -0.6651 -1.3483
   22MPD2    H1  348   1.816   0.739  13.728 -0.0259 -0.2389  1.1969
   22MPD2    H2  349   2.223   0.818  13.807 -3.8110  2.9812  0.4663
   22MPD2    H3  350   2.012   0.884  13.730  0.7955 -0.4940 -0.4606
   22MPD2     N  351   1.826   0.477  13.758 -0.3374  0.4781 -0.1561
   22MPD2    H5  352   1.739   0.520  13.729  0.0977  0.8582 -0.8882
   22MPD2    N1  353   2.286   0.560  13.875  0.0287  0.3120  0.2390
   22MPD2    H7  354   2.278   0.463  13.901  1.2930  0.8780  2.6869
   23TMC2    C1  355   3.134   1.627  14.196  0.1415 -0.0567 -0.3788
   23TMC2    C2  356   3.157   1.733  14.112  0.2393  0.9926 -0.4239
   23TMC2    C3  357   3.052   1.762  14.023  0.4296 -0.0720  0.0284
   23TMC2    C4  358   3.016   1.558  14.201 -0.3502  0.6338 -0.2830
   23TMC2    C5  359   2.920   1.584  14.104  0.7014  0.3497  0.1477
   23TMC2    C6  360   2.935   1.688  14.018  0.3019  0.2465  0.1152
   23TMC2     C  361   3.231   1.596  14.300 -0.1502  0.5732 -0.0281
   23TMC2     O  362   3.182   1.564  14.405 -0.0314  0.2456 -0.2329
   23TMC2     H  363   3.247   1.794  14.121  0.4634  0.6390 -0.2694
   23TMC2    H1  364   3.000   1.479  14.274 -0.9234  0.4559 -0.5976
   23TMC2    H2  365   2.865   1.721  13.942  1.3655  1.6991 -0.2362
   23TMC2    C7  366   2.794   1.506  14.121 -0.4072  0.1458  0.3843
   23TMC2    C8  367   3.078   1.860  13.916  0.2391 -0.2198 -0.2691
   23TMC2    O1  368   2.765   1.455  14.232  0.0310 -0.1967  0.2093
   23TMC2    O2  369   3.152   1.957  13.928 -0.1289  0.0843 -0.3631
   23TMC2    O5  370   3.031   1.817  13.799 -0.4393 -0.2613 -0.0488
   23TMC2    H5  371   2.987   1.730  13.805 -0.9161 -0.0166  0.0306
   24MPD2     C  372   3.691   1.640  14.536 -0.1157  0.0844  0.3201
   24MPD2    C1  373   3.569   1.592  14.587 -0.2318  0.7363 -0.2091
   24MPD2    C2  374   3.461   1.593  14.500  0.0936 -0.4133 -1.2608
   24MPD2    C3  375   3.468   1.641  14.367  0.3273 -0.3028  0.0895
   24MPD2    C4  376   3.585   1.688  14.323 -0.3539  0.0414 -0.5619
   24MPD2    C5  377   3.696   1.692  14.407 -0.1917 -0.5371  0.3656
   24MPD2     H  378   3.365   1.560  14.538 -0.2146  2.7675  0.7195
   24MPD2    H1  379   3.596   1.702  14.216  0.3800  0.0221 -0.4896
   24MPD2    H2  380   3.786   1.638  14.588  0.2140  1.0173 -0.2409
   24MPD2    H3  381   3.796   1.701  14.367 -0.5034  0.4781 -0.1789
   24MPD2     N  382   3.362   1.640  14.276 -0.6976 -0.7155 -0.3240
   24MPD2    H5  383   3.380   1.654  14.177  1.0409  0.2462  0.1297
   24MPD2    N1  384   3.558   1.550  14.720 -0.4194  0.1398  0.0939
   24MPD2    H7  385   3.472   1.501  14.745 -0.5602 -0.4205 -1.4828
   25TMC2    C1  386   2.320   4.441  11.138 -0.3130 -0.3714  0.4432
   25TMC2    C2  387   2.301   4.573  11.179  0.0832  0.4930 -0.8626
   25TMC2    C3  388   2.284   4.601  11.309 -0.5506  0.0187  0.3641
   25TMC2    C4  389   2.328   4.333  11.224  0.7460 -0.1336  0.2569
   25TMC2    C5  390   2.316   4.371  11.354  0.1084 -0.5167 -0.3966
   25TMC2    C6  391   2.282   4.495  11.405 -0.1254 -0.4975 -0.6064
   25TMC2     C  392   2.334   4.416  10.994  0.5335 -0.2238  0.5953
   25TMC2     O  393   2.375   4.503  10.921 -0.4482 -0.0642 -0.0471
   25TMC2     H  394   2.293   4.652  11.106 -2.0496 -0.4985 -1.7136
   25TMC2    H1  395   2.337   4.231  11.191  1.1937 -0.6061  1.8284
   25TMC2    H2  396   2.276   4.508  11.512  0.9607  0.7384 -0.6816
   25TMC2    C7  397   2.317   4.275  11.457 -0.9284  0.3177 -0.2002
   25TMC2    C8  398   2.240   4.727  11.359 -0.0653  0.3430 -0.1796
   25TMC2    O1  399   2.266   4.300  11.565  0.3997  0.5589 -0.5064
   25TMC2    O2  400   2.172   0.000  11.461  0.0938 -0.5048  0.7188
   25TMC2    O5  401   2.229   0.080  11.261 -0.3144  0.1670 -0.7001
   25TMC2    H5  402   2.311   0.090  11.208  0.1508 -1.1639 -0.2155
   26MPD2     C  403   2.357   4.097  10.587 -0.1737 -0.4023  0.9749
   26MPD2    C1  404   2.301   4.024  10.688  0.5094 -0.1114 -0.5517
   26MPD2    C2  405   2.280   4.091  10.809  0.7903  0.2170 -0.1185
   26MPD2    C3  406   2.335   4.221  10.829 -0.0735 -0.2673 -0.3465
   26MPD2    C4  407   2.412   4.282  10.736  0.4734  0.0298 -0.2801
   26MPD2    C5  408   2.413   4.223  10.608 -0.1091  0.8656 -0.6006
   26MPD2     H  409   2.219   4.040  10.883  0.3537 -0.1034 -0.6983
   26MPD2    H1  410   2.475   4.367  10.761  0.6141 -0.5191  1.2331
   26MPD2    H2  411   2.383   4.046  10.495  1.3331 -1.7810  2.1654
   26MPD2    H3  412   2.473   4.271  10.532  0.4938  1.3371  0.1670
   26MPD2     N  413   2.306   4.287  10.959  0.6777  0.6777 -0.2833
   26MPD2    H5  414   2.257   4.233  11.030  1.4602 -0.7967 -0.8835
   26MPD2    N1  415   2.247   3.897  10.659  0.3745  0.5481  0.5352
   26MPD2    H7  416   2.268   3.865  10.565  0.8536 -0.5303  1.0083
   27TMC2    C1  417   1.447   1.398  12.024 -0.7008  0.6897  0.0601
   27TMC2    C2  418   1.394   1.490  11.942 -0.1479 -0.1395  0.6061
   27TMC2    C3  419   1.454   1.609  11.935 -0.1532 -0.8367 -0.2358
   27TMC2    C4  420   1.553   1.426  12.110 -0.1682  0.0759 -0.5826
   27TMC2    C5  421   1.597   1.554  12.115  1.0836 -0.3745  0.1832
   27TMC2    C6  422   1.561   1.651  12.020  0.1280 -0.0274 -0.6081
   27TMC2     C  423   1.382   1.272  12.039 -0.1328  1.0455 -0.4741
   27TMC2     O  424   1.450   1.180  12.080  0.2428 -0.3629  0.1665
   27TMC2     H  425   1.313   1.468  11.873 -1.9510  1.8970  2.0843
   27TMC2    H1  426   1.572   1.355  12.189 -0.2840 -0.2155 -0.8156
   27TMC2    H2  427   1.601   1.751  12.017  0.7669 -0.3396 -2.8717
   27TMC2    C7  428   1.597   1.598  12.252  0.1418 -0.3591 -0.2995
   27TMC2    C8  429   1.379   1.705  11.863  0.9698  0.2807 -0.2570
   27TMC2    O1  430   1.607   1.519  12.343  0.3915  0.2698 -0.4276
   27TMC2    O2  431   1.411   1.819  11.881 -0.2159 -0.7207  0.1051
   27TMC2    O5  432   1.367   1.648  11.737 -0.5378  0.2451 -0.7377
   27TMC2    H5  433   1.329   1.557  11.740 -2.1151  0.9781  0.8318
   28MPD2     C  434   0.970   0.980  12.048 -0.1648  0.1104 -0.1871
   28MPD2    C1  435   0.931   1.117  12.035 -0.0620 -0.5229  0.0468
   28MPD2    C2  436   1.027   1.214  12.033 -0.2230 -0.5314  0.1818
   28MPD2    C3  437   1.161   1.176  12.028 -0.5756 -0.8926  0.7460
   28MPD2    C4  438   1.196   1.043  12.026  0.1438  0.4418  0.2265
   28MPD2    C5  439   1.100   0.946  12.035 -1.0028 -0.1354 -0.1293
   28MPD2     H  440   1.001   1.319  12.024  1.3472 -0.2125 -0.7992
   28MPD2    H1  441   1.294   0.997  12.015 -0.9617 -2.0766  1.0125
   28MPD2    H2  442   0.889   0.910  12.061  0.3158  0.1036  2.8227
   28MPD2    H3  443   1.137   0.844  12.044 -1.1122 -0.1229  0.4284
   28MPD2     N  444   1.250   1.286  12.012  0.4273 -0.0128 -0.7657
   28MPD2    H5  445   1.218   1.380  11.995  0.3387 -0.0209 -0.6479
   28MPD2    N1  446   0.794   1.129  12.039  0.2007 -0.5978 -0.2487
   28MPD2    H7  447   0.744   1.045  12.066  1.1677 -1.4020 -0.9787
   29TMC2    C1  448   0.344   3.421  14.044 -0.4925 -0.2385 -0.1117
   29TMC2    C2  449   0.272   3.459  14.150 -0.0429  0.4169  0.3236
   29TMC2    C3  450   0.289   3.582  14.205 -0.2442  0.0384 -0.4220
   29TMC2    C4  451   0.432   3.513  13.990  0.3467 -0.2506  0.3925
   29TMC2    C5  452   0.452   3.632  14.058 -0.1298 -0.4796 -0.5529
   29TMC2    C6  453   0.380   3.671  14.168 -0.0884  0.7553 -0.4554
   29TMC2     C  454   0.332   3.288  13.986 -0.1663  0.5085 -0.0249
   29TMC2     O  455   0.313   3.195  14.065  0.1600  0.1428 -0.2126
   29TMC2     H  456   0.196   3.392  14.187 -1.4296  1.6783 -0.2240
   29TMC2    H1  457   0.494   3.484  13.906  0.4553  3.0710 -0.6712
   29TMC2    H2  458   0.399   3.769  14.210  0.9504 -1.2412  3.6983
   29TMC2    C7  459   0.517   3.739  13.979 -0.3046 -0.1886  0.6523
   29TMC2    C8  460   0.205   3.625  14.308 -0.1453  0.5394  0.7146
   29TMC2    O1  461   0.518   3.725  13.854 -0.1294  0.0310  0.0304
   29TMC2    O2  462   0.151   3.550  14.386  0.1598 -0.5940 -0.3100
   29TMC2    O5  463   0.159   3.742  14.255  0.0692  0.8801 -0.2337
   29TMC2    H5  464   0.198   3.757  14.166  0.0998 -1.3843 -0.6241
   30MPD2     C  465   0.334   2.962  13.577 -0.1512 -0.0279  0.3978
   30MPD2    C1  466   0.304   2.939  13.712 -0.6120  0.0504  1.0502
   30MPD2    C2  467   0.307   3.040  13.802 -0.0003  0.8071  0.0687
   30MPD2    C3  468   0.330   3.170  13.761  0.4100  0.9624  0.4950
   30MPD2    C4  469   0.355   3.194  13.628 -0.5498 -0.1868  0.5738
   30MPD2    C5  470   0.365   3.093  13.541 -0.4714 -0.7007 -0.2670
   30MPD2     H  471   0.289   3.018  13.907  4.1243 -3.7981 -0.1988
   30MPD2    H1  472   0.386   3.294  13.600 -0.7914 -1.0301 -2.7130
   30MPD2    H2  473   0.317   2.892  13.496 -1.7580  1.4758 -0.5703
   30MPD2    H3  474   0.357   3.124  13.438  2.3788  3.0643  0.6565
   30MPD2     N  475   0.340   3.282  13.849  0.3893  0.6335  0.3828
   30MPD2    H5  476   0.350   3.373  13.805 -2.2393 -0.3292 -2.1846
   30MPD2    N1  477   0.279   2.804  13.757 -0.1900 -0.2180  0.4494
   30MPD2    H7  478   0.308   2.787  13.853 -0.8941  0.5380  0.7936
   31TMC2    C1  479   3.218   2.334  15.122 -0.5174  0.4188  0.0300
   31TMC2    C2  480   3.350   2.368  15.142 -0.0379 -0.2202 -0.0071
   31TMC2    C3  481   3.421   2.352  15.257 -0.3276 -0.4270  0.4624
   31TMC2    C4  482   3.151   2.279  15.224 -1.2920 -0.2277 -0.0543
   31TMC2    C5  483   3.217   2.246  15.337  0.2864  0.1974  0.0717
   31TMC2    C6  484   3.351   2.279  15.354 -0.1687  0.2986  0.5369
   31TMC2     C  485   3.157   2.368  14.993 -0.3723 -0.5919 -0.0823
   31TMC2     O  486   3.215   2.439  14.916  0.4816  0.0787  0.1974
   31TMC2     H  487   3.408   2.408  15.060  0.7916 -1.3566  0.0227
   31TMC2    H1  488   3.043   2.270  15.222 -1.2679  0.0222 -2.3875
   31TMC2    H2  489   3.420   2.241  15.428  0.6306  1.5258  0.4252
   31TMC2    C7  490   3.153   2.201  15.462  0.4900 -0.0178 -0.1854
   31TMC2    C8  491   3.558   2.309  15.247 -0.3716 -0.1599  0.1495
   31TMC2    O1  492   3.220   2.153  15.554  0.4437 -0.2051  0.0431
   31TMC2    O2  493   3.611   2.228  15.323  0.4128  0.2448 -0.2210
   31TMC2    O5  494   3.624   2.392  15.164 -1.0921 -0.6377  0.7097
   31TMC2    H5  495   3.569   2.469  15.139  0.6506  0.7841  1.3181
   32MPD2     C  496   2.774   2.339  14.650  0.4775 -0.1750  0.2611
   32MPD2    C1  497   2.883   2.430  14.651  1.1330  0.0200  0.0672
   32MPD2    C2  498   2.968   2.419  14.759  0.2546 -0.3715  0.6115
   32MPD2    C3  499   2.955   2.319  14.850 -0.0426  0.3614 -0.2908
   32MPD2    C4  500   2.841   2.247  14.848 -0.3069 -0.2245  0.4865
   32MPD2    C5  501   2.744   2.254  14.748 -0.1217  0.4116 -0.4233
   32MPD2     H  502   3.046   2.493  14.774 -2.0180  1.4472  3.5080
   32MPD2    H1  503   2.818   2.167  14.918  0.4213  1.4217  2.5893
   32MPD2    H2  504   2.706   2.352  14.566  0.2904 -1.9847  0.1470
   32MPD2    H3  505   2.663   2.183  14.740 -1.8923  2.5998 -1.9521
   32MPD2     N  506   3.039   2.303  14.964  0.2176  0.0497  0.0053
   32MPD2    H5  507   3.007   2.228  15.025  1.7578  0.0216  0.7915
   32MPD2    N1  508   2.891   2.535  14.551  0.1725  0.4909  0.7172
   32MPD2    H7  509   2.810   2.530  14.489  1.8204 -1.2907 -1.2895
   33TMC2    C1  510   3.542   0.222  10.549 -0.6130 -0.3747  0.2116
   33TMC2    C2  511   3.554   0.236  10.685  0.3361  0.1702 -0.4697
   33TMC2    C3  512   3.676   0.274  10.737  0.1098 -0.2887  0.4951
   33TMC2    C4  513   3.645   0.263  10.467 -0.7892  0.2002  0.5473
   33TMC2    C5  514   3.767   0.305  10.518 -0.6022 -0.5204 -0.5650
   33TMC2    C6  515   3.784   0.309  10.653 -0.5135  0.2772  0.1513
   33TMC2     C  516   3.420   0.174  10.494 -0.4703  0.6421  0.3874
   33TMC2     O  517   3.344   0.116  10.572 -0.2814  0.3007  0.9479
   33TMC2     H  518   3.475   0.229  10.759 -0.4264  0.9409 -1.2072
   33TMC2    H1  519   3.641   0.236  10.362 -0.7417 -1.0252  0.8547
   33TMC2    H2  520   3.879   0.341  10.694  0.7638 -0.2228 -2.4560
   33TMC2    C7  521   3.882   0.285  10.432 -0.4294 -0.2329 -0.6798
   33TMC2    C8  522   3.679   0.293  10.879 -0.3596 -0.3439  0.3166
   33TMC2    O1  523   3.986   0.243  10.485 -0.5007  0.1647  0.2242
   33TMC2    O2  524   3.583   0.316  10.952 -0.1155 -0.7065 -0.4531
   33TMC2    O5  525   3.808   0.282  10.916  0.0195 -0.4738  0.2331
   33TMC2    H5  526   3.871   0.252  10.847  0.6675 -1.2003  1.1456
   34MPD2     C  527   3.058   0.153  10.131 -0.7681  0.4847  0.1781
   34MPD2    C1  528   3.069   0.082  10.246 -0.4619 -0.5442 -0.0392
   34MPD2    C2  529   3.168   0.109  10.335  0.2022  0.4563 -0.5777
   34MPD2    C3  530   3.272   0.200  10.292  0.8741  0.1513 -0.9291
   34MPD2    C4  531   3.252   0.277  10.176  0.3151 -1.0199  0.3088
   34MPD2    C5  532   3.151   0.245  10.094  0.7150 -0.4117  0.1310
   34MPD2     H  533   3.175   0.053  10.429  0.2136  0.0253 -0.8342
   34MPD2    H1  534   3.326   0.353  10.153  0.5135 -2.0841 -2.5885
   34MPD2    H2  535   2.987   0.136  10.052  0.0043  2.0297 -0.8435
   34MPD2    H3  536   3.130   0.294  10.000  2.3634 -1.1292 -0.6193
   34MPD2     N  537   3.392   0.226  10.369  0.4047  0.3862 -0.2555
   34MPD2    H5  538   3.460   0.287  10.325  2.0630 -2.1390 -1.2183
   34MPD2    N1  539   2.962   4.721  10.274  0.8149 -0.1560  0.3825
   34MPD2    H7  540   2.904   4.711  10.192  0.1320  2.4024  0.5568
   35TMC2    C1  541   4.282   1.189  10.664 -0.9124 -0.1106 -0.1346
   35TMC2    C2  542   4.181   1.282  10.652  0.4229 -0.0233  0.6140
   35TMC2    C3  543   4.067   1.258  10.731 -0.0378  0.0617 -0.2918
   35TMC2    C4  544   4.266   1.073  10.729 -0.3100 -0.3369  0.2703
   35TMC2    C5  545   4.155   1.059  10.809  0.3614  0.5916  0.0804
   35TMC2    C6  546   4.057   1.153  10.812  0.6029 -0.3725  0.1577
   35TMC2     C  547   4.409   1.209  10.597 -0.2510  0.5806  0.1578
   35TMC2     O  548   4.419   1.276  10.494  0.3562 -0.4827  0.7780
   35TMC2     H  549   4.194   1.372  10.594 -0.6293  0.1271  0.6064
   35TMC2    H1  550   4.335   0.989  10.722  0.1522  0.0273  0.4933
   35TMC2    H2  551   3.965   1.130  10.864  0.4113 -0.1615 -0.0877
   35TMC2    C7  552   4.161   0.935  10.888 -0.0937 -0.2443  0.0947
   35TMC2    C8  553   3.957   1.346  10.726  0.3638 -0.3685 -0.0147
   35TMC2    O1  554   4.271   0.883  10.912 -0.2095  0.1667  0.8062
   35TMC2    O2  555   3.839   1.319  10.754  0.3815  0.2763 -0.1485
   35TMC2    O5  556   4.007   1.475  10.726  0.2666 -0.4605  0.0491
   35TMC2    H5  557   4.104   1.467  10.736  0.3004  0.3068  0.3386
   36MPD2     C  558   0.183   1.246  10.635 -0.6970 -0.5705  0.1646
   36MPD2    C1  559   0.122   1.196  10.748  0.0035 -0.4664  0.8505
   36MPD2    C2  560   4.726   1.160  10.748 -0.3030  0.5531 -0.8232
   36MPD2    C3  561   4.644   1.184  10.644  0.0273 -0.4282  0.1837
   36MPD2    C4  562   4.703   1.224  10.527  0.1010 -0.1785  0.0131
   36MPD2    C5  563   0.102   1.246  10.522  0.6452  1.0917  0.2557
   36MPD2     H  564   4.676   1.118  10.835  0.0700  1.4396 -0.1789
   36MPD2    H1  565   4.648   1.211  10.434  2.3299 -1.8887 -1.0451
   36MPD2    H2  566   0.287   1.276  10.630 -1.1426  0.8532 -0.6112
   36MPD2    H3  567   0.152   1.281  10.432 -0.7910 -0.9383 -1.3264
   36MPD2     N  568   4.511   1.155  10.668  0.1260  0.4163  0.3746
   36MPD2    H5  569   4.488   1.120  10.760  0.6278 -0.2596  0.2413
   36MPD2    N1  570   0.199   1.206  10.869 -0.3237  0.1054 -0.2252
   36MPD2    H7  571   0.278   1.269  10.866  1.7147 -2.5670 -1.7534
   37TMC2    C1  572   1.878   1.930  11.251 -0.0813 -0.1570  0.6333
   37TMC2    C2  573   1.817   2.000  11.149  0.0953  0.3112 -0.3012
   37TMC2    C3  574   1.884   2.028  11.033  0.1671  0.3192 -0.3731
   37TMC2    C4  575   2.004   1.878  11.230  0.0949 -0.2092 -0.2264
   37TMC2    C5  576   2.067   1.898  11.109  0.1364  0.7707 -0.1970
   37TMC2    C6  577   2.008   1.979  11.008 -0.2949 -0.5783  0.1056
   37TMC2     C  578   1.821   1.938  11.389 -1.4525  0.0875 -0.3422
   37TMC2     O  579   1.705   1.975  11.392 -0.2029 -0.2527  0.0933
   37TMC2     H  580   1.722   2.047  11.172 -0.5787 -1.2650  0.0904
   37TMC2    H1  581   2.063   1.834  11.310 -1.4782  0.3556  1.2296
   37TMC2    H2  582   2.059   2.005  10.916 -2.8331  0.0654 -1.1148
   37TMC2    C7  583   2.206   1.856  11.089 -0.2759  0.0025 -0.2510
   37TMC2    C8  584   1.826   2.132  10.958 -0.2810 -0.6116 -1.1239
   37TMC2    O1  585   2.250   1.792  11.182  0.0288 -0.5621 -0.7826
   37TMC2    O2  586   1.774   2.231  11.007 -0.0615  0.3559  0.6590
   37TMC2    O5  587   1.874   2.132  10.837  0.1085 -0.7168  0.3145
   37TMC2    H5  588   1.902   2.042  10.810  0.2420  0.2869 -2.9145
   38MPD2     C  589   1.797   1.889  11.904  0.2366 -0.1992  0.9689
   38MPD2    C1  590   1.900   1.804  11.855  0.4253  0.6641  0.3166
   38MPD2    C2  591   1.932   1.810  11.718 -0.5090 -0.3054 -0.0878
   38MPD2    C3  592   1.849   1.883  11.630 -0.0506  1.2385 -0.3836
   38MPD2    C4  593   1.746   1.958  11.679 -0.2463 -0.1869 -0.0270
   38MPD2    C5  594   1.737   1.971  11.810 -0.3146 -0.2676 -0.4919
   38MPD2     H  595   2.015   1.751  11.679 -0.1689  0.2538 -0.2124
   38MPD2    H1  596   1.692   2.024  11.611  0.4222 -2.1611 -2.5068
   38MPD2    H2  597   1.756   1.899  12.003 -0.5948 -1.8319  0.8057
   38MPD2    H3  598   1.664   2.035  11.859 -0.7314 -1.8043  0.9085
   38MPD2     N  599   1.887   1.877  11.491 -0.2260 -0.1957 -0.1760
   38MPD2    H5  600   1.977   1.831  11.482 -1.1776 -2.4598  1.5991
   38MPD2    N1  601   1.971   1.720  11.932  0.7320  0.8974 -0.0523
   38MPD2    H7  602   2.044   1.670  11.883  0.2525  1.8444 -1.7249
   39TMC2    C1  603   0.297   2.401   0.655  0.0221 -0.2945 -0.0558
   39TMC2    C2  604   0.292   2.305   0.751  0.0893 -0.3407  0.5461
   39TMC2    C3  605   0.413   2.292   0.822 -0.1059  0.0232  0.4783
   39TMC2    C4  606   0.403   2.486   0.634  0.1957  0.6822 -0.7393
   39TMC2    C5  607   0.515   2.467   0.706  0.2417 -0.5444 -0.3147
   39TMC2    C6  608   0.522   2.370   0.805  0.0440  0.6160  0.4225
   39TMC2     C  609   0.177   2.438   0.582 -0.3134  0.2895 -0.3764
   39TMC2     O  610   0.182   2.546   0.524 -0.0362 -0.2464  0.2826
   39TMC2     H  611   0.206   2.240   0.759 -1.3509  1.4177 -0.3966
   39TMC2    H1  612   0.408   2.547   0.545 -0.1727  3.4737  1.1702
   39TMC2    H2  613   0.607   2.374   0.871 -0.9157 -1.1212  1.7504
   39TMC2    C7  614   0.634   2.557   0.692 -0.0914  0.1164  0.0716
   39TMC2    C8  615   0.417   2.207   0.947  0.6976 -0.3072  0.3478
   39TMC2    O1  616   0.748   2.516   0.723  0.0482  0.1122  0.3027
   39TMC2    O2  617   0.471   2.248   1.049 -0.0559 -0.0026  0.4140
   39TMC2    O5  618   0.317   2.117   0.944  0.4853 -0.1531 -0.1090
   39TMC2    H5  619   0.306   2.086   0.852 -1.0713  1.5694 -0.4850
   40MPD2     C  620   4.601   2.243   0.517 -0.5335  0.4956  0.1355
   40MPD2    C1  621   4.678   2.356   0.520 -0.0641 -0.7136 -0.3371
   40MPD2    C2  622   4.631   2.464   0.456  0.6144 -0.7201 -0.4141
   40MPD2    C3  623   4.510   2.474   0.391  0.2250  0.5339  0.7839
   40MPD2    C4  624   4.437   2.358   0.386  0.1265  0.3014  0.1392
   40MPD2    C5  625   4.485   2.240   0.443 -0.3723  0.9366 -0.5593
   40MPD2     H  626   4.686   2.554   0.481  0.4673 -1.4225  2.5308
   40MPD2    H1  627   4.347   2.344   0.328  1.0918 -0.4409 -1.1889
   40MPD2    H2  628   4.643   2.154   0.562 -0.0228  0.5077 -0.3155
   40MPD2    H3  629   4.417   2.158   0.423  1.2196 -0.5551  0.1969
   40MPD2     N  630   4.457   2.591   0.324 -0.0313 -0.5393 -0.2556
   40MPD2    H5  631   4.373   2.583   0.268 -0.1045  4.8390 -0.9127
   40MPD2    N1  632   0.071   2.350   0.588  0.0528  0.0815 -0.2901
   40MPD2    H7  633   0.086   2.263   0.637  0.6236 -0.4666 -1.4491
   41TMC2    C1  634   4.163   1.317  12.854  0.0996 -0.4873  0.5542
   41TMC2    C2  635   4.186   1.429  12.920  0.0622 -0.9428 -0.0098
   41TMC2    C3  636   4.252   1.529  12.855  0.6241  0.4756  0.7686
   41TMC2    C4  637   4.205   1.306  12.725 -0.3744  0.5179  0.7124
   41TMC2    C5  638   4.270   1.405  12.659 -0.1170  0.0831  0.2174
   41TMC2    C6  639   4.299   1.517  12.729  0.3304 -0.0387  0.4957
   41TMC2     C  640   4.094   1.200  12.913  0.5032 -0.2682 -0.0574
   41TMC2     O  641   4.066   1.105  12.840  0.0971 -0.5698  0.0623
   41TMC2     H  642   4.146   1.454  13.018 -1.1656  0.7333 -0.9316
   41TMC2    H1  643   4.207   1.207  12.679  1.0116  0.9695 -0.1827
   41TMC2    H2  644   4.332   1.607  12.680 -1.5364  1.1373  1.4095
   41TMC2    C7  645   4.340   1.385  12.531  0.1865  0.0625 -0.8219
   41TMC2    C8  646   4.279   1.650  12.929  0.2479  0.0109  0.3679
   41TMC2    O1  647   4.430   1.466  12.507 -0.3704 -0.2325  0.3826
   41TMC2    O2  648   4.354   1.736  12.890 -0.3310 -0.7993  0.0650
   41TMC2    O5  649   4.170   1.676  13.003 -0.1935  0.4330  0.8098
   41TMC2    H5  650   4.095   1.613  13.010  0.2050 -0.1446 -0.1577
   42MPD2     C  651   4.018   0.965  13.085 -0.5703  0.5162  0.0596
   42MPD2    C1  652   4.024   1.097  13.130 -0.0044  0.9691  0.1009
   42MPD2    C2  653   3.991   1.123  13.264  0.7332 -0.1965  0.0964
   42MPD2    C3  654   3.962   1.018  13.352  0.3219 -0.4778  0.1167
   42MPD2    C4  655   3.956   0.885  13.302 -0.1932 -0.5095  0.0318
   42MPD2    C5  656   3.993   0.859  13.173  0.3865  0.9587  0.0137
   42MPD2     H  657   3.985   1.224  13.304 -1.4221 -0.9347  1.6041
   42MPD2    H1  658   3.922   0.798  13.357  0.3455 -1.9972 -1.9614
   42MPD2    H2  659   4.046   0.934  12.984  0.1598 -0.4234  0.5470
   42MPD2    H3  660   4.008   0.758  13.138 -1.2432 -0.3115  3.0133
   42MPD2     N  661   3.926   1.036  13.490 -0.3691 -0.6733  0.0375
   42MPD2    H5  662   3.914   0.949  13.541  1.3804 -2.5898 -2.8590
   42MPD2    N1  663   4.068   1.209  13.046  0.0272 -0.1083  0.2802
   42MPD2    H7  664   4.099   1.289  13.100  0.9476  0.4766 -1.1095
   43TMC2    C1  665   0.430   4.307   0.155  0.0288 -0.6999 -0.3288
   43TMC2    C2  666   0.294   4.343   0.167 -0.3714 -0.3444  0.0869
   43TMC2    C3  667   0.241   4.356   0.296  0.5915  0.2549  0.3738
   43TMC2    C4  668   0.498   4.268   0.268  0.1462  0.2740 -0.5315
   43TMC2    C5  669   0.441   4.285   0.393  0.3803 -0.0495 -0.8952
   43TMC2    C6  670   0.313   4.333   0.409 -0.2391 -0.6406 -0.8135
   43TMC2     C  671   0.492   4.282   0.034 -0.6956  0.2169  0.1770
   43TMC2     O  672   0.588   4.210   0.026 -0.0471  0.4258  0.4987
   43TMC2     H  673   0.231   4.347   0.080  0.8862  0.0665 -0.8000
   43TMC2    H1  674   0.604   4.247   0.264  0.1112 -0.0610  0.5248
   43TMC2    H2  675   0.254   4.345   0.500  0.1378 -3.1543 -0.2368
   43TMC2    C7  676   0.525   4.289   0.514  0.7468 -0.0237 -0.0339
   43TMC2    C8  677   0.107   4.407   0.296  0.7362 -0.3523  0.1359
   43TMC2    O1  678   0.648   4.293   0.496 -0.0280  0.1312  0.3462
   43TMC2    O2  679   0.039   4.394   0.195 -0.5706  0.1111 -0.1545
   43TMC2    O5  680   0.103   4.518   0.370 -0.0813  0.3273 -0.4854
   43TMC2    H5  681   0.168   4.531   0.442 -0.1446  0.1071 -0.3871
   44MPD2     C  682   0.495   4.310  17.259  0.0754 -0.0726  0.4687
   44MPD2    C1  683   0.564   4.222  17.345  0.2492 -0.4196 -0.7898
   44MPD2    C2  684   0.546   4.244  17.478  0.2440  0.3935 -0.1619
   44MPD2    C3  685   0.463   4.337  17.535  0.6976 -0.3163 -0.2563
   44MPD2    C4  686   0.412   4.433  17.454 -0.3273 -0.1020  0.4394
   44MPD2    C5  687   0.427   4.413  17.319 -0.0186 -0.1300 -0.5266
   44MPD2     H  688   0.586   4.162  17.537 -0.4427  0.2408  0.0936
   44MPD2    H1  689   0.358   4.521  17.487 -0.5188 -0.8053  2.0449
   44MPD2    H2  690   0.479   4.298  17.152 -1.6986  0.0051  0.7203
   44MPD2    H3  691   0.374   4.482  17.254 -0.3375  2.1729  2.1669
   44MPD2     N  692   0.438   4.351  17.672 -0.4528 -0.6239 -0.1407
   44MPD2    H5  693   0.384   4.436  17.690 -0.2832 -1.1436  2.8026
   44MPD2    N1  694   0.635   4.119  17.293  0.2018  0.5153 -0.3564
   44MPD2    H7  695   0.710   4.087  17.353 -0.4484  0.7890  0.6128
   45TMC2    C1  696   1.793   1.956   9.118 -0.5222 -0.2112  0.4170
   45TMC2    C2  697   1.674   1.930   9.042  0.1746 -0.4437 -0.1497
   45TMC2    C3  698   1.609   2.046   9.006  0.2558 -0.5775  0.2039
   45TMC2    C4  699   1.835   2.080   9.156 -0.0468 -0.7831  0.0609
   45TMC2    C5  700   1.758   2.190   9.129 -0.0205  0.6327 -0.3829
   45TMC2    C6  701   1.643   2.169   9.058  0.4057  0.4696 -0.4766
   45TMC2     C  702   1.874   1.841   9.162 -0.3459 -0.6897 -0.2103
   45TMC2     O  703   1.958   1.878   9.237 -0.2713 -0.6967  0.2802
   45TMC2     H  704   1.639   1.831   9.011  1.0687 -0.7013 -0.3401
   45TMC2    H1  705   1.924   2.101   9.216  1.1677 -1.1248 -1.6315
   45TMC2    H2  706   1.586   2.253   9.018 -1.4608  1.0283  3.3017
   45TMC2    C7  707   1.789   2.328   9.173  0.3810 -0.4662  0.7636
   45TMC2    C8  708   1.486   2.044   8.925 -0.8179  0.1462  0.3811
   45TMC2    O1  709   1.856   2.342   9.273 -0.0969 -0.3622 -0.3754
   45TMC2    O2  710   1.388   2.111   8.964  0.5475  0.1325 -0.3157
   45TMC2    O5  711   1.486   1.925   8.863 -0.0202 -0.3904 -0.1309
   45TMC2    H5  712   1.572   1.897   8.824  0.3877  0.3143  0.2702
   46MPD2     C  713   2.028   1.597   9.260  0.0853 -0.0086  0.8207
   46MPD2    C1  714   1.911   1.597   9.186 -1.0653 -0.3474  0.5661
   46MPD2    C2  715   1.841   1.478   9.177 -0.0516 -0.4853  0.4166
   46MPD2    C3  716   1.882   1.365   9.256 -0.2081  0.3681  0.2485
   46MPD2    C4  717   2.001   1.359   9.319 -0.1430 -0.4115  0.2240
   46MPD2    C5  718   2.067   1.482   9.323 -0.4400  0.4745  0.5334
   46MPD2     H  719   1.743   1.469   9.131  0.5546  0.7454 -1.1399
   46MPD2    H1  720   2.038   1.270   9.369  3.0963  1.5874  1.3846
   46MPD2    H2  721   2.088   1.687   9.265  0.5387 -0.3240  1.1209
   46MPD2    H3  722   2.162   1.491   9.375 -0.5247  1.6691  0.4765
   46MPD2     N  723   1.797   1.259   9.255 -0.2606 -0.0415 -0.0981
   46MPD2    H5  724   1.713   1.260   9.197 -0.6949 -1.9721  0.4978
   46MPD2    N1  725   1.842   1.713   9.125 -0.2229  0.0463 -0.2124
   46MPD2    H7  726   1.757   1.691   9.074 -1.1319  2.0074  0.4611
   47TMC2    C1  727   4.003   1.805   8.210  0.1380  0.2450  0.0735
   47TMC2    C2  728   3.970   1.862   8.091 -0.0593  0.5882  0.3797
   47TMC2    C3  729   3.840   1.861   8.049  0.5666 -0.3083 -0.4601
   47TMC2    C4  730   3.908   1.765   8.299 -0.7834 -0.4633 -0.0889
   47TMC2    C5  731   3.779   1.770   8.254  0.5000  0.2006  0.0482
   47TMC2    C6  732   3.743   1.818   8.130 -0.1961  0.0215 -0.5179
   47TMC2     C  733   4.147   1.785   8.233  0.2787  0.2962  0.0579
   47TMC2     O  734   4.222   1.828   8.147 -0.0184 -0.1713  0.6206
   47TMC2     H  735   4.042   1.901   8.021 -0.4747  0.7361  0.0319
   47TMC2    H1  736   3.932   1.703   8.384  1.6109 -0.3285 -0.6610
   47TMC2    H2  737   3.639   1.812   8.102 -0.5933 -1.6611  1.3103
   47TMC2    C7  738   3.669   1.724   8.338 -0.3842 -0.1771 -0.0514
   47TMC2    C8  739   3.812   1.900   7.913 -0.8241  0.7941 -0.3087
   47TMC2    O1  740   3.576   1.681   8.272 -0.0998  0.3621 -0.0837
   47TMC2    O2  741   3.887   1.883   7.815  0.2037 -0.0707 -0.2480
   47TMC2    O5  742   3.692   1.959   7.908 -0.1194 -0.4205 -0.1755
   47TMC2    H5  743   3.661   1.982   7.998  0.5738 -0.1950  0.0136
   48MPD2     C  744   4.401   1.779   8.374 -0.7071  0.6112 -0.0030
   48MPD2    C1  745   4.297   1.688   8.406  0.8064  0.1448 -0.2545
   48MPD2    C2  746   4.321   1.599   8.509 -0.4858  0.1400 -0.1452
   48MPD2    C3  747   4.446   1.582   8.562  0.7547 -0.3894 -0.2219
   48MPD2    C4  748   4.546   1.681   8.534 -0.4026  0.0428  0.4633
   48MPD2    C5  749   4.523   1.769   8.437 -0.2663  0.1880 -0.5552
   48MPD2     H  750   4.238   1.533   8.533  1.5660 -2.1105  0.6930
   48MPD2    H1  751   4.642   1.690   8.584  0.5059 -0.2997 -1.2125
   48MPD2    H2  752   4.387   1.856   8.299 -1.3518  0.3953 -0.1105
   48MPD2    H3  753   4.600   1.840   8.410  0.3683 -0.7141 -1.0965
   48MPD2     N  754   4.463   1.481   8.655  0.1032 -0.3594 -0.1737
   48MPD2    H5  755   4.386   1.416   8.656 -0.7259  0.6295  1.0182
   48MPD2    N1  756   4.169   1.708   8.341  0.1575 -0.6468 -0.1361
   48MPD2    H7  757   4.092   1.648   8.367 -1.4466  1.1975 -0.6296
   49TMC2    C1  758   2.454   4.432   9.841 -0.4749 -0.0833  0.4153
   49TMC2    C2  759   2.508   4.474   9.726  0.3913  0.6362 -0.0352
   49TMC2    C3  760   2.468   4.400   9.610 -0.4013  0.1566  0.0282
   49TMC2    C4  761   2.332   4.366   9.850 -0.0135 -0.4229  0.3273
   49TMC2    C5  762   2.280   4.323   9.727  0.7611 -0.7662  0.2269
   49TMC2    C6  763   2.349   4.333   9.606 -0.6900  0.4125  0.6317
   49TMC2     C  764   2.493   4.516   9.953  0.2574 -0.3897 -0.9539
   49TMC2     O  765   2.590   4.586   9.933 -0.3198  0.3706  0.2302
   49TMC2     H  766   2.606   4.520   9.717 -0.0287  1.7685  1.1585
   49TMC2    H1  767   2.281   4.342   9.942  0.1148 -0.4214  0.3986
   49TMC2    H2  768   2.309   4.295   9.513  0.9511 -0.8354  0.4267
   49TMC2    C7  769   2.206   4.199   9.741  0.5099  0.2681  0.6464
   49TMC2    C8  770   2.539   4.440   9.488  0.2310  0.1343 -0.3038
   49TMC2    O1  771   2.234   4.120   9.830 -1.0010  0.3303 -0.2608
   49TMC2    O2  772   2.621   4.529   9.484  0.1726 -0.1480  0.2658
   49TMC2    O5  773   2.494   4.372   9.385 -0.2398 -0.2776  0.1133
   49TMC2    H5  774   2.457   4.285   9.411  0.1799  0.0417  1.7467
   50MPD2     C  775   2.534   4.674  10.207 -0.4061 -0.5505  0.2323
   50MPD2    C1  776   2.444   4.570  10.188 -0.4068  0.1460 -0.5240
   50MPD2    C2  777   2.355   4.543  10.285 -0.0582 -1.0111 -1.0702
   50MPD2    C3  778   2.372   4.603  10.412  0.1644  0.3059 -0.3130
   50MPD2    C4  779   2.458   4.707  10.431 -0.1248  0.1030 -0.9395
   50MPD2    C5  780   2.550   0.005  10.329 -0.0078  0.2924  0.2382
   50MPD2     H  781   2.270   4.481  10.261  0.8176 -1.9404 -1.7596
   50MPD2    H1  782   2.460   0.007  10.533 -1.5971 -3.0733  0.1714
   50MPD2    H2  783   2.607   4.705  10.134 -3.3747  2.5445 -1.4162
   50MPD2    H3  784   2.630   0.072  10.357  0.8047 -0.4024 -0.4036
   50MPD2     N  785   2.282   4.581  10.523  0.0274 -0.0988 -0.5803
   50MPD2    H5  786   2.295   4.648  10.599 -0.8348 -1.8212  1.0880
   50MPD2    N1  787   2.419   4.506  10.066  0.1870  1.2252  0.0172
   50MPD2    H7  788   2.347   4.435  10.068  1.1329  0.2430 -1.0076
   51TMC2    C1  789   2.232   2.684   1.362  0.1410 -0.4382  0.1135
   51TMC2    C2  790   2.099   2.716   1.386  0.1488 -0.0386  0.4626
   51TMC2    C3  791   2.056   2.833   1.330 -0.1526  0.2558  1.4566
   51TMC2    C4  792   2.326   2.771   1.309 -0.3986 -0.9742 -0.2965
   51TMC2    C5  793   2.280   2.885   1.253  0.1820 -0.3765 -0.2962
   51TMC2    C6  794   2.143   2.914   1.252  0.1376 -0.5304  0.5900
   51TMC2     C  795   2.276   2.548   1.391 -0.3046 -0.4135  0.2151
   51TMC2     O  796   2.379   2.508   1.349  0.4289  0.2641 -0.1209
   51TMC2     H  797   2.020   2.657   1.431 -0.2082  0.0528 -0.0436
   51TMC2    H1  798   2.431   2.745   1.306  0.0242  0.7962 -0.4748
   51TMC2    H2  799   2.106   2.995   1.190  1.3559  0.9854  1.8416
   51TMC2    C7  800   2.375   2.954   1.167 -0.0113  0.5810  0.4904
   51TMC2    C8  801   1.917   2.834   1.290  0.6596  0.0261 -0.7888
   51TMC2    O1  802   2.494   2.928   1.183 -0.2275 -0.2110 -0.1309
   51TMC2    O2  803   1.859   2.731   1.263  0.3384  0.0185  0.5551
   51TMC2    O5  804   1.890   2.957   1.230 -0.0701  0.0951  0.1260
   51TMC2    H5  805   1.945   3.026   1.273 -0.9109  0.0359  1.3209
   52MPD2     C  806   2.226   2.080   1.592 -0.2190 -0.6720 -0.6519
   52MPD2    C1  807   2.324   2.139   1.521  0.5574  0.0172 -0.0278
   52MPD2    C2  808   2.303   2.266   1.481 -0.1771 -0.6292 -0.0618
   52MPD2    C3  809   2.200   2.349   1.523 -0.2275 -0.7989  0.7481
   52MPD2    C4  810   2.102   2.284   1.600 -0.0389  0.4794 -0.5944
   52MPD2    C5  811   2.114   2.150   1.626 -0.7239  0.0872  0.0086
   52MPD2     H  812   2.382   2.311   1.422 -1.2813  2.1435  0.5361
   52MPD2    H1  813   2.007   2.320   1.639  0.6852  0.3620  1.2615
   52MPD2    H2  814   2.232   1.980   1.633 -0.0685 -0.5546 -0.3876
   52MPD2    H3  815   2.039   2.105   1.689  0.4483 -1.0726  0.5760
   52MPD2     N  816   2.189   2.489   1.485  0.0307  0.5158 -0.5081
   52MPD2    H5  817   2.108   2.540   1.519  1.4472  2.3314  0.1188
   52MPD2    N1  818   2.435   2.067   1.465  0.3616  0.4924 -0.0414
   52MPD2    H7  819   2.500   2.126   1.415 -0.3850  1.3109 -0.0436
   53TMC2    C1  820   2.849   1.606  11.207 -0.2112  0.0940  0.8018
   53TMC2    C2  821   2.973   1.548  11.225 -0.5524  0.1131  0.1220
   53TMC2    C3  822   3.007   1.518  11.356 -0.2319 -0.6641  0.0309
   53TMC2    C4  823   2.766   1.633  11.309 -0.4751  0.4332 -0.5662
   53TMC2    C5  824   2.808   1.597  11.437  0.1821  0.1786  0.1143
   53TMC2    C6  825   2.928   1.547  11.467  0.4206  0.1949  0.3472
   53TMC2     C  826   2.810   1.657  11.077 -0.1907 -0.2209 -0.0460
   53TMC2     O  827   2.904   1.673  10.998 -0.1911 -0.9727  0.1398
   53TMC2     H  828   3.025   1.524  11.133 -0.3199  0.1481  0.2432
   53TMC2    H1  829   2.683   1.703  11.299  0.5175  1.8663  1.2239
   53TMC2    H2  830   2.963   1.516  11.565  1.0088 -1.0286 -0.2412
   53TMC2    C7  831   2.731   1.663  11.541  0.4479 -0.4197  0.8200
   53TMC2    C8  832   3.140   1.478  11.396  0.3087  0.3326  0.2371
   53TMC2    O1  833   2.615   1.679  11.509  0.6020 -0.4425  0.1282
   53TMC2    O2  834   3.179   1.493  11.511  0.0795  0.2915 -0.5034
   53TMC2    O5  835   3.213   1.493  11.284  0.4057 -0.5609 -0.3696
   53TMC2    H5  836   3.159   1.465  11.207 -0.6856  0.9787 -0.1702
   54MPD2     C  837   2.664   1.823  10.861  0.2893  0.5959  0.6162
   54MPD2    C1  838   2.609   1.762  10.972  0.7506 -0.8823  0.6763
   54MPD2    C2  839   2.477   1.771  11.000  0.5895  0.2539 -0.4358
   54MPD2    C3  840   2.398   1.860  10.934  0.5077 -0.6917  0.3901
   54MPD2    C4  841   2.450   1.923  10.827  0.3122  0.0409 -0.1616
   54MPD2    C5  842   2.579   1.902  10.783  0.3072  1.1250 -0.2258
   54MPD2     H  843   2.435   1.702  11.072  1.7744  1.2467  1.2057
   54MPD2    H1  844   2.391   1.991  10.766  0.4131  0.3104  0.0399
   54MPD2    H2  845   2.771   1.818  10.849  0.4388  2.6288  1.1152
   54MPD2    H3  846   2.619   1.949  10.695  0.6572  0.0678 -0.6303
   54MPD2     N  847   2.263   1.888  10.967 -0.1238  0.1156  0.8986
   54MPD2    H5  848   2.215   1.960  10.914 -0.4044 -0.6220  0.1446
   54MPD2    N1  849   2.681   1.689  11.067  0.6806  0.3135  0.1617
   54MPD2    H7  850   2.622   1.652  11.141  0.4925 -0.5219 -0.4091
   55TMC2    C1  851   3.193   3.833  17.267  0.1994 -0.1743  0.0466
   55TMC2    C2  852   3.173   3.817  17.128 -0.3308 -0.3320 -0.1955
   55TMC2    C3  853   3.187   3.687  17.085 -0.3313 -0.5192 -0.0359
   55TMC2    C4  854   3.203   3.729  17.360  0.1542 -0.7605 -0.4654
   55TMC2    C5  855   3.197   3.604  17.301 -0.4358 -0.2445 -0.0864
   55TMC2    C6  856   3.200   3.579  17.165 -0.6080 -0.5924  0.1595
   55TMC2     C  857   3.202   3.973  17.318  0.2155  0.0963  0.4366
   55TMC2     O  858   3.173   3.984  17.437  0.2246 -0.5999 -0.7809
   55TMC2     H  859   3.161   3.903  17.063  0.2839 -0.1072 -0.0118
   55TMC2    H1  860   3.232   3.745  17.464 -0.9216 -0.3339 -0.2310
   55TMC2    H2  861   3.193   3.477  17.132  1.6161 -0.7318  0.1117
   55TMC2    C7  862   3.225   3.494  17.386  0.3235 -0.3257  0.1688
   55TMC2    C8  863   3.128   3.670  16.951 -0.5401 -0.2759 -0.2944
   55TMC2    O1  864   3.292   3.395  17.348 -0.2894 -0.3219 -0.3637
   55TMC2    O2  865   3.148   3.566  16.891 -0.3551  0.2481  0.2659
   55TMC2    O5  866   3.004   3.710  16.988 -0.4711  0.0553  0.1530
   55TMC2    H5  867   2.996   3.763  17.071 -1.6663 -1.7078  1.1777
   56MPD2     C  868   3.301   4.284  17.139  0.2524  0.2220 -0.0432
   56MPD2    C1  869   3.260   4.202  17.244 -0.4793 -0.8985 -0.0658
   56MPD2    C2  870   3.242   4.258  17.366 -0.2937  0.0004  0.1184
   56MPD2    C3  871   3.228   4.393  17.379 -0.2370  0.8890 -0.2996
   56MPD2    C4  872   3.275   4.471  17.270 -0.2044  0.0257 -0.3272
   56MPD2    C5  873   3.308   4.415  17.151  0.8437 -0.5443 -0.2410
   56MPD2     H  874   3.230   4.190  17.449 -0.2200  1.3671  1.2626
   56MPD2    H1  875   3.286   4.579  17.266  2.2680 -0.1526  1.1472
   56MPD2    H2  876   3.333   4.244  17.043 -0.8873  2.1104 -1.2085
   56MPD2    H3  877   3.348   4.477  17.072 -1.1316 -1.0935 -1.6857
   56MPD2     N  878   3.177   4.442  17.497  0.2422  0.5701  0.8333
   56MPD2    H5  879   3.158   4.369  17.566  3.5289 -0.9338  0.1203
   56MPD2    N1  880   3.247   4.056  17.226  0.1938 -0.1513  0.0397
   56MPD2    H7  881   3.274   4.027  17.132  1.9091  0.5413  0.3260
   57TMC2    C1  882   2.526   0.301  12.903  0.4153  0.0711  0.0502
   57TMC2    C2  883   2.494   0.245  12.783 -0.1201 -0.1684  0.3045
   57TMC2    C3  884   2.594   0.193  12.712 -0.0566 -0.2047  0.1132
   57TMC2    C4  885   2.654   0.323  12.941  0.7638 -0.0020 -0.0102
   57TMC2    C5  886   2.757   0.278  12.860  0.1384 -0.3761 -0.3694
   57TMC2    C6  887   2.727   0.213  12.742  1.2330  0.5490  0.5545
   57TMC2     C  888   2.425   0.355  12.995 -0.4003  0.2781  0.1714
   57TMC2     O  889   2.467   0.422  13.089  0.4814 -0.2217 -0.5097
   57TMC2     H  890   2.389   0.229  12.759  0.0489 -0.0258 -0.5405
   57TMC2    H1  891   2.680   0.384  13.027  1.5373  1.6499 -1.4069
   57TMC2    H2  892   2.799   0.181  12.667  0.9058 -0.2323  0.5699
   57TMC2    C7  893   2.890   0.324  12.887 -0.5025  0.7300 -0.1677
   57TMC2    C8  894   2.562   0.105  12.607  0.1395  0.2678 -0.1212
   57TMC2    O1  895   2.906   0.407  12.976 -0.3128 -0.0283  0.3065
   57TMC2    O2  896   2.643   0.078  12.517 -0.4979 -0.0105  0.4033
   57TMC2    O5  897   2.429   0.073  12.596 -0.0585  0.1184  0.7761
   57TMC2    H5  898   2.381   0.072  12.681 -1.9243  0.1530 -0.2812
   58MPD2     C  899   1.964   0.286  13.234 -0.6357 -0.6682  0.0781
   58MPD2    C1  900   2.046   0.401  13.230  0.0743 -0.3219 -0.3725
   58MPD2    C2  901   2.170   0.394  13.166  0.3878 -0.0029 -0.5625
   58MPD2    C3  902   2.199   0.281  13.080  0.7497 -0.7040  0.1398
   58MPD2    C4  903   2.116   0.172  13.084  1.1169 -0.3323 -0.0735
   58MPD2    C5  904   2.002   0.186  13.158 -0.8225  0.0767 -0.2854
   58MPD2     H  905   2.238   0.477  13.179  0.1530 -0.0054  0.6403
   58MPD2    H1  906   2.121   0.084  13.022 -1.4945 -0.8935  0.5295
   58MPD2    H2  907   1.868   0.280  13.284 -1.3779  0.4227 -1.1901
   58MPD2    H3  908   1.935   0.101  13.161 -1.6831  0.8377  1.7218
   58MPD2     N  909   2.313   0.271  12.993  0.0572 -0.0900  0.0990
   58MPD2    H5  910   2.320   0.197  12.924 -0.1241  0.4266 -0.4718
   58MPD2    N1  911   2.019   0.519  13.305  0.0837 -0.0664 -0.0840
   58MPD2    H7  912   2.075   0.602  13.286  1.4451 -0.7489  0.9667
   59TMC2    C1  913   0.428   0.680  12.270 -0.6411 -0.2590  0.1593
   59TMC2    C2  914   0.326   0.590  12.241 -0.0420 -0.2036  0.0761
   59TMC2    C3  915   0.294   0.584  12.109  0.0770  0.2052  0.0727
   59TMC2    C4  916   0.504   0.738  12.178  0.0556  0.3182  0.6505
   59TMC2    C5  917   0.470   0.719  12.047 -0.5051 -0.3069  0.0060
   59TMC2    C6  918   0.365   0.642  12.007 -0.6565 -0.3510  0.3943
   59TMC2     C  919   0.429   0.733  12.407  0.2763 -0.1947  0.2582
   59TMC2     O  920   0.513   0.818  12.420  0.9879  0.1147 -0.1298
   59TMC2     H  921   0.264   0.543  12.316  0.6907 -0.9620  0.2055
   59TMC2    H1  922   0.595   0.792  12.202 -0.5963  1.6419  0.1551
   59TMC2    H2  923   0.353   0.617  11.902 -2.3579  0.4842  0.4005
   59TMC2    C7  924   0.573   0.766  11.953 -0.3914  0.0060  0.5208
   59TMC2    C8  925   0.208   0.465  12.073 -0.5798  1.2230 -0.5279
   59TMC2    O1  926   0.679   0.803  12.007 -0.3318  0.0047 -0.1074
   59TMC2    O2  927   0.183   0.367  12.140 -0.0077 -0.1539  0.1862
   59TMC2    O5  928   0.141   0.512  11.972  0.5140  0.0836  0.1706
   59TMC2    H5  929   0.176   0.597  11.936  1.0384  0.8928  2.6348
   60MPD2     C  930   0.268   0.597  12.710  0.2928  0.0785 -0.5391
   60MPD2    C1  931   0.348   0.684  12.641  0.7082 -0.1193  0.3298
   60MPD2    C2  932   0.424   0.777  12.707  0.3174  0.5158 -0.7904
   60MPD2    C3  933   0.430   0.780  12.847  0.0363  0.5187  0.8143
   60MPD2    C4  934   0.353   0.689  12.922  0.2046 -0.6448 -1.2785
   60MPD2    C5  935   0.275   0.604  12.849  0.0053  0.5663  0.0843
   60MPD2     H  936   0.459   0.866  12.656  0.1789  1.2940  0.4712
   60MPD2    H1  937   0.361   0.677  13.029 -0.5629 -0.3910 -1.1956
   60MPD2    H2  938   0.201   0.526  12.663  0.5888 -1.6939  1.7106
   60MPD2    H3  939   0.214   0.535  12.906 -0.2894 -0.9981 -2.1664
   60MPD2     N  940   0.516   0.871  12.911 -0.7434  0.5409 -0.3533
   60MPD2    H5  941   0.573   0.933  12.855 -1.8647  1.6829 -0.2144
   60MPD2    N1  942   0.354   0.663  12.499 -0.0268  0.4763  0.2957
   60MPD2    H7  943   0.296   0.588  12.461 -0.6142  0.8000  0.5571
   61TMC2    C1  944   4.568   1.878  15.392  0.4790  0.4618  0.4695
   61TMC2    C2  945   4.502   1.814  15.488 -0.4762 -0.3473  0.5032
   61TMC2    C3  946   4.408   1.885  15.546 -0.1950 -0.3659 -0.6312
   61TMC2    C4  947   4.543   2.007  15.361  0.5507 -0.6170  0.2180
   61TMC2    C5  948   4.450   2.079  15.432  0.8872 -0.3159 -0.2056
   61TMC2    C6  949   4.377   2.015  15.534  0.1451 -0.6760 -0.2001
   61TMC2     C  950   4.601   1.790  15.287 -0.1768  0.4669  0.0880
   61TMC2     O  951   4.662   1.690  15.310  0.1249  0.0769  0.0978
   61TMC2     H  952   4.529   1.714  15.519  1.3593 -0.1603 -0.4968
   61TMC2    H1  953   4.587   2.048  15.271  1.2237 -1.8439 -0.0158
   61TMC2    H2  954   4.300   2.063  15.593  2.1399  3.0169 -0.5945
   61TMC2    C7  955   4.387   2.185  15.362  0.4722 -0.0285  0.1474
   61TMC2    C8  956   4.340   1.816  15.649  0.3656 -0.6163  0.0634
   61TMC2    O1  957   4.461   2.242  15.286  0.3735 -0.3494 -0.2800
   61TMC2    O2  958   4.303   1.866  15.752  0.2242  0.4206 -0.5407
   61TMC2    O5  959   4.303   1.697  15.596  0.8809 -0.0541  0.5785
   61TMC2    H5  960   4.327   1.681  15.502  0.9278  3.9036 -0.0892
   62MPD2     C  961   4.709   1.706  15.031 -0.3287  0.4572  0.0096
   62MPD2    C1  962   4.590   1.777  15.038  0.2998  0.1045  0.5640
   62MPD2    C2  963   4.529   1.821  14.921  0.0056  0.0601 -0.1757
   62MPD2    C3  964   4.592   1.788  14.803  0.2464 -1.1651 -0.4639
   62MPD2    C4  965   4.701   1.712  14.794  0.3313  0.9857 -0.4393
   62MPD2    C5  966   0.023   1.665  14.908  0.1125 -0.5914  0.6033
   62MPD2     H  967   4.444   1.886  14.936  0.8497  0.7243  1.8770
   62MPD2    H1  968   0.011   1.684  14.699 -1.1178 -2.0779 -0.1933
   62MPD2    H2  969   0.033   1.682  15.118  0.1048  0.0541 -0.3975
   62MPD2    H3  970   0.111   1.601  14.900 -0.2080 -0.9053 -0.3203
   62MPD2     N  971   4.539   1.835  14.684  0.1302 -0.1593  0.3792
   62MPD2    H5  972   4.582   1.820  14.594 -0.8959 -4.6668  0.6620
   62MPD2    N1  973   4.542   1.825  15.166 -0.1173  0.0120  0.0547
   62MPD2    H7  974   4.468   1.894  15.163  0.5295  0.7586  1.1258
   63TMC2    C1  975   4.623   2.033   9.884 -0.0618 -0.6397  0.5669
   63TMC2    C2  976   4.680   1.997   9.999 -0.1769 -0.2307  0.7941
   63TMC2    C3  977   0.019   2.098  10.063  0.4380  0.7095  0.7262
   63TMC2    C4  978   4.641   2.161   9.825 -0.0966  0.4398 -0.3977
   63TMC2    C5  979   4.716   2.252   9.891  0.1721  0.2044  1.0309
   63TMC2    C6  980   0.031   2.226  10.014  0.5446  0.3482 -0.1932
   63TMC2     C  981   4.519   1.952   9.821  0.0285  0.0167  0.3536
   63TMC2     O  982   4.457   2.006   9.730 -0.2588  0.2140 -0.1629
   63TMC2     H  983   4.652   1.918  10.068 -3.4228  0.6889  0.5041
   63TMC2    H1  984   4.616   2.178   9.721 -0.1752 -0.1710 -0.4760
   63TMC2    H2  985   0.081   2.308  10.064 -0.4913  0.0434  1.3449
   63TMC2    C7  986   4.717   2.393   9.859  0.1693  1.0615  0.2318
   63TMC2    C8  987   0.101   2.062  10.173  0.0998  1.0766  0.1819
   63TMC2    O1  988   0.072   2.461   9.903  0.8715 -0.2141  0.2603
   63TMC2    O2  989   0.056   2.066  10.285  0.1584 -0.3468 -0.5217
   63TMC2    O5  990   0.164   1.949  10.130  0.2764 -0.5475 -0.0752
   63TMC2    H5  991   0.192   1.968  10.037 -1.2731  0.0139 -0.4169
   64MPD2     C  992   4.239   1.525   9.790 -0.1547  0.0820 -0.0250
   64MPD2    C1  993   4.325   1.516   9.897 -0.8399 -0.5508  0.3518
   64MPD2    C2  994   4.407   1.623   9.927 -0.7587  0.4527 -0.7056
   64MPD2    C3  995   4.405   1.734   9.846 -0.4722 -0.6070 -0.5443
   64MPD2    C4  996   4.329   1.738   9.733  0.3791  0.6646  0.1485
   64MPD2    C5  997   4.241   1.633   9.709  0.3810 -0.1436  0.7671
   64MPD2     H  998   4.467   1.622  10.017  1.0012 -2.7195 -1.8982
   64MPD2    H1  999   4.329   1.820   9.662  0.8001 -0.0916 -0.7261
   64MPD2    H2 1000   4.181   1.443   9.749  0.7615 -0.4575 -0.2254
   64MPD2    H3 1001   4.178   1.645   9.621  1.2800 -1.0089  0.0079
   64MPD2     N 1002   4.504   1.825   9.881  0.0066  0.3917 -0.2791
   64MPD2    H5 1003   4.548   1.804   9.970 -0.8144  0.3130  0.1179
   64MPD2    N1 1004   4.331   1.394   9.977  0.2775 -0.6017 -0.0824
   64MPD2    H7 1005   4.408   1.397  10.044 -0.5012  1.4455  0.6960
   65TMC2    C1 1006   0.280   1.373  15.249  0.6771 -0.9490  0.2309
   65TMC2    C2 1007   0.306   1.341  15.117 -0.1531 -0.1275 -0.3649
   65TMC2    C3 1008   0.332   1.446  15.028  0.1636 -0.4992 -0.5803
   65TMC2    C4 1009   0.294   1.498  15.293  0.5302 -0.2365 -0.3804
   65TMC2    C5 1010   0.335   1.601  15.200 -0.1446 -0.1279 -0.2362
   65TMC2    C6 1011   0.349   1.577  15.066  0.8777 -0.0452 -0.0038
   65TMC2     C 1012   0.243   1.277  15.359  0.6752  0.0896  0.0848
   65TMC2     O 1013   0.229   1.316  15.474  0.5146 -0.5483  0.0252
   65TMC2     H 1014   0.287   1.239  15.087  1.2183 -0.3467 -0.4487
   65TMC2    H1 1015   0.301   1.515  15.400 -4.0664  0.8904 -0.2428
   65TMC2    H2 1016   0.373   1.658  14.999 -0.3030  1.3384  1.2254
   65TMC2    C7 1017   0.354   1.735  15.251  0.2332  0.0362 -0.0377
   65TMC2    C8 1018   0.326   1.414  14.882 -0.3940  0.1630 -0.3548
   65TMC2    O1 1019   0.409   1.808  15.173  0.3104 -0.8125 -0.2407
   65TMC2    O2 1020   0.372   1.497  14.804  0.3212  0.2592  0.3910
   65TMC2    O5 1021   0.205   1.367  14.864 -0.2140 -0.0439  0.2512
   65TMC2    H5 1022   0.151   1.347  14.943 -1.0844  2.2116  0.2309
   66MPD2     C 1023   0.077   1.060  15.490  0.4689  0.2151 -0.2448
   66MPD2    C1 1024   0.152   1.041  15.377 -0.0834  0.0322  0.5580
   66MPD2    C2 1025   0.144   0.920  15.317 -0.4504  0.0900  0.4914
   66MPD2    C3 1026   0.067   0.818  15.361  0.1737 -0.0248  0.9741
   66MPD2    C4 1027   0.012   0.841  15.489 -0.4190 -0.1513  0.5120
   66MPD2    C5 1028   0.016   0.961  15.550 -0.0565 -0.1459 -0.0494
   66MPD2     H 1029   0.196   0.910  15.222 -0.7258 -1.1608  0.4603
   66MPD2    H1 1030   4.685   0.764  15.533  0.6355 -0.7637  0.9571
   66MPD2    H2 1031   0.078   1.149  15.552 -1.7056 -2.2780  3.3221
   66MPD2    H3 1032   4.697   0.974  15.642  1.2569  0.0561  0.6913
   66MPD2     N 1033   0.050   0.695  15.299  0.2026 -0.5089  0.0541
   66MPD2    H5 1034   4.718   0.637  15.347 -0.4055  0.4064  0.3155
   66MPD2    N1 1035   0.217   1.150  15.308  0.5158  0.1332 -0.2179
   66MPD2    H7 1036   0.249   1.138  15.212  0.7721 -0.0208 -0.1154
   67TMC2    C1 1037   0.572   0.644  14.103 -0.1213 -0.2040  0.4984
   67TMC2    C2 1038   0.583   0.752  14.021  0.4305 -0.0370 -0.0120
   67TMC2    C3 1039   0.691   0.834  14.032  0.0050  0.2948 -0.3828
   67TMC2    C4 1040   0.667   0.617  14.201 -0.4490 -0.0563 -0.3642
   67TMC2    C5 1041   0.769   0.705  14.209 -0.0449 -0.1359 -0.2301
   67TMC2    C6 1042   0.789   0.820  14.130  0.0998 -0.3861  0.5159
   67TMC2     C 1043   0.486   0.536  14.056  0.2674 -0.3997  0.6920
   67TMC2     O 1044   0.530   0.424  14.060  0.3277 -0.1932 -0.0171
   67TMC2     H 1045   0.508   0.770  13.945 -0.8177 -0.2710  1.1587
   67TMC2    H1 1046   0.663   0.529  14.263  0.9514  0.2519  0.1586
   67TMC2    H2 1047   0.874   0.885  14.146  0.1973 -0.3620 -0.1290
   67TMC2    C7 1048   0.846   0.698  14.334  0.7174 -0.7833  0.6338
   67TMC2    C8 1049   0.697   0.951  13.945 -0.3168 -0.4314 -0.0942
   67TMC2    O1 1050   0.964   0.728  14.328 -0.0720  0.2604 -0.0171
   67TMC2    O2 1051   0.656   0.939  13.829 -0.2400  0.0293  0.0839
   67TMC2    O5 1052   0.666   1.056  14.022  0.6132 -0.4911 -0.5643
   67TMC2    H5 1053   0.711   1.055  14.109  1.6396  2.3844 -1.0759
   68MPD2     C 1054   0.347   0.410  13.827 -0.1034 -1.0749  0.8352
   68MPD2    C1 1055   0.303   0.526  13.882 -0.2061  0.0052  0.2565
   68MPD2    C2 1056   0.182   0.579  13.848 -0.0378  0.1994  0.6289
   68MPD2    C3 1057   0.108   0.531  13.742  0.0018 -0.5529 -0.2062
   68MPD2    C4 1058   0.155   0.416  13.683 -0.3021 -0.0900  0.4152
   68MPD2    C5 1059   0.269   0.354  13.722  0.0411  0.4500 -0.1274
   68MPD2     H 1060   0.150   0.666  13.904  0.8020  0.8578  0.1031
   68MPD2    H1 1061   0.100   0.375  13.599 -1.5857  1.8727  0.2967
   68MPD2    H2 1062   0.440   0.360  13.853  0.8315 -0.6237 -1.7036
   68MPD2    H3 1063   0.300   0.269  13.662  2.2013 -0.5795  2.4836
   68MPD2     N 1064   4.715   0.584  13.700  0.2776  0.0084 -0.6017
   68MPD2    H5 1065   4.682   0.550  13.611  2.1223 -0.1873 -1.2126
   68MPD2    N1 1066   0.375   0.592  13.989 -0.0974  0.1443  0.5657
   68MPD2    H7 1067   0.342   0.684  14.017  3.1411  0.7217  2.5985
   69TMC2    C1 1068   2.844   2.222  11.974 -0.6686 -0.3884 -0.4203
   69TMC2    C2 1069   2.786   2.342  11.939 -0.1556  0.3935 -0.0766
   69TMC2    C3 1070   2.768   2.369  11.807  0.5769  0.5402 -0.4656
   69TMC2    C4 1071   2.877   2.136  11.869  1.1166  0.3793  0.2413
   69TMC2    C5 1072   2.858   2.169  11.743  0.3687 -1.2554  0.0332
   69TMC2    C6 1073   2.799   2.286  11.701 -0.1012 -0.3373  0.2646
   69TMC2     C 1074   2.840   2.179  12.120  0.2086  0.2244 -0.7448
   69TMC2     O 1075   2.759   2.235  12.189  0.3573 -0.1312 -0.3247
   69TMC2     H 1076   2.738   2.409  12.010 -0.0270 -2.6537  2.8928
   69TMC2    H1 1077   2.912   2.036  11.891 -0.0662 -0.1910 -0.5144
   69TMC2    H2 1078   2.774   2.309  11.598 -1.4356  0.6227  0.7997
   69TMC2    C7 1079   2.916   2.077  11.649  0.7658  0.0375 -0.9392
   69TMC2    C8 1080   2.699   2.485  11.763  0.9333 -0.3420 -0.8499
   69TMC2    O1 1081   3.018   2.018  11.681  0.0586 -0.2570 -0.2125
   69TMC2    O2 1082   2.620   2.548  11.827  0.2195 -0.5689  0.1171
   69TMC2    O5 1083   2.762   2.536  11.652 -0.8021 -0.7783  0.4557
   69TMC2    H5 1084   2.833   2.481  11.614  0.2288 -0.6297  2.1379
   70MPD2     C 1085   3.038   1.956  12.319  0.6679  0.0820 -0.0137
   70MPD2    C1 1086   2.918   2.011  12.278  0.4632 -0.8108  0.3305
   70MPD2    C2 1087   2.809   2.009  12.367  0.8455  0.1362 -0.2594
   70MPD2    C3 1088   2.819   1.957  12.491  0.4523 -0.5090 -0.0579
   70MPD2    C4 1089   2.944   1.897  12.529 -0.3010  0.3455  0.7933
   70MPD2    C5 1090   3.049   1.894  12.439 -0.3777 -0.2510  1.1512
   70MPD2     H 1091   2.713   2.056  12.345 -0.4021 -2.0747  0.4475
   70MPD2    H1 1092   2.951   1.858  12.630  0.7262 -4.2325 -1.0255
   70MPD2    H2 1093   3.123   1.949  12.252 -1.0962  0.4418 -2.2864
   70MPD2    H3 1094   3.139   1.839  12.468 -0.0186 -0.6172 -0.6796
   70MPD2     N 1095   2.722   1.961  12.592 -0.4312 -0.2693  0.0732
   70MPD2    H5 1096   2.740   1.915  12.681 -0.1320 -2.8864 -1.3215
   70MPD2    N1 1097   2.927   2.079  12.150 -0.2060 -0.3591  0.1688
   70MPD2    H7 1098   3.010   2.059  12.096  0.1523  1.4522  0.0476
   71TMC2    C1 1099   0.103   2.234   0.225  0.4890 -0.2578 -0.5124
   71TMC2    C2 1100   0.231   2.267   0.233  0.8151 -0.0091 -0.2389
   71TMC2    C3 1101   0.325   2.174   0.282  0.3602 -0.0625  0.1969
   71TMC2    C4 1102   0.056   2.117   0.286 -0.2514 -0.0474  0.0382
   71TMC2    C5 1103   0.152   2.022   0.323 -0.4995  0.0659 -0.1894
   71TMC2    C6 1104   0.285   2.050   0.317  0.0603  0.0003 -0.3265
   71TMC2     C 1105   0.032   2.304   0.124  0.7579  0.2117  0.9598
   71TMC2     O 1106   0.075   2.415   0.089 -0.3367  0.7073  0.1381
   71TMC2     H 1107   0.266   2.368   0.224  1.4853 -0.5119 -3.0718
   71TMC2    H1 1108   4.686   2.094   0.283 -0.3774  0.3412  1.5154
   71TMC2    H2 1109   0.370   1.990   0.348 -1.9096 -1.5077  2.1506
   71TMC2    C7 1110   0.105   1.934   0.429  0.1609  0.2991 -0.3201
   71TMC2    C8 1111   0.461   2.212   0.308  0.3726 -0.0306  0.7057
   71TMC2    O1 1112   0.195   1.880   0.493 -0.7171  0.5781 -0.3554
   71TMC2    O2 1113   0.518   2.206   0.415 -0.0847 -0.3683  0.4834
   71TMC2    O5 1114   0.491   2.292   0.206 -0.0306 -0.2883 -0.6818
   71TMC2    H5 1115   0.443   2.266   0.124 -0.3792  0.8877 -0.8534
   72MPD2     C 1116   4.348   2.368  17.587  0.0266  0.1865  0.9415
   72MPD2    C1 1117   4.434   2.455  17.638 -0.6077  0.0356 -0.2806
   72MPD2    C2 1118   4.542   2.415  17.708  0.3685  0.1498  0.3916
   72MPD2    C3 1119   4.564   2.282  17.740 -0.7502 -0.0927  0.3806
   72MPD2    C4 1120   4.478   2.194  17.685 -0.6229 -0.2722  0.0436
   72MPD2    C5 1121   4.370   2.237  17.610 -0.1377 -0.1370  0.5320
   72MPD2     H 1122   4.605   2.490   0.013  0.0412 -0.5252  1.9615
   72MPD2    H1 1123   4.487   2.088  17.705 -3.7755 -0.7073 -0.9362
   72MPD2    H2 1124   4.267   2.404  17.525  1.3761  1.2831 -0.1982
   72MPD2    H3 1125   4.304   2.162  17.567  0.4366 -0.7560  0.7253
   72MPD2     N 1126   4.655   2.232   0.092 -0.2564  0.0418 -0.3292
   72MPD2    H5 1127   4.650   2.135   0.122 -1.1885 -0.3593 -1.8043
   72MPD2    N1 1128   4.421   2.597  17.609  0.6713 -0.1371  0.0975
   72MPD2    H7 1129   4.477   2.656  17.671  1.0580  2.0888 -2.3978
   73TMC2    C1 1130   4.076   4.299  13.539 -0.7394  0.4343 -0.2674
   73TMC2    C2 1131   4.043   4.308  13.669  0.1201  0.3206  0.7570
   73TMC2    C3 1132   4.132   4.253  13.760 -0.2268 -0.1513  0.0427
   73TMC2    C4 1133   4.182   4.226  13.500  0.0883  0.0714 -0.3436
   73TMC2    C5 1134   4.259   4.156  13.591 -0.0075 -0.2710  0.5759
   73TMC2    C6 1135   4.234   4.179  13.726  0.8756  0.0577 -0.5795
   73TMC2     C 1136   4.073   4.424  13.468  0.3015  0.2904 -0.8321
   73TMC2     O 1137   4.173   4.445  13.396 -0.1485  0.1487  0.7323
   73TMC2     H 1138   3.962   4.373  13.702  0.1499  0.4445  0.5850
   73TMC2    H1 1139   4.200   4.222  13.394 -0.5626 -0.8190 -0.4191
   73TMC2    H2 1140   4.317   4.151  13.791 -0.0322 -0.8825  0.1655
   73TMC2    C7 1141   4.406   4.171  13.568 -0.2299  0.1646 -0.4051
   73TMC2    C8 1142   4.140   4.293  13.900 -0.6239 -0.0342 -0.1394
   73TMC2    O1 1143   4.487   4.097  13.623 -0.4726  0.1940 -0.6052
   73TMC2    O2 1144   4.216   4.229  13.975 -0.3472  0.4132  0.4141
   73TMC2    O5 1145   4.119   4.425  13.916 -0.0122  0.3177  0.3259
   73TMC2    H5 1146   4.104   4.469  13.829  1.8787  2.7515  1.2352
   74MPD2     C 1147   3.913   0.170  13.378 -0.3630 -0.8589  0.4206
   74MPD2    C1 1148   4.040   0.113  13.374 -0.3841  0.1898  0.5967
   74MPD2    C2 1149   4.045   4.715  13.409 -0.3720  0.1459 -0.4426
   74MPD2    C3 1150   3.939   4.638  13.444  0.4304 -0.6863 -0.1963
   74MPD2    C4 1151   3.817   4.697  13.442  0.1513 -0.1383  0.4113
   74MPD2    C5 1152   3.805   0.091  13.409 -0.2654  0.1218  0.0581
   74MPD2     H 1153   4.140   4.664  13.414  0.1682  0.9629 -2.3256
   74MPD2    H1 1154   3.724   4.646  13.465 -1.1098  2.0340  0.1028
   74MPD2    H2 1155   3.896   0.271  13.343 -2.9716 -0.9249  1.4912
   74MPD2    H3 1156   3.708   0.136  13.391 -1.0670 -0.7951  2.0950
   74MPD2     N 1157   3.958   4.499  13.474  0.3474 -0.7620  0.1600
   74MPD2    H5 1158   3.877   4.452  13.514 -0.1640 -0.8022 -0.9363
   74MPD2    N1 1159   4.155   0.199  13.349  0.1047 -0.1327  0.0880
   74MPD2    H7 1160   4.130   0.295  13.332 -4.0722 -1.6828 -2.3586
   75TMC2    C1 1161   4.541   0.750  13.708 -0.3086 -0.4610 -0.8142
   75TMC2    C2 1162   4.461   0.830  13.785 -0.1693 -0.6100 -0.4168
   75TMC2    C3 1163   4.394   0.931  13.725  0.7429  0.2339 -0.0223
   75TMC2    C4 1164   4.545   0.758  13.566 -0.2965 -0.0128  0.3255
   75TMC2    C5 1165   4.468   0.861  13.513  0.0718 -0.7358 -0.0666
   75TMC2    C6 1166   4.400   0.955  13.592  0.2220  0.3730  0.1793
   75TMC2     C 1167   4.647   0.676  13.776  0.0970  0.1013 -0.1897
   75TMC2     O 1168   4.660   0.701  13.896 -0.5042 -0.9216 -0.1911
   75TMC2     H 1169   4.458   0.818  13.893 -0.3065  1.0809 -0.2263
   75TMC2    H1 1170   4.614   0.693  13.513 -1.1292 -0.3966 -0.2964
   75TMC2    H2 1171   4.330   1.025  13.548 -0.6218 -1.1772 -0.9109
   75TMC2    C7 1172   4.469   0.877  13.364  0.5982 -0.4724  0.3647
   75TMC2    C8 1173   4.272   0.972  13.791 -0.4036  0.2109  1.0260
   75TMC2    O1 1174   4.503   0.785  13.290 -0.0377  0.0233 -0.8087
   75TMC2    O2 1175   4.212   1.076  13.764 -0.2686  0.1798 -0.7009
   75TMC2    O5 1176   4.209   0.854  13.822 -0.6577  0.1429  0.0933
   75TMC2    H5 1177   4.274   0.780  13.819  1.7807  2.3793 -2.1069
   76TMC2    C1 1178   3.138   0.981  11.609  0.3439  0.0462  0.4853
   76TMC2    C2 1179   3.004   1.003  11.602  0.1254  0.0420  0.0346
   76TMC2    C3 1180   2.926   0.940  11.688 -0.3773  0.2260 -0.4072
   76TMC2    C4 1181   3.196   0.913  11.707 -0.2114  0.0987  0.2061
   76TMC2    C5 1182   3.109   0.859  11.798 -0.3173  0.6036  0.3429
   76TMC2    C6 1183   2.973   0.862  11.785  0.1937  0.1780 -0.5277
   76TMC2     C 1184   3.219   1.055  11.513  0.5812 -0.0060 -0.6989
   76TMC2     O 1185   3.164   1.148  11.457  0.0011 -0.1944  0.0724
   76TMC2     H 1186   2.962   1.053  11.515  0.4328 -0.3177 -0.3239
   76TMC2    H1 1187   3.301   0.917  11.733  0.0720  1.5156 -1.1571
   76TMC2    H2 1188   2.908   0.819  11.860 -1.5907 -0.2707 -2.3275
   76TMC2    C7 1189   3.155   0.826  11.932 -0.7799  0.4660 -0.3408
   76TMC2    C8 1190   2.796   0.903  11.636 -0.4192 -0.3083 -0.0532
   76TMC2    O1 1191   3.078   0.843  12.024  0.5774 -0.2680 -0.3355
   76TMC2    O2 1192   2.692   0.954  11.673  0.4768  0.1343  0.5930
   76TMC2    O5 1193   2.810   0.772  11.602 -0.2032 -0.0414 -0.1961
   76TMC2    H5 1194   2.901   0.740  11.582 -0.6811 -1.4419 -0.0843
   77MPD2     C 1195   3.666   1.260  11.361 -0.4722  0.8534  0.1078
   77MPD2    C1 1196   3.538   1.310  11.353 -0.0454  0.1747 -0.0784
   77MPD2    C2 1197   3.434   1.236  11.402 -0.1672 -0.1048 -0.0353
   77MPD2    C3 1198   3.454   1.120  11.466 -0.4219  0.1467 -0.0078
   77MPD2    C4 1199   3.585   1.070  11.463  0.0990 -0.1790  0.3847
   77MPD2    C5 1200   3.686   1.142  11.413 -0.5071 -0.7734 -0.4777
   77MPD2     H 1201   3.335   1.279  11.389  1.0273  2.6064 -0.3304
   77MPD2    H1 1202   3.608   0.972  11.502  0.6493 -0.7524 -1.3873
   77MPD2    H2 1203   3.756   1.303  11.320  0.6930  0.7693  2.6200
   77MPD2    H3 1204   3.783   1.098  11.396 -1.2386 -2.0962 -1.2722
   77MPD2     N 1205   3.358   1.035  11.521  0.0704  0.0915  0.3202
   77MPD2    H5 1206   3.391   0.959  11.580 -0.9239 -2.2950 -2.1832
   77MPD2    N1 1207   3.516   1.437  11.299 -0.2599 -0.3539 -0.0449
   77MPD2    H7 1208   3.427   1.485  11.293  0.1497  0.3718 -0.2255
   78TMC2    C1 1209   4.323   2.236   1.243 -0.4187  0.1961  0.1953
   78TMC2    C2 1210   4.335   2.357   1.192 -0.0694 -0.1381 -0.3826
   78TMC2    C3 1211   4.455   2.417   1.219  0.2269 -0.6349  1.3307
   78TMC2    C4 1212   4.421   2.174   1.315  0.3304 -0.2358 -0.0165
   78TMC2    C5 1213   4.535   2.235   1.327  0.6854  0.5387 -0.0715
   78TMC2    C6 1214   4.556   2.368   1.294  0.9954  0.5760  0.5615
   78TMC2     C 1215   4.203   2.153   1.203  0.2929 -0.2427  0.7212
   78TMC2     O 1216   4.215   2.031   1.223 -0.0894 -0.2496 -0.2626
   78TMC2     H 1217   4.268   2.407   1.123  0.5211  1.9588  0.5486
   78TMC2    H1 1218   4.407   2.067   1.327  4.3373 -0.9808 -1.9972
   78TMC2    H2 1219   4.659   2.398   1.286  1.6434 -2.3186 -2.1352
   78TMC2    C7 1220   4.647   2.158   1.365 -0.4552  0.6119  0.3826
   78TMC2    C8 1221   4.470   2.547   1.157 -0.7048  0.2194 -0.2959
   78TMC2    O1 1222   0.023   2.188   1.320  0.2040 -0.2935  0.4838
   78TMC2    O2 1223   4.393   2.598   1.078 -0.9913  0.0764  0.2889
   78TMC2    O5 1224   4.575   2.615   1.215 -0.0259 -0.0551 -0.4282
   78TMC2    H5 1225   4.632   2.573   1.283  0.4180 -1.2335 -1.5148
   79MPD1     C 1226   3.816   2.128   0.897  0.4311  0.4180  0.0103
   79MPD1    C1 1227   3.879   2.022   0.957 -0.0644  0.2989 -0.0611
   79MPD1    C2 1228   3.966   2.061   1.059 -0.4440 -0.5525 -0.1007
   79MPD1    C3 1229   4.000   2.197   1.080 -0.2424 -0.1897  0.1063
   79MPD1    C4 1230   3.932   2.294   1.014 -0.2087  0.6945 -0.9041
   79MPD1    C5 1231   3.843   2.256   0.919  0.1513 -0.8039 -0.3671
   79MPD1     H 1232   4.008   1.979   1.115  1.0407 -1.1362 -2.0654
   79MPD1    H1 1233   3.945   2.400   1.035 -1.9595  0.6246  0.5160
   79MPD1    H2 1234   3.741   2.097   0.824  0.7525  2.9111 -1.3750
   79MPD1    H3 1235   3.785   2.329   0.863 -2.6514 -2.1597  0.7706
   79MPD1     N 1236   4.108   2.238   1.161 -0.6133  0.7228 -0.6790
   79MPD1    H5 1237   4.126   2.336   1.179  0.1901  0.8874 -2.4511
   79MPD1    N1 1238   3.833   1.891   0.951 -0.1265 -0.0630 -0.2824
   79MPD1    H6 1239   3.781   1.870   0.866 -0.8990 -0.9865  0.4260
   79MPD1    H7 1240   3.898   1.815   0.970  0.6691  0.6702 -0.0572
   80TMC2    C1 1241   2.584   1.204  11.480  0.4599 -0.4028  0.2500
   80TMC2    C2 1242   2.552   1.279  11.370  0.2763  1.0197 -0.1336
   80TMC2    C3 1243   2.431   1.326  11.352  0.1347 -0.5530 -0.6011
   80TMC2    C4 1244   2.482   1.159  11.559 -0.5237 -0.1308 -0.0335
   80TMC2    C5 1245   2.354   1.197  11.524 -0.4935  0.2610 -0.1295
   80TMC2    C6 1246   2.324   1.274  11.421 -0.2833 -0.3805  0.0509
   80TMC2     C 1247   2.691   1.261  11.560 -0.0367 -0.4293  0.3676
   80TMC2     O 1248   2.802   1.271  11.514  0.0064  0.1699 -0.0519
   80TMC2     H 1249   2.630   1.324  11.310 -0.7260  1.2632 -1.2369
   80TMC2    H1 1250   2.498   1.105  11.652  1.6877  1.3199  0.4231
   80TMC2    H2 1251   2.220   1.303  11.410  0.1662  1.3821  0.4391
   80TMC2    C7 1252   2.263   1.212  11.640 -0.0992  0.2087 -0.0851
   80TMC2    C8 1253   2.419   1.439  11.263 -0.0075  0.5376 -0.0775
   80TMC2    O1 1254   2.192   1.313  11.642 -0.1433  0.5293  0.0159
   80TMC2    O2 1255   2.507   1.515  11.232 -0.1606  0.0381 -0.7163
   80TMC2    O5 1256   2.296   1.447  11.229  0.3211  0.0929 -0.2192
   80TMC2    H5 1257   2.244   1.366  11.245  0.4695  0.0504  0.0383
   81MPD2     C 1258   2.806   1.376  11.824 -0.3141 -1.0365 -0.1103
   81MPD2    C1 1259   2.677   1.364  11.793 -0.3963 -0.1393  0.6557
   81MPD2    C2 1260   2.582   1.407  11.883 -0.1046 -0.3961 -0.1844
   81MPD2    C3 1261   2.619   1.456  12.006  0.1980  0.3953  0.1605
   81MPD2    C4 1262   2.749   1.446  12.044  0.4744  0.2028 -0.0464
   81MPD2    C5 1263   2.839   1.403  11.955  0.1070 -0.5145  0.3160
   81MPD2     H 1264   2.480   1.400  11.848  0.0334  1.5508 -0.9620
   81MPD2    H1 1265   2.791   1.484  12.137 -1.4835  1.1958  0.4298
   81MPD2    H2 1266   2.882   1.358  11.749  4.0989  0.1301  4.1093
   81MPD2    H3 1267   2.943   1.410  11.985  1.2810 -1.9180 -3.3812
   81MPD2     N 1268   2.523   1.516  12.096 -0.2421  0.2078  0.3206
   81MPD2    H5 1269   2.541   1.533  12.194  0.5330 -1.8866  0.5354
   81MPD2    N1 1270   2.630   1.311  11.674 -0.1195  0.0408  0.0304
   81MPD2    H7 1271   2.530   1.317  11.662  0.0946  1.8960 -0.8583
   82TMC2    C1 1272   1.157   0.791  10.865 -1.1882  0.1656 -0.4905
   82TMC2    C2 1273   1.228   0.857  10.962 -0.1844  0.6382 -0.3079
   82TMC2    C3 1274   1.278   0.783  11.064  0.0120  0.1040 -0.2756
   82TMC2    C4 1275   1.126   0.663  10.877  0.7976 -0.2340 -0.0448
   82TMC2    C5 1276   1.172   0.589  10.984  0.2873  0.3229 -0.1022
   82TMC2    C6 1277   1.245   0.650  11.076  0.7813  0.0121  0.3428
   82TMC2     C 1278   1.106   0.856  10.744  0.3310 -0.1597 -0.4951
   82TMC2     O 1279   1.005   0.809  10.699 -0.1032 -0.3878  0.2446
   82TMC2     H 1280   1.253   0.962  10.951  0.7826  0.1968 -2.3527
   82TMC2    H1 1281   1.064   0.614  10.803  2.5165 -0.2716 -1.4589
   82TMC2    H2 1282   1.289   0.601  11.162  0.1874  0.7035  1.0402
   82TMC2    C7 1283   1.149   0.446  10.988 -0.6798  0.7618  0.0047
   82TMC2    C8 1284   1.314   0.856  11.183 -0.2949 -0.4931 -0.5746
   82TMC2    O1 1285   1.170   0.384  11.088  0.0959 -0.2595 -0.1440
   82TMC2    O2 1286   1.264   0.963  11.217 -0.1764 -0.3422  0.2794
   82TMC2    O5 1287   1.417   0.790  11.236 -0.0601 -0.4484 -0.2072
   82TMC2    H5 1288   1.457   0.710  11.195  2.7614  0.3981  0.8921
   83MPD2     C 1289   1.261   1.013  10.285 -1.0479 -0.1493 -0.0219
   83MPD2    C1 1290   1.163   0.920  10.320  0.0466 -0.0463 -0.0280
   83MPD2    C2 1291   1.150   0.882  10.454 -0.3123  0.2604 -0.0705
   83MPD2    C3 1292   1.223   0.953  10.550  0.0093  0.4879 -0.5104
   83MPD2    C4 1293   1.306   1.054  10.512  0.1950  0.4789 -0.2408
   83MPD2    C5 1294   1.323   1.091  10.381 -0.5980 -0.2237  0.4150
   83MPD2     H 1295   1.078   0.806  10.485 -1.0927  1.8257  1.9407
   83MPD2    H1 1296   1.361   1.112  10.586 -0.3548  0.4784  0.1622
   83MPD2    H2 1297   1.282   1.038  10.182  0.9087 -0.7080  0.2533
   83MPD2    H3 1298   1.397   1.165  10.352  1.0221 -1.4237  1.5514
   83MPD2     N 1299   1.205   0.938  10.690  0.7781  0.2843  0.3390
   83MPD2    H5 1300   1.271   0.974  10.758  0.8536 -1.9408  1.4320
   83MPD2    N1 1301   1.078   0.871  10.216 -0.0137 -0.0532 -0.3175
   83MPD2    H7 1302   1.073   0.938  10.139 -0.5931 -1.0270 -1.1269
   84TMC2    C1 1303   2.032   4.623  10.840 -0.5994 -0.2061 -1.1052
   84TMC2    C2 1304   1.964   4.522  10.890 -0.0333  0.7545  0.1406
   84TMC2    C3 1305   1.975   4.402  10.818 -0.8983 -0.0756 -0.5885
   84TMC2    C4 1306   2.091   4.610  10.717  0.0441  0.2620 -0.1071
   84TMC2    C5 1307   2.109   4.489  10.658 -0.5316  0.2513 -0.4261
   84TMC2    C6 1308   2.050   4.381  10.710 -0.5990 -0.0191 -0.2317
   84TMC2     C 1309   2.027   0.011  10.921  0.1477 -0.3498 -1.2202
   84TMC2     O 1310   1.927   0.027  10.989  0.0191 -0.2787 -0.6347
   84TMC2     H 1311   1.922   4.523  10.990  0.7898 -0.2459  0.5037
   84TMC2    H1 1312   2.118   4.705  10.672 -0.5185  0.0567 -0.8856
   84TMC2    H2 1313   2.062   4.285  10.660 -1.3282 -0.0127 -0.4263
   84TMC2    C7 1314   2.182   4.489  10.531  0.3322  0.7206 -0.2689
   84TMC2    C8 1315   1.931   4.283  10.889 -0.2071 -0.5790 -0.3244
   84TMC2    O1 1316   2.146   4.406  10.448 -0.1225 -0.0882  0.0676
   84TMC2    O2 1317   1.914   4.286  11.013  0.5426  0.1186 -0.1447
   84TMC2    O5 1318   1.854   4.216  10.793 -0.7338  0.7053 -0.8807
   84TMC2    H5 1319   1.850   4.266  10.708 -0.3245  0.2474 -1.1698
   85TMC2    C1 1320   2.259   2.937  15.810 -0.7352  0.0232 -0.3562
   85TMC2    C2 1321   2.161   2.886  15.723  0.1590  0.0123  0.1909
   85TMC2    C3 1322   2.138   2.964  15.616  0.1177  0.5751  0.5569
   85TMC2    C4 1323   2.311   3.057  15.799 -0.4094 -0.1980 -0.1474
   85TMC2    C5 1324   2.289   3.131  15.681  0.0375  0.1718  0.1222
   85TMC2    C6 1325   2.197   3.090  15.596  0.7226  0.0353  0.0029
   85TMC2     C 1326   2.321   2.859  15.915 -0.2328 -0.5297  0.5350
   85TMC2     O 1327   2.398   2.912  15.993  0.4812 -0.0987 -0.3594
   85TMC2     H 1328   2.104   2.795  15.737  1.5298 -0.7256  1.0234
   85TMC2    H1 1329   2.367   3.099  15.882  1.1006 -0.8898 -0.8242
   85TMC2    H2 1330   2.189   3.145  15.503 -0.4141 -0.6108 -0.2754
   85TMC2    C7 1331   2.396   3.217  15.633 -0.7523 -0.2103 -0.1613
   85TMC2    C8 1332   2.030   2.932  15.530  0.0678  0.4383 -0.0713
   85TMC2    O1 1333   2.487   3.226  15.714  0.2507  0.1526  0.2374
   85TMC2    O2 1334   1.962   3.017  15.470  0.3706 -0.6222 -0.5681
   85TMC2    O5 1335   2.056   2.807  15.493  0.0768 -0.5383 -0.2574
   85TMC2    H5 1336   2.134   2.771  15.541  0.7276 -1.0646 -1.6946
   86MPD2     C 1337   2.336   2.452  16.209 -0.2876 -0.0399  0.7296
   86MPD2    C1 1338   2.263   2.409  16.096 -0.3455  0.3773  0.1289
   86MPD2    C2 1339   2.241   2.504  15.992 -0.3211  0.2080  0.3924
   86MPD2    C3 1340   2.284   2.636  16.009 -0.1566 -0.0206 -0.2514
   86MPD2    C4 1341   2.338   2.676  16.130  0.8225 -0.5413  0.1357
   86MPD2    C5 1342   2.353   2.584  16.230  0.3341 -0.4535 -0.1206
   86MPD2     H 1343   2.204   2.471  15.896  0.1195 -1.3545  0.7579
   86MPD2    H1 1344   2.371   2.774  16.161 -0.3821 -0.1343  0.1221
   86MPD2    H2 1345   2.366   2.384  16.288  1.1512 -0.4214 -0.1402
   86MPD2    H3 1346   2.402   2.610  16.323  1.0220 -0.1244 -0.5749
   86MPD2     N 1347   2.274   2.732  15.908  0.6489  0.1028  0.1174
   86MPD2    H5 1348   2.233   2.702  15.820  1.4144  0.0386 -0.2167
   86MPD2    N1 1349   2.210   2.279  16.080 -0.1206  0.2587  0.7838
   86MPD2    H7 1350   2.153   2.259  15.999  1.7014 -2.4811  0.2072
   87TMC2    C1 1351   0.449   0.550   0.588 -0.1224 -0.7464 -0.2570
   87TMC2    C2 1352   0.564   0.537   0.658 -0.3991  0.0941 -0.4689
   87TMC2    C3 1353   0.598   0.647   0.733  0.1044 -0.0867 -0.7247
   87TMC2    C4 1354   0.376   0.667   0.585  0.1108 -0.1650 -0.7399
   87TMC2    C5 1355   0.416   0.773   0.659 -0.1312  0.6579 -0.0993
   87TMC2    C6 1356   0.526   0.764   0.738 -0.4026 -0.2471 -0.0266
   87TMC2     C 1357   0.396   0.444   0.498 -0.8017 -0.8730  0.0142
   87TMC2     O 1358   0.336   0.483   0.397  0.4146  0.4453 -0.5817
   87TMC2     H 1359   0.624   0.447   0.656 -2.4027 -1.2896  1.9390
   87TMC2    H1 1360   0.288   0.680   0.522 -0.4271 -1.3971 -0.2223
   87TMC2    H2 1361   0.544   0.841   0.812 -0.0099 -1.1569  0.8172
   87TMC2    C7 1362   0.334   0.892   0.664  0.6573 -0.0578 -0.1806
   87TMC2    C8 1363   0.718   0.627   0.816 -0.6996 -0.2214 -0.4738
   87TMC2    O1 1364   0.281   0.932   0.560  0.3442 -0.0922  0.5430
   87TMC2    O2 1365   0.778   0.519   0.808  0.5282 -0.2460 -0.3486
   87TMC2    O5 1366   0.786   0.739   0.820  0.2481  0.1119 -0.3482
   87TMC2    H5 1367   0.754   0.818   0.771  0.1344 -0.4387 -1.1677
   88MPD2     C 1368   0.202   1.042   0.965  0.7471 -0.0301 -0.5127
   88MPD2    C1 1369   0.226   1.035   0.833 -0.4084  0.4983 -1.1941
   88MPD2    C2 1370   0.161   1.127   0.744  1.2179  0.0296 -0.2012
   88MPD2    C3 1371   0.066   1.216   0.798  0.0608 -0.4184  1.0376
   88MPD2    C4 1372   0.032   1.208   0.928 -0.2726  0.8455 -0.4686
   88MPD2    C5 1373   0.088   1.111   1.005  0.1861  0.7385  0.0627
   88MPD2     H 1374   0.177   1.122   0.637  0.2605  0.4187 -0.3607
   88MPD2    H1 1375   4.689   1.271   0.969 -1.5084 -1.6128  1.0135
   88MPD2    H2 1376   0.230   0.961   1.032 -0.4259 -0.1113 -0.1230
   88MPD2    H3 1377   0.053   1.084   1.104 -1.0124 -0.6626 -0.7699
   88MPD2     N 1378   4.721   1.299   0.717  0.3180 -0.3004 -0.0321
   88MPD2    H5 1379   4.627   1.310   0.752 -0.3569 -2.1702 -1.2329
   88MPD2    N1 1380   0.317   0.937   0.794 -0.9383  0.5334 -0.8306
   88MPD2    H7 1381   0.363   0.878   0.863 -0.0866  3.5611  1.1980
   89TMC2    C1 1382   0.588   3.374   0.612 -0.0766  0.0842 -0.3561
   89TMC2    C2 1383   0.465   3.348   0.550  0.1296 -1.3009  0.9595
   89TMC2    C3 1384   0.360   3.430   0.587 -0.0185 -0.9019  0.1234
   89TMC2    C4 1385   0.608   3.475   0.700  0.3159 -0.2378  0.3006
   89TMC2    C5 1386   0.497   3.550   0.724  0.2768  0.1526 -0.1299
   89TMC2    C6 1387   0.375   3.536   0.668 -0.6702  0.0711 -0.1455
   89TMC2     C 1388   0.689   3.272   0.593  0.3300  0.3927  0.2681
   89TMC2     O 1389   0.808   3.308   0.599  0.2038 -1.0385 -0.2567
   89TMC2     H 1390   0.456   3.275   0.471 -2.6063 -0.6554  0.7033
   89TMC2    H1 1391   0.696   3.483   0.762 -0.4938  0.1823  1.4102
   89TMC2    H2 1392   0.302   3.615   0.683  0.7966  0.9238  2.3084
   89TMC2    C7 1393   0.511   3.641   0.830 -0.8022 -0.2323 -0.2361
   89TMC2    C8 1394   0.256   3.438   0.499 -0.8465 -0.3710  0.3218
   89TMC2    O1 1395   0.407   3.674   0.891  0.9370 -0.0523  0.2084
   89TMC2    O2 1396   0.271   3.444   0.377  0.0474  0.1926  0.3165
   89TMC2    O5 1397   0.147   3.454   0.573 -0.2630 -0.0070 -0.4523
   89TMC2    H5 1398   0.153   3.433   0.669 -0.0189 -0.0986 -0.4881
   90MPD2     C 1399   0.815   2.778   0.611  0.3376 -0.2146 -0.5187
   90MPD2    C1 1400   0.682   2.795   0.638  0.2358 -0.0482 -0.4211
   90MPD2    C2 1401   0.625   2.918   0.613  0.6855  0.7381 -0.0956
   90MPD2    C3 1402   0.697   3.025   0.579 -0.0227  0.0383 -0.1154
   90MPD2    C4 1403   0.837   3.016   0.560  0.4040  0.7249 -0.6995
   90MPD2    C5 1404   0.891   2.890   0.587  0.5733 -0.2312 -0.5547
   90MPD2     H 1405   0.517   2.921   0.624  0.6665  0.2024 -0.1056
   90MPD2    H1 1406   0.907   3.094   0.534  1.9248 -0.0837  0.9406
   90MPD2    H2 1407   0.868   2.684   0.624 -0.5927 -1.0503 -2.8838
   90MPD2    H3 1408   0.996   2.890   0.559 -0.0330 -2.8434 -2.7798
   90MPD2     N 1409   0.628   3.148   0.579  0.3931 -0.1946 -0.2716
   90MPD2    H5 1410   0.528   3.151   0.593  0.3731 -2.0749 -0.0134
   90MPD2    N1 1411   0.594   2.684   0.663 -0.1405  0.4071 -0.3593
   90MPD2    H7 1412   0.495   2.695   0.680 -0.3565 -0.2749 -1.1574
   91TMC2    C1 1413   2.013   3.549  15.669  0.1655  0.4079 -0.2608
   91TMC2    C2 1414   2.043   3.624  15.782 -0.6513 -0.1081  0.2153
   91TMC2    C3 1415   1.943   3.675  15.849  0.4701  0.1752 -0.2034
   91TMC2    C4 1416   1.885   3.519  15.633 -0.2142  0.4030 -0.2671
   91TMC2    C5 1417   1.789   3.556  15.722  0.3931  0.2835 -0.2923
   91TMC2    C6 1418   1.816   3.643  15.823 -1.1628 -0.6187  0.5131
   91TMC2     C 1419   2.117   3.538  15.569 -0.2449  0.2690 -0.3465
   91TMC2     O 1420   2.075   3.504  15.460 -0.3140  0.1551  0.5580
   91TMC2     H 1421   2.145   3.650  15.810 -0.7491 -0.9430  1.3542
   91TMC2    H1 1422   1.867   3.483  15.532  1.4585 -3.3605  0.7743
   91TMC2    H2 1423   1.739   3.679  15.891 -0.1192  0.2571  1.2377
   91TMC2    C7 1424   1.652   3.523  15.701 -0.0978 -0.2425 -0.0930
   91TMC2    C8 1425   1.976   3.726  15.974 -0.0391  0.1536  0.0791
   91TMC2    O1 1426   1.573   3.548  15.790  0.5597  0.1882 -0.0204
   91TMC2    O2 1427   2.070   3.805  15.991 -0.1201  0.0420  0.3749
   91TMC2    O5 1428   1.955   3.624  16.057  0.4539  0.0595 -0.0850
   91TMC2    H5 1429   1.893   3.559  16.018  2.8622 -1.4990 -1.3199
   92MPD2     C 1430   2.340   3.611  15.406  0.9307  0.0411 -0.6226
   92MPD2    C1 1431   2.357   3.593  15.541  0.0980  0.1200  0.5047
   92MPD2    C2 1432   2.475   3.625  15.599 -0.2606  0.6994  0.4680
   92MPD2    C3 1433   2.590   3.643  15.522 -0.1909  0.9528  0.4428
   92MPD2    C4 1434   2.578   3.644  15.389 -0.1752  0.3007  0.1293
   92MPD2    C5 1435   2.451   3.633  15.333 -0.4949  0.1585  0.2440
   92MPD2     H 1436   2.476   3.614  15.707  1.5213  2.5586  0.6362
   92MPD2    H1 1437   2.666   3.664  15.329  0.5054 -0.8066  0.7606
   92MPD2    H2 1438   2.249   3.618  15.347  0.1184 -1.5306  0.4709
   92MPD2    H3 1439   2.443   3.648  15.226 -0.3453 -1.1172  0.0539
   92MPD2     N 1440   2.707   3.649  15.591 -0.6581 -0.8227 -0.3000
   92MPD2    H5 1441   2.697   3.638  15.692  3.0769 -1.4767  0.0060
   92MPD2    N1 1442   2.243   3.563  15.618 -0.3440  0.3836  0.0644
   92MPD2    H7 1443   2.249   3.558  15.719  2.6334 -0.1226 -0.1253
   93TMC2    C1 1444   4.389   3.542  13.412 -0.0445  0.1453  0.0429
   93TMC2    C2 1445   4.305   3.639  13.363  0.2958  0.9315 -0.2029
   93TMC2    C3 1446   4.337   3.771  13.402 -0.1705 -0.2210 -0.1013
   93TMC2    C4 1447   4.479   3.571  13.508  0.1740 -0.3741 -0.9234
   93TMC2    C5 1448   4.504   3.700  13.546 -0.6626 -0.1182  1.1163
   93TMC2    C6 1449   4.430   3.806  13.494 -0.3755 -0.1640 -0.7476
   93TMC2     C 1450   4.352   3.411  13.385  0.8736 -0.0736 -0.6767
   93TMC2     O 1451   4.434   3.321  13.408  0.0589 -0.7328  0.1790
   93TMC2     H 1452   4.257   3.622  13.267 -0.5665  1.4650  0.1344
   93TMC2    H1 1453   4.542   3.492  13.549 -2.0406 -1.3567  0.5634
   93TMC2    H2 1454   4.439   3.913  13.508 -0.2274 -0.1454 -1.0039
   93TMC2    C7 1455   4.650   3.726  13.548  0.4680 -0.0986 -0.2654
   93TMC2    C8 1456   4.277   3.884  13.324 -0.8217 -0.4460  0.6925
   93TMC2    O1 1457   4.720   3.634  13.499  0.4962  0.4339  0.6029
   93TMC2    O2 1458   4.342   3.988  13.304 -0.0889 -0.0835  0.5112
   93TMC2    O5 1459   4.162   3.848  13.262 -0.4347 -0.0296 -0.1748
   93TMC2    H5 1460   4.112   3.773  13.302  1.2764 -1.2025 -0.2261
   94MPD2     C 1461   4.204   3.172  13.297  0.1885  0.0074 -0.6649
   94MPD2    C1 1462   4.145   3.292  13.312 -0.0059  0.1763 -0.1584
   94MPD2    C2 1463   4.009   3.302  13.296  0.0599  0.1518  0.9923
   94MPD2    C3 1464   3.931   3.188  13.259 -0.3637  0.1234 -0.3524
   94MPD2    C4 1465   3.999   3.070  13.242  0.1757 -0.2991  0.5467
   94MPD2    C5 1466   4.138   3.059  13.262  0.0383  0.8169 -0.2393
   94MPD2     H 1467   3.969   3.403  13.305 -0.8858 -0.0491 -1.0019
   94MPD2    H1 1468   3.949   2.978  13.212 -0.1460  0.5214 -1.4644
   94MPD2    H2 1469   4.311   3.159  13.305  0.2274  0.8680  0.3080
   94MPD2    H3 1470   4.197   2.969  13.253 -0.5490  0.3438  0.6385
   94MPD2     N 1471   3.793   3.196  13.217  0.1980 -0.1105  0.1188
   94MPD2    H5 1472   3.752   3.126  13.156 -0.2827 -1.3275  1.8402
   94MPD2    N1 1473   4.212   3.403  13.357  0.4637  0.0662  0.3861
   94MPD2    H7 1474   4.165   3.493  13.355 -2.1563 -1.3421 -0.6790
   95TMC2    C1 1475   3.895   0.779  14.907 -0.1301  0.7510 -0.6275
   95TMC2    C2 1476   3.936   0.912  14.910 -0.0952 -0.3547  0.1213
   95TMC2    C3 1477   3.845   1.012  14.864 -0.5111  0.0919  0.2342
   95TMC2    C4 1478   3.777   0.738  14.861 -0.6768  0.1615  0.7336
   95TMC2    C5 1479   3.683   0.837  14.837 -0.3730 -0.0587 -0.4607
   95TMC2    C6 1480   3.716   0.972  14.833 -0.3295 -0.2452 -0.8130
   95TMC2     C 1481   4.010   0.688  14.917 -0.4900 -0.3203  0.0025
   95TMC2     O 1482   4.122   0.736  14.922  0.7000  0.5328 -0.0883
   95TMC2     H 1483   4.031   0.950  14.945  0.8573 -0.1011 -2.7430
   95TMC2    H1 1484   3.770   0.637  14.822  0.1833  0.8034 -1.0971
   95TMC2    H2 1485   3.650   1.053  14.803  0.7973  0.2167 -2.0111
   95TMC2    C7 1486   3.549   0.788  14.808  0.5249  0.0561 -0.1988
   95TMC2    C8 1487   3.887   1.148  14.831 -0.2773  0.2299 -0.8727
   95TMC2    O1 1488   3.527   0.679  14.857 -0.3251 -0.0635  0.0087
   95TMC2    O2 1489   3.830   1.221  14.752  0.8666  0.1313  0.7042
   95TMC2    O5 1490   3.945   1.182  14.945 -0.2023  0.0418  0.0385
   95TMC2    H5 1491   3.955   1.116  15.017  2.3057 -0.9000 -1.1700
   96MPD2     C 1492   4.186   0.200  14.954  0.2927  0.0014 -0.3730
   96MPD2    C1 1493   4.248   0.319  14.973 -0.5916 -0.5873  0.1089
   96MPD2    C2 1494   4.171   0.432  14.969 -0.0343 -0.5121  0.2941
   96MPD2    C3 1495   4.040   0.430  14.932 -0.6101 -0.3133 -0.3323
   96MPD2    C4 1496   3.973   0.311  14.908 -0.8065 -0.9633  0.2677
   96MPD2    C5 1497   4.050   0.199  14.912 -0.0601  0.7750  0.1179
   96MPD2     H 1498   4.213   0.528  14.997 -0.6038  0.6672 -3.0008
   96MPD2    H1 1499   3.865   0.303  14.900 -0.6161 -1.1090 -2.2647
   96MPD2    H2 1500   4.248   0.111  14.950  0.9033  0.4327 -0.4574
   96MPD2    H3 1501   4.010   0.100  14.894  0.7348  0.2839  1.0448
   96MPD2     N 1502   3.965   0.555  14.915 -0.2408 -0.1963 -0.0204
   96MPD2    H5 1503   3.864   0.547  14.909 -0.5735  3.4462  1.0028
   96MPD2    N1 1504   4.391   0.327  14.988  0.0292 -0.1754 -0.5171
   96MPD2    H7 1505   4.448   0.246  14.967  1.0540 -0.1759  2.2087
   97TMC2    C1 1506   1.643   2.970  17.139 -0.7581  0.7230 -0.0246
   97TMC2    C2 1507   1.590   2.969  17.013 -0.3448 -0.3622 -0.5235
   97TMC2    C3 1508   1.573   3.092  16.950 -0.3829  0.1102 -0.3846
   97TMC2    C4 1509   1.661   3.096  17.196 -0.2850 -0.1790 -0.5712
   97TMC2    C5 1510   1.645   3.213  17.128  0.3399  0.0709  0.1338
   97TMC2    C6 1511   1.594   3.214  16.998 -0.9533  0.0119 -0.2755
   97TMC2     C 1512   1.626   2.849  17.223 -0.0946 -0.3293 -0.6429
   97TMC2     O 1513   1.637   2.868  17.343 -0.0050  0.1004 -0.1143
   97TMC2     H 1514   1.555   2.879  16.964 -0.6549 -0.0672 -0.8542
   97TMC2    H1 1515   1.692   3.114  17.298 -0.1838 -0.2153 -0.5960
   97TMC2    H2 1516   1.578   3.301  16.935 -0.4831 -0.3390 -0.8820
   97TMC2    C7 1517   1.686   3.331  17.203  0.1523  0.1326  0.2196
   97TMC2    C8 1518   1.529   3.080  16.813  0.1550  0.0299  0.1674
   97TMC2    O1 1519   1.760   3.332  17.304 -0.0389 -0.1294  0.0576
   97TMC2    O2 1520   1.466   2.986  16.771 -0.2225 -0.0913  0.0031
   97TMC2    O5 1521   1.612   3.156  16.739 -0.3343  0.2943  0.2144
   97TMC2    H5 1522   1.669   3.226  16.777  1.7841 -1.1966 -0.2290
   98MPD2     C 1523   1.517   2.367  17.334 -0.1498  0.7351  0.2376
   98MPD2    C1 1524   1.523   2.471  17.421 -0.3194  0.7239  0.1410
   98MPD2    C2 1525   1.549   2.601  17.360  0.1957 -0.2624  0.7252
   98MPD2    C3 1526   1.574   2.610  17.221 -0.0267  0.5945 -0.3406
   98MPD2    C4 1527   1.570   2.501  17.140  0.4167  0.1275 -0.2400
   98MPD2    C5 1528   1.541   2.380  17.200  0.3735 -0.1702 -0.7501
   98MPD2     H 1529   1.538   2.689  17.423 -0.2894 -2.5225  3.7982
   98MPD2    H1 1530   1.605   2.508  17.037  0.1357  1.0589 -0.2738
   98MPD2    H2 1531   1.504   2.264  17.366  0.6110 -0.3180 -2.7540
   98MPD2    H3 1532   1.533   2.294  17.135 -0.8110 -0.1940 -0.5630
   98MPD2     N 1533   1.601   2.734  17.155 -0.0369 -0.0664  0.2914
   98MPD2    H5 1534   1.628   2.742  17.057 -0.0473  2.1986  0.4805
   98MPD2    N1 1535   1.496   2.451  17.559  0.5029 -0.0192 -0.3030
   98MPD2    H7 1536   1.462   2.360  17.586 -2.3047  1.1184 -0.0141
   99TMC2    C1 1537   0.513   4.292   1.342 -0.3786 -0.6857 -0.0011
   99TMC2    C2 1538   0.563   4.228   1.452 -0.2887  0.2017  0.1062
   99TMC2    C3 1539   0.476   4.210   1.555 -0.3856  0.6594 -0.0938
   99TMC2    C4 1540   0.392   4.354   1.342  0.4692  0.5607  0.2544
   99TMC2    C5 1541   0.309   4.341   1.454  0.2950 -0.4501 -0.3318
   99TMC2    C6 1542   0.349   4.265   1.565 -0.4687 -0.1967  0.3372
   99TMC2     C 1543   0.601   4.310   1.229  0.2659  0.6334  0.5168
   99TMC2     O 1544   0.721   4.305   1.250  0.3097  0.2327 -0.0542
   99TMC2     H 1545   0.657   4.173   1.449  1.0625  2.5294  0.2742
   99TMC2    H1 1546   0.354   4.402   1.252 -0.5105 -1.0537 -0.1972
   99TMC2    H2 1547   0.296   4.267   1.660 -2.7084  0.2859 -0.9075
   99TMC2    C7 1548   0.178   4.406   1.452  0.6721 -0.2303  0.3877
   99TMC2    C8 1549   0.493   4.101   1.646  0.3470 -0.0113 -0.2478
   99TMC2    O1 1550   0.142   4.474   1.546 -0.1341 -0.5691 -0.3447
   99TMC2    O2 1551   0.607   4.052   1.663  0.7978 -0.1479  0.5649
   99TMC2    O5 1552   0.384   4.040   1.686  0.8100 -0.4390 -0.5009
   99TMC2    H5 1553   0.295   4.067   1.657  1.3018  1.9413  0.1882
  100MPD2     C 1554   0.696   4.414   0.974 -0.4282  0.5677 -0.2054
  100MPD2    C1 1555   0.577   4.351   0.985 -0.0715 -0.1485  0.5319
  100MPD2    C2 1556   0.501   4.308   0.876  0.3708  0.2011  0.4601
  100MPD2    C3 1557   0.542   4.339   0.745  0.3599  0.5719  0.0286
  100MPD2    C4 1558   0.660   4.421   0.738  0.5372 -0.5419 -0.0127
  100MPD2    C5 1559   0.736   4.449   0.850 -0.0754  0.9450 -0.1050
  100MPD2     H 1560   0.417   4.242   0.893 -0.1194  0.6507 -0.2410
  100MPD2    H1 1561   0.715   4.454   0.651  0.8562 -0.0670  0.3712
  100MPD2    H2 1562   0.748   4.458   1.058 -1.0955 -1.9561  1.5259
  100MPD2    H3 1563   0.819   4.518   0.840  0.8801 -0.0298  1.1872
  100MPD2     N 1564   0.465   4.300   0.636 -0.2226 -0.4305  0.9049
  100MPD2    H5 1565   0.373   4.261   0.650  0.1762 -1.7909 -0.3375
  100MPD2    N1 1566   0.529   4.310   1.114  0.6211 -0.2592 -0.0579
  100MPD2    H7 1567   0.433   4.280   1.120  0.6661 -0.2119  0.8355
  101TMC2    C1 1568   1.242   1.743  12.643 -0.1892  0.0929  0.3340
  101TMC2    C2 1569   1.140   1.832  12.602  0.5021 -0.2067  0.0558
  101TMC2    C3 1570   1.189   1.945  12.540  0.4852  0.5096 -0.3768
  101TMC2    C4 1571   1.379   1.766  12.631 -0.1713 -0.3615  0.1151
  101TMC2    C5 1572   1.415   1.874  12.556 -0.4740 -0.2199 -0.2380
  101TMC2    C6 1573   1.318   1.953  12.504 -0.1053  0.2209 -0.0892
  101TMC2     C 1574   1.198   1.616  12.704  0.6467  0.3348  0.7951
  101TMC2     O 1575   1.076   1.616  12.730 -0.5830 -0.0441  0.1804
  101TMC2     H 1576   1.033   1.816  12.616  0.3130 -0.8887 -2.1757
  101TMC2    H1 1577   1.450   1.703  12.683  0.8682  0.3674 -0.4183
  101TMC2    H2 1578   1.348   2.032  12.436 -1.1816 -0.2148 -1.0637
  101TMC2    C7 1579   1.547   1.895  12.498 -0.2633 -0.6151  0.2622
  101TMC2    C8 1580   1.098   2.036  12.470 -0.1954 -0.0174  0.9241
  101TMC2    O1 1581   1.550   1.946  12.388  0.3781  0.1307 -0.2768
  101TMC2    O2 1582   1.125   2.094  12.366 -0.6671 -0.6001 -0.5817
  101TMC2    O5 1583   0.967   1.998  12.487 -0.2464  0.1738 -0.0349
  101TMC2    H5 1584   0.946   1.950  12.570 -3.2565 -1.8891 -1.9947
  102MPD2     C 1585   1.348   1.283  12.667  0.0950 -0.4951 -0.0003
  102MPD2    C1 1586   1.263   1.376  12.722  0.6633  0.9586 -0.1204
  102MPD2    C2 1587   1.157   1.330  12.804  0.1024  0.3740  0.1985
  102MPD2    C3 1588   1.135   1.197  12.825  0.0691 -0.5852  0.3539
  102MPD2    C4 1589   1.227   1.111  12.774 -0.4831  0.4102  0.1981
  102MPD2    C5 1590   1.327   1.149  12.690 -0.5187 -0.2292  0.2880
  102MPD2     H 1591   1.093   1.402  12.854 -1.1603 -0.9331  0.4835
  102MPD2    H1 1592   1.228   1.005  12.800 -0.6315 -0.2359 -2.3864
  102MPD2    H2 1593   1.433   1.300  12.601  0.4318 -2.8111 -0.1627
  102MPD2    H3 1594   1.398   1.078  12.650  0.9238 -0.6386  3.5693
  102MPD2     N 1595   1.035   1.156  12.917  0.0069 -0.0879  0.0610
  102MPD2    H5 1596   0.987   1.234  12.961  1.4402  0.1011  1.2758
  102MPD2    N1 1597   1.284   1.515  12.689 -0.2026 -0.5339  0.6654
  102MPD2    H7 1598   1.369   1.527  12.635 -2.4429  1.2482 -2.5256
  103TMC2    C1 1599   3.916   0.650  11.954 -0.2224 -0.1832  0.1832
  103TMC2    C2 1600   4.000   0.606  11.860  0.0174 -0.0258  0.0242
  103TMC2    C3 1601   4.133   0.625  11.880 -0.6882 -0.6945  0.0837
  103TMC2    C4 1602   3.965   0.755  12.034  0.0207 -0.1953 -0.1864
  103TMC2    C5 1603   4.097   0.800  12.026 -0.2876 -0.3777  0.4311
  103TMC2    C6 1604   4.187   0.730  11.948 -0.2944  0.3396  0.1269
  103TMC2     C 1605   3.775   0.620  11.966 -0.1135  0.2094  0.1676
  103TMC2     O 1606   3.725   0.589  11.859  0.4866 -0.1910 -0.4079
  103TMC2     H 1607   3.966   0.516  11.810  0.3692  0.8336 -1.7446
  103TMC2    H1 1608   3.895   0.820  12.085 -1.0725 -0.9278 -0.7385
  103TMC2    H2 1609   4.294   0.745  11.950 -0.0138 -1.4017 -1.9517
  103TMC2    C7 1610   4.145   0.908  12.120  0.5354 -0.0650  0.0791
  103TMC2    C8 1611   4.229   0.537  11.824  0.2832  0.1593 -0.2264
  103TMC2    O1 1612   4.072   0.941  12.211  0.2337  0.1762 -0.3822
  103TMC2    O2 1613   4.342   0.530  11.875  0.7577  0.1823 -0.2071
  103TMC2    O5 1614   4.209   0.528  11.692 -0.4212 -0.0955 -0.0888
  103TMC2    H5 1615   4.121   0.553  11.657 -0.2068 -1.8086 -1.9181
  104MPD2     C 1616   3.539   0.706  12.239  0.1096 -0.0916 -1.1531
  104MPD2    C1 1617   3.579   0.695  12.105 -1.1236 -0.8015 -0.1600
  104MPD2    C2 1618   3.488   0.708  12.003 -0.7363  0.4778  0.4542
  104MPD2    C3 1619   3.361   0.746  12.033  0.7471 -0.4115 -0.3054
  104MPD2    C4 1620   3.320   0.751  12.163  0.3160  1.1769 -0.1312
  104MPD2    C5 1621   3.408   0.732  12.267 -0.5126  0.7372  0.4045
  104MPD2     H 1622   3.519   0.693  11.900 -0.8699 -1.1436  0.6493
  104MPD2    H1 1623   3.218   0.776  12.186  0.3475 -0.8562  2.2145
  104MPD2    H2 1624   3.612   0.705  12.319 -1.2243  0.1320  0.0487
  104MPD2    H3 1625   3.387   0.755  12.371  2.0200  1.9120  0.6561
  104MPD2     N 1626   3.277   0.779  11.923 -0.5851 -0.0540 -0.2354
  104MPD2    H5 1627   3.319   0.772  11.831  3.8786 -1.5367  1.9546
  104MPD2    N1 1628   3.717   0.658  12.087 -0.1361  0.9076 -0.4935
  104MPD2    H7 1629   3.774   0.655  12.172 -0.1296 -0.3611 -0.5301
  105TMC2    C1 1630   0.103   4.729  17.450 -0.5760 -0.0360 -0.2397
  105TMC2    C2 1631   4.711   0.028  17.473 -0.1482  0.5000 -1.3170
  105TMC2    C3 1632   4.682   0.073  17.593 -0.5491 -0.8349 -0.7245
  105TMC2    C4 1633   0.198   4.733  17.552  0.3169 -0.7118  0.3044
  105TMC2    C5 1634   0.159   0.040  17.678 -0.4482 -0.4800 -0.5631
  105TMC2    C6 1635   0.026   0.066  17.702 -0.8516 -0.1125  0.3905
  105TMC2     C 1636   0.140   4.724  17.308  0.4384 -0.1874 -0.5012
  105TMC2     O 1637   0.059   4.668  17.230 -0.4254  0.3129  0.1541
  105TMC2     H 1638   4.640   0.035  17.391 -1.7672 -0.2884  0.0048
  105TMC2    H1 1639   0.302   4.710  17.530 -0.7151 -2.8579 -2.3835
  105TMC2    H2 1640   4.729   0.106   0.057  0.2737  0.1704  0.6541
  105TMC2    C7 1641   0.239   0.005   0.055 -0.5766 -0.6214 -0.2707
  105TMC2    C8 1642   4.551   0.091  17.633  0.5520 -0.5468 -0.5219
  105TMC2    O1 1643   0.295   4.631   0.050 -0.4422 -0.3183  0.0275
  105TMC2    O2 1644   4.513   0.179  17.712  0.2600 -0.0827 -0.2881
  105TMC2    O5 1645   4.498   4.711  17.649 -0.2284  0.1961  0.1796
  105TMC2    H5 1646   4.547   4.639  17.602 -2.4124 -0.7595 -0.6060
  106MPD2     C 1647   0.452   0.149  16.936 -0.2504 -0.2633  0.0576
  106MPD2    C1 1648   0.462   0.230  17.046  0.4188 -0.2589  0.4507
  106MPD2    C2 1649   0.383   0.214  17.155 -0.7682  0.7711 -0.2526
  106MPD2    C3 1650   0.302   0.101  17.164  0.0870  0.4057  0.1543
  106MPD2    C4 1651   0.284   0.017  17.053 -0.5087 -0.6820  0.3420
  106MPD2    C5 1652   0.357   0.047  16.940 -0.6207 -0.2493 -0.0677
  106MPD2     H 1653   0.403   0.288  17.232  1.0177 -0.5308  0.5308
  106MPD2    H1 1654   0.223   4.663  17.058 -2.2503  0.5176  0.6616
  106MPD2    H2 1655   0.503   0.173  16.843  0.1566 -2.3431 -0.2589
  106MPD2    H3 1656   0.361   4.718  16.853  1.0301  0.9404 -0.8884
  106MPD2     N 1657   0.246   0.075  17.288  0.0409  0.3128  0.0567
  106MPD2    H5 1658   0.269   0.138  17.364  0.8355  0.6062 -0.4308
  106MPD2    N1 1659   0.547   0.350  17.054 -0.5299  0.4486 -0.2094
  106MPD2    H7 1660   0.533   0.408  17.136 -0.6363 -0.0163  0.1031
  107TMC2    C1 1661   1.692   0.594  11.515 -0.0146  0.0112 -0.4574
  107TMC2    C2 1662   1.679   0.727  11.476 -0.0826  0.2734 -0.5698
  107TMC2    C3 1663   1.761   0.767  11.371  0.5633  0.4214  0.3492
  107TMC2    C4 1664   1.762   0.505  11.438 -0.1715 -0.8361 -0.0157
  107TMC2    C5 1665   1.846   0.551  11.341  0.6416 -0.0731  0.5852
  107TMC2    C6 1666   1.846   0.686  11.315 -0.0065  0.0290  0.0624
  107TMC2     C 1667   1.635   0.567  11.650 -0.3110 -0.0332  0.2640
  107TMC2     O 1668   1.591   0.659  11.717  0.6288  0.5363 -0.0248
  107TMC2     H 1669   1.607   0.795  11.520  0.8789  0.0459  1.3284
  107TMC2    H1 1670   1.777   0.402  11.470  2.4156 -0.4340  0.0407
  107TMC2    H2 1671   1.902   0.724  11.230 -1.6479  0.6680 -0.7363
  107TMC2    C7 1672   1.904   0.457  11.242 -0.6004  0.1406 -0.6052
  107TMC2    C8 1673   1.723   0.875  11.289  0.4667 -0.3589 -0.3407
  107TMC2    O1 1674   1.851   0.346  11.234 -0.6410  0.3185 -0.4884
  107TMC2    O2 1675   1.757   0.882  11.171  0.1854 -1.1238  0.0659
  107TMC2    O5 1676   1.748   0.983  11.365  0.3106  0.3321 -0.2401
  107TMC2    H5 1677   1.756   0.975  11.462 -2.9079  3.5607  0.3069
  108MPD2     C 1678   1.690   0.277  11.864 -0.6383 -0.1331  0.0350
  108MPD2    C1 1679   1.614   0.379  11.808  0.0914 -0.9645  0.0522
  108MPD2    C2 1680   1.499   0.427  11.866  0.4721 -0.3368 -0.4535
  108MPD2    C3 1681   1.457   0.377  11.993  0.1061  0.4330  0.4786
  108MPD2    C4 1682   1.535   0.271  12.056  0.1228  0.0945 -0.4643
  108MPD2    C5 1683   1.642   0.222  11.983  0.0032  0.6301 -0.0452
  108MPD2     H 1684   1.437   0.500  11.817 -0.2654 -0.2953  0.5315
  108MPD2    H1 1685   1.495   0.211  12.137  0.2518 -1.2385 -1.3987
  108MPD2    H2 1686   1.785   0.239  11.826 -0.1237  0.6825  0.5125
  108MPD2    H3 1687   1.692   0.141  12.034 -1.2698  0.3665  0.7899
  108MPD2     N 1688   1.333   0.418  12.052 -0.5322  1.2075 -0.2891
  108MPD2    H5 1689   1.300   0.390  12.144  1.2567 -0.8947 -0.2645
  108MPD2    N1 1690   1.661   0.436  11.690  0.2805  0.0601 -0.4374
  108MPD2    H7 1691   1.725   0.377  11.638  0.5847  1.1855 -1.3466
  109TMC2    C1 1692   0.847   1.479   0.220  0.2587 -0.2838 -0.5697
  109TMC2    C2 1693   0.880   1.411   0.100  0.6145  0.7392  0.2658
  109TMC2    C3 1694   0.995   1.450   0.042 -0.1429 -0.7404  0.1166
  109TMC2    C4 1695   0.921   1.588   0.268  0.1058 -0.1564  0.4237
  109TMC2    C5 1696   1.033   1.621   0.200 -0.7887 -0.5306  0.5162
  109TMC2    C6 1697   1.073   1.556   0.089  0.2989 -0.7238 -0.7123
  109TMC2     C 1698   0.701   1.494   0.248  0.5479  0.6197  0.3209
  109TMC2     O 1699   0.627   1.476   0.153  0.2229  0.2481 -0.0983
  109TMC2     H 1700   0.810   1.340   0.057  1.3186 -0.3582  0.9236
  109TMC2    H1 1701   0.885   1.661   0.339 -2.8953  1.5921 -2.9078
  109TMC2    H2 1702   1.168   1.589   0.047  0.6438  1.2172  1.6114
  109TMC2    C7 1703   1.106   1.743   0.241  0.2317 -0.6593  0.3129
  109TMC2    C8 1704   1.021   1.387  17.656 -0.1217 -0.0954  0.4837
  109TMC2    O1 1705   1.172   1.793   0.155  0.0237  0.2032 -0.1140
  109TMC2    O2 1706   0.979   1.273  17.633 -0.3685 -0.1046  0.2512
  109TMC2    O5 1707   1.123   1.446  17.589  0.1457  0.3239 -0.4991
  109TMC2    H5 1708   1.126   1.540  17.619 -1.6871  0.1891  0.1544
  110MPD2     C 1709   0.353   1.645   0.593  0.8568 -0.7310 -0.3265
  110MPD2    C1 1710   0.477   1.643   0.656 -0.4552  0.1588  0.0089
  110MPD2    C2 1711   0.579   1.581   0.586 -0.1193 -0.0389 -0.7019
  110MPD2    C3 1712   0.567   1.544   0.457  0.7569  0.0169  0.2593
  110MPD2    C4 1713   0.442   1.562   0.396 -0.2746 -0.1443 -0.2542
  110MPD2    C5 1714   0.333   1.605   0.469 -0.3699 -0.6167 -0.4566
  110MPD2     H 1715   0.679   1.588   0.628 -0.1635  1.3018 -0.8158
  110MPD2    H1 1716   0.425   1.530   0.294 -2.5156 -0.4045  0.2005
  110MPD2    H2 1717   0.272   1.687   0.651  0.5214 -1.5243 -0.2088
  110MPD2    H3 1718   0.236   1.615   0.420 -0.1196 -1.1445 -1.0635
  110MPD2     N 1719   0.685   1.514   0.383 -0.0277 -0.0520 -0.7243
  110MPD2    H5 1720   0.771   1.503   0.435  0.2259  0.1772 -1.0971
  110MPD2    N1 1721   0.493   1.700   0.788  0.4277  0.5572  0.2372
  110MPD2    H7 1722   0.414   1.747   0.831 -0.8921 -0.2635 -1.2403
  111TMC2    C1 1723   1.401   2.346  11.190  0.0223  0.1125 -0.7396
  111TMC2    C2 1724   1.299   2.381  11.276 -0.6212  0.0966  0.7767
  111TMC2    C3 1725   1.329   2.424  11.400  0.6540  0.5183  0.3721
  111TMC2    C4 1726   1.530   2.362  11.238 -0.0352  0.9233 -0.3531
  111TMC2    C5 1727   1.559   2.407  11.366  0.1828 -0.1142  1.0078
  111TMC2    C6 1728   1.456   2.442  11.448  1.0776 -0.3461 -0.4177
  111TMC2     C 1729   1.375   2.302  11.053 -0.0827 -0.2347 -0.1512
  111TMC2     O 1730   1.461   2.322  10.965 -0.2881 -0.1781  0.0102
  111TMC2     H 1731   1.195   2.384  11.246 -0.5126  1.4899  0.5336
  111TMC2    H1 1732   1.603   2.346  11.160  0.4963  2.3713 -0.1417
  111TMC2    H2 1733   1.473   2.457  11.554 -0.9608 -2.1484  0.1758
  111TMC2    C7 1734   1.679   2.359  11.434 -0.5922 -0.6358 -0.1206
  111TMC2    C8 1735   1.213   2.460  11.477  0.8281 -0.6715 -0.5429
  111TMC2    O1 1736   1.670   2.335  11.552 -0.5264  0.8360  0.4509
  111TMC2    O2 1737   1.109   2.400  11.495  0.4591 -0.2331 -0.2556
  111TMC2    O5 1738   1.234   2.586  11.512 -0.0928  0.1422  0.6923
  111TMC2    H5 1739   1.326   2.616  11.495  0.0402 -0.1708  0.8540
  112MPD2     C 1740   1.062   2.138  10.687  0.0163 -0.1777  0.3007
  112MPD2    C1 1741   1.161   2.227  10.686 -0.8249  0.4998 -0.1413
  112MPD2    C2 1742   1.229   2.257  10.808  0.1696 -0.0562 -0.3233
  112MPD2    C3 1743   1.197   2.189  10.922 -0.3735 -0.6855 -0.8343
  112MPD2    C4 1744   1.094   2.100  10.918 -0.8221  0.3453 -0.2429
  112MPD2    C5 1745   1.026   2.078  10.802 -0.3220 -0.2659  0.0794
  112MPD2     H 1746   1.302   2.337  10.808 -0.9981  1.0181 -1.2707
  112MPD2    H1 1747   1.058   2.044  11.003 -0.9925 -0.3731 -0.7927
  112MPD2    H2 1748   1.010   2.117  10.594 -1.0796 -1.2895  1.1778
  112MPD2    H3 1749   0.944   2.007  10.808 -0.1975 -0.5440 -1.7223
  112MPD2     N 1750   1.256   2.239  11.049 -0.4687  0.1960  0.4340
  112MPD2    H5 1751   1.218   2.198  11.134 -1.3345  0.8051  0.3451
  112MPD2    N1 1752   1.207   2.304  10.578 -0.2008 -0.5214  0.4700
  112MPD2    H7 1753   1.271   2.382  10.591 -0.6769 -0.0851  0.2174
  113TMC2    C1 1754   3.941   4.678   0.599  0.1972 -0.3381  0.6104
  113TMC2    C2 1755   3.858   0.040   0.633  0.1627  0.2903 -0.2716
  113TMC2    C3 1756   3.730   0.030   0.585 -0.0122  0.5225 -0.4807
  113TMC2    C4 1757   3.900   4.573   0.525 -0.0443 -0.2256 -0.0777
  113TMC2    C5 1758   3.772   4.570   0.489  0.0881 -0.4171  0.0626
  113TMC2    C6 1759   3.680   4.664   0.517  0.5835  0.4205  0.5561
  113TMC2     C 1760   4.083   4.696   0.632 -0.0278 -0.4686 -0.2818
  113TMC2     O 1761   4.113   0.028   0.733  0.1677  0.2764 -0.2624
  113TMC2     H 1762   3.904   0.127   0.679 -0.5027  0.1816  0.6042
  113TMC2    H1 1763   3.967   4.493   0.497  2.1413  1.1765  1.0661
  113TMC2    H2 1764   3.574   4.654   0.501  0.5629 -0.0444  0.9719
  113TMC2    C7 1765   3.723   4.442   0.436  0.4075  0.6132  0.3410
  113TMC2    C8 1766   3.649   0.152   0.606 -0.7281 -0.1877 -0.8134
  113TMC2    O1 1767   3.628   4.449   0.356  0.0235 -0.0477  0.5193
  113TMC2    O2 1768   3.543   0.166   0.549 -0.1856 -0.1567  0.5113
  113TMC2    O5 1769   3.684   0.221   0.719 -0.1347  0.5256 -0.1289
  113TMC2    H5 1770   3.767   0.195   0.764  0.3975 -0.5634 -1.7173
  114MPD2     C 1771   4.567   4.547   0.600 -0.8829 -0.2916 -0.3223
  114MPD2    C1 1772   4.494   4.601   0.701 -0.6822  0.1150 -0.0131
  114MPD2    C2 1773   4.363   4.620   0.687 -0.6049  0.1171 -0.3104
  114MPD2    C3 1774   4.298   4.602   0.565 -0.3854 -0.2907  0.0037
  114MPD2    C4 1775   4.373   4.542   0.463 -0.1707 -0.1524  0.4505
  114MPD2    C5 1776   4.511   4.524   0.474 -0.2746  0.4059 -0.4323
  114MPD2     H 1777   4.310   4.665   0.770 -0.2431  2.1471 -1.1769
  114MPD2    H1 1778   4.324   4.524   0.368  0.9632 -0.6032 -0.0414
  114MPD2    H2 1779   4.669   4.512   0.609 -0.5884  0.2344 -1.6115
  114MPD2    H3 1780   4.563   4.485   0.388  1.1477  2.3950 -0.4580
  114MPD2     N 1781   4.160   4.623   0.549  0.0817 -0.3760 -0.0011
  114MPD2    H5 1782   4.117   4.612   0.458  0.2472 -1.3588  0.0351
  114MPD2    N1 1783   4.552   4.637   0.830 -0.1356 -0.2166  1.1868
  114MPD2    H7 1784   4.498   4.690   0.898  2.6836  0.3943  2.9411
  115TMC2    C1 1785   0.283   2.517  17.224  0.6225 -0.2959 -0.3045
  115TMC2    C2 1786   0.362   2.527  17.335 -0.7031 -0.1570 -0.2080
  115TMC2    C3 1787   0.387   2.653  17.385 -0.4309 -0.1454  0.6387
  115TMC2    C4 1788   0.248   2.626  17.152  0.8711  0.1433  0.6186
  115TMC2    C5 1789   0.295   2.744  17.188  0.3820 -0.1862 -0.0412
  115TMC2    C6 1790   0.362   2.763  17.302 -0.4707 -0.3330  0.7001
  115TMC2     C 1791   0.244   2.379  17.190  0.4740  0.1052  0.3864
  115TMC2     O 1792   0.300   2.293  17.252  0.1076 -0.2217 -0.0137
  115TMC2     H 1793   0.391   2.439  17.391  1.6213 -0.6187 -2.1204
  115TMC2    H1 1794   0.188   2.618  17.062  1.7211  0.9155 -0.0134
  115TMC2    H2 1795   0.410   2.852  17.341  1.6134 -1.3807  0.4960
  115TMC2    C7 1796   0.262   2.857  17.092 -0.0141  0.1340  0.0685
  115TMC2    C8 1797   0.470   2.663  17.504 -0.3901 -0.0799  0.6217
  115TMC2    O1 1798   0.201   2.834  16.987  0.1491  0.4301 -0.3749
  115TMC2    O2 1799   0.533   2.760  17.542 -0.0181 -0.3527  0.3357
  115TMC2    O5 1800   0.407   2.577  17.586 -0.0892  0.0625  0.1321
  115TMC2    H5 1801   0.326   2.531  17.556 -0.9852  0.8703  1.3580
  116MPD2     C 1802   4.720   2.025  16.929 -0.8545  0.4095  0.4902
  116MPD2    C1 1803   0.100   2.011  17.011 -0.0691 -0.3752  0.7602
  116MPD2    C2 1804   0.147   2.120  17.081  0.3664 -0.1917  0.0619
  116MPD2    C3 1805   0.098   2.246  17.052  0.5058 -0.1313 -0.2118
  116MPD2    C4 1806   4.715   2.257  16.972 -0.0105 -0.1253 -0.1783
  116MPD2    C5 1807   4.672   2.147  16.903 -0.3691  0.0507  0.5700
  116MPD2     H 1808   0.230   2.110  17.149  1.1191 -0.6838 -0.9291
  116MPD2    H1 1809   4.675   2.357  16.955 -1.4499 -0.6334  0.2277
  116MPD2    H2 1810   4.672   1.941  16.880 -1.3256  1.6720 -1.2421
  116MPD2    H3 1811   4.598   2.154  16.824 -0.3402  2.4019  0.7545
  116MPD2     N 1812   0.138   2.363  17.102 -0.7710  0.0195  0.7685
  116MPD2    H5 1813   0.094   2.450  17.076  0.6121  0.1042 -1.2684
  116MPD2    N1 1814   0.150   1.878  17.012  0.2884 -0.0892 -0.2931
  116MPD2    H7 1815   0.100   1.814  16.950  2.2773  0.2492 -2.2488
  117TMC2    C1 1816   3.705   3.891  13.643 -0.6377 -0.0639  0.0896
  117TMC2    C2 1817   3.832   3.843  13.663  0.1234 -0.2132  0.2982
  117TMC2    C3 1818   3.916   3.890  13.760 -0.7043  0.1177 -0.4728
  117TMC2    C4 1819   3.666   4.003  13.718 -0.0323 -0.4827 -0.6874
  117TMC2    C5 1820   3.760   4.046  13.815  0.7972  0.9631  0.3889
  117TMC2    C6 1821   3.877   3.990  13.848 -0.5058 -0.3180 -0.8558
  117TMC2     C 1822   3.604   3.796  13.601  0.0073  0.3590 -0.4223
  117TMC2     O 1823   3.659   3.705  13.534 -0.3905  0.5681  0.0176
  117TMC2     H 1824   3.878   3.778  13.590 -0.6137  0.6773 -0.9529
  117TMC2    H1 1825   3.566   4.044  13.706 -0.1457 -0.4428  0.3528
  117TMC2    H2 1826   3.945   4.025  13.925  1.0551 -0.6124 -2.0943
  117TMC2    C7 1827   3.747   4.187  13.865  0.3785  0.9880 -0.1833
  117TMC2    C8 1828   4.061   3.861  13.752 -0.3174 -0.3195 -0.9356
  117TMC2    O1 1829   3.839   4.241  13.923  0.2493 -0.3061 -0.7139
  117TMC2    O2 1830   4.129   3.854  13.851  0.4843 -0.5193 -0.3390
  117TMC2    O5 1831   4.108   3.862  13.620 -0.5885  0.1683 -0.4174
  117TMC2    H5 1832   4.044   3.909  13.563 -0.2670  0.6108 -0.4164
  118MPD2     C 1833   3.434   4.366  13.929  0.2822 -0.0134 -0.0992
  118MPD2    C1 1834   3.567   4.356  13.904 -0.2614 -0.3716  0.5353
  118MPD2    C2 1835   3.643   4.467  13.896 -0.1343  0.1561  0.1853
  118MPD2    C3 1836   3.582   4.592  13.901 -1.2146  0.0768 -0.2886
  118MPD2    C4 1837   3.447   4.603  13.940 -0.5083  1.2788 -0.4332
  118MPD2    C5 1838   3.374   4.489  13.962 -0.0837  0.2915 -0.6292
  118MPD2     H 1839   3.747   4.462  13.865  0.9892 -0.6201  3.9860
  118MPD2    H1 1840   3.387   4.693  13.939 -2.6986 -0.1694  0.4067
  118MPD2    H2 1841   3.374   4.278  13.946 -0.6579  0.8802  1.2404
  118MPD2    H3 1842   3.269   4.500  13.987  0.3386  2.0810  0.3517
  118MPD2     N 1843   3.649   4.715  13.879 -0.4763  0.6419  0.1899
  118MPD2    H5 1844   3.593   0.063  13.879 -0.4326  0.6734 -0.5110
  118MPD2    N1 1845   3.613   4.229  13.862  0.0846 -0.0742 -0.2578
  118MPD2    H7 1846   3.538   4.163  13.843 -0.4769 -0.2606  2.7198
  119TMC2    C1 1847   1.789   0.738  12.944  0.2935 -0.1770 -0.0865
  119TMC2    C2 1848   1.812   0.745  12.807 -0.7158  0.2295  0.2918
  119TMC2    C3 1849   1.700   0.787  12.743 -0.0152  0.5257 -0.5083
  119TMC2    C4 1850   1.671   0.769  13.008 -0.1151 -0.3329  0.1899
  119TMC2    C5 1851   1.568   0.807  12.933  0.0401  0.2105 -0.5815
  119TMC2    C6 1852   1.579   0.823  12.797  0.1292 -0.3728 -0.4898
  119TMC2     C 1853   1.898   0.769  13.030  0.8617  0.8126  0.9325
  119TMC2     O 1854   1.864   0.831  13.129  0.5518  0.7724 -0.4661
  119TMC2     H 1855   1.900   0.717  12.750 -0.7100 -1.0240  0.9017
  119TMC2    H1 1856   1.672   0.763  13.116 -3.2382 -1.1905  0.1606
  119TMC2    H2 1857   1.492   0.828  12.733  1.7785 -2.8148 -2.9390
  119TMC2    C7 1858   1.432   0.817  12.982 -0.7040 -0.9593  0.7312
  119TMC2    C8 1859   1.713   0.808  12.602 -0.3245  0.0335 -0.3465
  119TMC2    O1 1860   1.350   0.877  12.920 -0.8253 -0.7961 -0.4646
  119TMC2    O2 1861   1.681   0.914  12.552 -0.1750  0.5820 -0.4469
  119TMC2    O5 1862   1.796   0.717  12.550 -0.8724  0.4503 -0.5403
  119TMC2    H5 1863   1.797   0.630  12.595 -0.1466  1.2118  0.9071
  120MPD2     C 1864   2.371   0.801  13.195  0.1822 -0.4739  0.1333
  120MPD2    C1 1865   2.254   0.852  13.244 -0.2729 -0.7061  0.0546
  120MPD2    C2 1866   2.139   0.840  13.165 -0.4686 -0.2828  0.4080
  120MPD2    C3 1867   2.140   0.759  13.055  0.0847  0.2856  0.0850
  120MPD2    C4 1868   2.262   0.711  13.006 -0.0825 -0.2125 -0.3510
  120MPD2    C5 1869   2.381   0.736  13.078 -0.4943 -0.2785 -0.4751
  120MPD2     H 1870   2.049   0.888  13.201 -0.8414 -0.2189 -0.6121
  120MPD2    H1 1871   2.269   0.663  12.909 -0.8555 -0.6501 -0.1920
  120MPD2    H2 1872   2.463   0.802  13.253  0.4457 -0.7434 -0.2750
  120MPD2    H3 1873   2.477   0.701  13.043 -0.0016  0.1850  0.4313
  120MPD2     N 1874   2.023   0.736  12.979  0.1342  0.1944  0.1784
  120MPD2    H5 1875   2.027   0.676  12.897 -0.6859  1.9363 -1.1318
  120MPD2    N1 1876   2.259   0.920  13.371  0.1658 -0.3966 -0.2876
  120MPD2    H7 1877   2.352   0.947  13.403 -0.0199 -1.0627  0.7946
  121TMC2    C1 1878   3.012   2.398  13.567 -0.5714  0.2978  0.2106
  121TMC2    C2 1879   3.120   2.311  13.574 -0.9755 -0.0657 -0.3366
  121TMC2    C3 1880   3.094   2.184  13.622 -0.2995 -0.0762  0.3759
  121TMC2    C4 1881   2.890   2.345  13.577  0.5039 -0.1433 -0.7744
  121TMC2    C5 1882   2.872   2.213  13.610  0.0057  0.6003  0.4812
  121TMC2    C6 1883   2.976   2.129  13.634 -0.0237  0.5571  0.3108
  121TMC2     C 1884   3.018   2.535  13.505  0.3370 -0.1685  0.5140
  121TMC2     O 1885   2.932   2.616  13.520 -0.1029 -0.6180  0.6218
  121TMC2     H 1886   3.220   2.351  13.577 -0.9322  0.1406 -4.4041
  121TMC2    H1 1887   2.807   2.406  13.544  0.6897  0.2079 -0.5826
  121TMC2    H2 1888   2.957   2.025  13.659 -0.7520  0.7484  0.5687
  121TMC2    C7 1889   2.743   2.153  13.622  0.8575  0.6178 -0.6810
  121TMC2    C8 1890   3.209   2.099  13.653 -0.3971 -0.3718  0.6431
  121TMC2    O1 1891   2.734   2.028  13.629  0.4620  0.4178  0.2766
  121TMC2    O2 1892   3.280   2.135  13.748  0.2185  0.0399 -0.2729
  121TMC2    O5 1893   3.245   2.056  13.526 -0.0402  0.0699  0.0845
  121TMC2    H5 1894   3.180   2.056  13.453  0.8236 -0.3499 -0.6976
  122MPD2     C 1895   3.131   2.788  13.368  0.0135 -1.0692 -0.1934
  122MPD2    C1 1896   3.162   2.656  13.342 -0.1505  0.0553  0.2131
  122MPD2    C2 1897   3.253   2.631  13.241  1.0260 -0.3245 -0.8033
  122MPD2    C3 1898   3.299   2.729  13.158 -0.2835 -0.6585  0.2022
  122MPD2    C4 1899   3.249   2.854  13.173 -0.3396  0.0821  0.6836
  122MPD2    C5 1900   3.168   2.882  13.279 -0.2581 -0.0171 -0.2822
  122MPD2     H 1901   3.287   2.528  13.240  0.4220 -0.5325 -0.0828
  122MPD2    H1 1902   3.289   2.937  13.115 -1.9341 -0.7811 -1.6927
  122MPD2    H2 1903   3.057   2.815  13.443  2.7863 -0.2483  2.2515
  122MPD2    H3 1904   3.155   2.987  13.305  2.8859 -0.0149  1.2588
  122MPD2     N 1905   3.388   2.698  13.047  0.1551  0.0847  0.5907
  122MPD2    H5 1906   3.388   2.763  12.969 -0.6108 -1.9107 -1.0714
  122MPD2    N1 1907   3.121   2.546  13.418  0.4936  0.3890 -0.9503
  122MPD2    H7 1908   3.177   2.462  13.411  0.0909 -0.0710  1.2615
  123TMC2    C1 1909   2.194   1.223  10.396  0.1938  0.5395  0.1910
  123TMC2    C2 1910   2.222   1.323  10.306 -0.4281  0.3939 -0.2981
  123TMC2    C3 1911   2.295   1.285  10.190  0.3473 -0.2399  0.7243
  123TMC2    C4 1912   2.233   1.091  10.381 -0.2679  0.8763 -0.2081
  123TMC2    C5 1913   2.301   1.061  10.266 -0.4296 -0.3245 -0.3333
  123TMC2    C6 1914   2.336   1.154  10.167 -0.0222  0.0157 -0.7346
  123TMC2     C 1915   2.109   1.260  10.509 -0.4020  0.4072 -0.3336
  123TMC2     O 1916   2.086   1.380  10.537 -0.0705  0.0717  0.0666
  123TMC2     H 1917   2.189   1.424  10.325 -2.0492 -0.3442  0.8019
  123TMC2    H1 1918   2.212   1.017  10.457  0.1472 -0.5498 -1.4817
  123TMC2    H2 1919   2.395   1.131  10.079  1.3074  0.4458  0.0460
  123TMC2    C7 1920   2.323   0.924  10.224 -0.1688 -0.1858 -0.5663
  123TMC2    C8 1921   2.347   1.383  10.095  0.0728 -0.3550 -0.6373
  123TMC2    O1 1922   2.396   0.908  10.126 -0.1315 -0.4652  0.0313
  123TMC2    O2 1923   2.447   1.362  10.026  0.0519 -0.1544 -0.7023
  123TMC2    O5 1924   2.287   1.499  10.133 -0.6282 -0.3242 -0.1876
  123TMC2    H5 1925   2.191   1.490  10.151 -0.4807  1.7380  1.7033
  124MPD2     C 1926   1.909   1.059  10.952  0.2999  0.5171 -0.6805
  124MPD2    C1 1927   1.925   0.961  10.854 -0.1762 -0.0990  0.2063
  124MPD2    C2 1928   1.975   1.002  10.733  0.2442  0.0584  0.2935
  124MPD2    C3 1929   2.005   1.134  10.697  0.0651 -0.5372 -0.3188
  124MPD2    C4 1930   1.987   1.235  10.793 -0.1077  0.1865  0.0286
  124MPD2    C5 1931   1.937   1.195  10.919 -0.1693  0.4949 -0.7377
  124MPD2     H 1932   1.994   0.937  10.647 -0.8351 -0.2549  0.2895
  124MPD2    H1 1933   2.007   1.339  10.770 -1.6076  0.1471 -1.4660
  124MPD2    H2 1934   1.871   1.028  11.048 -1.5024  1.6656 -1.0306
  124MPD2    H3 1935   1.918   1.275  10.990 -0.1213 -0.4376  0.3236
  124MPD2     N 1936   2.053   1.149  10.566 -0.0888  0.1509  0.1520
  124MPD2    H5 1937   2.065   1.063  10.514  2.3996  1.9236 -2.2276
  124MPD2    N1 1938   1.892   0.825  10.893 -0.5465 -0.0610 -0.2153
  124MPD2    H7 1939   1.840   0.814  10.980  0.2244  2.3401  0.5426
  125TMC2    C1 1940   2.830   1.440   8.676 -0.3278  0.1367  0.5379
  125TMC2    C2 1941   2.818   1.409   8.546 -0.1943 -0.0642  0.4453
  125TMC2    C3 1942   2.931   1.405   8.472 -0.1955 -0.4476  0.3885
  125TMC2    C4 1943   2.948   1.460   8.741 -0.1743  0.0275 -0.3936
  125TMC2    C5 1944   3.060   1.438   8.664  0.6021  0.1540 -0.2564
  125TMC2    C6 1945   3.050   1.403   8.530  0.7355  0.7762  0.0233
  125TMC2     C 1946   2.704   1.471   8.749 -0.0031  0.2094  0.0426
  125TMC2     O 1947   2.598   1.432   8.695 -0.1995 -0.8492 -0.5764
  125TMC2     H 1948   2.719   1.405   8.503  0.9637 -1.1547 -2.1266
  125TMC2    H1 1949   2.955   1.476   8.848  1.3640  1.6682 -0.7422
  125TMC2    H2 1950   3.142   1.373   8.481  1.0988 -0.3204  1.4001
  125TMC2    C7 1951   3.191   1.460   8.723 -0.1589 -0.1222  0.1932
  125TMC2    C8 1952   2.932   1.342   8.339 -0.0731  0.1872  0.2026
  125TMC2    O1 1953   3.200   1.465   8.844  0.0921 -0.1658  0.3652
  125TMC2    O2 1954   3.032   1.295   8.287  0.2394 -0.4280 -0.1859
  125TMC2    O5 1955   2.828   1.397   8.279  0.4799  0.6262 -0.6376
  125TMC2    H5 1956   2.781   1.466   8.331  0.2289  0.7393 -1.0128
  126MPD1     C 1957   2.401   1.670   9.102  0.2661 -0.2454 -0.3544
  126MPD1    C1 1958   2.515   1.745   9.095  0.6269  0.3182  0.0120
  126MPD1    C2 1959   2.619   1.707   9.013  0.3294  0.0445  0.3091
  126MPD1    C3 1960   2.611   1.591   8.940 -0.1109  0.4727  0.2193
  126MPD1    C4 1961   2.499   1.509   8.956  0.1974  0.2459  0.5833
  126MPD1    C5 1962   2.397   1.551   9.044  0.8305  0.7714 -0.1796
  126MPD1     H 1963   2.707   1.770   9.015  0.0470  0.4717 -0.6575
  126MPD1    H1 1964   2.490   1.412   8.908  0.1299  0.2007  0.6892
  126MPD1    H2 1965   2.317   1.706   9.161 -0.9080 -1.7126 -1.1329
  126MPD1    H3 1966   2.312   1.484   9.047  0.8627  0.7211 -0.3691
  126MPD1     N 1967   2.715   1.562   8.850 -0.1504 -0.4894  0.4751
  126MPD1    H5 1968   2.785   1.634   8.835 -0.1965 -1.0178 -2.3672
  126MPD1    N1 1969   2.525   1.871   9.152  0.5598 -0.2016  0.5547
  126MPD1    H6 1970   2.468   1.879   9.236 -0.1590 -0.3729  0.0943
  126MPD1    H7 1971   2.619   1.899   9.178  0.6695 -0.1006  0.0402
  127TMC2    C1 1972   3.965   0.648   9.432  0.2313 -0.7332 -0.1634
  127TMC2    C2 1973   3.850   0.572   9.401  0.1475 -0.2370  1.0008
  127TMC2    C3 1974   3.814   0.468   9.478 -0.2470  0.2231 -0.5965
  127TMC2    C4 1975   4.033   0.614   9.545  0.2366 -1.1349 -0.5119
  127TMC2    C5 1976   3.976   0.519   9.628  0.2704  0.3003  0.8293
  127TMC2    C6 1977   3.870   0.444   9.597 -0.0289 -0.0002 -0.2448
  127TMC2     C 1978   4.020   0.741   9.336 -0.6927 -0.2038  0.0742
  127TMC2     O 1979   4.097   0.824   9.381  0.2337 -0.0802  0.4267
  127TMC2     H 1980   3.778   0.600   9.324 -0.3292  0.9344  1.8691
  127TMC2    H1 1981   4.128   0.657   9.571 -0.4626  1.0689 -1.6180
  127TMC2    H2 1982   3.841   0.355   9.653  0.6051 -1.1655 -1.7748
  127TMC2    C7 1983   4.053   0.471   9.742 -0.6807 -0.1040  0.3566
  127TMC2    C8 1984   3.724   0.372   9.413 -0.2601 -0.2630 -0.0068
  127TMC2    O1 1985   4.171   0.454   9.730  0.5832 -0.2572 -0.0964
  127TMC2    O2 1986   3.735   0.344   9.291 -0.3286  0.6920  0.1140
  127TMC2    O5 1987   3.652   0.302   9.499  0.0503 -0.1226  0.2193
  127TMC2    H5 1988   3.652   0.322   9.595  0.9441 -0.3194  0.2664
  128MPD2     C 1989   3.988   0.710   8.971 -0.4187  0.5499 -0.0892
  128MPD2    C1 1990   4.036   0.764   9.089  0.1909 -0.7555  0.0445
  128MPD2    C2 1991   4.149   0.843   9.081 -0.5055  0.1575 -0.5517
  128MPD2    C3 1992   4.210   0.887   8.964 -0.2245  0.0180 -0.0062
  128MPD2    C4 1993   4.164   0.817   8.849 -0.7470  0.5095 -0.0679
  128MPD2    C5 1994   4.056   0.738   8.861  0.2938 -0.5492  0.0424
  128MPD2     H 1995   4.190   0.877   9.176 -3.3441  0.6564  0.5024
  128MPD2    H1 1996   4.202   0.835   8.749 -0.2670  2.5823  0.4791
  128MPD2    H2 1997   3.898   0.650   8.964  0.8623 -1.5778  2.0527
  128MPD2    H3 1998   4.018   0.696   8.768 -0.4952  0.8112 -0.2515
  128MPD2     N 1999   4.309   0.981   8.982 -0.4169  0.2227 -0.0302
  128MPD2    H5 2000   4.332   1.011   9.077  1.4399 -0.9439 -0.1238
  128MPD2    N1 2001   3.982   0.710   9.208 -0.1459 -0.4926  0.2005
  128MPD2    H7 2002   3.914   0.635   9.192 -0.2022 -0.1693 -1.0868
  129TMC2    C1 2003   2.565   0.927   1.701 -0.4967 -0.1525  0.0228
  129TMC2    C2 2004   2.580   0.793   1.721  0.1626  0.1591 -0.0939
  129TMC2    C3 2005   2.477   0.707   1.703 -0.4939  0.2506  0.0662
  129TMC2    C4 2006   2.444   0.980   1.678  0.1173 -0.5410  0.0337
  129TMC2    C5 2007   2.343   0.889   1.648 -0.7938  0.5736 -0.7731
  129TMC2    C6 2008   2.356   0.751   1.653 -0.2269 -0.0697 -0.1713
  129TMC2     C 2009   2.686   0.988   1.639  0.0506  0.1365 -0.4912
  129TMC2     O 2010   2.775   0.908   1.606 -0.0349 -0.0158  0.0574
  129TMC2     H 2011   2.678   0.760   1.753  0.5348 -0.8514 -2.2710
  129TMC2    H1 2012   2.436   1.085   1.651 -3.6018 -0.9988 -0.5913
  129TMC2    H2 2013   2.277   0.677   1.641 -0.7698  0.3424  0.8802
  129TMC2    C7 2014   2.206   0.938   1.633 -0.2390  0.0716 -0.1569
  129TMC2    C8 2015   2.481   0.570   1.753  0.0198  0.4369 -0.6630
  129TMC2    O1 2016   2.135   0.863   1.568  0.3339 -0.1718  0.3936
  129TMC2    O2 2017   2.378   0.508   1.780  0.4045 -0.1864  0.3136
  129TMC2    O5 2018   2.585   0.512   1.695  0.4868 -0.1558 -0.4101
  129TMC2    H5 2019   2.646   0.576   1.652  0.1253  1.1025  0.9721
  130MPD2     C 2020   2.838   1.124   1.427  0.8309 -1.1635  0.0370
  130MPD2    C1 2021   2.748   1.186   1.512 -0.4822  0.4659 -1.0232
  130MPD2    C2 2022   2.718   1.320   1.497 -0.1514  0.0741  1.1362
  130MPD2    C3 2023   2.771   1.397   1.395  0.4472  0.4875  0.2988
  130MPD2    C4 2024   2.871   1.342   1.323 -0.0601  0.6138  0.0130
  130MPD2    C5 2025   2.897   1.209   1.333 -0.3172  0.5191 -0.7617
  130MPD2     H 2026   2.650   1.359   1.571 -1.5557  0.3882 -0.3236
  130MPD2    H1 2027   2.943   1.398   1.263  0.5522  1.6462  1.7295
  130MPD2    H2 2028   2.879   1.023   1.423 -2.1071 -2.3566 -0.0710
  130MPD2    H3 2029   2.967   1.168   1.261  0.0396 -1.4364  0.6950
  130MPD2     N 2030   2.742   1.534   1.392 -0.2605  0.1783 -0.5268
  130MPD2    H5 2031   2.693   1.573   1.472  0.4682 -0.0411  0.0206
  130MPD2    N1 2032   2.675   1.121   1.615 -0.6060 -0.4283  0.2840
  130MPD2    H7 2033   2.601   1.175   1.658  1.6440  1.3704  1.9733
  131TMC2    C1 2034   1.998   0.737  10.011 -0.1363 -0.2230  0.4395
  131TMC2    C2 2035   2.081   0.666   9.932 -0.1985 -0.0783  0.8899
  131TMC2    C3 2036   2.166   0.732   9.852  0.1530 -0.0146 -0.5056
  131TMC2    C4 2037   1.993   0.872  10.011 -0.3134  0.1550  0.3101
  131TMC2    C5 2038   2.069   0.941   9.913  0.3135  0.3739  0.1268
  131TMC2    C6 2039   2.156   0.871   9.832 -0.8734 -0.2967  0.0422
  131TMC2     C 2040   1.938   0.682  10.132 -0.1515  1.2358  0.8444
  131TMC2     O 2041   1.925   0.758  10.229  0.6681 -0.5562 -0.0939
  131TMC2     H 2042   2.090   0.560   9.953  0.1529 -0.1843  0.2094
  131TMC2    H1 2043   1.931   0.927  10.080 -1.2223  0.6958 -0.9555
  131TMC2    H2 2044   2.192   0.918   9.741  2.4230  1.4573  2.2728
  131TMC2    C7 2045   2.075   1.084   9.923  0.0665 -0.7603  0.1154
  131TMC2    C8 2046   2.252   0.654   9.760  0.6040 -0.6574 -0.0929
  131TMC2    O1 2047   2.005   1.137  10.006  0.1133 -0.4005 -0.2535
  131TMC2    O2 2048   2.241   0.537   9.751 -0.1301  0.3616 -0.2583
  131TMC2    O5 2049   2.358   0.729   9.720  0.2159 -0.0865 -0.0669
  131TMC2    H5 2050   2.360   0.824   9.748  0.5180 -0.0016 -0.3729
  132MPD2     C 2051   1.691   0.436  10.128 -0.3647  0.5724 -0.4127
  132MPD2    C1 2052   1.787   0.510  10.190  0.0564 -0.7695 -0.2724
  132MPD2    C2 2053   1.784   0.527  10.322 -0.6312 -0.6820 -0.7705
  132MPD2    C3 2054   1.698   0.445  10.398  0.2447 -0.1624 -0.0846
  132MPD2    C4 2055   1.623   0.346  10.344 -0.2760 -0.5572 -0.7625
  132MPD2    C5 2056   1.605   0.358  10.202 -0.2035  0.1377  0.1303
  132MPD2     H 2057   1.861   0.587  10.369 -2.7352  1.4517 -0.0791
  132MPD2    H1 2058   1.543   0.288  10.389  2.1479 -1.7389  1.9906
  132MPD2    H2 2059   1.690   0.437  10.020  0.6424 -0.6369 -0.4291
  132MPD2    H3 2060   1.543   0.284  10.152  0.9034 -2.0079  1.9386
  132MPD2     N 2061   1.711   0.446  10.545  0.3570 -0.2555  0.8750
  132MPD2    H5 2062   1.762   0.527  10.579  1.7592 -0.7254 -0.1351
  132MPD2    N1 2063   1.877   0.566  10.099 -0.1660  0.0523  0.3912
  132MPD2    H7 2064   1.867   0.538  10.002 -0.0353  1.3125  0.0040
  133TMC2    C1 2065   1.622   0.171   9.789 -0.6166  1.2330 -0.0729
  133TMC2    C2 2066   1.709   0.192   9.883 -0.7029 -0.3030 -0.0507
  133TMC2    C3 2067   1.749   0.083   9.959 -0.2029  0.0690  0.1924
  133TMC2    C4 2068   1.570   0.050   9.755 -0.3843 -0.0171 -0.0414
  133TMC2    C5 2069   1.607   4.680   9.834  0.9313 -0.7293 -0.5835
  133TMC2    C6 2070   1.698   4.695   9.932  0.4324  0.1071  0.2638
  133TMC2     C 2071   1.580   0.299   9.732  0.5952 -0.4411 -0.6189
  133TMC2     O 2072   1.652   0.395   9.733  0.5863  0.1076 -0.1819
  133TMC2     H 2073   1.745   0.294   9.900 -0.1124 -0.4297 -0.5076
  133TMC2    H1 2074   1.519   0.052   9.660  2.1961  0.0297 -1.4192
  133TMC2    H2 2075   1.707   4.613  10.002 -0.9960 -0.2651  0.0175
  133TMC2    C7 2076   1.560   4.542   9.805  0.1631  0.6440  0.0243
  133TMC2    C8 2077   1.812   0.095  10.086  0.3012 -0.0084 -0.4792
  133TMC2    O1 2078   1.577   4.462   9.898  0.1472  0.3353 -0.1832
  133TMC2    O2 2079   1.800   0.010  10.173 -0.3065  0.4992 -0.2947
  133TMC2    O5 2080   1.922   0.171  10.064 -0.1708 -0.8874 -0.2529
  133TMC2    H5 2081   1.940   0.198   9.971 -0.1638 -1.8980 -0.5372
  134MPD2     C 2082   1.246   0.384   9.595 -0.0206 -1.0482  0.1256
  134MPD2    C1 2083   1.385   0.398   9.608 -0.5703 -0.1039 -0.4573
  134MPD2    C2 2084   1.453   0.494   9.542  0.3298 -0.3055  0.4881
  134MPD2    C3 2085   1.376   0.591   9.480 -0.6795  0.1822 -0.4719
  134MPD2    C4 2086   1.241   0.584   9.470 -0.2261  1.4129 -0.1072
  134MPD2    C5 2087   1.174   0.487   9.527  0.2802  0.3823 -0.2587
  134MPD2     H 2088   1.561   0.496   9.536  0.3923 -0.7581  1.4724
  134MPD2    H1 2089   1.184   0.669   9.433 -2.2778 -0.2931 -0.8450
  134MPD2    H2 2090   1.191   0.303   9.642 -0.7478 -0.3200  0.5313
  134MPD2    H3 2091   1.066   0.482   9.535 -0.0670  1.2818 -4.6132
  134MPD2     N 2092   1.439   0.706   9.443 -0.2834 -0.1520  0.0845
  134MPD2    H5 2093   1.373   0.773   9.404  0.0649 -0.4636 -1.0501
  134MPD2    N1 2094   1.450   0.296   9.683 -0.4419 -0.5631  0.1303
  134MPD2    H7 2095   1.397   0.217   9.719 -0.5961 -0.4695  0.1090
  135TMC2    C1 2096   2.916   3.243   9.806 -0.5107 -0.7679  0.2454
  135TMC2    C2 2097   2.852   3.176   9.713  0.4474  0.3021  0.6115
  135TMC2    C3 2098   2.819   3.041   9.735 -0.2205 -0.1580 -0.0964
  135TMC2    C4 2099   2.981   3.175   9.899  1.0015  0.4251 -0.2578
  135TMC2    C5 2100   2.963   3.039   9.909 -0.4632  0.0678  0.1727
  135TMC2    C6 2101   2.868   2.973   9.841  0.3001 -0.7654  0.1313
  135TMC2     C 2102   2.963   3.370   9.768 -0.9308  0.3561  0.1641
  135TMC2     O 2103   2.958   3.460   9.850  0.2786  0.2699  0.1312
  135TMC2     H 2104   2.799   3.229   9.635 -0.3170  0.0624  0.9735
  135TMC2    H1 2105   3.050   3.234   9.959  0.8079 -1.3073  1.6585
  135TMC2    H2 2106   2.840   2.869   9.854  1.3106 -0.6635  3.1329
  135TMC2    C7 2107   3.048   2.972   9.999  0.8559  0.0753 -0.2074
  135TMC2    C8 2108   2.708   2.987   9.662 -0.9010  0.3269 -1.0947
  135TMC2    O1 2109   3.102   3.037  10.088  0.9130  0.1068  0.0831
  135TMC2    O2 2110   2.636   2.892   9.695  0.3192 -0.2284 -0.4386
  135TMC2    O5 2111   2.721   3.030   9.533  0.2251  0.1073 -0.3105
  135TMC2    H5 2112   2.808   3.072   9.514  1.5731 -2.7316 -0.5067
  136MPD2     C 2113   3.102   3.589   9.629  0.2760 -0.1654 -0.6237
  136MPD2    C1 2114   3.074   3.467   9.572  0.5835  0.0552 -0.3927
  136MPD2    C2 2115   3.120   3.441   9.448 -0.5286  0.7567  0.5094
  136MPD2    C3 2116   3.190   3.532   9.373 -0.0917 -0.8181  0.8026
  136MPD2    C4 2117   3.213   3.656   9.421 -0.3008 -0.0022 -0.3491
  136MPD2    C5 2118   3.172   3.687   9.554  0.7739  0.1446 -0.1914
  136MPD2     H 2119   3.101   3.341   9.412  1.0652 -0.0316  1.8514
  136MPD2    H1 2120   3.275   3.728   9.369 -1.5665  1.9832  0.8732
  136MPD2    H2 2121   3.093   3.606   9.735  0.4536 -0.9184 -0.4842
  136MPD2    H3 2122   3.193   3.783   9.600 -0.9236 -0.1409  1.1600
  136MPD2     N 2123   3.255   3.492   9.244  0.8567  0.4436 -0.6918
  136MPD2    H5 2124   3.279   3.565   9.178 -0.2069 -0.2002 -1.7767
  136MPD2    N1 2125   3.004   3.361   9.637  0.3587 -0.1806 -0.2558
  136MPD2    H7 2126   2.985   3.273   9.591 -1.0042  0.6483 -1.2819
  137TMC2    C1 2127   3.424   1.108   8.689 -0.4145 -0.0054  0.5373
  137TMC2    C2 2128   3.467   1.123   8.556  0.6917 -0.0414  0.0447
  137TMC2    C3 2129   3.372   1.114   8.463  0.6774  0.0109 -0.3733
  137TMC2    C4 2130   3.289   1.087   8.715  0.3118  0.1218 -0.3693
  137TMC2    C5 2131   3.197   1.071   8.614  0.0139 -0.1527 -0.2681
  137TMC2    C6 2132   3.237   1.096   8.488  0.3394 -0.4841  0.5599
  137TMC2     C 2133   3.506   1.176   8.787 -0.4285  0.1393 -0.4219
  137TMC2     O 2134   3.605   1.227   8.741 -0.4406 -0.0808  0.2082
  137TMC2     H 2135   3.564   1.166   8.534  2.1202 -3.1138  0.3231
  137TMC2    H1 2136   3.259   1.066   8.817  2.5853  2.3882  0.7768
  137TMC2    H2 2137   3.161   1.100   8.410 -1.6468  0.9301  2.5620
  137TMC2    C7 2138   3.052   1.055   8.637 -0.3572  0.1828  1.0400
  137TMC2    C8 2139   3.409   1.194   8.352 -0.4642 -0.1436 -0.1196
  137TMC2    O1 2140   2.990   1.020   8.535 -1.0094 -0.2104  0.6637
  137TMC2    O2 2141   3.488   1.284   8.345 -0.1735  0.3401  0.5735
  137TMC2    O5 2142   3.339   1.160   8.246  0.1134 -0.2189  0.2187
  137TMC2    H5 2143   3.276   1.086   8.259 -0.1870 -0.3500 -1.9711
  138MPD2     C 2144   3.452   1.284   9.130  0.0749 -0.3326 -0.1071
  138MPD2    C1 2145   3.513   1.280   9.007  0.1504 -0.8068  0.4757
  138MPD2    C2 2146   3.626   1.357   8.986  0.0030 -0.0606 -0.1766
  138MPD2    C3 2147   3.681   1.426   9.089 -0.8416  0.9878  0.5596
  138MPD2    C4 2148   3.617   1.431   9.205  0.0342 -0.1241 -0.1959
  138MPD2    C5 2149   3.501   1.362   9.229  0.2829  0.3727 -0.5444
  138MPD2     H 2150   3.673   1.372   8.889  0.0711  0.6134 -0.0362
  138MPD2    H1 2151   3.654   1.479   9.295 -1.0238 -0.5015  0.4388
  138MPD2    H2 2152   3.362   1.231   9.159  0.3021 -1.7559 -1.9900
  138MPD2    H3 2153   3.446   1.367   9.322  1.2228  1.0270 -0.0315
  138MPD2     N 2154   3.807   1.487   9.077  0.1265 -0.0356 -0.0850
  138MPD2    H5 2155   3.853   1.474   8.988  0.3874  0.1517  0.0215
  138MPD2    N1 2156   3.453   1.196   8.913  0.5087 -0.3222  0.3067
  138MPD2    H7 2157   3.367   1.149   8.942 -1.0011  0.8475 -2.2647
  139TMC2    C1 2158   3.562   0.139  13.156 -0.3416 -0.3762  0.1565
  139TMC2    C2 2159   3.620   0.261  13.142  0.3143  0.2898  0.8431
  139TMC2    C3 2160   3.540   0.371  13.139 -0.6819 -0.5822  0.5720
  139TMC2    C4 2161   3.426   0.136  13.179  0.4937 -0.4263 -0.3395
  139TMC2    C5 2162   3.356   0.250  13.194 -0.0328 -0.1792  0.5369
  139TMC2    C6 2163   3.407   0.372  13.173 -0.3050  0.0029 -0.1611
  139TMC2     C 2164   3.648   0.025  13.122 -0.3975  0.1165  0.6740
  139TMC2     O 2165   3.745   0.051  13.055  0.0421  0.0763  0.3749
  139TMC2     H 2166   3.722   0.269  13.107 -0.8296  2.7812 -2.0042
  139TMC2    H1 2167   3.375   0.040  13.191 -1.5661  0.8931  1.4829
  139TMC2    H2 2168   3.344   0.460  13.182 -1.1696 -0.5163 -1.2046
  139TMC2    C7 2169   3.229   0.254  13.261  0.1934 -0.4004  0.1837
  139TMC2    C8 2170   3.608   0.491  13.160  0.1012 -1.8556 -0.4469
  139TMC2    O1 2171   3.195   0.366  13.304  0.6963  0.0886  0.1965
  139TMC2    O2 2172   3.705   0.517  13.093  0.2357 -0.2367  0.4544
  139TMC2    O5 2173   3.616   0.504  13.298  0.7111 -0.1350 -0.3394
  139TMC2    H5 2174   3.535   0.465  13.339  0.3940 -1.5321 -2.3117
  140MPD2     C 2175   3.571   4.409  13.162 -0.1306 -0.0861 -0.6287
  140MPD2    C1 2176   3.652   4.511  13.140 -0.7743 -0.4928  0.4267
  140MPD2    C2 2177   3.788   4.497  13.118  0.5025  0.5108  0.0001
  140MPD2    C3 2178   3.844   4.370  13.136 -0.6006 -1.0134  0.4429
  140MPD2    C4 2179   3.756   4.263  13.159 -0.2816  0.0449 -0.1188
  140MPD2    C5 2180   3.620   4.288  13.166 -0.1930 -0.0094  0.6758
  140MPD2     H 2181   3.845   4.588  13.102  1.0998 -0.1597 -1.7622
  140MPD2    H1 2182   3.786   4.159  13.167 -1.3482 -0.1394  1.3491
  140MPD2    H2 2183   3.464   4.424  13.162 -0.1872 -0.5079 -0.6633
  140MPD2    H3 2184   3.557   4.201  13.180 -0.0475 -0.0863  0.8530
  140MPD2     N 2185   3.984   4.356  13.126 -0.0483 -0.2315 -0.2789
  140MPD2    H5 2186   4.037   4.434  13.088 -0.7115 -0.1133 -0.9595
  140MPD2    N1 2187   3.586   4.641  13.138  0.6803  0.9742  0.5997
  140MPD2    H7 2188   3.495   4.649  13.183  0.0873  0.3589 -0.4887
  141TMC2    C1 2189   3.861   1.159  13.690 -0.3879  0.3286 -0.2359
  141TMC2    C2 2190   3.930   1.074  13.771 -0.4613  0.3707 -0.5144
  141TMC2    C3 2191   3.958   1.118  13.903 -0.6899 -0.4822  0.8653
  141TMC2    C4 2192   3.818   1.282  13.740  0.4547 -0.6690 -0.2637
  141TMC2    C5 2193   3.852   1.321  13.868 -0.2277 -0.1017  0.3380
  141TMC2    C6 2194   3.922   1.237  13.956 -1.0271  0.7438 -0.0611
  141TMC2     C 2195   3.886   1.155  13.544  0.3822 -0.0052  0.7108
  141TMC2     O 2196   3.877   1.264  13.490  0.8372  0.1867  0.5090
  141TMC2     H 2197   3.971   0.982  13.731  1.3201  1.0111 -0.1467
  141TMC2    H1 2198   3.747   1.343  13.685  0.8971  1.1863  1.2286
  141TMC2    H2 2199   3.965   1.262  14.052 -0.4348  0.7315 -0.3171
  141TMC2    C7 2200   3.817   1.452  13.920  0.9725 -0.3926  0.3032
  141TMC2    C8 2201   4.008   1.024  14.005  0.4133  0.2881 -0.1368
  141TMC2    O1 2202   3.714   1.499  13.871 -0.2036 -0.5241  0.1005
  141TMC2    O2 2203   4.098   1.046  14.083 -0.2877  0.5115  0.7322
  141TMC2    O5 2204   3.893   0.968  14.041 -0.8450  0.0221 -0.2260
  141TMC2    H5 2205   3.826   0.988  13.972 -0.1018  1.3113 -0.5645
  142TMC2    C1 2206   2.365   0.122   9.793 -0.6085  0.5403  0.0310
  142TMC2    C2 2207   2.461   0.133   9.693  0.1382 -0.5549  0.7121
  142TMC2    C3 2208   2.541   0.239   9.702  0.1354  0.3643 -0.0434
  142TMC2    C4 2209   2.346   0.217   9.889 -0.2254 -0.0335 -0.3723
  142TMC2    C5 2210   2.442   0.314   9.899  0.7176 -0.0510  0.2702
  142TMC2    C6 2211   2.539   0.330   9.807  0.1967  0.6229  0.8229
  142TMC2     C 2212   2.279   0.006   9.787  0.0004 -0.2076  0.9286
  142TMC2     O 2213   2.258   4.683   9.679 -0.6768 -0.0482 -0.2440
  142TMC2     H 2214   2.471   0.056   9.618 -3.3444 -3.0253  2.7745
  142TMC2    H1 2215   2.262   0.213   9.956  0.4449 -2.3811  0.3199
  142TMC2    H2 2216   2.617   0.403   9.829 -0.1201  1.6499 -1.5241
  142TMC2    C7 2217   2.432   0.420   9.997 -0.1119  0.5228  0.3572
  142TMC2    C8 2218   2.647   0.251   9.602  0.3723 -0.2348  0.4013
  142TMC2    O1 2219   2.501   0.522   9.972 -0.0041  0.3135 -0.2145
  142TMC2    O2 2220   2.688   0.153   9.549 -0.2074 -0.1033  0.4684
  142TMC2    O5 2221   2.713   0.367   9.597 -0.7519  0.2910 -0.1838
  142TMC2    H5 2222   2.670   0.445   9.639 -1.7336  0.2517 -1.1140
  143MPD2     C 2223   1.964   4.409  10.014  0.1175 -0.8715  1.1552
  143MPD2    C1 2224   1.964   4.447   9.887 -0.0727 -0.1330 -0.2323
  143MPD2    C2 2225   2.040   4.558   9.845 -0.0645 -0.3461 -0.1779
  143MPD2    C3 2226   2.120   4.627   9.939 -0.2548  0.0695  0.1360
  143MPD2    C4 2227   2.094   4.600  10.067 -0.2754 -0.5904  0.2405
  143MPD2    C5 2228   2.020   4.492  10.110 -0.3568  0.0197  0.3912
  143MPD2     H 2229   2.055   4.585   9.741 -2.0544 -2.4075 -0.9825
  143MPD2    H1 2230   2.133   4.665  10.144  1.1840 -0.2354 -0.8002
  143MPD2    H2 2231   1.900   4.324  10.038 -0.8140  0.0894  2.0897
  143MPD2    H3 2232   2.011   4.467  10.215  0.8081  0.3640  0.5695
  143MPD2     N 2233   2.220   4.722   9.909 -0.6785  0.3266 -0.4464
  143MPD2    H5 2234   2.255   0.042   9.986 -3.1564 -2.1122  2.4577
  143MPD2    N1 2235   1.893   4.358   9.804 -0.0522  0.3775  0.5518
  143MPD2    H7 2236   1.845   4.277   9.840 -0.4596  1.0555  1.5327
  144TMC2    C1 2237   4.129   3.610   0.061  0.1381  0.1184  0.3072
  144TMC2    C2 2238   4.146   3.480   0.022 -0.2837  0.7703  0.2093
  144TMC2    C3 2239   4.273   3.456  17.707 -1.2276  0.5333 -0.0197
  144TMC2    C4 2240   4.223   3.710   0.050  0.1273 -0.5889 -0.2271
  144TMC2    C5 2241   4.351   3.666   0.010  0.3398  0.3365  0.0557
  144TMC2    C6 2242   4.380   3.540  17.716 -0.1524 -0.4419  0.1875
  144TMC2     C 2243   3.998   3.653   0.103  0.1649  0.0882  0.3318
  144TMC2     O 2244   3.975   3.771   0.110 -0.2589 -0.7331  1.0956
  144TMC2     H 2245   4.070   3.403   0.016  1.3960 -0.7764 -1.2095
  144TMC2    H1 2246   4.185   3.811   0.063  0.9813 -0.5432  2.0082
  144TMC2    H2 2247   4.482   3.509  17.696  0.2702  0.0106  1.6395
  144TMC2    C7 2248   4.470   3.745   0.052  0.2381 -0.0167  0.0547
  144TMC2    C8 2249   4.301   3.316  17.697 -0.2239  0.1967 -0.1982
  144TMC2    O1 2250   4.581   3.711   0.015 -0.0674 -0.0516 -0.7239
  144TMC2    O2 2251   4.233   3.242  17.630  0.0124  0.0324  0.2394
  144TMC2    O5 2252   4.330   3.282   0.076 -0.0063  0.2987  0.4037
  144TMC2    H5 2253   4.383   3.352   0.120  0.0246 -0.3923  1.4601
  145MPD2     C 2254   3.484   3.615   0.138 -0.7655 -0.2690 -0.3806
  145MPD2    C1 2255   3.567   3.723   0.103 -0.3594 -0.2370 -0.6786
  145MPD2    C2 2256   3.700   3.706   0.117  0.0471  0.0112 -0.3913
  145MPD2    C3 2257   3.765   3.586   0.129 -0.2958 -0.2371 -0.1905
  145MPD2    C4 2258   3.684   3.475   0.153 -0.1660 -0.2087  0.3442
  145MPD2    C5 2259   3.551   3.492   0.162 -0.2609  0.4005 -0.3439
  145MPD2     H 2260   3.757   3.797   0.104  2.1357 -1.5337 -2.0729
  145MPD2    H1 2261   3.731   3.378   0.170  0.8532  0.2211  0.0090
  145MPD2    H2 2262   3.377   3.624   0.149 -0.8464 -2.5097  0.7655
  145MPD2    H3 2263   3.487   3.406   0.180 -1.2716  1.1740 -0.2467
  145MPD2     N 2264   3.905   3.558   0.119 -0.5947 -0.1564 -0.3781
  145MPD2    H5 2265   3.936   3.464   0.141 -0.9924  0.1340  1.4570
  145MPD2    N1 2266   3.516   3.848   0.059 -0.2495 -0.0035  0.2525
  145MPD2    H7 2267   3.583   3.916   0.024  2.0186 -2.3794 -0.0588
  146TMC2    C1 2268   0.946   2.740  12.277  0.5602 -0.2165 -0.5755
  146TMC2    C2 2269   0.868   2.760  12.170 -0.3503  1.0033 -0.1180
  146TMC2    C3 2270   0.884   2.672  12.067 -0.1485 -0.0993  0.5223
  146TMC2    C4 2271   1.039   2.638  12.292  0.0732 -0.1416 -0.2261
  146TMC2    C5 2272   1.041   2.545  12.195  0.1067 -0.4378  0.0509
  146TMC2    C6 2273   0.970   2.570  12.080  0.3929  0.7323 -0.5656
  146TMC2     C 2274   0.912   2.809  12.400  0.9671  0.0033  0.2803
  146TMC2     O 2275   0.840   2.907  12.386  0.1148  0.7045  0.7006
  146TMC2     H 2276   0.805   2.848  12.169 -1.7577 -0.0191 -0.3671
  146TMC2    H1 2277   1.120   2.645  12.363  1.2092  0.9684 -1.6486
  146TMC2    H2 2278   0.989   2.514  11.990 -1.0460  3.4704 -2.5626
  146TMC2    C7 2279   1.166   2.467  12.185 -0.1389 -0.5738 -0.3219
  146TMC2    C8 2280   0.780   2.676  11.965 -0.3247  0.3942 -0.2389
  146TMC2    O1 2281   1.219   2.479  12.076 -0.2406  0.4106  0.3833
  146TMC2    O2 2282   0.715   2.771  11.937  0.6044 -0.3424 -0.3693
  146TMC2    O5 2283   0.724   2.555  11.977 -0.0894  0.0638  0.6818
  146TMC2    H5 2284   0.785   2.487  12.012  0.8636  1.0048  0.8411
  147MPD2     C 2285   1.598   2.289  12.391  0.1085 -0.3210  0.1942
  147MPD2    C1 2286   1.506   2.285  12.497  0.4019  0.3713 -0.9191
  147MPD2    C2 2287   1.369   2.318  12.464  0.1155  0.3782  0.0997
  147MPD2    C3 2288   1.344   2.371  12.338 -0.1029 -0.3097 -0.1130
  147MPD2    C4 2289   1.444   2.380  12.240 -0.4708  0.0933  0.3876
  147MPD2    C5 2290   1.574   2.338  12.265  0.0539 -0.2395 -0.5608
  147MPD2     H 2291   1.291   2.303  12.538 -0.8971 -0.1407 -1.0690
  147MPD2    H1 2292   1.410   2.402  12.139 -1.1057  0.2861  0.6420
  147MPD2    H2 2293   1.698   2.251  12.407 -0.2423 -0.7575  1.3834
  147MPD2    H3 2294   1.654   2.341  12.192 -0.0682  1.2980 -0.6374
  147MPD2     N 2295   1.215   2.420  12.312 -0.1904  0.0684  0.9723
  147MPD2    H5 2296   1.147   2.416  12.387 -1.3840 -3.5406 -0.3119
  147MPD2    N1 2297   1.544   2.211  12.611 -0.0742  0.3122 -0.3535
  147MPD2    H7 2298   1.638   2.174  12.624  0.5398  1.0702 -2.6352
  148TMC2    C1 2299   1.471   1.724  10.273 -0.2232  0.2363 -0.9537
  148TMC2    C2 2300   1.588   1.790  10.284 -0.6330  0.1560  0.4091
  148TMC2    C3 2301   1.666   1.759  10.391  0.2831 -0.3722  0.3688
  148TMC2    C4 2302   1.433   1.633  10.365  0.3547 -0.8805 -0.7529
  148TMC2    C5 2303   1.512   1.605  10.464 -0.2698  0.3724  0.1381
  148TMC2    C6 2304   1.633   1.665  10.483 -0.4197 -0.2476  0.1209
  148TMC2     C 2305   1.379   1.745  10.154 -1.0290  0.6641  0.0432
  148TMC2     O 2306   1.388   1.851  10.094 -0.3508 -0.1004 -0.1183
  148TMC2     H 2307   1.610   1.876  10.222 -2.3891 -0.7541 -1.5060
  148TMC2    H1 2308   1.333   1.593  10.363  0.0581 -0.1629  0.0078
  148TMC2    H2 2309   1.701   1.638  10.563  1.1987  1.1370 -0.7843
  148TMC2    C7 2310   1.495   1.485  10.539 -0.5288 -0.0474  0.0392
  148TMC2    C8 2311   1.798   1.822  10.376 -0.3324  0.2111 -0.1500
  148TMC2    O1 2312   1.413   1.408  10.495  0.1579 -0.2364 -0.1762
  148TMC2    O2 2313   1.834   1.929  10.424  0.3084 -0.3307 -0.1577
  148TMC2    O5 2314   1.873   1.714  10.370  0.1699  0.7831  0.0217
  148TMC2    H5 2315   1.816   1.636  10.350  3.7388 -1.2559 -2.2591
  149MPD2     C 2316   1.129   1.775  10.003 -0.6218  0.2210 -0.2251
  149MPD2    C1 2317   1.185   1.655  10.038 -0.0392 -0.3410  0.4583
  149MPD2    C2 2318   1.141   1.536   9.974  0.0751  0.6677  0.2870
  149MPD2    C3 2319   1.061   1.542   9.863  0.7437 -0.0865 -0.7733
  149MPD2    C4 2320   0.997   1.662   9.837  0.2933 -0.6057  0.6907
  149MPD2    C5 2321   1.020   1.768   9.922  0.3941 -0.1405 -0.1142
  149MPD2     H 2322   1.185   1.445  10.012 -0.6067  0.2591  0.0844
  149MPD2    H1 2323   0.915   1.669   9.767 -1.1800 -0.3794  2.4403
  149MPD2    H2 2324   1.149   1.867  10.056  1.6458  0.0881 -0.8492
  149MPD2    H3 2325   0.960   1.857   9.915  0.4806 -0.1717 -1.2680
  149MPD2     N 2326   1.037   1.437   9.770  0.0161 -0.0968 -0.2814
  149MPD2    H5 2327   0.956   1.458   9.712 -0.3243 -1.9306 -0.4617
  149MPD2    N1 2328   1.296   1.645  10.127 -0.2968 -0.0012 -0.2337
  149MPD2    H7 2329   1.313   1.554  10.169  1.1832  1.4797  2.3415
  150TMC2    C1 2330   3.439   0.360  12.079 -1.1451  0.2458 -0.5915
  150TMC2    C2 2331   3.497   0.307  11.969 -0.1440 -0.5188 -0.2731
  150TMC2    C3 2332   3.631   0.262  11.985 -0.0986  0.3122 -0.5556
  150TMC2    C4 2333   3.507   0.366  12.197 -0.2180 -0.1680  0.5006
  150TMC2    C5 2334   3.636   0.321  12.212 -0.0190 -0.0520  0.6181
  150TMC2    C6 2335   3.696   0.264  12.099 -0.0357  0.2191 -0.1831
  150TMC2     C 2336   3.294   0.373  12.089  0.4065 -0.3488  0.5979
  150TMC2     O 2337   3.244   0.397  12.203  0.0684  0.2452 -0.4637
  150TMC2     H 2338   3.451   0.299  11.871 -2.4408  0.1137  0.7411
  150TMC2    H1 2339   3.462   0.408  12.287 -0.3135  0.4868  0.1468
  150TMC2    H2 2340   3.801   0.236  12.107 -0.5937 -1.3320  1.7242
  150TMC2    C7 2341   3.718   0.338  12.331 -0.1526  0.7647 -0.1846
  150TMC2    C8 2342   3.672   0.164  11.884  0.0280 -0.3344 -0.0538
  150TMC2    O1 2343   3.686   0.431  12.406 -0.1236 -0.4858  0.1649
  150TMC2    O2 2344   3.593   0.110  11.806  0.1922 -0.1866 -0.2628
  150TMC2    O5 2345   3.806   0.179  11.860  0.1000  0.2333 -0.0318
  150TMC2    H5 2346   3.862   0.219  11.931  0.1442  2.4351 -1.2941
  151MPD2     C 2347   2.841   0.517  11.877  0.2457  0.0773  0.3077
  151MPD2    C1 2348   2.911   0.441  11.790 -0.1890 -0.7816  0.2902
  151MPD2    C2 2349   3.033   0.394  11.826 -0.2503  0.1508  0.1788
  151MPD2    C3 2350   3.093   0.413  11.951  0.4039  0.7459  0.3516
  151MPD2    C4 2351   3.019   0.497  12.038  0.1350 -0.5966  0.1790
  151MPD2    C5 2352   2.896   0.547  12.000 -0.9522  0.0458  0.2050
  151MPD2     H 2353   3.083   0.336  11.749  0.6201 -0.5094  1.2540
  151MPD2    H1 2354   3.045   0.520  12.141  1.9840  1.6310 -0.7965
  151MPD2    H2 2355   2.740   0.548  11.855  1.1871  1.2212 -2.3690
  151MPD2    H3 2356   2.843   0.609  12.071 -0.6619 -0.1581  0.6008
  151MPD2     N 2357   3.227   0.367  11.969 -0.3167 -0.1755 -0.4624
  151MPD2    H5 2358   3.270   0.317  11.892 -0.9122 -0.7957 -0.3940
  151MPD2    N1 2359   2.851   0.413  11.665 -0.3656  0.2720 -0.8181
  151MPD2    H7 2360   2.761   0.453  11.641 -1.2623 -0.6656  1.0409
  152TMC2    C1 2361   3.099   0.444  12.505 -0.0043  0.4148  0.1257
  152TMC2    C2 2362   3.161   0.326  12.481  0.4075 -0.2820 -0.9473
  152TMC2    C3 2363   3.297   0.313  12.497 -0.1434 -0.2803 -0.5421
  152TMC2    C4 2364   3.172   0.553  12.549 -0.1652  0.3879 -0.2779
  152TMC2    C5 2365   3.305   0.537  12.561 -0.4378  0.2146 -0.2690
  152TMC2    C6 2366   3.374   0.418  12.540  0.4523  0.6327  0.3426
  152TMC2     C 2367   2.954   0.447  12.523 -0.3172 -0.0359 -1.5476
  152TMC2     O 2368   2.879   0.373  12.457 -0.5652 -0.2413  0.0823
  152TMC2     H 2369   3.093   0.245  12.462  0.0418 -0.6751  2.1062
  152TMC2    H1 2370   3.126   0.651  12.552  1.7840  1.1685  3.5633
  152TMC2    H2 2371   3.478   0.398  12.563  0.5910  1.2831  0.2836
  152TMC2    C7 2372   3.364   0.649  12.638 -0.0313 -0.0015 -0.0504
  152TMC2    C8 2373   3.353   0.196  12.448  0.4734  0.1344 -0.1384
  152TMC2    O1 2374   3.296   0.712  12.722  0.5709  0.4281  0.4722
  152TMC2    O2 2375   3.465   0.148  12.467 -0.0588 -0.1757 -0.5742
  152TMC2    O5 2376   3.286   0.175  12.335 -0.3854 -0.8034  0.2320
  152TMC2    H5 2377   3.240   0.256  12.302 -0.7373 -0.5449  1.3400
  153MPD2     C 2378   2.768   0.664  12.752  0.6403 -0.3360  0.1531
  153MPD2    C1 2379   2.780   0.578  12.651 -0.3420  0.0610  0.7085
  153MPD2    C2 2380   2.664   0.533  12.586  0.6655 -0.8626  0.8183
  153MPD2    C3 2381   2.540   0.578  12.623 -0.4926  0.3725  0.5545
  153MPD2    C4 2382   2.534   0.656  12.734  0.2156  0.3810  0.5227
  153MPD2    C5 2383   2.647   0.706  12.795 -0.6389 -0.1940 -0.8191
  153MPD2     H 2384   2.678   0.471  12.498 -2.4156 -1.4683  0.7509
  153MPD2    H1 2385   2.445   0.709  12.764  1.0099  2.5233 -0.9271
  153MPD2    H2 2386   2.853   0.710  12.800  1.1988 -3.2195  1.9887
  153MPD2    H3 2387   2.633   0.786  12.867  0.0583  0.2675 -1.1918
  153MPD2     N 2388   2.427   0.538  12.557 -0.5470  0.1563  0.0533
  153MPD2    H5 2389   2.344   0.583  12.596 -0.7035 -0.7987  0.8229
  153MPD2    N1 2390   2.916   0.549  12.608  0.1391 -0.8768  0.5929
  153MPD2    H7 2391   2.992   0.602  12.649  0.9766 -1.2956 -0.4335
  154TMC2    C1 2392   4.208   4.471   0.110  0.5874 -0.2562 -0.0285
  154TMC2    C2 2393   4.208   4.338   0.138 -0.0068  0.1345 -0.0600
  154TMC2    C3 2394   4.245   4.250   0.043  0.1719  0.3635 -0.6061
  154TMC2    C4 2395   4.233   4.518  17.723 -1.4470 -0.1575 -0.3200
  154TMC2    C5 2396   4.271   4.426  17.630  0.2032 -0.0281  0.2202
  154TMC2    C6 2397   4.284   4.291  17.662 -0.0841 -0.1025  0.4116
  154TMC2     C 2398   4.103   4.533   0.184  0.1943 -1.1309 -0.2226
  154TMC2     O 2399   4.024   4.465   0.244 -0.0334  0.3733 -0.0888
  154TMC2     H 2400   4.171   4.295   0.230  1.2522 -0.0769  0.3544
  154TMC2    H1 2401   4.197   4.617  17.696 -0.9820 -0.2876 -1.4335
  154TMC2    H2 2402   4.307   4.224  17.580  3.6766  0.8942  0.6291
  154TMC2    C7 2403   4.264   4.469  17.486  0.5012  0.7152 -1.1336
  154TMC2    C8 2404   4.189   4.118   0.044 -0.5696 -0.1075  0.0143
  154TMC2    O1 2405   4.253   4.381  17.403  0.0012  0.2146  0.1049
  154TMC2    O2 2406   4.236   4.022  17.724 -0.5505  0.5624  0.2534
  154TMC2    O5 2407   4.075   4.118   0.118  0.0790 -0.6060  0.4858
  154TMC2    H5 2408   4.043   4.202   0.155 -1.5643 -2.3137  2.9552
  155MPD2     C 2409   3.879   4.717   0.186  0.7196  0.7933 -0.1204
  155MPD2    C1 2410   3.998   0.010   0.242  0.8242  1.0588 -0.1639
  155MPD2    C2 2411   4.016   0.121   0.315 -0.2785  0.5666 -0.1556
  155MPD2    C3 2412   3.905   0.201   0.347  0.0860 -0.3947  0.0494
  155MPD2    C4 2413   3.784   0.166   0.295  0.0618 -0.1227  0.2125
  155MPD2    C5 2414   3.771   0.060   0.214  0.0738 -0.1171 -0.5694
  155MPD2     H 2415   4.119   0.145   0.340 -0.8622  0.7027  2.1976
  155MPD2    H1 2416   3.693   0.222   0.312  0.4584  0.8477 -0.8503
  155MPD2    H2 2417   3.868   4.635   0.115  2.5275  0.2354  0.2304
  155MPD2    H3 2418   3.674   0.038   0.171  1.2360 -2.8053 -1.8348
  155MPD2     N 2419   3.922   0.311   0.421  0.0799  0.4247  0.0397
  155MPD2    H5 2420   4.020   0.332   0.439 -0.1215  2.0585 -0.8593
  155MPD2    N1 2421   4.112   4.668   0.201  0.5857 -0.0155 -0.6505
  155MPD2    H7 2422   4.202   4.713   0.190  0.3564  0.7329  0.5653
  156TMC2    C1 2423   3.678   2.454  11.621  0.6159  0.5036  0.4600
  156TMC2    C2 2424   3.755   2.342  11.622 -0.2101  1.0107 -0.6413
  156TMC2    C3 2425   3.774   2.285  11.499  0.2323  0.3097  0.3552
  156TMC2    C4 2426   3.619   2.499  11.506 -0.3384  0.5247 -0.9134
  156TMC2    C5 2427   3.646   2.439  11.388  0.5034  0.6396  0.3206
  156TMC2    C6 2428   3.714   2.325  11.380  0.7002  0.2109 -1.0432
  156TMC2     C 2429   3.582   2.466  11.732 -0.8559 -0.7831  0.0065
  156TMC2     O 2430   3.512   2.571  11.728 -0.8040  0.1840  0.0355
  156TMC2     H 2431   3.796   2.300  11.713 -0.5119  0.4710 -0.7541
  156TMC2    H1 2432   3.554   2.586  11.511 -0.1396  0.7304 -1.8000
  156TMC2    H2 2433   3.740   2.281  11.285  1.6730 -1.5112  0.0151
  156TMC2    C7 2434   3.576   2.476  11.275  0.7050 -0.5928 -0.6311
  156TMC2    C8 2435   3.876   2.182  11.489  0.3489 -0.2890 -0.4010
  156TMC2    O1 2436   3.541   2.394  11.194 -0.2331 -0.1502 -0.8364
  156TMC2    O2 2437   3.971   2.158  11.566  0.0761  0.9960  0.4471
  156TMC2    O5 2438   3.801   2.080  11.442  0.0111 -0.0447 -0.5346
  156TMC2    H5 2439   3.712   2.101  11.406 -1.5460 -1.2982  2.5639
  157MPD2     C 2440   3.480   2.246  12.000  0.0591  0.0780  0.0608
  157MPD2    C1 2441   3.473   2.339  11.905 -0.5483 -0.4335  0.0327
  157MPD2    C2 2442   3.350   2.402  11.889  0.2041  0.3550 -0.8561
  157MPD2    C3 2443   3.244   2.380  11.978 -0.1828  0.5496 -0.3756
  157MPD2    C4 2444   3.260   2.302  12.087  0.0727  0.3724 -0.5396
  157MPD2    C5 2445   3.376   2.227  12.088 -0.0542  0.2889  0.0696
  157MPD2     H 2446   3.336   2.461  11.799  2.8172  1.7709 -0.3512
  157MPD2    H1 2447   3.186   2.284  12.164 -0.0051  2.4212 -0.1417
  157MPD2    H2 2448   3.571   2.189  12.006  0.5195  0.6379 -1.8656
  157MPD2    H3 2449   3.401   2.156  12.167  0.4806 -0.1100 -0.4579
  157MPD2     N 2450   3.133   2.463  11.946 -0.6895 -0.1244  0.1309
  157MPD2    H5 2451   3.138   2.509  11.856 -0.8393 -0.5949 -0.1151
  157MPD2    N1 2452   3.575   2.355  11.810  0.3472  0.3811 -0.3052
  157MPD2    H7 2453   3.653   2.290  11.809 -0.1859 -0.2650  0.0325
  158TMC2    C1 2454   3.064   1.319  13.234  0.1630  0.4327 -0.5608
  158TMC2    C2 2455   3.045   1.448  13.205 -0.1865  0.0690  0.0321
  158TMC2    C3 2456   2.966   1.527  13.288  0.6240 -0.0644  0.2079
  158TMC2    C4 2457   3.003   1.255  13.340  0.0615 -0.1572 -0.1687
  158TMC2    C5 2458   2.921   1.336  13.420  0.1207 -0.7083 -0.4163
  158TMC2    C6 2459   2.907   1.470  13.400  0.0954 -1.2730  0.1477
  158TMC2     C 2460   3.185   1.257  13.184  0.3682 -0.2751  0.1649
  158TMC2     O 2461   3.234   1.281  13.070  0.4021 -0.1144  0.4772
  158TMC2     H 2462   3.094   1.493  13.119  0.5523  0.4953  0.6754
  158TMC2    H1 2463   2.997   1.148  13.357  0.8017  0.1778  2.1689
  158TMC2    H2 2464   2.841   1.532  13.460  1.9199  0.9268 -0.1452
  158TMC2    C7 2465   2.864   1.295  13.542  0.4415  0.7285  0.7092
  158TMC2    C8 2466   2.943   1.667  13.258  0.0895  0.0342  0.0702
  158TMC2    O1 2467   2.808   1.381  13.602 -0.7378 -0.1457 -0.4840
  158TMC2    O2 2468   2.851   1.736  13.309  0.2074  0.1806  0.0441
  158TMC2    O5 2469   3.069   1.722  13.239  0.0377 -0.0121  0.0742
  158TMC2    H5 2470   3.132   1.657  13.201  1.8290  0.9746  1.3565
  159MPD2     C 2471   3.593   0.968  13.300 -0.1551 -0.4009 -0.1170
  159MPD2    C1 2472   3.506   0.963  13.402  0.1934 -0.7085  0.5994
  159MPD2    C2 2473   3.394   1.042  13.400 -1.0455  0.4328 -0.8745
  159MPD2    C3 2474   3.353   1.110  13.287 -0.2297  0.1837  0.3522
  159MPD2    C4 2475   3.443   1.119  13.185 -0.5636 -0.7130 -0.3379
  159MPD2    C5 2476   3.557   1.044  13.193 -0.1572 -0.0682  0.1001
  159MPD2     H 2477   3.320   1.046  13.479 -1.6107 -1.9322 -1.2862
  159MPD2    H1 2478   3.424   1.164  13.088  4.1702  1.0913 -0.4612
  159MPD2    H2 2479   3.677   0.899  13.294  2.1125  2.3613 -0.4554
  159MPD2    H3 2480   3.622   1.045  13.107 -0.9381  0.1709 -0.4911
  159MPD2     N 2481   3.226   1.171  13.283 -0.8289  0.0287  0.2434
  159MPD2    H5 2482   3.168   1.165  13.366  0.7340 -2.6767  1.1549
  159MPD2    N1 2483   3.535   0.872  13.502  0.0151 -0.7115  0.4472
  159MPD2    H7 2484   3.626   0.834  13.527 -0.2110 -1.9735 -0.6132
  160TMC2    C1 2485   2.494   3.556   1.018 -0.1812  1.1066 -0.0323
  160TMC2    C2 2486   2.473   3.450   1.101 -0.6868  0.3195 -0.2966
  160TMC2    C3 2487   2.581   3.373   1.127 -0.0895 -0.4563  0.5865
  160TMC2    C4 2488   2.608   3.592   0.947  0.5536 -0.1071 -0.5876
  160TMC2    C5 2489   2.712   3.513   0.977 -0.2424 -0.3376  0.0111
  160TMC2    C6 2490   2.702   3.409   1.072 -0.7377 -0.3057 -0.5838
  160TMC2     C 2491   2.377   3.635   0.993 -0.5839  0.1782 -0.4315
  160TMC2     O 2492   2.272   3.575   1.010 -0.3183  0.3474 -0.4518
  160TMC2     H 2493   2.379   3.424   1.148 -0.6991  0.4981 -0.2233
  160TMC2    H1 2494   2.617   3.658   0.861  1.3296  0.5964  0.0287
  160TMC2    H2 2495   2.789   3.352   1.100 -1.8760 -1.1350  1.2748
  160TMC2    C7 2496   2.845   3.530   0.917  0.7530  0.9942  0.3338
  160TMC2    C8 2497   2.560   3.269   1.222  0.1505  0.0721  0.2163
  160TMC2    O1 2498   2.929   3.448   0.934 -0.4065  0.1836  0.4970
  160TMC2    O2 2499   2.474   3.270   1.313  0.4437 -0.2614  0.4023
  160TMC2    O5 2500   2.666   3.188   1.215  0.5235  0.0506  0.0479
  160TMC2    H5 2501   2.717   3.186   1.131  0.2255  3.1703 -0.1763
  161MPD2     C 2502   2.164   3.815   0.893  0.0815 -0.2117 -1.0078
  161MPD2    C1 2503   2.296   3.843   0.897  0.1462  0.5624 -0.3713
  161MPD2    C2 2504   2.341   3.965   0.849  0.1625  0.4249 -0.5275
  161MPD2    C3 2505   2.255   4.054   0.786 -0.3081  0.4987  0.0296
  161MPD2    C4 2506   2.122   4.025   0.784  0.5195  0.3511  0.3273
  161MPD2    C5 2507   2.084   3.905   0.839 -0.4505  0.0098 -0.2335
  161MPD2     H 2508   2.449   3.973   0.846  0.1096  0.9045 -1.1826
  161MPD2    H1 2509   2.047   4.098   0.755 -0.9644 -1.4362 -0.2858
  161MPD2    H2 2510   2.122   3.717   0.915 -0.8737  0.7760  1.5532
  161MPD2    H3 2511   1.978   3.882   0.845 -0.1570 -1.5241 -1.0219
  161MPD2     N 2512   2.299   4.168   0.713 -0.8649 -0.5047  0.1868
  161MPD2    H5 2513   2.230   4.221   0.660  0.0526  1.5587  1.0672
  161MPD2    N1 2514   2.402   3.757   0.933 -0.2118 -0.2309  0.2926
  161MPD2    H7 2515   2.498   3.791   0.931  0.1151 -1.0716  1.6310
  162TMC2    C1 2516   0.482   1.330   0.796  0.3107  0.1494 -0.4322
  162TMC2    C2 2517   0.354   1.387   0.792 -0.6910 -0.0274 -0.4219
  162TMC2    C3 2518   0.310   1.424   0.917 -0.1085 -0.2558 -0.5384
  162TMC2    C4 2519   0.555   1.304   0.908  0.2597  0.4460  0.1592
  162TMC2    C5 2520   0.494   1.345   1.030  0.1051 -0.0683 -0.3967
  162TMC2    C6 2521   0.373   1.401   1.037 -0.5310 -0.2044  0.4639
  162TMC2     C 2522   0.539   1.269   0.674  0.7784  0.1877  0.1227
  162TMC2     O 2523   0.656   1.235   0.677  0.0531  0.8293  0.0954
  162TMC2     H 2524   0.300   1.409   0.700 -1.2054 -1.2582 -0.4100
  162TMC2    H1 2525   0.654   1.260   0.902 -0.7547 -1.6003 -1.6846
  162TMC2    H2 2526   0.342   1.460   1.123 -2.4366  0.1570 -0.4629
  162TMC2    C7 2527   0.545   1.300   1.161  0.6754 -0.0607 -0.6981
  162TMC2    C8 2528   0.194   1.507   0.918  0.1383 -0.1222 -0.2182
  162TMC2    O1 2529   0.469   1.315   1.255  0.1637  0.3401 -0.4456
  162TMC2    O2 2530   0.183   1.600   0.837  0.1010 -0.0736  0.9497
  162TMC2    O5 2531   0.113   1.497   1.027 -0.4003 -0.2082 -0.2192
  162TMC2    H5 2532   0.135   1.422   1.087 -0.3531 -1.1846 -1.4453
  163MPD2     C 2533   0.525   1.114   0.180  0.5158 -0.0226 -1.1773
  163MPD2    C1 2534   0.631   1.117   0.270  0.3305 -1.1316 -0.6263
  163MPD2    C2 2535   0.605   1.152   0.407 -0.1947  0.0868 -0.9892
  163MPD2    C3 2536   0.477   1.194   0.448  0.3925  0.3214 -0.0593
  163MPD2    C4 2537   0.371   1.191   0.358 -0.0693  0.0329 -0.4150
  163MPD2    C5 2538   0.394   1.148   0.223  0.3575 -0.1883  0.7862
  163MPD2     H 2539   0.688   1.141   0.475 -1.2835  2.8848  0.8060
  163MPD2    H1 2540   0.273   1.225   0.389 -0.3493 -2.5866  1.5314
  163MPD2    H2 2541   0.544   1.076   0.080  0.7796 -0.6181 -0.9012
  163MPD2    H3 2542   0.308   1.146   0.157 -1.3580  2.1766  2.9388
  163MPD2     N 2543   0.445   1.242   0.578  0.0498  0.9860  0.2755
  163MPD2    H5 2544   0.351   1.279   0.585  0.1319  0.6968  2.7087
  163MPD2    N1 2545   0.754   1.070   0.224 -0.5000  0.3246  0.4578
  163MPD2    H7 2546   0.755   1.030   0.130 -0.6832 -0.7819  0.9210
  164TMC2    C1 2547   2.391   1.320  10.813  0.3555  0.8010  0.1168
  164TMC2    C2 2548   2.457   1.379  10.711 -0.2669 -0.1767 -0.2160
  164TMC2    C3 2549   2.413   1.505  10.681 -0.2504 -0.4081  0.4056
  164TMC2    C4 2550   2.300   1.386  10.891  0.3669  0.0471 -0.4161
  164TMC2    C5 2551   2.267   1.519  10.863 -0.2571  0.0439 -0.2258
  164TMC2    C6 2552   2.325   1.577  10.756 -0.4705  0.3039 -0.1043
  164TMC2     C 2553   2.361   1.184  10.804  0.2616  0.4332  0.5099
  164TMC2     O 2554   2.287   1.142  10.888 -0.4609  0.3967  0.1896
  164TMC2     H 2555   2.528   1.334  10.642  0.4880  1.0736 -0.2574
  164TMC2    H1 2556   2.250   1.334  10.971 -0.8451 -1.7347 -2.3159
  164TMC2    H2 2557   2.302   1.683  10.750  1.7783  0.8455  0.9749
  164TMC2    C7 2558   2.141   1.583  10.903 -0.7534  0.0750  0.6735
  164TMC2    C8 2559   2.456   1.572  10.551  0.1617 -0.4962  0.4365
  164TMC2    O1 2560   2.096   1.661  10.818 -0.3342  0.4008 -0.0085
  164TMC2    O2 2561   2.560   1.532  10.499  0.1540  0.1674  0.4519
  164TMC2    O5 2562   2.342   1.618  10.491 -0.8143  0.1411 -0.5072
  164TMC2    H5 2563   2.266   1.618  10.553  0.7008  1.1359  1.3368
  165TMC2    C1 2564   2.928   3.103   0.799  0.0942  0.3052  0.4482
  165TMC2    C2 2565   2.937   3.052   0.673 -0.1095  0.0692 -0.3388
  165TMC2    C3 2566   3.052   3.068   0.604  0.3095 -0.2842 -0.0269
  165TMC2    C4 2567   3.028   3.164   0.863 -0.8994  0.3502  0.2476
  165TMC2    C5 2568   3.141   3.187   0.789  0.3258  0.4959  0.1313
  165TMC2    C6 2569   3.151   3.149   0.658  0.5162  0.5897  0.2852
  165TMC2     C 2570   2.799   3.118   0.864 -0.7976  0.5446 -0.2185
  165TMC2     O 2571   2.793   3.130   0.988 -0.3258 -0.1441 -0.4778
  165TMC2     H 2572   2.856   3.001   0.623 -0.3580 -0.2319  0.3836
  165TMC2    H1 2573   3.012   3.210   0.960  1.4589  1.5012  0.1030
  165TMC2    H2 2574   3.242   3.157   0.599  0.1464  0.4949 -0.3012
  165TMC2    C7 2575   3.255   3.270   0.836 -0.3343  0.3430 -0.1701
  165TMC2    C8 2576   3.086   2.978   0.493  0.2854 -0.1606  0.8947
  165TMC2    O1 2577   3.323   3.330   0.755  0.0558  0.0861  0.9922
  165TMC2    O2 2578   3.029   2.869   0.489 -0.3415  0.0574 -0.2718
  165TMC2    O5 2579   3.122   3.062   0.389  0.6069  0.6868  0.0051
  165TMC2    H5 2580   3.142   3.155   0.413  2.5629  0.2092  0.2721
  166MPD2     C 2581   2.302   3.165   0.871 -0.0016 -0.5547  0.1934
  166MPD2    C1 2582   2.382   3.095   0.955  0.0579 -0.0235  0.1573
  166MPD2    C2 2583   2.519   3.083   0.923  0.2870  0.5056  0.4647
  166MPD2    C3 2584   2.565   3.145   0.810 -0.7862 -0.3507 -0.2088
  166MPD2    C4 2585   2.479   3.206   0.719  0.6390 -0.2466 -0.1300
  166MPD2    C5 2586   2.348   3.222   0.754  0.6577  0.2801 -0.0033
  166MPD2     H 2587   2.587   3.027   0.986 -0.7082 -0.3591  0.7787
  166MPD2    H1 2588   2.518   3.255   0.631 -0.6252  2.0020  0.5571
  166MPD2    H2 2589   2.194   3.165   0.876  0.0308  0.0753  0.9023
  166MPD2    H3 2590   2.281   3.278   0.690 -0.8079 -0.8856  0.5094
  166MPD2     N 2591   2.699   3.136   0.769 -0.0740 -0.0977 -0.1975
  166MPD2    H5 2592   2.727   3.147   0.672 -0.2940  1.2758 -0.1063
  166MPD2    N1 2593   2.315   3.034   1.070  0.0318 -0.5923 -0.0086
  166MPD2    H7 2594   2.215   3.051   1.076  0.9533  3.9807  2.0293
  167TMC2    C1 2595   0.967   1.272  12.440  0.1588 -0.4337  0.1197
  167TMC2    C2 2596   0.856   1.262  12.511 -0.0350  0.4420  0.0366
  167TMC2    C3 2597   0.834   1.142  12.584 -0.5358 -0.0295  0.0025
  167TMC2    C4 2598   1.046   1.166  12.413  0.0223  0.3892  0.2144
  167TMC2    C5 2599   1.011   1.044  12.473  0.1319  0.2610  0.2871
  167TMC2    C6 2600   0.909   1.033  12.563 -0.0155  0.0014 -0.4454
  167TMC2     C 2601   0.985   1.399  12.389 -0.3193  0.5381 -0.3326
  167TMC2     O 2602   0.888   1.466  12.364  0.2947  0.1646  0.0990
  167TMC2     H 2603   0.776   1.336  12.516 -0.4226  0.1081 -1.0793
  167TMC2    H1 2604   1.100   1.167  12.320 -0.3428 -1.2979 -0.0157
  167TMC2    H2 2605   0.876   0.949  12.624  2.3626 -0.0495  0.7475
  167TMC2    C7 2606   1.093   0.927  12.452  1.1611  0.3561 -0.1640
  167TMC2    C8 2607   0.718   1.119  12.668 -0.3879 -0.2851  0.2449
  167TMC2    O1 2608   1.041   0.827  12.506 -0.5846  0.1444 -0.4918
  167TMC2    O2 2609   0.667   1.018  12.708 -0.1783  0.1866  0.1197
  167TMC2    O5 2610   0.685   1.237  12.726 -0.3467 -0.3561  0.1096
  167TMC2    H5 2611   0.743   1.313  12.707 -3.6891  2.3802  0.8949
  168MPD2     C 2612   1.092   1.662  12.299 -0.3183  0.2055  0.0913
  168MPD2    C1 2613   1.174   1.550  12.329  0.1693 -0.0430 -0.5093
  168MPD2    C2 2614   1.308   1.562  12.304  0.0406  0.4303 -0.7028
  168MPD2    C3 2615   1.363   1.686  12.264 -0.0735 -0.0199 -0.0943
  168MPD2    C4 2616   1.274   1.791  12.228 -0.4372 -0.0982 -1.0038
  168MPD2    C5 2617   1.143   1.778  12.246  0.1258  0.0733 -0.3311
  168MPD2     H 2618   1.367   1.476  12.332 -0.2074  0.0082 -1.4897
  168MPD2    H1 2619   1.316   1.881  12.186  1.8404 -0.4655  0.4869
  168MPD2    H2 2620   0.985   1.663  12.317 -0.7860  0.0505 -2.6371
  168MPD2    H3 2621   1.079   1.863  12.228 -0.7041 -0.8143 -1.5255
  168MPD2     N 2622   1.501   1.703  12.242  0.0005  0.0785 -0.2728
  168MPD2    H5 2623   1.540   1.791  12.211  0.6999  0.5331  1.8603
  168MPD2    N1 2624   1.120   1.429  12.375  0.2217 -0.0454 -0.4490
  168MPD2    H7 2625   1.184   1.353  12.393 -0.9412 -0.6080  1.2727
  169MPD1     C 2626   4.428   4.098   8.754  0.0545  0.8383  0.3503
  169MPD1    C1 2627   4.431   4.231   8.727 -0.9170  0.2721  0.0965
  169MPD1    C2 2628   4.411   4.322   8.831  0.2850  0.3741 -0.9989
  169MPD1    C3 2629   4.411   4.285   8.962 -0.3335  0.5216 -0.3536
  169MPD1    C4 2630   4.412   4.152   8.987  0.0043  0.4473  0.0850
  169MPD1    C5 2631   4.424   4.061   8.888  0.0338 -0.6111  0.3201
  169MPD1     H 2632   4.415   4.428   8.809 -3.7859  0.1431 -2.9898
  169MPD1    H1 2633   4.427   4.110   9.085 -2.7706  0.4129  0.4824
  169MPD1    H2 2634   4.436   4.031   8.669  0.9183  1.8785 -0.3959
  169MPD1    H3 2635   4.431   3.957   8.919 -2.0957 -0.6301  0.7394
  169MPD1     N 2636   4.404   4.389   9.058 -0.0731 -0.1479  0.1219
  169MPD1    H5 2637   4.415   4.483   9.021  0.5441 -0.2681  0.0069
  169MPD1    N1 2638   4.423   4.276   8.598  0.2549  0.1351 -0.4978
  169MPD1    H6 2639   4.468   4.213   8.532  2.0733 -1.2926  2.1100
  169MPD1    H7 2640   4.469   4.366   8.589  0.2305  0.1284 -0.6728
  170MPD1     C 2641   2.588   4.135  12.878  0.3577  0.0863  0.0351
  170MPD1    C1 2642   2.525   4.125  12.763 -0.7976  0.9171 -0.4056
  170MPD1    C2 2643   2.436   4.023  12.730  0.0634 -0.1633 -0.1987
  170MPD1    C3 2644   2.399   3.937  12.827  0.6424  0.1026 -0.0296
  170MPD1    C4 2645   2.449   3.952  12.960  1.0110 -0.5333  0.4131
  170MPD1    C5 2646   2.541   4.051  12.980  0.0128  0.3624  0.5316
  170MPD1     H 2647   2.397   4.017  12.629 -3.2270 -1.4761  1.1398
  170MPD1    H1 2648   2.422   3.898  13.049  0.9227  0.7002  1.1364
  170MPD1    H2 2649   2.656   4.217  12.901  1.7016 -1.1444  0.4402
  170MPD1    H3 2650   2.586   4.055  13.078 -0.9445  0.9887  0.9471
  170MPD1     N 2651   2.303   3.836  12.803  0.4589  0.0866 -0.7838
  170MPD1    H5 2652   2.258   3.832  12.712  1.7582  0.3087 -1.4242
  170MPD1    N1 2653   2.565   4.198  12.655 -0.1585 -0.0356 -0.2232
  170MPD1    H6 2654   2.495   4.184  12.583  1.1523 -2.0819 -1.1235
  170MPD1    H7 2655   2.575   4.298  12.672 -1.5707 -0.0163  0.5069
  171MPD1     C 2656   0.050   4.615  14.719 -0.4403 -0.6092  0.2435
  171MPD1    C1 2657   0.094   4.688  14.829  0.8760  0.5860 -0.3273
  171MPD1    C2 2658   0.155   4.619  14.930 -0.3572 -0.0046 -0.1585
  171MPD1    C3 2659   0.186   4.487  14.921  0.0498 -0.2938 -0.6675
  171MPD1    C4 2660   0.157   4.415  14.811 -0.0656 -0.0519 -0.2459
  171MPD1    C5 2661   0.094   4.483  14.710  0.4443 -0.0488 -0.1855
  171MPD1     H 2662   0.179   4.680  15.016 -0.7410 -0.1179  0.0255
  171MPD1    H1 2663   0.194   4.314  14.802  0.8007  0.0906  1.6131
  171MPD1    H2 2664   4.725   4.661  14.641  1.7232  0.2688 -0.8917
  171MPD1    H3 2665   0.063   4.418  14.629 -0.2543 -2.6100  2.1708
  171MPD1     N 2666   0.246   4.417  15.030 -0.6301  0.0511  0.0395
  171MPD1    H5 2667   0.250   4.316  15.019  0.4129  0.0288  0.6204
  171MPD1    N1 2668   0.060   0.092  14.843 -0.2121  0.0005  0.3147
  171MPD1    H6 2669   0.121   0.135  14.912 -3.7268 -0.7260  3.8588
  171MPD1    H7 2670   0.051   0.141  14.754  3.2848 -0.5916 -0.3613
  172MPD1     C 2671   3.668   3.176  17.128  0.0091 -0.4744 -0.0462
  172MPD1    C1 2672   3.604   3.244  17.231  0.4014 -0.6366 -0.1345
  172MPD1    C2 2673   3.678   3.327  17.308  0.4510 -0.0001  0.0460
  172MPD1    C3 2674   3.804   3.364  17.273 -0.0037  0.1678  0.1229
  172MPD1    C4 2675   3.861   3.308  17.168 -0.2476 -0.5169 -0.6343
  172MPD1    C5 2676   3.796   3.210  17.106 -0.0557  0.7081  0.2457
  172MPD1     H 2677   3.630   3.381  17.389  0.8246 -1.0282  0.9633
  172MPD1    H1 2678   3.965   3.331  17.148  0.2831 -1.4905  0.9181
  172MPD1    H2 2679   3.631   3.098  17.063 -1.0534 -0.0355  0.0339
  172MPD1    H3 2680   3.855   3.158  17.031  2.3011  1.1360  1.8088
  172MPD1     N 2681   3.877   3.464  17.344 -0.1191 -0.2266 -0.7882
  172MPD1    H5 2682   3.964   3.494  17.301  0.9799 -0.7134  1.1229
  172MPD1    N1 2683   3.472   3.201  17.270  0.3813 -0.6964  1.0165
  172MPD1    H6 2684   3.422   3.165  17.189  0.0669 -1.2409  1.4530
  172MPD1    H7 2685   3.425   3.285  17.303 -1.2901 -1.9531  1.7987
  173MPD1     C 2686   1.282   3.995  13.432 -0.3945  0.2946  0.1403
  173MPD1    C1 2687   1.375   3.905  13.484 -0.6383  0.2780  0.2082
  173MPD1    C2 2688   1.333   3.840  13.600  0.3686  0.6516  0.6738
  173MPD1    C3 2689   1.211   3.859  13.654  0.1000  0.4451 -0.1990
  173MPD1    C4 2690   1.117   3.945  13.595  0.2384 -1.0141 -0.4749
  173MPD1    C5 2691   1.158   4.015  13.485  0.0156 -0.1163 -0.3235
  173MPD1     H 2692   1.403   3.787  13.663  0.3359  0.1979  0.3248
  173MPD1    H1 2693   1.020   3.952  13.642  0.0807  0.7017 -1.0365
  173MPD1    H2 2694   1.313   4.054  13.347  2.1603 -2.3549 -0.7947
  173MPD1    H3 2695   1.088   4.079  13.432  1.4096  1.2535 -0.5304
  173MPD1     N 2696   1.187   3.781  13.768  0.0823 -0.2039  0.5267
  173MPD1    H5 2697   1.251   3.705  13.788  0.2262  0.1412  1.3426
  173MPD1    N1 2698   1.505   3.882  13.436 -0.2333 -0.0480  0.5594
  173MPD1    H6 2699   1.505   3.895  13.335  0.6784  2.0288  0.8235
  173MPD1    H7 2700   1.539   3.791  13.465  1.9396  0.9285  1.0641
  174MPD1     C 2701   1.480   3.273  14.552 -0.2684 -0.2013 -0.5106
  174MPD1    C1 2702   1.512   3.369  14.461  0.3664  0.4117 -0.8725
  174MPD1    C2 2703   1.422   3.404  14.359 -0.1011 -0.2115 -0.8415
  174MPD1    C3 2704   1.300   3.345  14.354 -0.1044 -0.0382  0.1069
  174MPD1    C4 2705   1.261   3.263  14.456  0.0107 -0.5770  1.5229
  174MPD1    C5 2706   1.352   3.228  14.553  0.5927 -0.4920  0.1519
  174MPD1     H 2707   1.438   3.496  14.305  0.5375  0.0720 -0.1575
  174MPD1    H1 2708   1.159   3.228  14.465 -0.7918  1.0474 -1.2404
  174MPD1    H2 2709   1.548   3.249  14.633  1.2427 -2.2044 -2.3692
  174MPD1    H3 2710   1.324   3.145  14.618  0.8722 -1.1458 -0.5588
  174MPD1     N 2711   1.204   3.371  14.253  0.0067 -0.1583 -0.0510
  174MPD1    H5 2712   1.112   3.331  14.269 -1.0452  0.9486 -3.3242
  174MPD1    N1 2713   1.623   3.452  14.481 -0.1422 -0.1771 -0.1970
  174MPD1    H6 2714   1.647   3.512  14.403  0.5014 -0.2988 -0.0927
  174MPD1    H7 2715   1.706   3.414  14.525  0.5895  1.2492 -0.3508
  175MPD1     C 2716   3.890   0.658  15.292  0.3458 -0.5483  0.2151
  175MPD1    C1 2717   3.993   0.569  15.261 -0.1678  0.8721  0.3679
  175MPD1    C2 2718   3.969   0.435  15.277  0.0580 -0.1179  0.7188
  175MPD1    C3 2719   3.849   0.387  15.327 -0.3479  0.3357  0.4300
  175MPD1    C4 2720   3.746   0.473  15.355 -0.2558 -0.2636  0.5519
  175MPD1    C5 2721   3.767   0.610  15.332 -0.6427 -0.5431  0.3004
  175MPD1     H 2722   4.045   0.360  15.257  0.3776  0.0210  1.4166
  175MPD1    H1 2723   3.647   0.441  15.386 -0.7157  0.3307 -0.3365
  175MPD1    H2 2724   3.890   0.766  15.288  0.7046 -0.4967  1.5325
  175MPD1    H3 2725   3.682   0.669  15.364 -0.0523  0.9937 -0.9498
  175MPD1     N 2726   3.819   0.249  15.348  0.0858  0.3023 -0.2779
  175MPD1    H5 2727   3.722   0.238  15.378  0.4872 -3.9176 -0.5678
  175MPD1    N1 2728   4.119   0.616  15.243 -0.6023 -0.1732 -0.5189
  175MPD1    H6 2729   4.114   0.700  15.185 -1.0687  1.4366  1.8724
  175MPD1    H7 2730   4.174   0.551  15.186 -0.7265  0.0584 -0.9060
  176MPD1     C 2731   0.680   1.783   0.080  0.0350 -0.1985 -0.6218
  176MPD1    C1 2732   0.718   1.870   0.185 -0.0652 -0.3651  0.3208
  176MPD1    C2 2733   0.817   1.960   0.153 -0.2601  0.3604  0.1370
  176MPD1    C3 2734   0.896   1.949   0.036  1.2894 -0.0510  0.2010
  176MPD1    C4 2735   0.859   1.856  17.678  0.0205  0.4894 -0.4015
  176MPD1    C5 2736   0.751   1.772  17.702 -0.0044 -0.2312 -0.2668
  176MPD1     H 2737   0.839   2.043   0.220 -1.9187 -0.2656  1.4728
  176MPD1    H1 2738   0.917   1.842  17.588  1.6369 -0.6668  0.8110
  176MPD1    H2 2739   0.584   1.732   0.082  0.8805 -1.6611  1.9990
  176MPD1    H3 2740   0.721   1.709  17.620  0.9070  0.5569 -1.2066
  176MPD1     N 2741   0.996   2.049   0.008  0.2747 -0.8948  0.8011
  176MPD1    H5 2742   1.004   2.115   0.084  0.1138  1.4325 -1.2182
  176MPD1    N1 2743   0.629   1.884   0.293 -0.2843 -0.5323 -0.6901
  176MPD1    H6 2744   0.591   1.797   0.330 -0.9999  0.0005 -0.1702
  176MPD1    H7 2745   0.673   1.935   0.369 -2.9305  0.5576  0.1170
  177MPD1     C 2746   0.118   1.119   9.629 -0.6544  0.3832  0.2512
  177MPD1    C1 2747   0.183   1.149   9.517  0.4610  0.4430  0.4707
  177MPD1    C2 2748   0.120   1.181   9.401 -0.0633  0.1265 -0.5674
  177MPD1    C3 2749   4.719   1.174   9.381  0.1219  0.2998 -0.0628
  177MPD1    C4 2750   4.650   1.140   9.498  0.0760  0.0080  0.2862
  177MPD1    C5 2751   4.716   1.122   9.617 -0.2633  0.4178  0.0352
  177MPD1     H 2752   0.179   1.199   9.312 -0.6694 -1.2595 -1.2408
  177MPD1    H1 2753   4.542   1.144   9.495 -0.0289 -2.2894  1.1787
  177MPD1    H2 2754   0.160   1.093   9.726  2.4976  0.5607 -1.0570
  177MPD1    H3 2755   4.651   1.104   9.702  1.1317  0.6551  1.1483
  177MPD1     N 2756   4.655   1.195   9.260 -0.6429  0.2595 -0.0761
  177MPD1    H5 2757   4.559   1.164   9.256 -0.0732 -1.4874 -0.4318
  177MPD1    N1 2758   0.326   1.164   9.527  0.0843  0.1271  0.0043
  177MPD1    H6 2759   0.381   1.150   9.444  1.8474  0.7048  1.0820
  177MPD1    H7 2760   0.362   1.109   9.605  2.1754  1.0321 -0.3547
  178MPD1     C 2761   1.611   2.107   0.282 -0.1631  0.3761 -0.0534
  178MPD1    C1 2762   1.660   2.233   0.310 -0.3468  0.1482 -0.5180
  178MPD1    C2 2763   1.729   2.297   0.212  0.2471 -0.8882  0.4326
  178MPD1    C3 2764   1.733   2.243   0.081 -0.3468  0.1849  0.3549
  178MPD1    C4 2765   1.671   2.126   0.047 -0.1122 -0.5806  0.1547
  178MPD1    C5 2766   1.608   2.058   0.152 -0.1419  0.1349  0.2646
  178MPD1     H 2767   1.785   2.385   0.242 -1.6019 -0.6991  3.2884
  178MPD1    H1 2768   1.666   2.086  17.687  1.4989  0.1649 -0.2248
  178MPD1    H2 2769   1.556   2.052   0.357  0.8170  1.0190  1.1635
  178MPD1    H3 2770   1.572   1.956   0.144 -0.2841  0.1070  1.2043
  178MPD1     N 2771   1.809   2.294  17.707 -0.5401 -0.0698 -0.4243
  178MPD1    H5 2772   1.819   2.235  17.625 -0.0957 -1.0501  0.3342
  178MPD1    N1 2773   1.666   2.285   0.440  0.9434 -0.3556  0.3542
  178MPD1    H6 2774   1.596   2.249   0.504 -0.8835 -0.9207 -1.9599
  178MPD1    H7 2775   1.666   2.387   0.449  1.7509 -0.3618  0.4505
  179MPD1     C 2776   1.264   0.946  14.926  0.1572 -0.0210  0.1531
  179MPD1    C1 2777   1.363   0.929  15.019  0.4559 -0.7009 -0.2204
  179MPD1    C2 2778   1.360   0.818  15.102  0.5268 -0.9369  0.3057
  179MPD1    C3 2779   1.249   0.737  15.112 -0.0772  0.4963  0.1064
  179MPD1    C4 2780   1.150   0.758  15.024 -0.0262 -0.3584 -1.1551
  179MPD1    C5 2781   1.155   0.864  14.934  0.5260  0.7851  0.3695
  179MPD1     H 2782   1.452   0.803  15.159  1.6439 -3.0977 -2.0789
  179MPD1    H1 2783   1.060   0.698  15.026  0.0394 -0.4715 -1.4660
  179MPD1    H2 2784   1.262   1.036  14.866  0.2039  0.3790  0.7537
  179MPD1    H3 2785   1.072   0.877  14.867  0.4734 -1.8370 -0.0522
  179MPD1     N 2786   1.248   0.615  15.184 -0.7164 -0.1860 -0.6882
  179MPD1    H5 2787   1.160   0.565  15.177 -1.1033  0.3040  0.6084
  179MPD1    N1 2788   1.482   1.003  15.021  0.5219  0.4341  0.0130
  179MPD1    H6 2789   1.528   0.990  15.111  0.3483 -1.1783 -0.1416
  179MPD1    H7 2790   1.461   1.102  15.012  1.1754 -0.0172 -6.5929
  180MPD1     C 2791   1.555   1.342  14.815 -0.4086 -0.2075  0.7558
  180MPD1    C1 2792   1.645   1.444  14.788 -0.3573 -0.0908 -0.4911
  180MPD1    C2 2793   1.586   1.560  14.730  1.2026  0.1626 -0.6348
  180MPD1    C3 2794   1.451   1.568  14.702 -0.1206  0.4302  0.1032
  180MPD1    C4 2795   1.365   1.475  14.756 -0.5397 -0.2368 -0.1413
  180MPD1    C5 2796   1.421   1.359  14.803 -0.0122  0.2094  0.0027
  180MPD1     H 2797   1.652   1.642  14.708  1.1164  0.8024  1.5440
  180MPD1    H1 2798   1.258   1.470  14.744 -0.9079 -0.8021  3.3132
  180MPD1    H2 2799   1.588   1.247  14.856  1.5222  1.7939  3.7783
  180MPD1    H3 2800   1.357   1.275  14.826 -1.9068  1.6386 -0.0254
  180MPD1     N 2801   1.401   1.680  14.635 -0.0646 -0.3911 -0.1950
  180MPD1    H5 2802   1.449   1.767  14.614 -0.9627  0.6221  1.9693
  180MPD1    N1 2803   1.779   1.411  14.786  0.5104 -0.3043  0.1733
  180MPD1    H6 2804   1.840   1.485  14.818  1.4846 -1.5892  1.2913
  180MPD1    H7 2805   1.783   1.327  14.844 -3.0812  1.5625  3.0910
  181MPD1     C 2806   3.298   3.316  10.039 -0.4889 -0.2458 -0.5448
  181MPD1    C1 2807   3.262   3.434  10.092 -0.4892  0.0109  0.7563
  181MPD1    C2 2808   3.298   3.555  10.032 -0.0101  0.1675 -0.4636
  181MPD1    C3 2809   3.343   3.560   9.903  0.2087 -0.3607 -0.3395
  181MPD1    C4 2810   3.373   3.440   9.839  0.0647  0.5111  0.6056
  181MPD1    C5 2811   3.351   3.323   9.911  0.2787 -0.8152 -0.6876
  181MPD1     H 2812   3.294   3.645  10.091  4.1416  1.8313 -2.6955
  181MPD1    H1 2813   3.415   3.444   9.739 -0.0381  3.5499  0.6803
  181MPD1    H2 2814   3.287   3.224  10.095 -0.1809  1.8027  2.8973
  181MPD1    H3 2815   3.383   3.226   9.874 -0.1279 -0.7391 -1.2429
  181MPD1     N 2816   3.393   3.683   9.834  0.4451  0.0955  0.0693
  181MPD1    H5 2817   3.435   3.660   9.744  1.7775  0.1394  0.6814
  181MPD1    N1 2818   3.215   3.434  10.224  0.3985 -0.0403  0.1141
  181MPD1    H6 2819   3.150   3.359  10.247  0.8012  0.0377  1.5185
  181MPD1    H7 2820   3.173   3.525  10.246  2.4348  1.0290 -0.3816
  182MPD1     C 2821   3.993   1.910  17.607  0.1611  0.3310  0.1374
  182MPD1    C1 2822   3.990   1.912   0.002  0.2519 -0.1247 -0.3449
  182MPD1    C2 2823   3.985   2.040   0.060 -0.1742  0.1410  0.5251
  182MPD1    C3 2824   4.010   2.155  17.734  0.5319 -0.5098  0.5311
  182MPD1    C4 2825   4.025   2.141  17.596 -0.3434  0.1766 -0.0755
  182MPD1    C5 2826   4.012   2.022  17.535 -0.7213  0.2875  0.2713
  182MPD1     H 2827   3.961   2.047   0.165 -0.2183 -2.4229  0.6913
  182MPD1    H1 2828   4.049   2.229  17.538  1.6084  0.5930  1.3485
  182MPD1    H2 2829   3.982   1.811  17.564  0.5896  1.1496 -1.8620
  182MPD1    H3 2830   4.031   2.024  17.428 -0.2514  0.6154  0.3641
  182MPD1     N 2831   4.010   2.288   0.050 -0.0871  0.0062 -0.3766
  182MPD1    H5 2832   4.007   2.361  17.720  0.3306 -0.4315 -0.8529
  182MPD1    N1 2833   3.975   1.798   0.079  0.5136  0.1692  0.9128
  182MPD1    H6 2834   3.989   1.711   0.028  1.9635  1.3685 -0.7399
  182MPD1    H7 2835   4.021   1.802   0.169  0.8164  1.5536  0.6921
  183MPD1     C 2836   4.247   2.502   8.406 -0.0438  0.5795 -0.2799
  183MPD1    C1 2837   4.367   2.513   8.470 -0.6747 -0.6576 -0.3252
  183MPD1    C2 2838   4.398   2.632   8.539 -0.4780  0.1136  0.5328
  183MPD1    C3 2839   4.311   2.742   8.541  0.5429  0.4417  0.8661
  183MPD1    C4 2840   4.190   2.734   8.467 -0.9618  0.4468  0.7466
  183MPD1    C5 2841   4.166   2.613   8.403  0.1846  0.2923 -0.2111
  183MPD1     H 2842   4.495   2.644   8.587 -0.8596  0.4182  1.2306
  183MPD1    H1 2843   4.117   2.814   8.464 -1.0641  0.2634 -1.7801
  183MPD1    H2 2844   4.212   2.403   8.377  0.3370  0.4236 -0.2036
  183MPD1    H3 2845   4.077   2.607   8.342 -0.1835 -1.1038  0.4630
  183MPD1     N 2846   4.348   2.863   8.604 -0.3145 -0.3670 -0.3777
  183MPD1    H5 2847   4.439   2.865   8.648 -0.2631  0.1883 -0.5049
  183MPD1    N1 2848   4.445   2.392   8.490  0.3362  0.4890 -0.3079
  183MPD1    H6 2849   4.544   2.415   8.501  0.3754  0.2970 -0.2512
  183MPD1    H7 2850   4.450   2.336   8.404  1.7401  3.2105 -2.0065
  184MPD1     C 2851   3.673   1.489   9.802 -0.0090  0.1928  0.1249
  184MPD1    C1 2852   3.646   1.355   9.795 -0.1171  0.1105  0.7832
  184MPD1    C2 2853   3.685   1.283   9.686 -0.4213  0.0064 -0.1675
  184MPD1    C3 2854   3.736   1.348   9.575 -0.2776  0.2060 -0.3042
  184MPD1    C4 2855   3.749   1.489   9.584  0.2460 -0.0653 -0.1440
  184MPD1    C5 2856   3.718   1.559   9.698  0.5165  0.3301  0.8104
  184MPD1     H 2857   3.682   1.175   9.684 -0.9473 -0.0024  1.4945
  184MPD1    H1 2858   3.790   1.553   9.506  1.5382  0.6858  1.1619
  184MPD1    H2 2859   3.636   1.548   9.885 -1.0697 -2.7528  1.7319
  184MPD1    H3 2860   3.724   1.666   9.710  0.8013  0.7128 -2.7772
  184MPD1     N 2861   3.768   1.286   9.452  0.5419 -0.5961 -0.3220
  184MPD1    H5 2862   3.815   1.337   9.378  2.1378 -1.6625 -0.0360
  184MPD1    N1 2863   3.590   1.300   9.913 -0.1628 -0.0961 -0.1295
  184MPD1    H6 2864   3.529   1.367   9.959 -2.8312 -2.4140 -0.2885
  184MPD1    H7 2865   3.536   1.216   9.893  0.8488 -0.9002  0.5040
  185MPD1     C 2866   3.537   0.623   8.603 -0.3629  0.3127  0.8395
  185MPD1    C1 2867   3.513   0.601   8.734 -0.2507  0.3476  0.3640
  185MPD1    C2 2868   3.546   0.696   8.835  0.3275 -0.8075 -0.3105
  185MPD1    C3 2869   3.632   0.803   8.799 -0.4343  0.2450 -0.7165
  185MPD1    C4 2870   3.667   0.815   8.664  0.5328  0.1182  0.2702
  185MPD1    C5 2871   3.616   0.728   8.569  0.2114 -0.3209 -0.1585
  185MPD1     H 2872   3.514   0.684   8.938 -0.2040  1.5550 -0.2173
  185MPD1    H1 2873   3.735   0.894   8.634  0.9194 -0.3658 -0.1252
  185MPD1    H2 2874   3.501   0.556   8.525 -1.9388  2.8498 -0.5976
  185MPD1    H3 2875   3.637   0.751   8.465  0.7828  0.2451  0.0828
  185MPD1     N 2876   3.695   0.900   8.882 -0.4692  0.0833  0.2555
  185MPD1    H5 2877   3.759   0.969   8.842  0.5969 -1.4733 -0.7068
  185MPD1    N1 2878   3.427   0.496   8.765  0.5234 -0.2159 -0.0671
  185MPD1    H6 2879   3.430   0.471   8.864  0.5596  0.9149  0.2152
  185MPD1    H7 2880   3.439   0.416   8.703  1.6264 -1.8379  2.2722
  186MPD1     C 2881   1.840   0.718  15.511 -0.2405 -0.1478  0.3297
  186MPD1    C1 2882   1.724   0.730  15.590 -0.6927 -0.6835 -0.1031
  186MPD1    C2 2883   1.730   0.819  15.697 -0.2752  0.1623 -0.3178
  186MPD1    C3 2884   1.842   0.898  15.724 -0.1108  0.8536  0.8737
  186MPD1    C4 2885   1.952   0.893  15.637 -0.3845  0.0539  0.2285
  186MPD1    C5 2886   1.937   0.811  15.527  0.0412 -0.1142  0.8093
  186MPD1     H 2887   1.642   0.832  15.758  0.4659 -0.2718  0.8316
  186MPD1    H1 2888   2.045   0.945  15.656  0.0463 -1.2387  1.5601
  186MPD1    H2 2889   1.861   0.651  15.428  1.1426 -0.1906  0.7015
  186MPD1    H3 2890   2.032   0.804  15.475 -1.1044 -0.5580 -1.2175
  186MPD1     N 2891   1.851   0.976  15.842 -0.3552  0.7556 -0.4532
  186MPD1    H5 2892   1.941   1.019  15.858 -0.4409  0.2748  1.2454
  186MPD1    N1 2893   1.621   0.637  15.584 -0.3025  0.4593 -1.5072
  186MPD1    H6 2894   1.592   0.617  15.488 -1.9104 -0.1513 -0.8948
  186MPD1    H7 2895   1.536   0.678  15.623 -0.5373  0.2554 -1.8070
  187MPD1     C 2896   1.209   3.007   0.031  0.0205 -0.0366 -0.4120
  187MPD1    C1 2897   1.314   3.001  17.686 -0.0711 -0.9787  0.3005
  187MPD1    C2 2898   1.299   3.036  17.555 -0.1515 -0.3514 -0.3606
  187MPD1    C3 2899   1.170   3.032  17.501 -0.3538  0.2718 -0.4847
  187MPD1    C4 2900   1.061   3.038  17.582 -0.0872  0.4387  0.7573
  187MPD1    C5 2901   1.079   3.015  17.715  0.0293 -0.5315  1.2741
  187MPD1     H 2902   1.384   3.028  17.487 -0.1814  0.7829 -0.5203
  187MPD1    H1 2903   0.964   3.047  17.536 -0.5782  0.3602  1.7843
  187MPD1    H2 2904   1.221   2.973   0.133  1.7420  0.4523 -0.4623
  187MPD1    H3 2905   0.994   3.021   0.042  0.0960  0.8913  1.2352
  187MPD1     N 2906   1.143   3.038  17.368 -0.1299  0.3133 -0.0379
  187MPD1    H5 2907   1.044   3.029  17.349  0.0836  2.6013 -2.0721
  187MPD1    N1 2908   1.445   2.976  17.728 -0.2220 -0.1891 -0.5886
  187MPD1    H6 2909   1.487   2.920  17.654  0.1222  1.1315 -1.3882
  187MPD1    H7 2910   1.459   2.917   0.070 -1.0342 -0.2724 -0.5135
  188MPD1     C 2911   1.349   3.130   9.655 -0.1795 -0.3758  0.0406
  188MPD1    C1 2912   1.376   3.103   9.522 -0.3018  0.1605 -0.7327
  188MPD1    C2 2913   1.439   2.987   9.499  0.1863  0.3389 -0.3815
  188MPD1    C3 2914   1.489   2.910   9.596 -0.1422 -0.0614 -0.2947
  188MPD1    C4 2915   1.480   2.948   9.727  0.2087  0.3512  0.6788
  188MPD1    C5 2916   1.407   3.055   9.757  0.4341  0.1347  0.5661
  188MPD1     H 2917   1.459   2.960   9.396  1.1339 -0.0003 -0.1026
  188MPD1    H1 2918   1.520   2.886   9.807  0.4845 -2.6994 -1.8408
  188MPD1    H2 2919   1.307   3.223   9.693 -0.3616 -0.2584 -0.4447
  188MPD1    H3 2920   1.392   3.078   9.861  0.7290  1.7633  0.2497
  188MPD1     N 2921   1.551   2.788   9.574 -0.1668 -0.1378  0.1694
  188MPD1    H5 2922   1.606   2.753   9.651 -0.0347 -1.0576 -0.3453
  188MPD1    N1 2923   1.333   3.180   9.416  0.2819 -0.0234 -0.0918
  188MPD1    H6 2924   1.328   3.281   9.430  1.3290  0.3221 -2.2600
  188MPD1    H7 2925   1.400   3.176   9.340 -1.2002 -1.3915 -1.3288
  189MPD1     C 2926   2.520   3.245   0.174 -0.4028 -0.3258  0.8821
  189MPD1    C1 2927   2.396   3.227   0.112  0.2367  0.3468  0.0050
  189MPD1    C2 2928   2.336   3.338   0.051  0.2173 -0.5178  0.2873
  189MPD1    C3 2929   2.389   3.466   0.062 -0.6804 -0.1939  0.3713
  189MPD1    C4 2930   2.494   3.486   0.149  0.0989  0.5568 -0.0114
  189MPD1    C5 2931   2.551   3.371   0.201  0.0648  0.1289  0.4554
  189MPD1     H 2932   2.245   3.331  17.733  0.0353  1.7673  0.3030
  189MPD1    H1 2933   2.542   3.579   0.176 -0.7285  0.8242  0.5465
  189MPD1    H2 2934   2.579   3.166   0.220  0.1209 -0.2201  0.3995
  189MPD1    H3 2935   2.639   3.388   0.261  1.1029  0.9674 -1.3060
  189MPD1     N 2936   2.316   3.571   0.005 -0.7068 -0.2506  0.4471
  189MPD1    H5 2937   2.222   3.559  17.708 -0.2356  0.0632 -0.8457
  189MPD1    N1 2938   2.356   3.090   0.091  0.7817  0.4049  0.2710
  189MPD1    H6 2939   2.263   3.083   0.049  0.3360 -0.2383  1.3743
  189MPD1    H7 2940   2.360   3.032   0.175 -0.4189  0.4581  0.3756
  190MPD1     C 2941   0.875   2.030  15.670  0.3265 -0.1784 -0.0021
  190MPD1    C1 2942   0.943   2.056  15.553  0.0116  0.3511  0.3129
  190MPD1    C2 2943   1.072   2.097  15.564  1.0028 -0.6355  0.1292
  190MPD1    C3 2944   1.147   2.084  15.683 -0.0270 -0.5262 -0.2139
  190MPD1    C4 2945   1.074   2.042  15.793  0.2570 -0.5953  0.4241
  190MPD1    C5 2946   0.941   2.013  15.789 -0.4162 -0.3252  0.2212
  190MPD1     H 2947   1.122   2.137  15.477  0.4582 -1.7013 -0.6785
  190MPD1    H1 2948   1.117   2.029  15.892  1.3423  0.8970  0.1563
  190MPD1    H2 2949   0.773   1.993  15.669  0.4946 -0.6136 -1.5289
  190MPD1    H3 2950   0.890   1.969  15.874  0.1281 -1.4577 -0.0442
  190MPD1     N 2951   1.282   2.118  15.682  0.6820 -0.0126 -0.5006
  190MPD1    H5 2952   1.326   2.153  15.597  0.5069 -0.9071 -0.9550
  190MPD1    N1 2953   0.865   2.081  15.444 -0.6075  0.0920  0.4926
  190MPD1    H6 2954   0.906   2.072  15.352 -2.6543 -0.5369 -0.3556
  190MPD1    H7 2955   0.778   2.028  15.443 -0.2176 -0.5245 -0.6896
  191MPD1     C 2956   1.924   2.661  11.443 -0.1410 -0.9762 -0.7278
  191MPD1    C1 2957   1.954   2.781  11.393 -0.2920 -0.0054  0.3239
  191MPD1    C2 2958   1.929   2.891  11.479  0.9700  0.7425 -0.2493
  191MPD1    C3 2959   1.866   2.873  11.600 -0.6379 -0.0021  0.6977
  191MPD1    C4 2960   1.829   2.747  11.646 -0.0775  0.5451  0.1040
  191MPD1    C5 2961   1.859   2.635  11.565 -0.6819  0.4023  0.3098
  191MPD1     H 2962   1.927   2.992  11.442  0.7494 -0.6178 -3.9657
  191MPD1    H1 2963   1.790   2.729  11.745  2.0126  0.4397  0.9173
  191MPD1    H2 2964   1.954   2.568  11.397 -2.6348 -2.2316  0.1539
  191MPD1    H3 2965   1.842   2.530  11.588 -0.5778 -0.0065 -1.4651
  191MPD1     N 2966   1.836   2.989  11.680  0.2276  0.1079  0.7471
  191MPD1    H5 2967   1.891   3.068  11.648 -0.4405  0.7026  1.0803
  191MPD1    N1 2968   1.979   2.788  11.254 -0.6680 -1.1273 -0.7122
  191MPD1    H6 2969   2.022   2.876  11.225  1.6406 -1.7943  0.6902
  191MPD1    H7 2970   2.028   2.704  11.225 -1.0574 -1.4206 -0.5246
  192MPD1     C 2971   1.571   3.579  12.538  0.4479 -0.1890  0.3682
  192MPD1    C1 2972   1.544   3.449  12.510 -0.0717  0.4378 -0.5285
  192MPD1    C2 2973   1.549   3.402  12.377  0.5317 -0.7371 -0.6134
  192MPD1    C3 2974   1.578   3.481  12.274  0.7273  0.3294 -0.7544
  192MPD1    C4 2975   1.603   3.614  12.300  0.3830 -0.0180 -0.6489
  192MPD1    C5 2976   1.607   3.661  12.434  0.3008  0.4581 -1.2063
  192MPD1     H 2977   1.527   3.297  12.362  1.4318 -0.9324 -0.5764
  192MPD1    H1 2978   1.633   3.681  12.220  0.2544  1.3337  0.4248
  192MPD1    H2 2979   1.557   3.620  12.637 -1.9717 -0.5339  0.1762
  192MPD1    H3 2980   1.612   3.769  12.442 -3.3944  0.5777 -0.5865
  192MPD1     N 2981   1.578   3.430  12.138  0.5014 -0.0087 -0.5580
  192MPD1    H5 2982   1.594   3.504  12.070  3.3803 -0.4552 -0.3617
  192MPD1    N1 2983   1.523   3.363  12.619 -0.5599  0.4977 -0.1750
  192MPD1    H6 2984   1.500   3.415  12.703 -1.7668  1.2438 -0.9748
  192MPD1    H7 2985   1.459   3.289  12.590  1.3338 -1.6540  1.1392
  193MPD1     C 2986   4.696   4.219  15.362 -0.6689 -0.3965 -0.0957
  193MPD1    C1 2987   0.022   4.337  15.391  0.1870 -0.9081  0.4571
  193MPD1    C2 2988   0.067   4.358  15.521 -0.3516 -0.1086  0.2598
  193MPD1    C3 2989   0.070   4.251  15.608  0.0503 -1.0062 -0.3406
  193MPD1    C4 2990   0.016   4.129  15.571 -0.3710 -0.2786  0.2033
  193MPD1    C5 2991   4.703   4.112  15.444 -0.6772  0.5752  0.2217
  193MPD1     H 2992   0.124   4.447  15.542 -0.5196 -0.1478  0.8916
  193MPD1    H1 2993   0.023   4.041  15.633 -0.8458  0.6473  1.5823
  193MPD1    H2 2994   4.656   4.209  15.262 -1.0318 -0.6012  0.0714
  193MPD1    H3 2995   4.673   4.009  15.429  3.9972 -0.5678 -1.2578
  193MPD1     N 2996   0.132   4.255  15.732 -0.0944 -0.3503 -0.0657
  193MPD1    H5 2997   0.153   4.168  15.780  1.7510 -0.0193 -0.2874
  193MPD1    N1 2998   4.730   4.451  15.305 -0.5777 -0.3054 -0.2345
  193MPD1    H6 2999   4.719   4.438  15.204 -1.1588 -0.4688 -0.1491
  193MPD1    H7 3000   0.071   4.517  15.314 -2.9705  2.5569 -1.1946
  194MPD1     C 3001   2.972   1.917  16.954  0.3091  0.1533 -1.0007
  194MPD1    C1 3002   2.937   1.838  16.844 -0.5345  0.7702 -0.3368
  194MPD1    C2 3003   2.984   1.711  16.840 -0.0199  0.6196 -0.1567
  194MPD1    C3 3004   3.093   1.671  16.925  0.2416  0.2421 -0.1974
  194MPD1    C4 3005   3.143   1.766  17.014 -0.6672  0.2212 -0.0234
  194MPD1    C5 3006   3.076   1.882  17.036 -0.2984 -0.1505  0.0095
  194MPD1     H 3007   2.936   1.641  16.772  0.2597  0.1311  0.1460
  194MPD1    H1 3008   3.218   1.745  17.090 -0.3363  1.3197 -0.0487
  194MPD1    H2 3009   2.922   2.013  16.963  1.3520  0.5947 -0.0696
  194MPD1    H3 3010   3.112   1.945  17.117 -1.2034 -1.2105  1.2282
  194MPD1     N 3011   3.151   1.540  16.924 -1.0049  0.2819 -0.6910
  194MPD1    H5 3012   3.226   1.531  16.992 -0.0801  0.6720 -1.6513
  194MPD1    N1 3013   2.827   1.879  16.767  0.3515  0.5497  0.0952
  194MPD1    H6 3014   2.841   1.842  16.674  0.1676  1.2392 -0.2052
  194MPD1    H7 3015   2.828   1.979  16.750 -0.7456  0.5935  0.2604
  195MPD1     C 3016   0.336   3.766  17.290 -0.9885 -0.3845  1.0615
  195MPD1    C1 3017   0.396   3.759  17.418  0.9654 -0.1235  0.1856
  195MPD1    C2 3018   0.391   3.634  17.480  0.1589 -0.0138 -0.1852
  195MPD1    C3 3019   0.302   3.533  17.438  0.2929  0.5102 -0.9611
  195MPD1    C4 3020   0.235   3.555  17.320  0.0571  0.4125 -0.1182
  195MPD1    C5 3021   0.252   3.661  17.246 -0.9421 -0.4639  0.1386
  195MPD1     H 3022   0.452   3.619  17.568 -0.5782 -0.9102  0.1600
  195MPD1    H1 3023   0.166   3.476  17.292  0.5809 -0.6200  1.4801
  195MPD1    H2 3024   0.349   3.857  17.232 -0.5811 -0.8053  0.4918
  195MPD1    H3 3025   0.190   3.665  17.158 -0.6312  1.2279 -0.0014
  195MPD1     N 3026   0.278   3.416  17.509  0.2710  0.7963 -0.6411
  195MPD1    H5 3027   0.201   3.361  17.472  1.7418 -1.7666  0.1360
  195MPD1    N1 3028   0.484   3.856  17.454 -0.0451 -0.0138 -0.4261
  195MPD1    H6 3029   0.477   3.944  17.402 -1.9335  0.2866  0.3366
  195MPD1    H7 3030   0.519   3.866  17.549  0.6027 -1.2196 -0.5443
  196MPD1     C 3031   4.045   3.112  16.812  0.2289  0.8206  0.1845
  196MPD1    C1 3032   4.156   3.178  16.846 -0.1329  0.6036 -0.2111
  196MPD1    C2 3033   4.216   3.142  16.974 -0.6199 -0.0002 -0.1029
  196MPD1    C3 3034   4.161   3.037  17.049 -0.3927  0.4926  0.5435
  196MPD1    C4 3035   4.064   2.965  16.998  0.1317 -0.3026  0.3501
  196MPD1    C5 3036   4.003   3.005  16.882  0.6380 -0.2475  0.2983
  196MPD1     H 3037   4.306   3.191  17.008 -0.2072 -0.1011 -1.0734
  196MPD1    H1 3038   4.013   2.889  17.055  1.0774 -2.8848 -2.1942
  196MPD1    H2 3039   3.988   3.134  16.723  0.8292 -0.1796 -0.4543
  196MPD1    H3 3040   3.914   2.956  16.843  1.8183 -1.3957 -0.9702
  196MPD1     N 3041   4.205   2.982  17.171  0.2345 -0.6584  0.3966
  196MPD1    H5 3042   4.158   2.905  17.217 -0.5705 -0.0041  0.6726
  196MPD1    N1 3043   4.208   3.293  16.777  0.8602 -0.7326  0.3182
  196MPD1    H6 3044   4.303   3.317  16.805  0.3574 -0.1608  1.5548
  196MPD1    H7 3045   4.215   3.272  16.678  1.1811 -0.9575  0.3890
  197MPD1     C 3046   3.663   4.209  16.958 -0.0789 -0.3031 -0.5549
  197MPD1    C1 3047   3.766   4.259  17.026  0.5958  0.0654  0.2718
  197MPD1    C2 3048   3.860   4.333  16.952  0.3779  0.5359  0.3248
  197MPD1    C3 3049   3.860   4.339  16.814 -0.0861 -0.1856  0.2918
  197MPD1    C4 3050   3.757   4.284  16.754  0.4060  0.0259 -0.5471
  197MPD1    C5 3051   3.660   4.211  16.822 -0.0578  0.3994 -0.4146
  197MPD1     H 3052   3.930   4.384  17.017  0.3088 -0.1469  0.9315
  197MPD1    H1 3053   3.747   4.304  16.648  2.3886  1.7411 -0.4251
  197MPD1    H2 3054   3.579   4.153  17.000 -1.0027  1.4382 -0.0669
  197MPD1    H3 3055   3.584   4.163  16.762 -0.1677 -2.0601  1.6984
  197MPD1     N 3056   3.963   4.405  16.739 -0.7482  0.8638 -0.6637
  197MPD1    H5 3057   3.941   4.413  16.640  0.9437  0.1687 -1.0890
  197MPD1    N1 3058   3.757   4.267  17.167 -0.3450 -0.4861  0.0364
  197MPD1    H6 3059   3.849   4.269  17.210 -0.7674 -1.6421  0.9796
  197MPD1    H7 3060   3.697   4.194  17.203  1.1571 -3.0116 -2.5777
  198MPD1     C 3061   0.794   2.508  14.717  0.7104  0.2960 -0.2398
  198MPD1    C1 3062   0.847   2.488  14.843 -0.7875 -0.5372 -0.3141
  198MPD1    C2 3063   0.942   2.586  14.889 -0.6466 -0.1872 -0.7670
  198MPD1    C3 3064   0.971   2.693  14.814 -0.5303  0.3145 -0.6513
  198MPD1    C4 3065   0.924   2.709  14.688  0.1137 -0.1887 -0.4020
  198MPD1    C5 3066   0.832   2.617  14.645 -0.7217  0.4530 -0.0277
  198MPD1     H 3067   1.001   2.573  14.979 -1.3879 -0.4204 -0.3130
  198MPD1    H1 3068   0.957   2.789  14.624 -1.2886 -0.5111 -1.5551
  198MPD1    H2 3069   0.715   2.445  14.678  1.4037  0.1136 -1.3490
  198MPD1    H3 3070   0.799   2.631  14.543  1.2582  1.0177 -0.6015
  198MPD1     N 3071   1.071   2.772  14.863 -0.2194  0.8023 -0.2445
  198MPD1    H5 3072   1.111   2.753  14.954 -0.6966  2.8501  0.3978
  198MPD1    N1 3073   0.820   2.375  14.922  0.3093 -0.2910  0.0192
  198MPD1    H6 3074   0.821   2.379  15.024  0.3825  2.0297 -0.0811
  198MPD1    H7 3075   0.731   2.330  14.905 -0.1855  0.3189  1.0173
  199MPD1     C 3076   3.649   4.631  10.830 -0.3350 -0.7819 -0.5263
  199MPD1    C1 3077   3.547   4.584  10.740  0.0991 -0.2226 -0.3747
  199MPD1    C2 3078   3.572   4.592  10.606 -0.4077 -0.6457 -0.0302
  199MPD1    C3 3079   3.681   4.650  10.548 -0.2215 -0.6608 -0.0557
  199MPD1    C4 3080   3.781   4.689  10.638  0.1933 -0.0313  1.3168
  199MPD1    C5 3081   3.765   4.680  10.772 -0.5042 -0.2655  0.9357
  199MPD1     H 3082   3.485   4.576  10.542 -1.5298  3.0527  0.5441
  199MPD1    H1 3083   3.876   4.722  10.599 -0.4186 -0.0458 -0.1932
  199MPD1    H2 3084   3.636   4.623  10.938 -4.5591  1.9263 -0.8122
  199MPD1    H3 3085   3.846   4.716  10.834  0.6125  0.4768 -0.9348
  199MPD1     N 3086   3.701   4.659  10.410  0.3284 -0.2147 -0.4977
  199MPD1    H5 3087   3.792   4.695  10.383 -0.0652  1.2325  0.1412
  199MPD1    N1 3088   3.430   4.528  10.792  0.1946  0.2991  0.2772
  199MPD1    H6 3089   3.358   4.528  10.719 -1.2989  1.1147  1.7698
  199MPD1    H7 3090   3.396   4.583  10.870  0.4362  0.4590  0.2666
  200MPD1     C 3091   1.901   0.015  15.017  0.3387  0.5993  0.0344
  200MPD1    C1 3092   1.890   4.626  14.955  0.1450  0.2833  0.3603
  200MPD1    C2 3093   2.006   4.568  14.898  0.6005  0.2449 -0.1524
  200MPD1    C3 3094   2.129   4.638  14.897 -0.0518  0.4554 -0.5678
  200MPD1    C4 3095   2.134   0.037  14.947  0.4897 -0.1576  0.1035
  200MPD1    C5 3096   2.012   0.087  14.995  0.3505  0.2678 -0.2833
  200MPD1     H 3097   1.996   4.472  14.848 -1.3567  1.4134 -1.9932
  200MPD1    H1 3098   2.218   0.105  14.938 -0.5447  1.5246  2.8822
  200MPD1    H2 3099   1.830   0.072  15.075 -1.2696 -0.1420 -1.2151
  200MPD1    H3 3100   2.008   0.186  15.041  1.9842  1.3432 -2.4921
  200MPD1     N 3101   2.238   4.568  14.836  0.0995  0.2675  0.8209
  200MPD1    H5 3102   2.219   4.477  14.796  2.4945  0.5906 -1.0846
  200MPD1    N1 3103   1.770   4.558  14.988 -0.0821 -0.2078  0.5190
  200MPD1    H6 3104   1.735   4.495  14.915  1.1321 -1.1577  0.7535
  200MPD1    H7 3105   1.699   4.624  15.016  0.6416  0.6351  0.3499
  201MPD1     C 3106   4.520   3.799  13.098  0.2809 -0.2973 -0.6792
  201MPD1    C1 3107   4.621   3.741  13.176 -0.2209 -0.0099  0.9567
  201MPD1    C2 3108   4.635   3.604  13.182 -0.5714 -0.6813 -0.0596
  201MPD1    C3 3109   4.547   3.525  13.105  0.2558  0.0821  0.2770
  201MPD1    C4 3110   4.453   3.579  13.027 -0.1975 -0.7645  0.7797
  201MPD1    C5 3111   4.435   3.717  13.025 -0.1721 -0.0533 -0.2406
  201MPD1     H 3112   4.712   3.554  13.239 -0.1192  0.2505  0.1476
  201MPD1    H1 3113   4.386   3.520  12.966  0.5716 -2.0842  1.2151
  201MPD1    H2 3114   4.496   3.905  13.094 -0.2286 -0.4302 -1.3720
  201MPD1    H3 3115   4.358   3.765  12.965  0.7601  2.7186  0.8249
  201MPD1     N 3116   4.581   3.388  13.109  0.4775  0.4198 -0.4577
  201MPD1    H5 3117   4.672   3.369  13.148  0.3460 -1.2177 -0.9568
  201MPD1    N1 3118   4.726   3.818  13.221  0.5888  0.6948  0.2425
  201MPD1    H6 3119   0.020   3.770  13.306 -0.2128 -0.5630 -0.1947
  201MPD1    H7 3120   4.694   3.910  13.253 -0.5678 -0.3267  2.0093
  202MPD1     C 3121   0.206   1.586   9.330 -0.0741  0.2220 -0.0258
  202MPD1    C1 3122   0.142   1.654   9.225 -0.4543 -0.0957 -0.0093
  202MPD1    C2 3123   0.164   1.790   9.232 -0.4129 -1.2492 -0.0390
  202MPD1    C3 3124   0.271   1.849   9.298  0.0913  1.2755  0.6900
  202MPD1    C4 3125   0.347   1.771   9.384 -0.0542 -0.0630 -0.4673
  202MPD1    C5 3126   0.310   1.646   9.409 -0.0507  0.3812  0.6672
  202MPD1     H 3127   0.108   1.852   9.163 -1.2590 -1.2549  0.6442
  202MPD1    H1 3128   0.433   1.807   9.440  0.0822 -0.4900 -0.3956
  202MPD1    H2 3129   0.188   1.480   9.337  1.1696  0.1603  1.9398
  202MPD1    H3 3130   0.367   1.587   9.480 -0.7141  1.0271  1.7367
  202MPD1     N 3131   0.323   1.981   9.272 -0.0651 -0.1091  0.4979
  202MPD1    H5 3132   0.409   2.008   9.319  1.7498  1.0558 -3.5277
  202MPD1    N1 3133   0.016   1.601   9.188  0.2885 -0.6446 -0.4102
  202MPD1    H6 3134   4.706   1.641   9.106  1.7255 -1.9080 -1.7959
  202MPD1    H7 3135   0.012   1.502   9.168  0.3830 -0.7592  0.1370
  203MPD1     C 3136   3.941   3.970  11.857  0.3424 -0.3583 -0.2309
  203MPD1    C1 3137   3.958   3.890  11.746 -0.5161 -0.0215 -0.4556
  203MPD1    C2 3138   3.907   3.756  11.742 -0.4539  0.5578  0.6895
  203MPD1    C3 3139   3.855   3.704  11.862 -0.2957  0.9624 -0.0494
  203MPD1    C4 3140   3.849   3.780  11.976  0.3891  0.4610  0.5387
  203MPD1    C5 3141   3.896   3.906  11.969  0.0089 -0.3529 -0.0091
  203MPD1     H 3142   3.915   3.697  11.652 -1.5543 -1.4348  1.9137
  203MPD1    H1 3143   3.799   3.744  12.065 -0.7856 -3.2490 -1.6429
  203MPD1    H2 3144   3.970   4.075  11.853 -1.1496  0.1871  2.8776
  203MPD1    H3 3145   3.878   3.970  12.054  0.9804  0.1550 -0.1887
  203MPD1     N 3146   3.809   3.573  11.859  0.2177 -0.0334  0.3607
  203MPD1    H5 3147   3.825   3.513  11.778  2.2317  2.9583 -1.4404
  203MPD1    N1 3148   3.986   3.956  11.629  0.4503 -0.2042 -0.3333
  203MPD1    H6 3149   4.054   4.027  11.655 -0.1226 -0.6985  2.5622
  203MPD1    H7 3150   4.021   3.893  11.557 -2.2218 -0.2573 -1.5962
  204MPD1     C 3151   3.408   0.514  17.040 -0.0795 -0.6643  0.4680
  204MPD1    C1 3152   3.319   0.517  16.939  0.0952 -0.2284  0.0999
  204MPD1    C2 3153   3.235   0.405  16.914  0.0512  0.2473 -0.0779
  204MPD1    C3 3154   3.255   0.287  16.976 -1.2062 -0.4624  0.3136
  204MPD1    C4 3155   3.355   0.284  17.070 -0.5001 -0.0623 -0.4781
  204MPD1    C5 3156   3.425   0.393  17.103 -1.1687  0.2470  0.5523
  204MPD1     H 3157   3.163   0.403  16.833  0.1877 -1.5169 -0.1596
  204MPD1    H1 3158   3.371   0.202  17.138 -0.8335 -0.2085 -0.5792
  204MPD1    H2 3159   3.486   0.589  17.046 -0.1456 -0.2499 -3.5974
  204MPD1    H3 3160   3.504   0.377  17.176  0.0956  0.1471 -0.8262
  204MPD1     N 3161   3.177   0.174  16.950 -0.5114 -0.1673 -0.8668
  204MPD1    H5 3162   3.098   0.184  16.886 -0.9792  0.3642 -0.2050
  204MPD1    N1 3163   3.295   0.636  16.862  0.0146 -0.0600  0.3517
  204MPD1    H6 3164   3.380   0.686  16.834  0.6435 -1.1409  0.3535
  204MPD1    H7 3165   3.245   0.618  16.775  1.4800  0.4922 -0.6068
  205MPD1     C 3166   2.064   3.481  16.348 -0.0744 -0.2211 -0.1382
  205MPD1    C1 3167   2.155   3.586  16.354 -0.2216 -0.5813  0.6934
  205MPD1    C2 3168   2.232   3.618  16.458  0.2697  0.3839  0.3712
  205MPD1    C3 3169   2.218   3.548  16.582  0.3794  0.7045  0.0486
  205MPD1    C4 3170   2.129   3.441  16.576 -0.6608 -0.7381 -0.0636
  205MPD1    C5 3171   2.056   3.402  16.466 -0.0511 -0.0974 -1.0524
  205MPD1     H 3172   2.304   3.699  16.446  2.1275 -0.8627  2.9269
  205MPD1    H1 3173   2.110   3.383  16.666  0.3036  1.5744  1.6258
  205MPD1    H2 3174   2.020   3.444  16.256  0.8259 -2.5291  0.3734
  205MPD1    H3 3175   1.983   3.322  16.464 -0.8358  0.5589  1.8225
  205MPD1     N 3176   2.305   3.568  16.698  0.2877 -0.2783 -0.7650
  205MPD1    H5 3177   2.305   3.511  16.782 -0.1745 -0.0096 -0.5830
  205MPD1    N1 3178   2.186   3.635  16.227 -0.2132 -0.9967 -0.1794
  205MPD1    H6 3179   2.101   3.652  16.173 -0.0097 -1.3993 -0.6301
  205MPD1    H7 3180   2.220   3.731  16.232 -2.8112 -0.1639  1.2036
  206MPD1     C 3181   3.701   1.814  15.834 -0.0833  0.4521 -0.0194
  206MPD1    C1 3182   3.685   1.764  15.955  0.4193  0.3469 -0.3970
  206MPD1    C2 3183   3.553   1.746  15.998 -0.4209  0.4524  0.1276
  206MPD1    C3 3184   3.444   1.773  15.919 -0.4601 -0.2586 -1.1379
  206MPD1    C4 3185   3.466   1.828  15.795 -0.1343 -0.3849 -0.1749
  206MPD1    C5 3186   3.596   1.845  15.755  0.1868  0.3040 -0.1273
  206MPD1     H 3187   3.550   1.713  16.102 -4.0518  1.7853  0.4488
  206MPD1    H1 3188   3.387   1.843  15.722  0.2444  0.5752 -0.3752
  206MPD1    H2 3189   3.798   1.847  15.798 -0.2014 -0.2046 -0.9357
  206MPD1    H3 3190   3.620   1.884  15.657 -1.3783 -2.3712 -1.5708
  206MPD1     N 3191   3.317   1.743  15.956 -0.5541  0.1504 -0.0609
  206MPD1    H5 3192   3.249   1.766  15.884 -1.0568 -0.8271  0.1012
  206MPD1    N1 3193   3.794   1.748  16.041 -0.1018  0.1414  0.4688
  206MPD1    H6 3194   3.780   1.691  16.124  2.7118  1.3225  1.7469
  206MPD1    H7 3195   3.880   1.723  15.991 -0.5345 -0.0336 -0.1913
  207MPD1     C 3196   1.542   4.162   8.771 -0.3522  0.1767 -0.0064
  207MPD1    C1 3197   1.608   4.269   8.819  0.1728 -0.1652  1.1379
  207MPD1    C2 3198   1.616   4.280   8.958 -0.1195 -0.1831  0.3875
  207MPD1    C3 3199   1.588   4.167   9.035  0.4768  0.6979  0.0734
  207MPD1    C4 3200   1.528   4.055   8.981  0.4408 -0.0983 -0.0110
  207MPD1    C5 3201   1.509   4.056   8.850  0.5924 -0.1591  0.5440
  207MPD1     H 3202   1.656   4.368   9.007  0.4473  0.4909 -1.2851
  207MPD1    H1 3203   1.497   3.970   9.040 -0.5433 -0.4226 -0.9922
  207MPD1    H2 3204   1.533   4.145   8.664  0.0357  1.3257 -0.2259
  207MPD1    H3 3205   1.451   3.975   8.806  0.3916  0.5203 -0.4390
  207MPD1     N 3206   1.620   4.154   9.175  0.3944  0.4334 -0.0674
  207MPD1    H5 3207   1.607   4.064   9.219 -1.6450  0.8553  0.1934
  207MPD1    N1 3208   1.636   4.380   8.734  0.2632 -0.1335  0.5812
  207MPD1    H6 3209   1.710   4.441   8.768  0.1893  0.6253 -0.6075
  207MPD1    H7 3210   1.666   4.359   8.639 -1.4773 -0.3401  0.0770
  208MPD1     C 3211   3.809   2.726  16.740 -0.0722 -0.4637 -0.1988
  208MPD1    C1 3212   3.815   2.674  16.866  0.2785 -0.6588 -0.4461
  208MPD1    C2 3213   3.725   2.706  16.967  0.2493 -0.0064  0.4631
  208MPD1    C3 3214   3.617   2.783  16.943  0.3246  0.3657  0.5586
  208MPD1    C4 3215   3.594   2.822  16.809 -0.5685  0.0174 -0.2674
  208MPD1    C5 3216   3.698   2.806  16.715 -0.0608  0.1639  0.3652
  208MPD1     H 3217   3.742   2.663  17.065  4.7542 -2.0373 -1.1579
  208MPD1    H1 3218   3.507   2.881  16.781 -0.3848  1.0319  1.2710
  208MPD1    H2 3219   3.874   2.700  16.658 -0.2860  4.2323 -1.9068
  208MPD1    H3 3220   3.688   2.837  16.612  2.9985 -1.5277 -0.4445
  208MPD1     N 3221   3.521   2.809  17.044 -0.2225  0.8565  0.1780
  208MPD1    H5 3222   3.548   2.770  17.134  1.6031 -0.2214 -0.8468
  208MPD1    N1 3223   3.921   2.581  16.893  0.6968 -0.1871  0.1411
  208MPD1    H6 3224   3.941   2.534  16.805 -0.1807 -1.5017  0.6436
  208MPD1    H7 3225   3.905   2.522  16.975 -0.8842  0.7109  0.4644
  209MPD1     C 3226   0.715   3.349  10.143 -0.0829  0.8124 -0.1243
  209MPD1    C1 3227   0.782   3.438  10.058 -0.0821 -0.0668 -0.6915
  209MPD1    C2 3228   0.915   3.463  10.089 -0.2025 -0.0383  0.0891
  209MPD1    C3 3229   0.985   3.380  10.182 -1.0877  0.7028 -0.2910
  209MPD1    C4 3230   0.918   3.285  10.254 -0.3916 -0.9339  0.5087
  209MPD1    C5 3231   0.782   3.269  10.227  0.9542 -0.1112  0.4304
  209MPD1     H 3232   0.968   3.535  10.027  0.0772  0.3871  0.8194
  209MPD1    H1 3233   0.966   3.219  10.325 -0.7285 -1.2097  0.4819
  209MPD1    H2 3234   0.607   3.340  10.142  0.1134 -1.3644 -1.0380
  209MPD1    H3 3235   0.739   3.181  10.276 -3.7762  0.7470 -2.1103
  209MPD1     N 3236   1.122   3.413  10.210 -0.3029  0.3994  0.3246
  209MPD1    H5 3237   1.162   3.494  10.163 -1.7109  0.9809  0.1439
  209MPD1    N1 3238   0.697   3.534  10.000  0.0398 -0.2841  0.3271
  209MPD1    H6 3239   0.754   3.568   9.922  0.6015 -1.7703  0.0751
  209MPD1    H7 3240   0.617   3.480   9.967  1.1575  0.2069 -3.2000
  210MPD1     C 3241   1.852   3.896  10.763 -0.7119  0.8484 -0.1964
  210MPD1    C1 3242   1.800   3.773  10.804 -0.5329  0.0064 -0.0166
  210MPD1    C2 3243   1.715   3.716  10.709 -0.2591  0.5529 -0.3430
  210MPD1    C3 3244   1.686   3.771  10.585 -0.3084 -0.1676  0.6005
  210MPD1    C4 3245   1.749   3.883  10.544 -0.4538  0.2128 -0.4236
  210MPD1    C5 3246   1.834   3.944  10.632 -0.3089 -0.3432 -0.1163
  210MPD1     H 3247   1.679   3.620  10.743  2.8933 -0.3971  0.3543
  210MPD1    H1 3248   1.732   3.921  10.443 -1.0992 -1.6678 -1.0250
  210MPD1    H2 3249   1.916   3.949  10.832  0.0818 -0.7613  0.3214
  210MPD1    H3 3250   1.876   4.036  10.594 -2.5177  0.9558  0.6154
  210MPD1     N 3251   1.618   3.697  10.486  0.7900  0.1133 -0.1458
  210MPD1    H5 3252   1.605   3.734  10.392  1.6433  0.9019  0.0411
  210MPD1    N1 3253   1.817   3.715  10.931 -0.6985  0.1464  0.1208
  210MPD1    H6 3254   1.744   3.734  10.999 -0.9702 -4.4855  1.0971
  210MPD1    H7 3255   1.904   3.748  10.972 -1.0060  1.1012  0.0009
  211MPD1     C 3256   3.457   3.178  15.287  0.1147 -0.4723  0.4005
  211MPD1    C1 3257   3.419   3.300  15.234 -0.2051 -0.2698 -0.3295
  211MPD1    C2 3258   3.380   3.395  15.320 -0.1996  0.5760 -0.2070
  211MPD1    C3 3259   3.346   3.365  15.451 -0.1419 -0.0719 -0.3370
  211MPD1    C4 3260   3.378   3.238  15.504 -0.0335 -0.4122 -0.7539
  211MPD1    C5 3261   3.435   3.145  15.411  0.1968  0.0817  0.2754
  211MPD1     H 3262   3.363   3.496  15.284 -3.3795  0.2225  0.3636
  211MPD1    H1 3263   3.360   3.215  15.608  2.0623 -0.9660 -0.5139
  211MPD1    H2 3264   3.506   3.100  15.230 -1.2242  0.2956 -1.8215
  211MPD1    H3 3265   3.473   3.052  15.452  1.2912  0.3079 -0.2326
  211MPD1     N 3266   3.286   3.472  15.524  0.7376 -0.4740 -0.0089
  211MPD1    H5 3267   3.272   3.560  15.475  1.6802 -1.1572 -1.5108
  211MPD1    N1 3268   3.438   3.340  15.105  0.5851 -1.0460 -0.0101
  211MPD1    H6 3269   3.365   3.403  15.073  0.0011 -0.8659  1.7039
  211MPD1    H7 3270   3.440   3.253  15.051  1.4789  1.1746 -3.5773
  212MPD1     C 3271   2.794   1.946  16.452 -0.2812  0.1981  0.9516
  212MPD1    C1 3272   2.673   1.978  16.503  0.2900  0.4357  0.4420
  212MPD1    C2 3273   2.578   1.877  16.523 -0.6596 -0.0961  0.7096
  212MPD1    C3 3274   2.606   1.746  16.494  0.3773  0.5418 -0.3097
  212MPD1    C4 3275   2.729   1.713  16.449 -0.3133 -0.7213  0.0580
  212MPD1    C5 3276   2.824   1.815  16.422  0.2437 -0.4111  0.5323
  212MPD1     H 3277   2.481   1.907  16.561 -0.3462  1.2362  0.4829
  212MPD1    H1 3278   2.745   1.611  16.418  2.3199 -0.6970  1.2623
  212MPD1    H2 3279   2.868   2.024  16.437  0.4867 -0.4981  1.0586
  212MPD1    H3 3280   2.915   1.785  16.371 -0.7729 -2.1880 -0.2121
  212MPD1     N 3281   2.519   1.639  16.536 -0.4173 -0.3438  0.0061
  212MPD1    H5 3282   2.553   1.546  16.517  1.5650  0.3205  0.2400
  212MPD1    N1 3283   2.640   2.113  16.528 -0.1787  0.8316 -0.1235
  212MPD1    H6 3284   2.564   2.120  16.595  0.4091  0.4951  0.5655
  212MPD1    H7 3285   2.716   2.180  16.541  0.5487  0.1181 -0.6548
  213MPD1     C 3286   1.066   2.784  15.551  0.4863  0.3813 -1.1577
  213MPD1    C1 3287   0.986   2.673  15.566 -0.2444  0.0917  0.0350
  213MPD1    C2 3288   0.925   2.640  15.442  0.1051  0.1247  0.4129
  213MPD1    C3 3289   0.906   2.724  15.335  0.4326 -0.4935 -0.6638
  213MPD1    C4 3290   0.977   2.847  15.339  0.1439  0.2869 -0.1884
  213MPD1    C5 3291   1.056   2.871  15.447  0.3603 -0.5269  0.5555
  213MPD1     H 3292   0.859   2.554  15.450  1.3653 -0.6743  2.2477
  213MPD1    H1 3293   0.986   2.924  15.264 -0.8799  3.2835  2.7600
  213MPD1    H2 3294   1.132   2.811  15.633  1.2423 -0.5565 -1.4460
  213MPD1    H3 3295   1.116   2.961  15.458  0.9206 -0.6379 -1.5863
  213MPD1     N 3296   0.827   2.676  15.230 -0.2596  0.2503  0.0989
  213MPD1    H5 3297   0.808   2.577  15.223 -0.7787  0.2317  1.7749
  213MPD1    N1 3298   1.037   2.575  15.656  0.2272 -0.1977 -0.3236
  213MPD1    H6 3299   1.060   2.615  15.747 -0.4426 -2.0553  0.6545
  213MPD1    H7 3300   0.967   2.502  15.667 -1.0072  1.0960  0.5122
  214MPD1     C 3301   0.081   2.053  14.925 -0.2546 -0.0046 -0.3086
  214MPD1    C1 3302   0.212   2.036  14.964  0.2183  0.2683 -0.6370
  214MPD1    C2 3303   0.288   2.153  14.984  0.1667  0.2059 -0.9567
  214MPD1    C3 3304   0.234   2.280  14.979  0.5033 -0.1230 -0.1384
  214MPD1    C4 3305   0.097   2.294  14.958 -0.6097  0.7890 -0.5114
  214MPD1    C5 3306   0.028   2.177  14.926 -0.2937  0.0653 -0.2475
  214MPD1     H 3307   0.393   2.139  15.009  0.3024 -0.3096 -1.8158
  214MPD1    H1 3308   0.050   2.391  14.969 -1.4181  0.1347  1.7670
  214MPD1    H2 3309   0.021   1.969  14.892  0.2057 -0.4853  0.0719
  214MPD1    H3 3310   4.656   2.185  14.915 -0.2897  1.1200  0.5466
  214MPD1     N 3311   0.313   2.403  14.984 -0.1893  0.2553  0.1452
  214MPD1    H5 3312   0.262   2.490  14.979  0.0545  0.3128 -1.3566
  214MPD1    N1 3313   0.261   1.903  14.973 -0.0049  0.7885 -0.1066
  214MPD1    H6 3314   0.340   1.881  15.033 -1.8394  1.1433  2.4539
  214MPD1    H7 3315   0.191   1.847  15.021  1.3838  0.8335  1.9778
  215MPD1     C 3316   1.030   3.416  10.604 -0.1710  0.3856  0.0717
  215MPD1    C1 3317   1.105   3.415  10.720 -1.0256 -0.3150 -0.1834
  215MPD1    C2 3318   1.192   3.520  10.749 -0.0873  0.1958 -0.3906
  215MPD1    C3 3319   1.205   3.627  10.663 -0.2446  0.4575 -0.0697
  215MPD1    C4 3320   1.134   3.629  10.546  0.5942  0.6895 -0.1841
  215MPD1    C5 3321   1.047   3.523  10.521 -0.2530 -0.4660 -0.4283
  215MPD1     H 3322   1.260   3.515  10.832 -1.2144  1.2811  0.6031
  215MPD1    H1 3323   1.133   3.704  10.468 -0.9492 -1.0998 -1.8966
  215MPD1    H2 3324   0.989   3.321  10.572  0.7266  0.3359 -0.9178
  215MPD1    H3 3325   0.999   3.518  10.423 -1.3311  0.8127  0.0319
  215MPD1     N 3326   1.306   3.730  10.694  0.4613 -0.0025 -0.1704
  215MPD1    H5 3327   1.367   3.718  10.775 -0.7829 -0.3849  0.7098
  215MPD1    N1 3328   1.123   3.297  10.791 -0.3821 -0.0217 -0.4885
  215MPD1    H6 3329   1.042   3.236  10.786 -0.7363  0.2274  2.2376
  215MPD1    H7 3330   1.160   3.317  10.884  1.3146  1.3156 -1.4391
  216MPD1     C 3331   2.693   0.589  15.952 -0.4499 -0.0782 -0.0349
  216MPD1    C1 3332   2.564   0.549  15.984  0.3485  0.1414 -0.4672
  216MPD1    C2 3333   2.531   0.497  16.109  0.3517 -0.8748  0.4727
  216MPD1    C3 3334   2.633   0.465  16.194 -0.3205  0.1244  0.5822
  216MPD1    C4 3335   2.765   0.499  16.163 -0.6166 -0.1323 -0.4948
  216MPD1    C5 3336   2.795   0.556  16.043 -0.6085 -0.2469  0.2152
  216MPD1     H 3337   2.427   0.479  16.130 -0.0287  0.3089 -0.3936
  216MPD1    H1 3338   2.855   0.497  16.223 -1.5144  2.3661  0.9200
  216MPD1    H2 3339   2.718   0.644  15.863  3.3833 -0.7233  0.6406
  216MPD1    H3 3340   2.899   0.568  16.014 -0.7394  2.3463  0.8111
  216MPD1     N 3341   2.584   0.416  16.317 -0.0312  0.4356 -0.3567
  216MPD1    H5 3342   2.484   0.401  16.325  0.4018 -1.5938  1.3072
  216MPD1    N1 3343   2.462   0.582  15.891 -0.8767  0.2263  0.3725
  216MPD1    H6 3344   2.385   0.516  15.889 -1.3659  0.7093  3.1165
  216MPD1    H7 3345   2.506   0.595  15.799 -0.3477  1.6419  0.8314
  217MPD1     C 3346   3.331   4.100   8.712  0.2337  1.2698 -0.0966
  217MPD1    C1 3347   3.378   4.006   8.624  0.6514  0.5119  0.3197
  217MPD1    C2 3348   3.360   3.873   8.663  0.3286  1.2281  0.4795
  217MPD1    C3 3349   3.309   3.830   8.785  0.6259  0.1971  0.2909
  217MPD1    C4 3350   3.276   3.932   8.872  0.1731  0.1979  0.1010
  217MPD1    C5 3351   3.284   4.063   8.839 -0.1549 -0.3216 -0.1131
  217MPD1     H 3352   3.398   3.794   8.599  0.2692  1.9432 -0.4261
  217MPD1    H1 3353   3.250   3.912   8.975 -3.5435 -1.7068 -1.1975
  217MPD1    H2 3354   3.327   4.205   8.686  0.6245  0.5733 -2.9824
  217MPD1    H3 3355   3.255   4.135   8.914 -1.5484 -1.9861  0.9270
  217MPD1     N 3356   3.316   3.703   8.841  0.1873  0.5312 -0.5438
  217MPD1    H5 3357   3.282   3.689   8.935  1.8725  3.3362  0.4772
  217MPD1    N1 3358   3.414   4.040   8.496 -0.0265 -0.1107 -0.0095
  217MPD1    H6 3359   3.461   4.131   8.495 -0.3804  0.0920  1.6254
  217MPD1    H7 3360   3.473   3.964   8.463 -1.2309 -1.4338  0.9050
  218MPD1     C 3361   1.223   3.781  12.927 -0.3428 -0.1960  0.2330
  218MPD1    C1 3362   1.123   3.692  12.892  0.3444  0.0773 -0.8157
  218MPD1    C2 3363   1.117   3.655  12.759  0.1370 -0.0630 -0.1428
  218MPD1    C3 3364   1.198   3.703  12.654 -0.1236  0.2471  0.4962
  218MPD1    C4 3365   1.300   3.790  12.694 -0.1276  0.3470  0.0659
  218MPD1    C5 3366   1.305   3.827  12.827 -0.1571 -0.2167  0.2727
  218MPD1     H 3367   1.036   3.591  12.724 -0.3312  1.0833 -1.1621
  218MPD1    H1 3368   1.371   3.826  12.620  0.1321 -4.2311 -1.9326
  218MPD1    H2 3369   1.223   3.819  13.028  0.2022 -0.1117  0.2026
  218MPD1    H3 3370   1.376   3.905  12.852 -0.0758 -1.0115  2.4357
  218MPD1     N 3371   1.174   3.658  12.522 -0.2617  0.4931 -0.5533
  218MPD1    H5 3372   1.107   3.584  12.504 -1.7665  1.4370  1.1213
  218MPD1    N1 3373   1.022   3.665  12.983 -0.3095  0.0119 -0.1728
  218MPD1    H6 3374   1.047   3.682  13.080  1.3392 -0.2035 -0.5557
  218MPD1    H7 3375   1.005   3.565  12.975  1.2635 -0.3068  0.5104
  219MPD1     C 3376   0.814   3.590  11.590  0.2919 -0.7464 -0.0986
  219MPD1    C1 3377   0.885   3.705  11.629 -0.6907  0.2018  0.6982
  219MPD1    C2 3378   0.969   3.689  11.731 -0.6922  0.2699 -0.4167
  219MPD1    C3 3379   0.986   3.565  11.793  0.6860 -0.1637 -0.5534
  219MPD1    C4 3380   0.926   3.459  11.740  0.1238 -0.3640  0.4564
  219MPD1    C5 3381   0.840   3.471  11.636 -0.4053 -0.5643 -0.2352
  219MPD1     H 3382   1.026   3.775  11.764  1.5020 -0.4000 -2.4707
  219MPD1    H1 3383   0.941   3.363  11.788 -0.6067  0.5900  2.5604
  219MPD1    H2 3384   0.745   3.595  11.506  0.2913  1.8647  0.0815
  219MPD1    H3 3385   0.776   3.388  11.606 -0.0649 -0.4372 -1.3276
  219MPD1     N 3386   1.072   3.543  11.900  0.7942  0.5921  0.0546
  219MPD1    H5 3387   1.052   3.453  11.941 -0.7582  0.5376 -0.8483
  219MPD1    N1 3388   0.861   3.831  11.581  0.0053  0.1567 -0.1409
  219MPD1    H6 3389   0.838   3.827  11.482 -0.7389 -1.0014  0.0777
  219MPD1    H7 3390   0.940   3.892  11.598  0.2457 -0.0871 -0.3799
  220MPD1     C 3391   1.039   0.135   9.168  0.4824  0.2372  0.6641
  220MPD1    C1 3392   0.990   0.008   9.174  0.1700  0.3909 -0.1547
  220MPD1    C2 3393   1.017   4.669   9.291 -0.3004  0.0421  0.1495
  220MPD1    C3 3394   1.098   4.721   9.392 -0.5776  0.2006  1.4567
  220MPD1    C4 3395   1.153   0.108   9.378 -0.5716 -0.0441  0.1138
  220MPD1    C5 3396   1.123   0.180   9.265 -0.0822  0.0402 -0.2369
  220MPD1     H 3397   0.971   4.571   9.295 -0.8376  0.2869  0.0061
  220MPD1    H1 3398   1.229   0.154   9.442 -0.3685 -1.1239  0.6426
  220MPD1    H2 3399   1.029   0.208   9.088 -0.7700 -0.0804  0.5379
  220MPD1    H3 3400   1.167   0.278   9.256  1.7825 -0.8977 -1.3726
  220MPD1     N 3401   1.119   4.644   9.513  0.0834 -0.6869  0.9353
  220MPD1    H5 3402   1.082   4.550   9.510 -1.6191 -0.0441  1.6518
  220MPD1    N1 3403   0.888   4.708   9.083 -0.1768 -0.2421  0.3673
  220MPD1    H6 3404   0.853   4.613   9.091 -2.0677  0.4175 -0.0259
  220MPD1    H7 3405   0.924   4.727   8.990 -0.8338 -1.3816 -0.1268
  221MPD1     C 3406   3.924   2.165  16.728 -0.8137 -0.6344 -0.0838
  221MPD1    C1 3407   3.966   2.153  16.596  0.2854  0.8042  1.0863
  221MPD1    C2 3408   3.874   2.200  16.513 -0.3358 -0.2072 -0.0304
  221MPD1    C3 3409   3.740   2.234  16.545 -0.3336 -0.9089 -0.4869
  221MPD1    C4 3410   3.710   2.241  16.678  0.1019  0.7297  0.6240
  221MPD1    C5 3411   3.799   2.195  16.770 -0.5736 -0.3030 -0.3170
  221MPD1     H 3412   3.899   2.198  16.408  0.0080  0.8295  0.0282
  221MPD1    H1 3413   3.618   2.284  16.717  0.0631  2.3023 -1.1709
  221MPD1    H2 3414   3.995   2.146  16.808 -1.3111 -2.0176  0.0359
  221MPD1    H3 3415   3.781   2.201  16.877 -0.2977 -1.1337 -0.2303
  221MPD1     N 3416   3.653   2.265  16.447 -0.2180 -0.4482  0.1017
  221MPD1    H5 3417   3.687   2.261  16.352 -0.4498 -2.8302  0.1015
  221MPD1    N1 3418   4.100   2.114  16.564  0.5495  0.0566  0.8859
  221MPD1    H6 3419   4.109   2.078  16.470 -0.7317  1.5663  0.1806
  221MPD1    H7 3420   4.119   2.028  16.615 -1.3411 -1.7466 -1.4697
  222MPD1     C 3421   1.471   2.138   1.747 -0.2833  0.0311  0.4812
  222MPD1    C1 3422   1.453   2.196   1.628 -0.3598  0.0459 -0.1936
  222MPD1    C2 3423   1.551   2.187   1.534  0.0062 -0.3430  0.4463
  222MPD1    C3 3424   1.667   2.115   1.541 -0.0784 -0.2585 -0.2179
  222MPD1    C4 3425   1.685   2.046   1.665  0.2637 -0.3614 -0.3577
  222MPD1    C5 3426   1.586   2.065   1.759 -0.2047  0.2656  0.4965
  222MPD1     H 3427   1.535   2.232   1.437  1.3092 -2.3588 -0.6928
  222MPD1    H1 3428   1.760   1.968   1.668  0.3826 -0.3273 -2.4012
  222MPD1    H2 3429   1.397   2.149   1.825 -1.1939  0.8595 -0.5071
  222MPD1    H3 3430   1.589   2.020   1.858  0.2425  1.2151  0.9106
  222MPD1     N 3431   1.769   2.108   1.445  0.2376  0.0804 -0.1121
  222MPD1    H5 3432   1.842   2.040   1.459 -2.4965 -2.6419  0.8259
  222MPD1    N1 3433   1.339   2.269   1.599  0.0769  0.7909 -0.1493
  222MPD1    H6 3434   1.330   2.270   1.498 -0.7906  0.5342 -0.0747
  222MPD1    H7 3435   1.251   2.246   1.645  0.6386 -0.8876  0.0653
  223MPD1     C 3436   2.430   1.517   1.152 -0.1839  0.0822 -0.5679
  223MPD1    C1 3437   2.442   1.599   1.042  0.0293 -0.6383 -0.4430
  223MPD1    C2 3438   2.400   1.730   1.059 -0.5179 -0.0027 -0.5590
  223MPD1    C3 3439   2.325   1.763   1.166 -0.0894  0.3004 -0.3220
  223MPD1    C4 3440   2.302   1.672   1.269  1.3571 -0.1962  0.4259
  223MPD1    C5 3441   2.363   1.551   1.269  0.3355  0.2027  0.3528
  223MPD1     H 3442   2.421   1.804   0.983 -0.0128  0.0889 -0.3298
  223MPD1    H1 3443   2.253   1.698   1.362  0.0891 -2.5640  0.4412
  223MPD1    H2 3444   2.470   1.416   1.154  1.2826  0.6574 -0.2239
  223MPD1    H3 3445   2.365   1.480   1.351 -0.3858 -0.5579 -0.2882
  223MPD1     N 3446   2.254   1.885   1.166  0.4221 -0.5575 -0.0512
  223MPD1    H5 3447   2.240   1.924   1.074  1.0896 -3.8667 -1.5705
  223MPD1    N1 3448   2.523   1.554   0.937  0.2007  0.4909 -0.0519
  223MPD1    H6 3449   2.510   1.454   0.923 -1.6603  0.4043  2.1615
  223MPD1    H7 3450   2.492   1.598   0.851 -3.6566  0.5275  1.3429
  224MPD1     C 3451   3.558   3.859   8.132  0.0183 -0.4936 -0.4319
  224MPD1    C1 3452   3.543   3.726   8.162 -0.2176  0.2686 -0.3041
  224MPD1    C2 3453   3.600   3.674   8.271  0.0825  0.4445 -0.0563
  224MPD1    C3 3454   3.650   3.759   8.371  0.3270 -0.1652 -0.3735
  224MPD1    C4 3455   3.656   3.896   8.348 -0.3076 -0.6706 -0.8113
  224MPD1    C5 3456   3.621   3.939   8.226  0.2118 -0.8362 -0.2086
  224MPD1     H 3457   3.608   3.567   8.283  0.0117  0.3921 -0.4817
  224MPD1    H1 3458   3.705   3.952   8.427 -0.4739 -2.4123  0.5076
  224MPD1    H2 3459   3.519   3.905   8.042  1.3072  2.2444  0.4022
  224MPD1    H3 3460   3.625   4.045   8.204 -0.5159 -0.4996  1.2998
  224MPD1     N 3461   3.702   3.716   8.496 -0.4943 -1.0399  0.4090
  224MPD1    H5 3462   3.714   3.782   8.573  0.9783  1.1849 -1.7125
  224MPD1    N1 3463   3.489   3.642   8.068 -0.1528 -0.0297 -0.0959
  224MPD1    H6 3464   3.431   3.688   7.998  1.7576 -0.8300 -2.1796
  224MPD1    H7 3465   3.425   3.577   8.113  0.5097 -0.2759  0.4980
  225MPD1     C 3466   1.230   0.050  11.929 -0.4371  0.4212 -0.1655
  225MPD1    C1 3467   1.186   4.704  11.829 -0.0434  0.3935 -0.0075
  225MPD1    C2 3468   1.057   4.658  11.831  0.1526  0.6649  0.0545
  225MPD1    C3 3469   0.963   4.711  11.919 -1.0435  0.0166 -0.1180
  225MPD1    C4 3470   1.003   0.071  12.005 -0.6112  0.0408  0.1249
  225MPD1    C5 3471   1.136   0.102  12.011 -0.4040 -0.1660  0.4509
  225MPD1     H 3472   1.037   4.583  11.755  1.5269 -0.3248  0.6714
  225MPD1    H1 3473   0.923   0.122  12.058 -1.0353 -0.3538 -0.1288
  225MPD1    H2 3474   1.329   0.079  11.961 -0.7773 -0.1111  1.3516
  225MPD1    H3 3475   1.158   0.164  12.097  2.3562 -1.2943  0.5355
  225MPD1     N 3476   0.822   4.671  11.921  0.5542 -0.2677  0.0703
  225MPD1    H5 3477   0.767   4.698  12.001 -0.2277  0.6155 -0.7632
  225MPD1    N1 3478   1.286   4.627  11.764  0.0108  0.2616  0.1108
  225MPD1    H6 3479   1.376   4.674  11.759  0.8106 -1.1791  0.8752
  225MPD1    H7 3480   1.261   4.606  11.668  0.0281 -0.4728  0.2654
  226MPD1     C 3481   3.965   3.844   9.804 -1.0796  0.5872  0.4025
  226MPD1    C1 3482   3.985   3.979   9.797 -0.2947  0.4986 -0.1174
  226MPD1    C2 3483   3.989   4.039   9.673 -0.0739 -0.9387  0.1246
  226MPD1    C3 3484   3.977   3.963   9.554  0.0118  0.0378 -0.4564
  226MPD1    C4 3485   3.952   3.830   9.572  0.0059  0.1765 -0.0717
  226MPD1    C5 3486   3.950   3.772   9.690  0.0830  0.0657 -0.2092
  226MPD1     H 3487   4.008   4.142   9.647  1.3512 -1.0905  0.5684
  226MPD1    H1 3488   3.933   3.759   9.492 -3.0678 -0.3102  1.0804
  226MPD1    H2 3489   3.962   3.793   9.899 -0.0673  0.6547  0.4691
  226MPD1    H3 3490   3.923   3.669   9.709  0.9194  0.1029  1.2227
  226MPD1     N 3491   3.980   4.022   9.424  0.0448  0.3515  0.6362
  226MPD1    H5 3492   4.007   4.120   9.414  1.7139 -0.2292 -0.5585
  226MPD1    N1 3493   4.031   4.045   9.917  0.6577 -0.5161 -0.5024
  226MPD1    H6 3494   4.029   4.147   9.906  0.1377 -0.5242 -0.4568
  226MPD1    H7 3495   3.996   4.001  10.001  0.9786  1.3135  0.5838
  227MPD1     C 3496   3.976   0.109   9.344  0.6600  0.4559  0.1680
  227MPD1    C1 3497   3.997   0.009   9.438 -0.5422  0.2626 -0.5766
  227MPD1    C2 3498   4.008   4.613   9.385  0.1784  0.5616 -0.3657
  227MPD1    C3 3499   3.995   4.578   9.252 -0.6832  0.1301  0.2815
  227MPD1    C4 3500   3.958   4.685   9.164  0.0209 -0.5979  1.2158
  227MPD1    C5 3501   3.956   0.078   9.212  0.5266  0.0189  0.6068
  227MPD1     H 3502   4.011   4.525   9.449 -1.4413  1.4761  0.9522
  227MPD1    H1 3503   3.944   4.664   9.058 -1.0015  1.0223  1.0176
  227MPD1    H2 3504   3.968   0.212   9.376 -0.0095 -0.3865  2.7153
  227MPD1    H3 3505   3.937   0.166   9.151  0.7033  1.6520  2.8690
  227MPD1     N 3506   3.999   4.443   9.221  0.0014 -0.1076 -0.2551
  227MPD1    H5 3507   4.030   4.389   9.302 -0.3667 -2.3026 -1.5792
  227MPD1    N1 3508   4.012   0.033   9.578  0.2443  0.4058  0.9069
  227MPD1    H6 3509   3.994   4.692   9.642 -3.0970 -0.0279 -0.5392
  227MPD1    H7 3510   3.961   0.115   9.608 -0.1222 -0.6190  3.0440
  228MPD1     C 3511   2.351   2.255  12.902 -0.0121  0.4514  0.1114
  228MPD1    C1 3512   2.277   2.354  12.849  0.4205  0.0137 -0.2585
  228MPD1    C2 3513   2.134   2.331  12.853  0.5986  0.4040  0.0132
  228MPD1    C3 3514   2.074   2.223  12.919 -0.3579  0.3976  0.1674
  228MPD1    C4 3515   2.158   2.127  12.970  0.0933 -0.2416  0.3931
  228MPD1    C5 3516   2.294   2.142  12.948 -0.3224  0.0787  0.7711
  228MPD1     H 3517   2.080   2.401  12.790 -1.3624 -0.8374  0.2924
  228MPD1    H1 3518   2.129   2.035  13.021  2.0796 -1.0926  0.0011
  228MPD1    H2 3519   2.458   2.264  12.890 -0.0692  0.2007 -0.5578
  228MPD1    H3 3520   2.367   2.075  12.991 -1.6389 -0.7774  1.7010
  228MPD1     N 3521   1.929   2.214  12.931 -0.5193 -0.1891  0.5327
  228MPD1    H5 3522   1.876   2.289  12.888  0.3241  0.2631  0.2745
  228MPD1    N1 3523   2.334   2.454  12.772 -0.1073  0.1744  0.4736
  228MPD1    H6 3524   2.275   2.528  12.736 -0.1950 -1.6967 -3.2353
  228MPD1    H7 3525   2.425   2.484  12.806 -0.5283  1.5129  0.4268
  229MPD1     C 3526   1.554   1.093  13.763  0.1486 -0.3930  0.5575
  229MPD1    C1 3527   1.530   0.993  13.864 -0.2979  0.3949 -0.3659
  229MPD1    C2 3528   1.640   0.941  13.932 -0.3080  0.3751  0.3543
  229MPD1    C3 3529   1.771   0.990  13.910 -0.0770  0.6812  0.5732
  229MPD1    C4 3530   1.787   1.080  13.805  0.4721  0.1078 -0.5226
  229MPD1    C5 3531   1.680   1.140  13.739 -0.1563 -0.6063  0.6835
  229MPD1     H 3532   1.619   0.872  14.013 -1.2484 -0.4020 -0.5531
  229MPD1    H1 3533   1.889   1.099  13.774  0.6249  1.9368  1.0647
  229MPD1    H2 3534   1.474   1.139  13.706  0.2689 -0.2827  0.4777
  229MPD1    H3 3535   1.695   1.208  13.656 -1.4793  0.6169  1.4592
  229MPD1     N 3536   1.883   0.949  13.990 -0.2590 -0.0187 -0.3313
  229MPD1    H5 3537   1.973   0.976  13.951  0.8080 -2.7269  0.2038
  229MPD1    N1 3538   1.399   0.961  13.889  0.3496 -0.2250 -0.0860
  229MPD1    H6 3539   1.342   0.978  13.806 -0.5593 -0.6223  0.4538
  229MPD1    H7 3540   1.389   0.868  13.930  1.5085 -0.3548 -0.0884
  230MPD1     C 3541   2.735   1.072  14.475 -0.2141 -0.3072 -0.3504
  230MPD1    C1 3542   2.645   1.038  14.568 -1.0035 -0.0615 -0.4621
  230MPD1    C2 3543   2.525   0.987  14.526  0.1451  0.1805 -0.2709
  230MPD1    C3 3544   2.499   0.983  14.388  0.0344  0.8317 -0.0906
  230MPD1    C4 3545   2.594   1.005  14.293 -0.6082  0.2346  0.1031
  230MPD1    C5 3546   2.715   1.056  14.338  0.6140 -0.1131 -0.1004
  230MPD1     H 3547   2.440   0.956  14.585  0.4548 -1.2215 -0.5582
  230MPD1    H1 3548   2.575   0.997  14.186 -0.0273  1.3174 -0.0862
  230MPD1    H2 3549   2.836   1.106  14.498  0.1761 -1.4531 -0.3629
  230MPD1    H3 3550   2.793   1.077  14.265  1.3392 -1.3670  0.3115
  230MPD1     N 3551   2.377   0.929  14.355 -0.0727 -0.4330  0.3674
  230MPD1    H5 3552   2.319   0.882  14.423 -0.3857  1.2764  1.2888
  230MPD1    N1 3553   2.678   1.049  14.701  0.1755 -0.0998  0.2174
  230MPD1    H6 3554   2.599   1.026  14.761 -1.2923  4.2874  0.0093
  230MPD1    H7 3555   2.714   1.143  14.720  0.6104 -0.0257 -1.0283
  231MPD1     C 3556   0.264   2.720  15.310 -0.5960 -0.2452 -0.0471
  231MPD1    C1 3557   0.313   2.844  15.277  0.0357  0.0563  0.1905
  231MPD1    C2 3558   0.316   2.885  15.143  0.9750 -0.6745  0.1308
  231MPD1    C3 3559   0.241   2.823  15.044 -0.4029  0.4006 -0.1176
  231MPD1    C4 3560   0.165   2.719  15.091  1.0420 -0.2199 -0.0066
  231MPD1    C5 3561   0.186   2.665  15.209  0.1517  0.1229  0.1700
  231MPD1     H 3562   0.370   2.977  15.123 -2.6962  1.5867  0.7073
  231MPD1    H1 3563   0.108   2.652  15.028  2.4216 -1.9312  0.5796
  231MPD1    H2 3564   0.272   2.662  15.401  1.2454 -0.3981 -0.2984
  231MPD1    H3 3565   0.134   2.571  15.224  0.0343  0.1712  0.0644
  231MPD1     N 3566   0.256   2.859  14.913  0.3323  0.3096 -0.1368
  231MPD1    H5 3567   0.306   2.947  14.903  1.2707 -0.2350 -0.2834
  231MPD1    N1 3568   0.400   2.911  15.360 -0.2598 -0.4529 -0.1845
  231MPD1    H6 3569   0.384   3.011  15.357 -0.6534 -0.5519 -1.3270
  231MPD1    H7 3570   0.362   2.885  15.451 -1.8608 -0.3907 -0.8320
  232MPD1     C 3571   1.906   4.518  17.315 -0.4824 -0.2388  0.5188
  232MPD1    C1 3572   1.848   4.446  17.423 -0.3515 -0.1645  0.3773
  232MPD1    C2 3573   1.714   4.469  17.447 -0.0872  0.2933 -0.4363
  232MPD1    C3 3574   1.643   4.569  17.374 -0.3802  0.9339 -0.5235
  232MPD1    C4 3575   1.709   4.642  17.277  0.4214 -0.2790 -0.0566
  232MPD1    C5 3576   1.830   4.606  17.246  0.0080 -0.1784  0.2637
  232MPD1     H 3577   1.655   4.415  17.521  1.6615 -0.4658  0.3914
  232MPD1    H1 3578   1.663   4.721  17.219 -2.2017 -1.3384  0.5853
  232MPD1    H2 3579   1.996   4.491  17.261 -1.2446  1.3564 -1.5656
  232MPD1    H3 3580   1.883   4.648  17.161  1.5301 -1.3111  0.6583
  232MPD1     N 3581   1.510   4.594  17.413 -0.8211 -0.7193 -0.1304
  232MPD1    H5 3582   1.482   4.551  17.500  0.6324 -1.6525 -0.1365
  232MPD1    N1 3583   1.899   4.324  17.467  0.3066  0.4065  0.1543
  232MPD1    H6 3584   1.997   4.303  17.448  0.1330  0.2655 -0.5814
  232MPD1    H7 3585   1.872   4.288  17.559  0.9634  3.2036  1.4461
  233MPD1     C 3586   0.642   3.303   1.014  0.3137  0.3069  0.1184
  233MPD1    C1 3587   0.656   3.194   0.933  0.1062  0.8046  0.6548
  233MPD1    C2 3588   0.552   3.102   0.926 -0.7931 -0.1136  0.6253
  233MPD1    C3 3589   0.425   3.132   0.979  0.1797 -0.4473 -0.8080
  233MPD1    C4 3590   0.416   3.249   1.048  0.3145  0.0891  0.9238
  233MPD1    C5 3591   0.517   3.339   1.058  0.5762  0.2683 -0.2727
  233MPD1     H 3592   0.558   3.013   0.865  0.3405 -0.3362  1.0643
  233MPD1    H1 3593   0.329   3.277   1.107  0.1869  1.6368  0.0054
  233MPD1    H2 3594   0.727   3.369   1.027  1.8954 -1.3725 -1.5895
  233MPD1    H3 3595   0.507   3.422   1.127 -0.5609  0.3686 -0.5509
  233MPD1     N 3596   0.315   3.045   0.978 -0.2102  0.3240 -0.0014
  233MPD1    H5 3597   0.232   3.068   1.032 -0.9801  2.7864 -2.2134
  233MPD1    N1 3598   0.785   3.152   0.894 -0.8083 -0.0992  0.1697
  233MPD1    H6 3599   0.836   3.230   0.852 -0.2230  0.4482  1.8897
  233MPD1    H7 3600   0.791   3.076   0.827  1.0529 -1.0354  1.3948
  234MPD1     C 3601   4.442   1.879   8.864  0.5799  0.8433  0.0024
  234MPD1    C1 3602   4.473   1.981   8.949  0.2413 -0.0275  0.7076
  234MPD1    C2 3603   4.393   2.094   8.940 -0.8412  0.6422 -0.4214
  234MPD1    C3 3604   4.305   2.126   8.841  0.1675 -0.2748 -0.4099
  234MPD1    C4 3605   4.290   2.030   8.741  0.4598 -0.2803 -0.6077
  234MPD1    C5 3606   4.350   1.904   8.764 -0.0564 -0.3780  0.1286
  234MPD1     H 3607   4.397   2.174   9.014 -0.3651 -1.3869  1.7689
  234MPD1    H1 3608   4.212   2.035   8.666 -0.4231  0.6302  0.3809
  234MPD1    H2 3609   4.489   1.782   8.857 -0.2254  0.4306  0.2918
  234MPD1    H3 3610   4.339   1.822   8.695  1.0552  0.5045 -1.0995
  234MPD1     N 3611   4.238   2.250   8.842 -0.3038  0.5642  0.8157
  234MPD1    H5 3612   4.250   2.317   8.918  0.9826  1.3163 -0.0581
  234MPD1    N1 3613   4.573   1.959   9.044 -0.6216 -0.1344  0.1052
  234MPD1    H6 3614   4.645   1.901   9.003 -1.0123  0.2582 -1.1335
  234MPD1    H7 3615   4.613   2.051   9.064  0.8703 -1.0099  1.1368
  235MPD1     C 3616   1.385   0.184  11.461 -0.2562 -0.2775  0.4458
  235MPD1    C1 3617   1.452   0.102  11.366 -0.0188  0.0062 -0.2845
  235MPD1    C2 3618   1.498   0.162  11.254  0.1404 -0.2103  0.5421
  235MPD1    C3 3619   1.491   0.296  11.227 -0.7328 -0.1829  0.1107
  235MPD1    C4 3620   1.417   0.374  11.322 -0.0248  0.2032 -0.4326
  235MPD1    C5 3621   1.364   0.317  11.437  0.1018  0.5421 -0.0305
  235MPD1     H 3622   1.561   0.113  11.181  0.2054  1.7369 -0.7076
  235MPD1    H1 3623   1.398   0.480  11.313  1.1535  0.3938 -0.6695
  235MPD1    H2 3624   1.340   0.135  11.547 -2.3907 -0.2801 -0.6622
  235MPD1    H3 3625   1.322   0.383  11.512 -1.5066 -0.6993  0.1827
  235MPD1     N 3626   1.556   0.348  11.114 -0.3063  0.5539  0.0493
  235MPD1    H5 3627   1.605   0.274  11.064  0.8182  0.0333  1.9287
  235MPD1    N1 3628   1.465   4.698  11.388  0.5964  0.4309  0.1220
  235MPD1    H6 3629   1.493   4.654  11.300  0.1642 -1.3514  0.8708
  235MPD1    H7 3630   1.373   4.663  11.417  1.4161 -1.6090  0.2306
  236MPD1     C 3631   0.370   1.090   9.143  0.5606  0.2124 -0.1490
  236MPD1    C1 3632   0.416   1.210   9.193 -0.1770 -0.3220 -0.0308
  236MPD1    C2 3633   0.535   1.205   9.269  0.2300  0.4820 -0.5023
  236MPD1    C3 3634   0.593   1.090   9.307  1.1804 -0.4718 -0.1519
  236MPD1    C4 3635   0.542   0.972   9.253 -0.2659 -0.6607  0.5658
  236MPD1    C5 3636   0.434   0.974   9.169  0.2038 -0.6397 -0.7857
  236MPD1     H 3637   0.565   1.302   9.308  0.4438  0.0400  0.4158
  236MPD1    H1 3638   0.575   0.874   9.285 -0.9596 -0.9635  0.3634
  236MPD1    H2 3639   0.282   1.084   9.080  0.0010  1.0282  0.5443
  236MPD1    H3 3640   0.406   0.874   9.140 -1.1223 -0.6393  0.4969
  236MPD1     N 3641   0.705   1.081   9.394  0.3534 -0.3427 -0.1278
  236MPD1    H5 3642   0.743   0.988   9.410  0.1902 -0.5030 -0.6613
  236MPD1    N1 3643   0.369   1.332   9.153  0.2755 -0.1303 -0.2495
  236MPD1    H6 3644   0.398   1.408   9.216  1.7590 -0.5772 -0.3831
  236MPD1    H7 3645   0.268   1.335   9.141  0.4828  1.1932 -1.5955
  237MPD1     C 3646   0.621   4.095  14.371  0.5962 -0.1113 -0.2945
  237MPD1    C1 3647   0.639   4.022  14.485  0.3858 -0.1544 -0.2977
  237MPD1    C2 3648   0.533   3.952  14.539 -0.1838 -0.0422  0.7299
  237MPD1    C3 3649   0.416   3.938  14.468  0.4154 -0.0235 -0.6399
  237MPD1    C4 3650   0.400   4.006  14.350  1.0958 -0.5822 -0.2141
  237MPD1    C5 3651   0.500   4.086  14.304 -0.1194  0.4325 -0.2265
  237MPD1     H 3652   0.541   3.900  14.634 -0.4030  2.1757  1.9642
  237MPD1    H1 3653   0.307   3.995  14.297  1.0841 -0.0754 -0.3036
  237MPD1    H2 3654   0.700   4.151  14.323 -1.2704  2.1581 -0.7610
  237MPD1    H3 3655   0.503   4.150  14.216 -2.1764  2.4047  1.1248
  237MPD1     N 3656   0.301   3.875  14.522  0.1917  0.0647 -0.0771
  237MPD1    H5 3657   0.218   3.892  14.466 -1.1440  0.2037  1.9455
  237MPD1    N1 3658   0.762   4.017  14.553  0.3827  0.2055  0.8485
  237MPD1    H6 3659   0.762   3.952  14.631 -0.7862  0.1586  0.8056
  237MPD1    H7 3660   0.836   3.991  14.488  0.2298  1.8149  0.0300
  238MPD1     C 3661   1.954   2.556  15.279 -0.3054  0.5108  0.1402
  238MPD1    C1 3662   1.881   2.645  15.210 -0.6903  0.1610 -0.0912
  238MPD1    C2 3663   1.825   2.603  15.086 -0.4516 -0.0233 -0.3187
  238MPD1    C3 3664   1.827   2.472  15.046  0.2116 -0.3994  1.0708
  238MPD1    C4 3665   1.904   2.388  15.118 -0.7486 -0.1345  0.5379
  238MPD1    C5 3666   1.962   2.428  15.232 -0.0892 -0.4046 -0.4936
  238MPD1     H 3667   1.767   2.679  15.034 -0.7477 -0.5965 -0.8229
  238MPD1    H1 3668   1.912   2.284  15.086 -3.4188 -0.0132 -0.5093
  238MPD1    H2 3669   1.998   2.572  15.377  1.8349 -2.0816 -0.3998
  238MPD1    H3 3670   2.002   2.358  15.304  0.5404  0.5656  0.0966
  238MPD1     N 3671   1.754   2.432  14.932 -0.1536  0.6720 -0.5304
  238MPD1    H5 3672   1.741   2.332  14.920  0.7211  0.5234 -0.2855
  238MPD1    N1 3673   1.842   2.766  15.261  0.2330 -0.0362  0.5094
  238MPD1    H6 3674   1.890   2.806  15.341  0.3645 -1.0984  0.9632
  238MPD1    H7 3675   1.846   2.839  15.190  3.3046 -1.2531 -0.5770
  239MPD1     C 3676   2.471   3.541  14.262  0.3164  0.1282 -0.3768
  239MPD1    C1 3677   2.365   3.597  14.330 -0.0128 -0.4647 -0.1715
  239MPD1    C2 3678   2.248   3.622  14.263  0.2793 -0.7882  0.5272
  239MPD1    C3 3679   2.238   3.589  14.126 -0.6511  0.3065  0.7596
  239MPD1    C4 3680   2.349   3.537  14.058 -0.2647  0.0632 -0.7620
  239MPD1    C5 3681   2.462   3.510  14.125 -0.1781  0.0426  0.1007
  239MPD1     H 3682   2.168   3.680  14.310 -0.9759 -2.1897  0.1103
  239MPD1    H1 3683   2.347   3.521  13.951  1.2712 -2.9845 -0.3373
  239MPD1    H2 3684   2.564   3.515  14.311 -0.2330 -1.2179 -0.0298
  239MPD1    H3 3685   2.545   3.470  14.068 -0.9124 -0.9273 -0.2954
  239MPD1     N 3686   2.128   3.614  14.042 -0.0632  0.5668 -1.2056
  239MPD1    H5 3687   2.135   3.584  13.945  0.0214 -1.2733 -0.6379
  239MPD1    N1 3688   2.373   3.623  14.465 -0.3791  0.1215 -0.2246
  239MPD1    H6 3689   2.466   3.624  14.505  0.2141 -2.5426 -1.4882
  239MPD1    H7 3690   2.305   3.683  14.511 -1.5282 -2.0184  0.8775
  240MPD1     C 3691   1.400   3.200  13.701 -0.0611 -0.0170  0.2914
  240MPD1    C1 3692   1.268   3.178  13.720 -0.2050 -0.1892  0.1247
  240MPD1    C2 3693   1.219   3.130  13.840 -0.1644 -0.2067  0.0910
  240MPD1    C3 3694   1.309   3.075  13.935  0.6704 -0.1855  0.3181
  240MPD1    C4 3695   1.442   3.085  13.910 -0.0586 -0.0357  0.3251
  240MPD1    C5 3696   1.482   3.150  13.795  0.3025 -0.4815 -0.2455
  240MPD1     H 3697   1.114   3.126  13.865 -0.0048  1.7790  1.0645
  240MPD1    H1 3698   1.510   3.035  13.978 -0.1446  1.2435  1.3513
  240MPD1    H2 3699   1.451   3.239  13.613 -0.0441 -0.9099 -0.0883
  240MPD1    H3 3700   1.587   3.154  13.769  0.3404  1.8637  0.2683
  240MPD1     N 3701   1.255   3.014  14.051  0.1103 -0.5217 -0.1292
  240MPD1    H5 3702   1.154   3.019  14.061 -0.0029 -1.6572 -0.6902
  240MPD1    N1 3703   1.178   3.222  13.623 -0.3842  0.5310 -0.3159
  240MPD1    H6 3704   1.110   3.148  13.613  0.1041  0.0336 -0.0102
  240MPD1    H7 3705   1.220   3.233  13.531 -0.2870  1.7562 -0.1296
  241MPD1     C 3706   1.317   2.449  14.995 -0.1350  0.2998 -0.4377
  241MPD1    C1 3707   1.392   2.556  14.950  0.1418  0.1376  0.4224
  241MPD1    C2 3708   1.367   2.608  14.823 -0.2394  0.0123 -0.6252
  241MPD1    C3 3709   1.284   2.540  14.732  0.0619 -0.3338 -0.1803
  241MPD1    C4 3710   1.216   2.429  14.779  0.4355 -0.3125  0.2848
  241MPD1    C5 3711   1.235   2.384  14.904 -0.0500  0.1064 -0.1196
  241MPD1     H 3712   1.436   2.686  14.790 -1.4188  0.4422 -2.0694
  241MPD1    H1 3713   1.153   2.370  14.713  1.9853 -0.7835 -0.7550
  241MPD1    H2 3714   1.333   2.410  15.095 -0.5820  2.7252  0.5734
  241MPD1    H3 3715   1.189   2.293  14.940  0.7509 -0.2365  0.0211
  241MPD1     N 3716   1.262   2.584  14.604  0.7715  0.3626 -0.4663
  241MPD1    H5 3717   1.190   2.543  14.546 -0.8147  0.3222  1.5128
  241MPD1    N1 3718   1.475   2.624  15.041  0.0941  0.0808  0.5904
  241MPD1    H6 3719   1.505   2.563  15.117  1.3009 -0.1228 -0.0554
  241MPD1    H7 3720   1.555   2.658  14.989  1.7373 -2.9875  1.1291
  242MPD1     C 3721   0.973   0.578  15.575  0.0987  0.3285  0.2532
  242MPD1    C1 3722   0.868   0.661  15.536  0.5912  0.2480 -0.1655
  242MPD1    C2 3723   0.914   0.781  15.474 -0.2293 -0.5675  0.1046
  242MPD1    C3 3724   1.039   0.822  15.466  0.6107 -0.5762  0.3423
  242MPD1    C4 3725   1.142   0.739  15.512  0.1060 -0.6374  0.5459
  242MPD1    C5 3726   1.105   0.615  15.559 -0.1928  0.6969  0.4213
  242MPD1     H 3727   0.831   0.838  15.434  0.2443  0.0975  0.0887
  242MPD1    H1 3728   1.246   0.768  15.512  0.6091 -2.4511 -1.0950
  242MPD1    H2 3729   0.944   0.476  15.598 -1.0023 -0.3846 -4.3794
  242MPD1    H3 3730   1.187   0.549  15.586  1.9238  3.1060 -0.1731
  242MPD1     N 3731   1.067   0.949  15.415  0.2067 -0.0117 -0.3384
  242MPD1    H5 3732   1.167   0.966  15.408  0.2483  0.1987  0.6915
  242MPD1    N1 3733   0.742   0.609  15.515 -0.0157 -0.2462  0.0558
  242MPD1    H6 3734   0.677   0.688  15.519  2.1162  1.6124 -2.0712
  242MPD1    H7 3735   0.713   0.541  15.585  0.3296 -0.6017 -0.1510
  243MPD1     C 3736   2.427   4.489  17.217  0.3026 -0.5171  0.5252
  243MPD1    C1 3737   2.511   4.385  17.220  0.3247 -0.7273  0.4700
  243MPD1    C2 3738   2.557   4.330  17.096 -0.0709  1.1214 -0.0853
  243MPD1    C3 3739   2.490   4.369  16.983 -0.6448 -0.4790 -0.1803
  243MPD1    C4 3740   2.384   4.455  16.992  0.3295  0.7320 -0.3020
  243MPD1    C5 3741   2.353   4.513  17.105 -0.8471 -0.5820 -0.4754
  243MPD1     H 3742   2.638   4.259  17.082  0.0583  0.9569  1.5413
  243MPD1    H1 3743   2.314   4.470  16.910  0.0816 -0.7768 -0.3626
  243MPD1    H2 3744   2.415   4.553  17.304  0.4543 -0.9377  0.8529
  243MPD1    H3 3745   2.269   4.581  17.117  0.6929  1.2097  0.1392
  243MPD1     N 3746   2.534   4.309  16.862  0.9119 -0.2898  0.1691
  243MPD1    H5 3747   2.606   4.239  16.876  1.7320  0.7701  1.3140
  243MPD1    N1 3748   2.589   4.352  17.332 -0.4130  0.1088 -0.3898
  243MPD1    H6 3749   2.544   4.365  17.423  1.5999 -0.1049  0.6304
  243MPD1    H7 3750   2.641   4.265  17.340 -0.5434  0.0390 -0.2999
  244MPD1     C 3751   3.268   3.842  16.728  0.1663  0.3933 -0.6438
  244MPD1    C1 3752   3.249   3.960  16.794 -0.5029  0.1136  0.0530
  244MPD1    C2 3753   3.129   4.032  16.775  0.4162 -0.7115  0.5328
  244MPD1    C3 3754   3.031   3.985  16.690 -0.0759 -0.5798 -0.2365
  244MPD1    C4 3755   3.053   3.863  16.630  0.3405 -0.0419 -0.0542
  244MPD1    C5 3756   3.167   3.792  16.649 -0.2429 -0.1249  1.1856
  244MPD1     H 3757   3.109   4.119  16.836 -1.7120  0.2901 -1.5796
  244MPD1    H1 3758   2.982   3.821  16.559  0.6724  1.6214 -1.3571
  244MPD1    H2 3759   3.350   3.774  16.748  0.1333  0.2254 -1.0813
  244MPD1    H3 3760   3.179   3.698  16.596  2.1674  1.0435 -0.3297
  244MPD1     N 3761   2.913   4.066  16.671 -0.3841 -0.5711 -0.3210
  244MPD1    H5 3762   2.890   4.133  16.743  2.6463 -0.5328  0.6037
  244MPD1    N1 3763   3.340   3.993  16.901 -1.0519 -0.1068 -0.4100
  244MPD1    H6 3764   3.432   3.954  16.882 -0.9034  0.3970 -0.7330
  244MPD1    H7 3765   3.348   4.095  16.899 -2.4699  0.0418  2.4376
  245MPD1     C 3766   4.055   0.498  13.132  0.3364  0.5280 -0.1484
  245MPD1    C1 3767   4.142   0.537  13.232 -0.0896  0.6009  0.1728
  245MPD1    C2 3768   4.265   0.572  13.195  0.6391 -0.0683  0.2035
  245MPD1    C3 3769   4.312   0.583  13.065 -0.4140  0.1899 -0.1356
  245MPD1    C4 3770   4.222   0.556  12.963 -0.3839  0.1558 -0.0728
  245MPD1    C5 3771   4.094   0.514  13.000 -0.1004  0.0884  0.5217
  245MPD1     H 3772   4.334   0.585  13.277 -0.1938  0.8811  0.7502
  245MPD1    H1 3773   4.246   0.571  12.859 -0.0447 -1.0888 -0.1706
  245MPD1    H2 3774   3.958   0.453  13.147 -0.0028  1.6242  0.8981
  245MPD1    H3 3775   4.028   0.474  12.924  0.3970 -1.0882  0.7071
  245MPD1     N 3776   4.448   0.618  13.048  0.0970  0.3540  0.1313
  245MPD1    H5 3777   4.497   0.640  13.134  2.7599 -0.3165 -1.2194
  245MPD1    N1 3778   4.106   0.506  13.366 -0.0688 -0.2951 -0.1238
  245MPD1    H6 3779   4.008   0.533  13.378  0.7564  1.4956  2.6546
  245MPD1    H7 3780   4.162   0.554  13.436  1.3299 -2.0899 -0.0089
  246MPD1     C 3781   1.302   4.196   9.528 -0.1471 -0.2832 -0.5555
  246MPD1    C1 3782   1.346   4.294   9.443 -0.3456 -0.2576  0.0854
  246MPD1    C2 3783   1.394   4.403   9.513 -0.3182  0.2503  0.5805
  246MPD1    C3 3784   1.440   4.407   9.640  0.8029  0.2301  0.2666
  246MPD1    C4 3785   1.417   4.292   9.719 -0.7327 -0.9553  0.8568
  246MPD1    C5 3786   1.327   4.201   9.665  0.5377  0.0636  0.6003
  246MPD1     H 3787   1.411   4.492   9.454 -3.6557 -0.5150 -1.5469
  246MPD1    H1 3788   1.427   4.280   9.826  1.3383 -1.0002  0.6697
  246MPD1    H2 3789   1.249   4.107   9.497  1.5622 -1.3456 -0.4360
  246MPD1    H3 3790   1.290   4.118   9.723 -2.7924  2.4122  1.8188
  246MPD1     N 3791   1.508   4.523   9.684 -0.8507 -0.6899  0.1860
  246MPD1    H5 3792   1.508   4.602   9.619  0.1965 -0.2447  0.7255
  246MPD1    N1 3793   1.293   4.297   9.313 -0.4650  0.1690  0.3121
  246MPD1    H6 3794   1.337   4.367   9.254  0.6449 -1.5479 -0.8608
  246MPD1    H7 3795   1.300   4.207   9.266  1.3058  0.8794 -0.7880
  247MPD1     C 3796   3.094   0.783  14.573 -0.1503  0.6401 -0.1150
  247MPD1    C1 3797   3.137   0.727  14.694  0.3853 -0.4706 -0.6303
  247MPD1    C2 3798   3.267   0.737  14.731 -0.1259 -0.0289  0.0938
  247MPD1    C3 3799   3.356   0.818  14.665  0.6393  0.3294  0.2093
  247MPD1    C4 3800   3.310   0.876  14.550  0.0229 -0.4585  0.5634
  247MPD1    C5 3801   3.182   0.865  14.510 -0.3428 -0.8560  0.6704
  247MPD1     H 3802   3.292   0.685  14.823 -0.2830  0.3467  0.3497
  247MPD1    H1 3803   3.376   0.943  14.497 -0.2745 -0.2805  0.4215
  247MPD1    H2 3804   2.990   0.764  14.547 -0.6869  2.4823  0.7037
  247MPD1    H3 3805   3.162   0.927  14.423 -0.3226 -0.1076  1.2031
  247MPD1     N 3806   3.485   0.860  14.709  0.2901  0.0691 -0.0866
  247MPD1    H5 3807   3.534   0.934  14.660 -0.6928 -0.3987 -1.7822
  247MPD1    N1 3808   3.057   0.639  14.755  0.8816 -0.0461  0.3256
  247MPD1    H6 3809   3.091   0.611  14.847 -0.7210  0.8232  1.1847
  247MPD1    H7 3810   2.962   0.676  14.761  0.3489 -1.0523 -1.9018
  248MPD1     C 3811   4.321   0.090  17.121 -0.0828 -0.3793 -0.6914
  248MPD1    C1 3812   4.313   0.155  17.244 -0.1919 -0.6015 -0.8231
  248MPD1    C2 3813   4.288   0.085  17.364 -0.1862  0.0600  0.8175
  248MPD1    C3 3814   4.284   4.679  17.358 -0.1185  0.1930 -0.1751
  248MPD1    C4 3815   4.293   4.615  17.237 -0.1605  0.0899 -0.2070
  248MPD1    C5 3816   4.309   4.691  17.120  0.7061  0.4238 -0.9862
  248MPD1     H 3817   4.287   0.131  17.462 -0.3068  1.3075  0.2168
  248MPD1    H1 3818   4.310   4.508  17.233 -0.4753 -0.0304  2.2326
  248MPD1    H2 3819   4.325   0.133  17.021 -1.0531 -1.5554 -1.2377
  248MPD1    H3 3820   4.323   4.635  17.029 -3.1170 -2.3077  0.1023
  248MPD1     N 3821   4.276   4.609  17.472  0.1852  0.2922 -0.4946
  248MPD1    H5 3822   4.288   4.663  17.557  0.9989  1.6916 -1.5105
  248MPD1    N1 3823   4.315   0.295  17.252 -0.3954  0.3473 -0.3459
  248MPD1    H6 3824   4.343   0.324  17.345 -3.2298 -1.7877  1.1346
  248MPD1    H7 3825   4.380   0.330  17.181  0.7611  1.7435  1.4158
  249MPD1     C 3826   1.929   3.843   9.486 -0.3130  0.5169 -0.0676
  249MPD1    C1 3827   1.957   3.950   9.406 -0.7443  0.0508  0.4575
  249MPD1    C2 3828   2.012   4.059   9.467  0.3960  0.2475 -0.4249
  249MPD1    C3 3829   2.063   4.062   9.596  0.3445 -0.2626  0.4059
  249MPD1    C4 3830   2.056   3.945   9.670 -0.1615  0.0887  0.3140
  249MPD1    C5 3831   1.980   3.840   9.618 -0.0013  0.1753 -0.0586
  249MPD1     H 3832   2.030   4.152   9.414 -3.3356  1.0961 -0.1727
  249MPD1    H1 3833   2.104   3.939   9.766 -0.5108  1.0139  0.5433
  249MPD1    H2 3834   1.868   3.760   9.453  1.7176 -1.5438  1.3596
  249MPD1    H3 3835   1.967   3.748   9.673  1.1705 -0.1736 -0.3582
  249MPD1     N 3836   2.131   4.184   9.632  0.5507 -0.2460  0.1744
  249MPD1    H5 3837   2.124   4.263   9.569  0.3310 -0.0190  0.4792
  249MPD1    N1 3838   1.904   3.957   9.274  0.5262  0.1719  0.2310
  249MPD1    H6 3839   1.903   3.872   9.219 -3.6332 -0.0932  0.7047
  249MPD1    H7 3840   1.949   4.029   9.218  0.3193 -0.6090 -0.9342
  250MPD2     C 3841   3.736   4.092  12.389 -0.1709 -0.0984 -0.2423
  250MPD2    C1 3842   3.617   4.144  12.434  0.3032  0.2968 -0.0370
  250MPD2    C2 3843   3.498   4.094  12.374 -0.6937 -0.0282 -0.3194
  250MPD2    C3 3844   3.503   4.014  12.264  0.7129 -0.1824 -0.1764
  250MPD2    C4 3845   3.619   3.964  12.220  0.6772  0.3448 -0.2966
  250MPD2    C5 3846   3.737   4.005  12.286 -0.3648 -0.2699  0.2794
  250MPD2     H 3847   3.402   4.120  12.419 -0.4077  1.2131 -0.4136
  250MPD2    H1 3848   3.627   3.910  12.127 -1.3353 -3.8724  1.9869
  250MPD2    H2 3849   3.830   4.131  12.426  0.5184  0.3344 -2.4667
  250MPD2    H3 3850   3.836   3.975  12.254 -0.8384 -0.7837 -0.7214
  250MPD2     N 3851   3.390   3.949  12.206 -0.4112 -0.2767 -0.0169
  250MPD2    H5 3852   3.413   3.893  12.125 -0.3126  0.6435 -0.6258
  250MPD2    N1 3853   3.633   4.234  12.540  0.2687 -0.1518 -0.0079
  250MPD2    H7 3854   3.728   4.268  12.551  0.1867  0.2202 -0.4526
  251TMC3    C1 3855   3.563   4.380  12.718  0.2153 -0.3268 -0.6811
  251TMC3    C2 3856   3.471   4.475  12.730  0.3069  0.6556  0.2866
  251TMC3    C3 3857   3.514   4.608  12.758 -0.4537  0.1916  1.4440
  251TMC3    C4 3858   3.697   4.401  12.750 -0.1982 -0.4697  0.3338
  251TMC3    C5 3859   3.727   4.529  12.794 -0.1716  0.0771 -0.1680
  251TMC3    C6 3860   3.641   4.634  12.805  0.1598 -0.1282  0.0054
  251TMC3     C 3861   3.529   4.275  12.617 -0.1373 -0.0853  0.1727
  251TMC3     O 3862   3.413   4.247  12.600  0.1395 -0.4901  0.2325
  251TMC3     H 3863   3.371   4.453  12.695  0.9029  1.6228 -1.9871
  251TMC3    H1 3864   3.754   4.309  12.754  1.3588  0.4263 -1.3824
  251TMC3    H2 3865   3.685   4.728  12.834  0.4648  0.1091 -1.2231
  251TMC3    C7 3866   3.871   4.544  12.805  0.3175 -0.2446 -0.5549
  251TMC3    C8 3867   3.408   4.701  12.767 -0.4967  0.0617  0.1623
  251TMC3    O1 3868   3.940   4.450  12.766  0.0191 -0.5277 -0.3498
  251TMC3    O2 3869   3.292   4.651  12.757 -0.5119 -0.2038 -0.0085
  252TMC3    C1 3870   4.386   4.494   9.275 -0.3785  0.0773 -0.1225
  252TMC3    C2 3871   4.365   4.615   9.218  0.7078 -0.1277 -0.0800
  252TMC3    C3 3872   4.376   4.725   9.304 -0.2614  0.7988 -0.0622
  252TMC3    C4 3873   4.423   4.476   9.405 -0.2074  0.6102 -0.2685
  252TMC3    C5 3874   4.414   4.587   9.485 -0.2129  0.2662  0.7058
  252TMC3    C6 3875   4.393   4.709   9.439  0.3988 -0.0704 -0.2423
  252TMC3     C 3876   4.374   4.377   9.190  0.7063  0.0675 -0.8497
  252TMC3     O 3877   4.364   4.270   9.243 -0.4833  0.0638  0.6155
  252TMC3     H 3878   4.330   4.632   9.117  0.5520  0.7089  0.1152
  252TMC3    H1 3879   4.421   4.374   9.439  2.3575  1.1091  1.3998
  252TMC3    H2 3880   4.396   0.054   9.512 -2.0380 -3.2210  3.3577
  252TMC3    C7 3881   4.417   4.570   9.629  0.4022 -0.6310 -0.0256
  252TMC3    C8 3882   4.358   0.122   9.241 -0.4283 -0.2999 -0.0257
  252TMC3    O1 3883   4.464   4.463   9.671 -0.0784 -0.3870 -1.1173
  252TMC3    O2 3884   4.325   0.131   9.125  0.5042  0.9696 -0.0521
  253MPD2     C 3885   4.381   4.325  14.847 -0.3452  0.2660 -0.3895
  253MPD2    C1 3886   4.251   4.289  14.821 -0.1223  0.1622  0.1057
  253MPD2    C2 3887   4.185   4.198  14.906 -0.4303 -0.0063  0.0577
  253MPD2    C3 3888   4.252   4.149  15.022  0.2662  0.3228  0.0584
  253MPD2    C4 3889   4.380   4.189  15.044 -0.1977  0.1569 -0.5245
  253MPD2    C5 3890   4.448   4.265  14.955  0.5108 -0.1644  0.1897
  253MPD2     H 3891   4.081   4.176  14.888 -0.2396 -0.5286 -0.3780
  253MPD2    H1 3892   4.433   4.154  15.133  1.0137 -0.3994 -1.4632
  253MPD2    H2 3893   4.438   4.382  14.774 -0.5580 -0.0479 -0.7998
  253MPD2    H3 3894   4.550   4.291  14.981  0.5742 -0.4937  0.2672
  253MPD2     N 3895   4.199   4.046  15.103 -0.6229  0.4996  0.6568
  253MPD2    H5 3896   4.258   4.011  15.178 -0.1909  0.1336  0.1473
  253MPD2    N1 3897   4.185   4.352  14.707  0.0969 -0.1382 -0.0889
  253MPD2    H7 3898   4.100   4.306  14.677 -0.1648  0.7306 -0.6549
  254TMC3    C1 3899   4.055   3.878  15.168 -0.1549  1.1464  0.4156
  254TMC3    C2 3900   3.916   3.861  15.193  0.3725 -0.3221 -0.4367
  254TMC3    C3 3901   3.861   3.802  15.306  0.0957  0.3549  0.4869
  254TMC3    C4 3902   4.147   3.825  15.256  0.6985  0.4673 -0.0084
  254TMC3    C5 3903   4.087   3.760  15.363 -0.4677  0.7987  0.0192
  254TMC3    C6 3904   3.951   3.753  15.393 -0.0884 -0.6337 -1.5145
  254TMC3     C 3905   4.076   3.987  15.082 -0.2911 -0.3682  0.1142
  254TMC3     O 3906   3.983   4.013  15.007  0.4709  0.1039 -0.2516
  254TMC3     H 3907   3.832   3.882  15.127  0.3502  2.9840  0.6120
  254TMC3    H1 3908   4.252   3.822  15.233  0.4649  1.2779 -1.2016
  254TMC3    H2 3909   3.921   3.700  15.483  0.3418  0.8173 -0.5132
  254TMC3    C7 3910   4.170   3.706  15.463 -0.3249  0.2566  1.2456
  254TMC3    C8 3911   3.747   3.868  15.357 -0.0107 -0.6783 -0.2059
  254TMC3    O1 3912   4.126   3.604  15.514 -0.2708  0.0100 -0.2259
  254TMC3    O2 3913   3.720   3.979  15.314  0.2516  0.2671 -0.1033
  255MPD2     C 3914   3.983   2.078   9.751  0.5667  0.3995 -0.1088
  255MPD2    C1 3915   3.883   2.011   9.690 -0.3549  0.3650  0.0674
  255MPD2    C2 3916   3.918   1.933   9.584  0.6523 -0.0444  0.5107
  255MPD2    C3 3917   4.042   1.927   9.528  0.6363 -0.4374 -0.3242
  255MPD2    C4 3918   4.141   1.989   9.603  0.3373  0.9104  0.4356
  255MPD2    C5 3919   4.112   2.062   9.716  0.1932 -0.2730  0.0796
  255MPD2     H 3920   3.841   1.884   9.526  1.8472 -2.0704  0.6568
  255MPD2    H1 3921   4.247   1.983   9.579 -0.3089 -0.9718 -1.9892
  255MPD2    H2 3922   3.968   2.141   9.839 -0.4923  0.7381 -0.5309
  255MPD2    H3 3923   4.189   2.117   9.769 -0.4246  1.7155 -1.1122
  255MPD2     N 3924   4.074   1.845   9.418 -0.0197 -0.0999  0.0581
  255MPD2    H5 3925   3.989   1.801   9.382  0.7777 -0.0907 -1.8464
  255MPD2    N1 3926   3.760   2.030   9.743  0.0519 -0.0293  0.5839
  255MPD2    H7 3927   3.752   2.062   9.840 -0.3396  0.2219  0.4681
  256TMC3    C1 3928   3.521   2.052   9.754  0.0292 -0.7322  0.0415
  256TMC3    C2 3929   3.538   2.176   9.815  0.0274 -0.3804 -0.1604
  256TMC3    C3 3930   3.427   2.235   9.858 -0.8453  0.0835 -0.1951
  256TMC3    C4 3931   3.401   1.984   9.749  0.0358 -0.2759  0.3922
  256TMC3    C5 3932   3.284   2.051   9.788  0.0807  0.6654  0.0416
  256TMC3    C6 3933   3.299   2.176   9.845 -0.4974  0.2876 -0.0558
  256TMC3     C 3934   3.637   1.993   9.689  0.2695 -0.2449 -0.0911
  256TMC3     O 3935   3.617   1.899   9.613  0.3582  0.0316  0.0916
  256TMC3     H 3936   3.631   2.231   9.818 -0.0674 -0.1796 -1.0453
  256TMC3    H1 3937   3.394   1.891   9.693  1.4062  0.4316 -0.9472
  256TMC3    H2 3938   3.216   2.234   9.884  0.7655  1.8984  0.2560
  256TMC3    C7 3939   3.155   1.994   9.758 -0.5003  0.4810  0.1154
  256TMC3    C8 3940   3.442   2.366   9.918 -0.3075 -0.0557  0.5832
  256TMC3    O1 3941   3.149   1.870   9.745 -0.3854  0.2076  0.4196
  256TMC3    O2 3942   3.557   2.388   9.959 -0.1561  0.3543 -0.4302
  257MPD2     C 3943   1.669   4.111  12.650 -0.2327 -0.0186  0.3200
  257MPD2    C1 3944   1.735   4.061  12.538 -0.7345  0.2323 -0.5104
  257MPD2    C2 3945   1.779   3.933  12.548 -0.2269 -0.4692 -0.2033
  257MPD2    C3 3946   1.768   3.852  12.659 -1.0134  0.6392  0.3525
  257MPD2    C4 3947   1.693   3.910  12.768 -0.7470 -0.6261  0.5467
  257MPD2    C5 3948   1.651   4.042  12.768  0.0682 -0.4367  0.2059
  257MPD2     H 3949   1.827   3.883  12.465 -3.1302 -2.1837 -0.8605
  257MPD2    H1 3950   1.679   3.873  12.869 -1.1498  1.6507  1.3274
  257MPD2    H2 3951   1.629   4.212  12.648  0.6837  0.3401  0.1241
  257MPD2    H3 3952   1.603   4.087  12.855 -1.7411  1.2210 -1.6454
  257MPD2     N 3953   1.835   3.728  12.670  0.4178 -0.5401 -0.2888
  257MPD2    H5 3954   1.893   3.702  12.591 -2.3676  2.1616 -3.1655
  257MPD2    N1 3955   1.772   4.132  12.425  0.9988  0.0241 -0.1309
  257MPD2    H7 3956   1.820   4.085  12.349 -1.0152 -1.0925 -0.7109
  258TMC3    C1 3957   1.966   3.593  12.803  0.8130 -0.1942  0.2782
  258TMC3    C2 3958   2.070   3.688  12.800 -0.4832  0.8443 -0.0396
  258TMC3    C3 3959   2.183   3.636  12.849  0.4644  0.2123 -0.3631
  258TMC3    C4 3960   1.970   3.476  12.874 -0.0745 -0.3332  0.5256
  258TMC3    C5 3961   2.091   3.434  12.924  0.0114 -0.0427 -0.5452
  258TMC3    C6 3962   2.200   3.514  12.910 -0.6260 -0.1340 -0.6349
  258TMC3     C 3963   1.833   3.650  12.780  0.1386  0.6701 -0.2111
  258TMC3     O 3964   1.754   3.652  12.871  0.5989  0.0548  0.0872
  258TMC3     H 3965   2.060   3.792  12.774 -1.1243  0.6478 -0.5834
  258TMC3    H1 3966   1.878   3.421  12.861 -1.5079  2.2646 -0.3482
  258TMC3    H2 3967   2.295   3.488  12.954 -0.7323 -1.7137 -1.3243
  258TMC3    C7 3968   2.074   3.352  13.043  0.2774  0.5214 -0.1713
  258TMC3    C8 3969   2.281   3.738  12.894  0.7732 -0.9702  0.0362
  258TMC3    O1 3970   1.961   3.305  13.052 -0.3508  0.5868  0.3617
  258TMC3    O2 3971   2.341   3.709  12.994  0.0216 -0.4044 -0.1775
  259MPD2     C 3972   0.882   0.696   0.496  0.2706  0.3024  1.0657
  259MPD2    C1 3973   0.868   0.570   0.455  0.8264  0.1751  0.1508
  259MPD2    C2 3974   0.784   0.540   0.352 -0.1568 -0.1528 -0.1481
  259MPD2    C3 3975   0.693   0.629   0.303  0.2885 -0.7957 -0.2770
  259MPD2    C4 3976   0.705   0.758   0.348 -0.2215 -0.1768  0.0029
  259MPD2    C5 3977   0.805   0.794   0.443 -0.3179 -0.2074 -0.3190
  259MPD2     H 3978   0.773   0.434   0.332 -1.8374  0.1140 -0.6173
  259MPD2    H1 3979   0.633   0.834   0.319  0.6211  1.7530  2.9197
  259MPD2    H2 3980   0.934   0.713   0.589 -3.7241  0.4367  3.3118
  259MPD2    H3 3981   0.816   0.890   0.491 -0.7172 -1.9543  3.2981
  259MPD2     N 3982   0.604   0.581   0.196 -0.5201  0.5757 -0.8975
  259MPD2    H5 3983   0.609   0.482   0.177 -0.2890  0.4640 -0.2782
  259MPD2    N1 3984   0.928   0.470   0.538  0.2944  0.1725 -0.1271
  259MPD2    H7 3985   0.992   0.492   0.614  1.0622  0.0350 -0.7396
  260TMC3    C1 3986   0.447   0.583   0.023  0.2638  0.2049  0.0764
  260TMC3    C2 3987   0.382   0.650  17.655  0.1193 -0.4542 -0.1918
  260TMC3    C3 3988   0.333   0.575  17.555 -0.2071  0.2921 -0.9634
  260TMC3    C4 3989   0.459   0.444   0.020  0.4706 -1.1271  0.3018
  260TMC3    C5 3990   0.383   0.375  17.665 -0.1064  0.5223 -0.8294
  260TMC3    C6 3991   0.314   0.438  17.569 -0.5838 -0.2273 -0.0167
  260TMC3     C 3992   0.515   0.660   0.128 -0.2874  0.3577 -0.7813
  260TMC3     O 3993   0.492   0.776   0.136 -0.3397  0.4611  0.5106
  260TMC3     H 3994   0.394   0.758  17.649  0.0550 -0.4809 -0.8277
  260TMC3    H1 3995   0.496   0.383   0.101 -1.3412  1.3565  2.9999
  260TMC3    H2 3996   0.269   0.383  17.487  1.4340  0.2103 -1.4272
  260TMC3    C7 3997   0.444   0.247  17.615  0.5621  0.2018 -0.6480
  260TMC3    C8 3998   0.419   0.604  17.438 -0.1890 -0.1869 -0.3279
  260TMC3    O1 3999   0.435   0.230  17.493 -0.6483  0.3827 -0.1285
  260TMC3    O2 4000   0.432   0.721  17.409 -0.1037  0.2045 -0.5041
  261MPD2     C 4001   3.138   3.601  11.600 -0.1652  0.4749  0.7095
  261MPD2    C1 4002   3.162   3.723  11.658  0.0960  0.3741 -0.8518
  261MPD2    C2 4003   3.202   3.835  11.580  0.2719 -0.2055  0.4134
  261MPD2    C3 4004   3.221   3.823  11.446 -0.7720 -0.0130 -0.5754
  261MPD2    C4 4005   3.197   3.701  11.391 -0.0867  0.4871  1.0050
  261MPD2    C5 4006   3.153   3.592  11.464  0.5250  0.3509 -0.2368
  261MPD2     H 4007   3.214   3.934  11.624 -0.5278  0.8373 -1.7343
  261MPD2    H1 4008   3.205   3.694  11.283  0.4720 -0.1683  1.0949
  261MPD2    H2 4009   3.106   3.516  11.658 -2.2461  0.2497 -0.7598
  261MPD2    H3 4010   3.136   3.493  11.422 -1.9705 -0.0028  1.5839
  261MPD2     N 4011   3.263   3.937  11.372  0.1599  0.2430 -0.5981
  261MPD2    H5 4012   3.298   4.023  11.414 -1.1759 -0.9010  2.8510
  261MPD2    N1 4013   3.143   3.747  11.797  0.2772 -0.7304  0.0578
  261MPD2    H7 4014   3.148   3.842  11.834 -1.2752 -1.1130  1.2738
  262TMC3    C1 4015   3.339   4.075  11.200 -0.5709  0.5670 -0.2115
  262TMC3    C2 4016   3.262   4.158  11.141 -0.1165  0.6290 -0.2263
  262TMC3    C3 4017   3.297   4.288  11.134  0.3860 -0.2394  0.3387
  262TMC3    C4 4018   3.455   4.109  11.263  0.2689  0.0897 -0.0269
  262TMC3    C5 4019   3.499   4.237  11.255 -0.0199  0.2699 -0.1045
  262TMC3    C6 4020   3.411   4.330  11.195 -0.2657 -0.8284  0.7065
  262TMC3     C 4021   3.281   3.945  11.238 -0.5946  0.9868  0.5976
  262TMC3     O 4022   3.229   3.879  11.146  0.4150  0.1530  0.1805
  262TMC3     H 4023   3.168   4.124  11.098 -0.8892  1.1023  1.0933
  262TMC3    H1 4024   3.517   4.037  11.315  0.9439 -1.3676 -2.8209
  262TMC3    H2 4025   3.426   4.437  11.201 -1.7712 -0.5978  0.4306
  262TMC3    C7 4026   3.617   4.279  11.321 -0.3675  0.3124  0.4112
  262TMC3    C8 4027   3.202   4.392  11.096  0.4712  0.0725  0.2914
  262TMC3    O1 4028   3.696   4.194  11.366 -0.0976 -0.1731 -0.0044
  262TMC3    O2 4029   3.259   4.495  11.073  0.1329 -0.5541 -0.0012
  263MPD2     C 4030   4.017   3.102  10.707  0.0947  0.4889 -0.3916
  263MPD2    C1 4031   4.110   3.188  10.757 -0.6324  0.2847  0.3271
  263MPD2    C2 4032   4.132   3.309  10.695  0.4900  0.4940  1.1840
  263MPD2    C3 4033   4.054   3.341  10.583 -0.0148 -0.1720 -0.0847
  263MPD2    C4 4034   3.954   3.257  10.536  0.2246 -0.4783 -0.3949
  263MPD2    C5 4035   3.938   3.143  10.604 -0.5250  0.2867 -0.4878
  263MPD2     H 4036   4.209   3.377  10.728  0.9909  1.1861 -1.4063
  263MPD2    H1 4037   3.881   3.286  10.462 -0.6193  0.2733  0.7520
  263MPD2    H2 4038   4.002   3.006  10.754  2.1386  0.0312 -0.6967
  263MPD2    H3 4039   3.856   3.073  10.584 -0.8458 -0.2743  2.7826
  263MPD2     N 4040   4.086   3.470  10.521  0.0490  0.0845 -0.3733
  263MPD2    H5 4041   4.148   3.535  10.570  0.3563  0.1286 -0.8259
  263MPD2    N1 4042   4.188   3.130  10.863  0.2792  0.2179 -0.0006
  263MPD2    H7 4043   4.153   3.050  10.914 -0.6900  1.5059  1.3684
  264TMC3    C1 4044   4.058   3.656  10.379  0.7085  0.6224  0.5979
  264TMC3    C2 4045   4.055   3.743  10.486  1.3151 -0.6247  0.6694
  264TMC3    C3 4046   4.117   3.862  10.468 -0.8627  0.5532 -0.6371
  264TMC3    C4 4047   4.119   3.677  10.259  0.1802 -0.2440  0.5001
  264TMC3    C5 4048   4.173   3.798  10.240 -0.3748 -0.2546 -0.0896
  264TMC3    C6 4049   4.178   3.890  10.344  0.1803 -0.0382 -0.4323
  264TMC3     C 4050   4.026   3.517  10.407  0.4148  0.2868  0.0816
  264TMC3     O 4051   3.970   3.455  10.318  0.5503  0.1896 -0.2695
  264TMC3     H 4052   4.012   3.698  10.575  1.3578 -0.5209  0.7413
  264TMC3    H1 4053   4.127   3.596  10.188 -1.0614  0.0484  0.0221
  264TMC3    H2 4054   4.214   3.991  10.328 -1.4721  0.3435 -1.6906
  264TMC3    C7 4055   4.259   3.818  10.122 -0.0492  0.0777  0.0911
  264TMC3    C8 4056   4.108   3.973  10.559  0.1620  0.0528  0.6317
  264TMC3    O1 4057   4.290   3.723  10.048 -0.3104  0.2984  0.1577
  264TMC3    O2 4058   4.175   4.068  10.529 -0.5923  0.1569 -0.1817
  265MPD2     C 4059   0.429   3.722  15.207  0.1713  0.0960  0.0227
  265MPD2    C1 4060   0.454   3.834  15.122 -0.7283 -1.0673 -0.2894
  265MPD2    C2 4061   0.533   3.805  15.007 -0.3880  0.3973 -0.0725
  265MPD2    C3 4062   0.586   3.673  14.976  0.2854 -0.3837  0.4219
  265MPD2    C4 4063   0.554   3.572  15.066  0.1627 -0.0890  0.0420
  265MPD2    C5 4064   0.480   3.595  15.175 -0.0063  0.0939  0.3314
  265MPD2     H 4065   0.567   3.887  14.945  0.8741 -0.1591 -0.1138
  265MPD2    H1 4066   0.598   3.473  15.054 -0.6397 -0.6728  1.7286
  265MPD2    H2 4067   0.369   3.733  15.296 -1.5620  0.2604 -1.1664
  265MPD2    H3 4068   0.461   3.508  15.236 -0.3797  0.0027  0.0869
  265MPD2     N 4069   0.681   3.647  14.871 -0.2254 -0.1423  0.3742
  265MPD2    H5 4070   0.729   3.559  14.883  0.4399  0.1723  0.0763
  265MPD2    N1 4071   0.412   3.964  15.155 -0.1696  0.3546  0.3645
  265MPD2    H7 4072   0.450   4.044  15.105 -0.7334 -0.7123 -1.7765
  266TMC3    C1 4073   0.363   4.144  15.299  0.1126  0.2271 -0.1194
  266TMC3    C2 4074   0.383   4.181  15.430  0.3557  0.6396  0.3112
  266TMC3    C3 4075   0.393   4.318  15.465 -0.0129 -0.3088 -0.1514
  266TMC3    C4 4076   0.357   4.235  15.200 -0.0929 -0.1230 -0.2154
  266TMC3    C5 4077   0.374   4.373  15.229 -0.2134 -0.3817 -0.0149
  266TMC3    C6 4078   0.392   4.408  15.363  0.1579  0.1639 -0.4298
  266TMC3     C 4079   0.348   4.001  15.270 -0.1856  0.2526 -0.1417
  266TMC3     O 4080   0.283   3.936  15.347  0.5129 -0.3063 -0.2794
  266TMC3     H 4081   0.387   4.108  15.510  0.8269 -0.1230 -0.4069
  266TMC3    H1 4082   0.332   4.204  15.099  1.8824  0.8572 -1.0012
  266TMC3    H2 4083   0.407   4.513  15.384 -1.0157 -0.6242  4.5481
  266TMC3    C7 4084   0.314   4.471  15.139  0.6631 -0.8157 -0.3514
  266TMC3    C8 4085   0.471   4.343  15.587  0.8425  0.3427 -0.4176
  266TMC3    O1 4086   0.316   4.588  15.175  0.2044 -0.7122 -0.0760
  266TMC3    O2 4087   0.513   4.238  15.637  0.7421  0.0329  0.0751
  267MPD2     C 4088   2.881   4.666  17.237 -0.2167 -0.2394  0.1695
  267MPD2    C1 4089   2.917   0.065  17.213 -0.5163 -0.2476 -1.1828
  267MPD2    C2 4090   2.862   0.136  17.109  0.0270  0.5243 -0.7045
  267MPD2    C3 4091   2.762   0.078  17.032  0.4901  0.3632 -1.0435
  267MPD2    C4 4092   2.722   4.680  17.050  0.4077 -0.3258 -0.2580
  267MPD2    C5 4093   2.792   4.608  17.148 -0.6248  0.0791 -0.3349
  267MPD2     H 4094   2.891   0.239  17.089  1.1206  0.5173  0.8835
  267MPD2    H1 4095   2.651   4.622  16.992 -1.4078  0.1452  1.5165
  267MPD2    H2 4096   2.921   4.615  17.324  1.3148 -0.5033 -0.6925
  267MPD2    H3 4097   2.759   4.508  17.173  1.2694 -0.5848 -0.5209
  267MPD2     N 4098   2.682   0.141  16.928 -0.3243 -0.9318 -0.0913
  267MPD2    H5 4099   2.606   0.084  16.892 -0.4293 -1.5659  1.1527
  267MPD2    N1 4100   3.005   0.130  17.303  0.0966  0.1366  0.0434
  267MPD2    H7 4101   3.049   0.072  17.373 -1.1673 -0.8080  0.0484
  268TMC3    C1 4102   3.137   0.283  17.426 -0.0162 -0.0038 -0.7224
  268TMC3    C2 4103   3.246   0.368  17.416  1.1690 -0.5981  0.0310
  268TMC3    C3 4104   3.321   0.398  17.526 -0.7407  0.1325  0.1540
  268TMC3    C4 4105   3.100   0.234  17.546  0.1213  0.1110 -0.1251
  268TMC3    C5 4106   3.171   0.272  17.657 -0.3473  0.0813 -0.6489
  268TMC3    C6 4107   3.279   0.357  17.654 -0.2316 -0.2237  0.4864
  268TMC3     C 4108   3.057   0.260  17.305  0.3845  0.1644 -0.1813
  268TMC3     O 4109   3.036   0.347  17.220 -0.4457  0.3268  0.1013
  268TMC3     H 4110   3.277   0.400  17.317  1.9541 -0.8882  0.1884
  268TMC3    H1 4111   3.015   0.169  17.561 -1.7954  2.4723 -0.7972
  268TMC3    H2 4112   3.326   0.387   0.006  2.2244 -1.2442 -0.4430
  268TMC3    C7 4113   3.139   0.223   0.048 -0.3473  1.0096 -0.9819
  268TMC3    C8 4114   3.416   0.503  17.521 -0.4313  0.0952 -0.9733
  268TMC3    O1 4115   3.226   0.219   0.134 -0.1417  0.0968 -0.5739
  268TMC3    O2 4116   3.507   0.504  17.604  0.5838 -0.3974 -0.3453
  269MPD2     C 4117   3.538   4.424  15.280 -0.0716  0.1131 -0.1973
  269MPD2    C1 4118   3.412   4.437  15.332  0.3582  0.2457 -0.7177
  269MPD2    C2 4119   3.362   4.568  15.338  0.7140 -0.0716 -0.9086
  269MPD2    C3 4120   3.435   4.676  15.299  0.3700  0.4029  0.2957
  269MPD2    C4 4121   3.562   4.651  15.248 -0.4569  0.1268  0.8278
  269MPD2    C5 4122   3.608   4.527  15.229  0.1776 -0.3622  0.1062
  269MPD2     H 4123   3.264   4.592  15.378  0.2897 -2.4874 -0.4970
  269MPD2    H1 4124   3.617   4.728  15.196 -3.0926  0.3447 -1.6144
  269MPD2    H2 4125   3.596   4.333  15.286 -2.6057 -1.4328  1.0785
  269MPD2    H3 4126   3.702   4.508  15.179  0.6381  0.4563  0.6545
  269MPD2     N 4127   3.368   0.071  15.301  0.3004 -0.0350 -0.0085
  269MPD2    H5 4128   3.268   0.071  15.315  0.2849  2.6262 -0.0432
  269MPD2    N1 4129   3.350   4.318  15.375  0.0402  0.1196 -0.0255
  269MPD2    H7 4130   3.399   4.232  15.355  0.4603  0.8435 -2.1210
  270TMC3    C1 4131   3.171   4.178  15.424 -0.3331  0.3960 -0.5383
  270TMC3    C2 4132   3.050   4.169  15.478  0.0181 -0.4532  0.0240
  270TMC3    C3 4133   3.001   4.039  15.495  0.1001 -0.9961  0.6915
  270TMC3    C4 4134   3.249   4.070  15.376 -0.8633  0.2049 -0.0617
  270TMC3    C5 4135   3.195   3.944  15.399 -0.1483  0.7296  0.6710
  270TMC3    C6 4136   3.073   3.929  15.451 -0.0744 -0.4392 -0.7744
  270TMC3     C 4137   3.220   4.312  15.423  0.1117 -0.0924  0.3981
  270TMC3     O 4138   3.157   4.401  15.481 -0.2882  0.0763  0.0488
  270TMC3     H 4139   2.992   4.252  15.516 -1.2107 -1.0470 -0.5562
  270TMC3    H1 4140   3.347   4.084  15.331 -0.8635 -0.4217 -0.2559
  270TMC3    H2 4141   3.038   3.830  15.477 -0.1155 -0.4424 -0.8433
  270TMC3    C7 4142   3.255   3.836  15.330 -0.7788  1.0960  0.4279
  270TMC3    C8 4143   2.892   4.016  15.587  0.5863  0.0421  0.3020
  270TMC3    O1 4144   3.253   3.723  15.381  0.8323 -0.3987 -0.3533
  270TMC3    O2 4145   2.920   4.025  15.704  0.2817  0.0809  0.3741
  271MPD2     C 4146   2.207   4.033  13.852 -0.5658  0.1762 -0.1124
  271MPD2    C1 4147   2.149   4.030  13.978 -1.0386 -0.1461  0.0647
  271MPD2    C2 4148   2.018   4.042  13.990 -0.8056 -0.0800  0.1872
  271MPD2    C3 4149   1.935   4.059  13.874  0.3284  0.0175  0.0244
  271MPD2    C4 4150   2.000   4.052  13.747 -0.3460 -0.1823  0.2330
  271MPD2    C5 4151   2.135   4.038  13.740 -0.5795  0.1314 -0.0356
  271MPD2     H 4152   1.969   4.056  14.086  0.5012  1.8013  0.5863
  271MPD2    H1 4153   1.930   4.062  13.665  0.0363 -2.1498 -0.3362
  271MPD2    H2 4154   2.314   4.020  13.840 -0.7680 -1.1061 -0.5481
  271MPD2    H3 4155   2.189   4.038  13.646  2.8655  1.9040  1.9369
  271MPD2     N 4156   1.802   4.097  13.874  0.5026 -0.4181  0.8152
  271MPD2    H5 4157   1.766   4.116  13.781  3.4037 -2.0342 -0.6437
  271MPD2    N1 4158   2.227   4.007  14.096 -0.2274 -0.4723 -0.0449
  271MPD2    H7 4159   2.175   3.975  14.177 -0.1670  0.1478  0.2368
  272TMC3    C1 4160   2.419   4.011  14.233  0.3721 -0.1576 -0.4937
  272TMC3    C2 4161   2.537   3.945  14.219  0.1262  0.0348  0.5559
  272TMC3    C3 4162   2.580   3.878  14.328  0.1003 -0.0722  0.0032
  272TMC3    C4 4163   2.348   4.026  14.351  0.4838  0.3872 -0.3557
  272TMC3    C5 4164   2.412   3.972  14.459  1.1362  1.4100  0.2433
  272TMC3    C6 4165   2.524   3.895  14.456  0.0100  0.1094 -0.3037
  272TMC3     C 4166   2.361   4.033  14.105 -0.1119  0.1133 -0.4850
  272TMC3     O 4167   2.442   4.058  14.018 -0.1676 -0.3535  0.3851
  272TMC3     H 4168   2.579   3.926  14.121  0.7880  3.2785  0.1978
  272TMC3    H1 4169   2.245   4.061  14.358 -0.6783 -2.5894 -2.6940
  272TMC3    H2 4170   2.582   3.877  14.545  0.7542  0.0782 -0.7974
  272TMC3    C7 4171   2.360   4.026  14.586  0.0956 -0.5353  0.0635
  272TMC3    C8 4172   2.714   3.819  14.309  0.5048 -0.8314  0.2729
  272TMC3    O1 4173   2.240   4.058  14.580 -0.3264  0.2799 -0.2762
  272TMC3    O2 4174   2.786   3.870  14.222  0.0365 -0.9318  0.2411
  273MPD2     C 4175   4.533   1.796  11.044 -1.0731  0.3888 -0.9402
  273MPD2    C1 4176   4.576   1.923  11.086 -0.4880 -0.7051 -0.2096
  273MPD2    C2 4177   4.638   2.007  10.993 -0.2307  0.2509  0.1994
  273MPD2    C3 4178   4.666   1.964  10.864 -0.2289 -0.3376 -0.6093
  273MPD2    C4 4179   4.629   1.840  10.821  0.3448 -0.3004  0.1525
  273MPD2    C5 4180   4.569   1.756  10.913  0.9027  0.1036  0.1209
  273MPD2     H 4181   4.662   2.107  11.027  0.8577  0.5408 -1.4050
  273MPD2    H1 4182   4.647   1.802  10.721 -2.2563  1.8371 -1.1196
  273MPD2    H2 4183   4.484   1.725  11.109 -0.2304 -0.3143 -1.0665
  273MPD2    H3 4184   4.532   1.663  10.872  1.5059 -0.0471 -0.0857
  273MPD2     N 4185   4.724   2.037  10.757 -0.3262 -0.3939  0.1359
  273MPD2    H5 4186   4.735   1.984  10.672 -1.3980  0.6607 -0.6495
  273MPD2    N1 4187   4.558   1.979  11.215  0.0205 -0.1835  0.7054
  273MPD2    H7 4188   4.609   2.066  11.226 -2.9210  1.3600  1.8537
  274TMC3    C1 4189   0.077   2.217  10.646 -0.1729  0.3328 -0.2408
  274TMC3    C2 4190   4.705   2.203  10.558  0.0513 -0.0824  0.5205
  274TMC3    C3 4191   4.691   2.306  10.468  0.4800  0.1070  0.2586
  274TMC3    C4 4192   0.156   2.328  10.652 -0.8023 -0.5172  0.7437
  274TMC3    C5 4193   0.122   2.431  10.565  0.0329 -0.2411 -0.1042
  274TMC3    C6 4194   0.041   2.411  10.464  0.3326  0.4874  0.5018
  274TMC3     C 4195   0.044   2.161  10.774 -0.1945 -0.2831  0.0016
  274TMC3     O 4196   0.054   2.230  10.874 -0.1578 -0.1813  0.1320
  274TMC3     H 4197   4.632   2.123  10.564 -0.6844  0.4935 -0.8220
  274TMC3    H1 4198   0.227   2.330  10.734 -0.9150  0.6954  0.8107
  274TMC3    H2 4199   0.020   2.502  10.409  0.6443  1.2176  1.5918
  274TMC3    C7 4200   0.095   2.557  10.634 -0.2189 -0.1962 -0.5602
  274TMC3    C8 4201   4.572   2.297  10.391  0.0781 -0.7224 -0.1713
  274TMC3    O1 4202   0.031   2.650  10.583  0.2410 -0.0374  0.3326
  274TMC3    O2 4203   4.490   2.209  10.426 -0.0681  0.1621  0.3410
  275MPD2     C 4204   4.017   0.222  14.163 -0.2231  0.0356  0.5007
  275MPD2    C1 4205   3.908   0.302  14.172 -0.1276 -0.3606 -0.3380
  275MPD2    C2 4206   3.794   0.234  14.196  0.5564 -0.0100 -0.3165
  275MPD2    C3 4207   3.781   0.099  14.198 -1.0013 -0.2474  0.7691
  275MPD2    C4 4208   3.891   0.025  14.180 -0.3626 -0.1864  0.5056
  275MPD2    C5 4209   4.012   0.084  14.172 -0.2876 -0.5497 -0.3985
  275MPD2     H 4210   3.712   0.302  14.215  0.5826  0.3776 -1.6151
  275MPD2    H1 4211   3.892   4.652  14.171 -0.9479 -0.0435 -1.2860
  275MPD2    H2 4212   4.115   0.269  14.163 -1.2341  2.1380 -0.6594
  275MPD2    H3 4213   4.103   0.026  14.171  1.0220  1.4868  0.1759
  275MPD2     N 4214   3.665   0.037  14.248  0.0126  0.6342 -0.3506
  275MPD2    H5 4215   3.667   4.671  14.241 -1.2115  0.5692  0.2741
  275MPD2    N1 4216   3.917   0.440  14.162  0.1166 -0.2874  0.0696
  275MPD2    H7 4217   3.831   0.490  14.182  1.0688  2.3764 -2.4769
  276TMC3    C1 4218   4.020   0.642  14.167  0.4360  0.2673  0.6303
  276TMC3    C2 4219   3.909   0.677  14.230 -0.2283 -0.5036  0.1213
  276TMC3    C3 4220   3.909   0.747  14.348  0.2662 -0.7916 -0.7767
  276TMC3    C4 4221   4.141   0.666  14.233  0.1471  0.5567 -0.2350
  276TMC3    C5 4222   4.137   0.717  14.357  0.5249 -0.0517 -0.2848
  276TMC3    C6 4223   4.026   0.757  14.413  0.3574 -0.4611 -0.0855
  276TMC3     C 4224   4.016   0.513  14.103 -0.0167 -0.1568  0.8810
  276TMC3     O 4225   4.110   0.478  14.031  0.4128 -0.2036  0.1376
  276TMC3     H 4226   3.817   0.649  14.180  0.4565 -0.0558 -1.3668
  276TMC3    H1 4227   4.228   0.611  14.199 -0.4587  0.5348 -1.7432
  276TMC3    H2 4228   4.024   0.791  14.516 -0.3515 -0.4696 -0.0917
  276TMC3    C7 4229   4.258   0.709  14.440 -0.3198  0.1972  0.3903
  276TMC3    C8 4230   3.818   0.696  14.443 -0.0234 -0.5900 -0.2043
  276TMC3    O1 4231   4.244   0.665  14.555 -0.1802  0.2339  0.3510
  276TMC3    O2 4232   3.746   0.773  14.501 -0.1109  0.8508  0.0601
  277MPD2     C 4233   1.084   4.278  12.933 -0.4388 -1.8064 -0.2127
  277MPD2    C1 4234   0.948   4.284  12.939 -0.4150  0.4826 -0.3459
  277MPD2    C2 4235   0.879   4.180  13.010 -0.4300 -0.2753  0.6268
  277MPD2    C3 4236   0.956   4.091  13.079 -0.5484 -0.0249  0.5207
  277MPD2    C4 4237   1.091   4.110  13.088  0.3313 -0.4176 -0.7210
  277MPD2    C5 4238   1.153   4.190  13.009  1.3517  0.3145  0.0671
  277MPD2     H 4239   0.772   4.168  13.014 -0.6069  0.8870 -0.5839
  277MPD2    H1 4240   1.156   4.043  13.143  1.3377  0.1642 -1.2077
  277MPD2    H2 4241   1.138   4.341  12.864 -1.7628 -0.1000  0.3053
  277MPD2    H3 4242   1.261   4.178  13.008  1.1839 -1.1411 -0.0444
  277MPD2     N 4243   0.891   4.004  13.164 -0.1232 -0.3993  0.4400
  277MPD2    H5 4244   0.790   4.006  13.174  0.0238  0.1948  1.8013
  277MPD2    N1 4245   0.887   4.390  12.872 -0.2377 -0.0369  0.3781
  277MPD2    H7 4246   0.945   4.449  12.812 -1.5634 -1.0213 -1.8961
  278TMC3    C1 4247   0.862   3.846  13.340  0.1482  0.2439  0.2418
  278TMC3    C2 4248   0.852   3.711  13.330  0.6658 -0.4678 -0.0870
  278TMC3    C3 4249   0.733   3.654  13.371 -0.1973  0.3571 -0.4933
  278TMC3    C4 4250   0.756   3.923  13.373 -0.1538 -0.2808  0.1206
  278TMC3    C5 4251   0.639   3.863  13.419  0.4157  0.0647 -0.0410
  278TMC3    C6 4252   0.624   3.721  13.410 -0.1058 -0.0469 -0.3484
  278TMC3     C 4253   0.952   3.904  13.244  1.2161 -0.6959 -0.0294
  278TMC3     O 4254   1.062   3.851  13.238  0.2963  0.2679 -0.0937
  278TMC3     H 4255   0.936   3.654  13.291  1.9336 -0.0457  2.0025
  278TMC3    H1 4256   0.771   4.028  13.392  1.0427  0.1644 -3.3712
  278TMC3    H2 4257   0.534   3.673  13.446  0.1960 -1.1353 -1.0658
  278TMC3    C7 4258   0.529   3.950  13.472  0.5464 -0.0026  0.2499
  278TMC3    C8 4259   0.725   3.516  13.331 -0.7857 -0.2377 -0.6212
  278TMC3    O1 4260   0.560   4.065  13.495 -0.3420 -0.0915  0.0946
  278TMC3    O2 4261   0.833   3.464  13.318 -0.8029  0.2249  0.1003
  279MPD2     C 4262   4.518   3.996  17.566 -0.1880  0.0906  0.3422
  279MPD2    C1 4263   4.464   3.918  17.467  0.7534  0.3935  0.6152
  279MPD2    C2 4264   4.535   3.896  17.352 -0.0662 -0.4732  0.0307
  279MPD2    C3 4265   4.667   3.936  17.340 -0.2605  0.2916  0.1476
  279MPD2    C4 4266   4.721   4.013  17.443 -0.6916  0.2610  0.1463
  279MPD2    C5 4267   4.644   4.034  17.557  0.0481 -0.5866  0.8149
  279MPD2     H 4268   4.472   3.847  17.278  0.5899 -1.4609  0.1261
  279MPD2    H1 4269   0.085   4.055  17.432 -0.3574 -0.6692 -0.3457
  279MPD2    H2 4270   4.454   4.020  17.651  1.1030 -0.5516  1.4844
  279MPD2    H3 4271   4.688   4.098  17.633 -0.7241 -0.1767  0.9209
  279MPD2     N 4272   4.733   3.922  17.221 -0.0126  0.1676 -0.0389
  279MPD2    H5 4273   0.078   3.983  17.210 -0.2025  0.0560 -2.0808
  279MPD2    N1 4274   4.329   3.877  17.487 -0.2046  0.0649  0.4234
  279MPD2    H7 4275   4.281   3.905  17.571  1.0435  1.3052  0.7144
  280TMC3    C1 4276   4.117   3.771  17.453  0.4504 -0.2624 -0.3606
  280TMC3    C2 4277   4.045   3.660  17.421 -0.3534 -0.5312 -0.1520
  280TMC3    C3 4278   3.922   3.653  17.473  0.0637 -0.3799  0.1756
  280TMC3    C4 4279   4.065   3.883  17.514  0.2894  0.4582  0.1436
  280TMC3    C5 4280   3.934   3.876  17.552 -0.1994 -0.0790 -0.2425
  280TMC3    C6 4281   3.861   3.757  17.529  0.1005 -0.1081  0.0931
  280TMC3     C 4282   4.252   3.788  17.405 -0.0133  0.1807 -0.1271
  280TMC3     O 4283   4.286   3.718  17.313 -0.0587  0.0429 -0.0404
  280TMC3     H 4284   4.101   3.577  17.380 -1.6197 -0.8634 -1.1948
  280TMC3    H1 4285   4.124   3.972  17.530 -0.1135  1.2753 -2.9174
  280TMC3    H2 4286   3.757   3.748  17.557  0.4469 -1.8489  0.7984
  280TMC3    C7 4287   3.872   3.991  17.608 -0.8026  0.0138  0.4566
  280TMC3    C8 4288   3.831   3.541  17.449  0.1711 -0.0853  0.6311
  280TMC3    O1 4289   3.767   3.985  17.676 -0.5974  0.0715 -0.9238
  280TMC3    O2 4290   3.733   3.529  17.522  0.3129 -0.0383 -0.2002
  281TMC3    C1 4291   4.182   4.236  13.092 -0.6396 -0.7459  0.6823
  281TMC3    C2 4292   4.244   4.353  13.041  0.4510 -0.8785 -0.4184
  281TMC3    C3 4293   4.300   4.343  12.914  1.1553 -0.2863  0.2949
  281TMC3    C4 4294   4.198   4.116  13.031 -0.0274  0.3835  0.6192
  281TMC3    C5 4295   4.271   4.112  12.915 -0.8995 -0.6511  0.1949
  281TMC3    C6 4296   4.318   4.222  12.852  0.2528  0.0164 -0.0147
  281TMC3     C 4297   4.050   4.238  13.150 -0.1738 -0.6662 -0.0990
  281TMC3     O 4298   4.008   4.133  13.202  0.0216  0.0583  0.3596
  281TMC3     H 4299   4.235   4.445  13.097  2.2416 -0.9731  0.0148
  281TMC3    H1 4300   4.164   4.022  13.074 -1.9470  0.4155 -0.8272
  281TMC3    H2 4301   4.381   4.203  12.766 -2.5863 -0.1362 -2.0581
  281TMC3    C7 4302   4.287   3.987  12.851  0.1074  0.7659 -0.1393
  281TMC3    C8 4303   4.396   4.433  12.856 -0.3900  0.5470  0.0756
  281TMC3    O1 4304   4.380   3.967  12.776 -0.4134  0.0013  0.3189
  281TMC3    O2 4305   4.494   4.384  12.807  0.0825 -0.1180  0.2075
  282MPD2     C 4306   0.857   0.607  14.837  0.6444  0.3400 -0.1380
  282MPD2    C1 4307   0.726   0.624  14.802 -0.6049  0.2237  0.1769
  282MPD2    C2 4308   0.696   0.662  14.669  0.0253  0.1680 -0.5633
  282MPD2    C3 4309   0.788   0.667  14.569  0.6602  0.5285  0.4864
  282MPD2    C4 4310   0.918   0.633  14.607  0.4415 -0.3136  0.2884
  282MPD2    C5 4311   0.950   0.610  14.737 -0.7926  0.1453 -0.3373
  282MPD2     H 4312   0.593   0.688  14.649 -0.0063  0.3118 -0.1977
  282MPD2    H1 4313   1.003   0.618  14.541 -0.6527 -0.0784 -1.1775
  282MPD2    H2 4314   0.886   0.588  14.939  1.6220  0.8156 -0.3334
  282MPD2    H3 4315   1.051   0.589  14.769 -0.9429 -1.6174 -0.9883
  282MPD2     N 4316   0.758   0.697  14.436  0.6869 -0.2583  0.4278
  282MPD2    H5 4317   0.660   0.700  14.410  0.6678 -0.6524  0.4446
  282MPD2    N1 4318   0.621   0.615  14.894 -0.2144  0.1277  0.0838
  282MPD2    H7 4319   0.530   0.638  14.855 -0.9816 -1.5680  0.8160
  283TMC3    C1 4320   0.521   0.584  15.103 -0.3455  0.3206  0.8292
  283TMC3    C2 4321   0.526   0.709  15.155 -0.9874 -0.8144  0.3824
  283TMC3    C3 4322   0.471   0.734  15.281 -0.7301 -0.0958 -0.2857
  283TMC3    C4 4323   0.478   0.480  15.174  0.5231  0.0666 -0.2442
  283TMC3    C5 4324   0.422   0.508  15.297 -0.0144  0.1315 -0.1986
  283TMC3    C6 4325   0.422   0.637  15.355 -0.0381  0.2991 -0.4053
  283TMC3     C 4326   0.633   0.556  15.019 -0.3583  0.0732 -0.2211
  283TMC3     O 4327   0.726   0.508  15.078  0.7753 -0.3844  0.5688
  283TMC3     H 4328   0.581   0.783  15.098 -0.6389 -1.8167 -0.5740
  283TMC3    H1 4329   0.475   0.379  15.136  1.5957 -1.6760  4.2516
  283TMC3    H2 4330   0.369   0.656  15.447 -1.2305 -0.7624 -0.8628
  283TMC3    C7 4331   0.311   0.432  15.339 -0.6031 -0.0120 -0.4706
  283TMC3    C8 4332   0.525   0.849  15.357 -0.8565 -0.2215  0.1767
  283TMC3    O1 4333   0.269   0.449  15.453 -0.4016  0.6329 -0.1686
  283TMC3    O2 4334   0.559   0.836  15.475 -0.3321  0.5759 -0.4880
  284MPD2     C 4335   4.040   0.020  11.804 -0.1132 -0.6813  0.2652
  284MPD2    C1 4336   4.153   0.092  11.826  0.5577  0.2849  0.8027
  284MPD2    C2 4337   4.243   0.051  11.924  0.0099  0.2363 -0.3672
  284MPD2    C3 4338   4.215   4.671  12.001  0.4167  0.0625 -0.9774
  284MPD2    C4 4339   4.100   4.597  11.977  0.6578  0.2395 -0.3242
  284MPD2    C5 4340   4.013   4.649  11.885  0.5909  0.2935 -0.3624
  284MPD2     H 4341   4.332   0.110  11.941 -0.4449  0.2176  2.0285
  284MPD2    H1 4342   4.074   4.502  12.022 -0.2142 -0.5521 -2.4930
  284MPD2    H2 4343   3.967   0.053  11.731 -1.4406 -0.8787  1.5027
  284MPD2    H3 4344   3.919   4.597  11.869 -0.7015  3.0928 -1.6764
  284MPD2     N 4345   4.298   4.618  12.097 -0.0154 -0.6098  0.2258
  284MPD2    H5 4346   4.278   4.521  12.121  1.6175 -0.6636  1.4167
  284MPD2    N1 4347   4.198   0.189  11.730  0.4906 -0.2114  0.3701
  284MPD2    H7 4348   4.293   0.224  11.736 -0.2023  1.5279  1.0868
  285TMC3    C1 4349   4.231   0.250  11.508  0.0965  0.1268 -0.3265
  285TMC3    C2 4350   4.360   0.225  11.528 -0.1877 -0.3061  0.6828
  285TMC3    C3 4351   4.454   0.295  11.456 -0.0170 -0.5304  0.5932
  285TMC3    C4 4352   4.185   0.336  11.412  0.1029 -0.6609 -0.3219
  285TMC3    C5 4353   4.282   0.417  11.346 -0.4858 -0.1230  0.2648
  285TMC3    C6 4354   4.418   0.387  11.358 -0.0190 -0.2203 -0.5066
  285TMC3     C 4355   4.131   0.212  11.611 -0.2409  0.5869 -0.0872
  285TMC3     O 4356   4.012   0.212  11.587  0.6173 -0.1179  0.1105
  285TMC3     H 4357   4.386   0.139  11.589  2.4658 -0.6182 -0.8934
  285TMC3    H1 4358   4.078   0.352  11.407  0.7486  3.1313 -1.7693
  285TMC3    H2 4359   4.486   0.429  11.286  2.1185 -2.4063  0.2396
  285TMC3    C7 4360   4.248   0.505  11.240 -0.0974 -0.8253 -0.0833
  285TMC3    C8 4361   4.572   0.212  11.417 -0.4297 -0.4171 -0.1781
  285TMC3    O1 4362   4.333   0.582  11.192  0.4898  0.0245  0.1048
  285TMC3    O2 4363   4.568   0.089  11.434  0.1645  0.7073 -0.6437
  286MPD2     C 4364   4.474   3.468   0.712 -0.1555  0.8371 -0.2083
  286MPD2    C1 4365   4.345   3.447   0.667 -0.0366 -0.3882 -0.1821
  286MPD2    C2 4366   4.332   3.352   0.565 -0.2107  0.1541 -0.3962
  286MPD2    C3 4367   4.438   3.282   0.511  0.6338  0.0132 -0.2372
  286MPD2    C4 4368   4.563   3.311   0.554 -0.5118  0.3239  0.3345
  286MPD2    C5 4369   4.586   3.405   0.655  0.0494  0.4965 -0.7722
  286MPD2     H 4370   4.233   3.333   0.525 -1.0116  2.2057  0.6049
  286MPD2    H1 4371   4.656   3.262   0.526 -0.6432  1.5339 -2.2478
  286MPD2    H2 4372   4.484   3.538   0.794  1.8507 -0.2486  0.4711
  286MPD2    H3 4373   4.685   3.426   0.691  0.4207 -1.0583 -0.9046
  286MPD2     N 4374   4.428   3.185   0.413  0.0071  0.0019 -0.6597
  286MPD2    H5 4375   4.509   3.135   0.380 -1.0861 -0.6388 -2.3174
  286MPD2    N1 4376   4.229   3.524   0.717  0.1164 -0.0541  0.3060
  286MPD2    H7 4377   4.153   3.526   0.651  0.4364  2.6852  0.0189
  287TMC3    C1 4378   4.338   3.037   0.264  0.8240  0.3055  0.4964
  287TMC3    C2 4379   4.238   3.003   0.176 -0.7948 -0.3670  0.2828
  287TMC3    C3 4380   4.235   2.875   0.135 -0.1221 -0.6994  0.0321
  287TMC3    C4 4381   4.423   2.943   0.312 -0.0134  0.1650  0.6479
  287TMC3    C5 4382   4.417   2.816   0.268 -0.5707 -0.6191 -0.3432
  287TMC3    C6 4383   4.321   2.780   0.180  0.3451  0.2630 -0.3654
  287TMC3     C 4384   4.311   3.142   0.357  0.3304  1.1034  0.1097
  287TMC3     O 4385   4.192   3.175   0.367  0.0936  0.5805  0.3724
  287TMC3     H 4386   4.160   3.073   0.149 -1.1947 -1.4356 -1.3453
  287TMC3    H1 4387   4.494   2.964   0.391  0.2691 -1.2783  0.7629
  287TMC3    H2 4388   4.321   2.677   0.144 -0.6313  0.8905 -2.1349
  287TMC3    C7 4389   4.494   2.723   0.345  0.0333  0.6366  0.8041
  287TMC3    C8 4390   4.138   2.838   0.030 -0.6333 -0.8360 -0.2268
  287TMC3    O1 4391   4.584   2.763   0.418 -0.2668 -0.6096  0.2368
  287TMC3    O2 4392   4.116   2.718   0.025  0.8669 -0.1395  0.2063
  288TMC3    C1 4393   1.122   3.480  14.047  0.3223  0.4172 -0.1659
  288TMC3    C2 4394   0.995   3.478  14.105  0.3036 -0.4805  0.8639
  288TMC3    C3 4395   0.910   3.578  14.078 -0.2388 -0.0826  0.1483
  288TMC3    C4 4396   1.163   3.585  13.965 -0.6509  0.8550  0.0140
  288TMC3    C5 4397   1.073   3.691  13.954  0.9074 -0.7564 -0.0457
  288TMC3    C6 4398   0.949   3.684  14.018 -0.3855 -0.2141 -0.1819
  288TMC3     C 4399   1.235   3.438  14.130 -0.5655 -0.5139  0.2852
  288TMC3     O 4400   1.344   3.472  14.099  0.0110 -0.3201 -0.3313
  288TMC3     H 4401   0.966   3.389  14.159  2.3913 -0.9154  1.2494
  288TMC3    H1 4402   1.265   3.587  13.927 -0.9003 -0.9121 -0.7489
  288TMC3    H2 4403   0.881   3.768  14.019 -1.2858 -0.9468  0.7423
  288TMC3    C7 4404   1.074   3.791  13.849  0.3981 -0.1818 -0.1474
  288TMC3    C8 4405   0.809   3.605  14.183 -0.9655  0.1069 -0.3887
  288TMC3    O1 4406   0.974   3.858  13.833 -0.1505  0.4998 -0.2284
  288TMC3    O2 4407   0.804   3.711  14.238 -0.0860  0.4451 -0.0099
  289MPD2     C 4408   0.849   2.309  14.339 -0.6060 -0.4011 -0.4887
  289MPD2    C1 4409   0.848   2.424  14.262  0.0724 -0.2957 -0.4904
  289MPD2    C2 4410   0.761   2.430  14.151  0.3489  0.2263  0.3197
  289MPD2    C3 4411   0.661   2.337  14.134  1.0542 -0.0457 -0.0937
  289MPD2    C4 4412   0.653   2.229  14.218 -0.7407  0.0076  0.7155
  289MPD2    C5 4413   0.749   2.216  14.315 -0.0140  0.1631 -0.0965
  289MPD2     H 4414   0.767   2.518  14.088  0.7895  0.3554  0.5413
  289MPD2    H1 4415   0.574   2.157  14.200 -1.0461  0.6051 -0.3147
  289MPD2    H2 4416   0.924   2.296  14.417 -2.0449 -0.5759  0.8588
  289MPD2    H3 4417   0.746   2.128  14.378  1.9043 -0.4088 -0.7951
  289MPD2     N 4418   0.561   2.350  14.039 -0.3024  0.8913  0.1992
  289MPD2    H5 4419   0.474   2.297  14.050  0.6630 -0.1705  2.6268
  289MPD2    N1 4420   0.940   2.524  14.303  0.9078 -0.4068 -0.7920
  289MPD2    H7 4421   1.000   2.499  14.381  1.5411  0.0197 -1.1414
  290TMC3    C1 4422   0.445   2.449  13.858  0.1263 -0.5786  0.4267
  290TMC3    C2 4423   0.409   2.565  13.794 -0.2255  0.2794  0.4350
  290TMC3    C3 4424   0.299   2.571  13.716  0.0542  0.0106  0.5564
  290TMC3    C4 4425   0.382   2.331  13.830 -0.1628  0.8173 -0.2090
  290TMC3    C5 4426   0.274   2.342  13.739  0.4578  0.4221 -0.0023
  290TMC3    C6 4427   0.231   2.457  13.688  0.1086  0.6801  1.1647
  290TMC3     C 4428   0.559   2.450  13.944  0.3866  1.0141 -0.5253
  290TMC3     O 4429   0.647   2.522  13.910 -0.0531  0.1973  0.3377
  290TMC3     H 4430   0.470   2.654  13.807 -1.6098  1.3948 -0.5879
  290TMC3    H1 4431   0.417   2.237  13.870  1.1747 -0.2592 -3.9198
  290TMC3    H2 4432   0.152   2.453  13.614 -0.2617 -1.2178  1.6625
  290TMC3    C7 4433   0.174   2.238  13.752  0.6997 -0.5295 -0.1590
  290TMC3    C8 4434   0.247   2.703  13.667 -0.1574  0.7265  0.0489
  290TMC3    O1 4435   0.057   2.271  13.737 -0.0930 -0.1725  0.1205
  290TMC3    O2 4436   0.166   2.716  13.580  0.4074 -0.0626  0.3695
  291MPD2     C 4437   4.585   2.728  17.186 -0.2560  0.0462 -0.0941
  291MPD2    C1 4438   4.646   2.673  17.296 -0.7235  0.1512 -0.2340
  291MPD2    C2 4439   4.720   2.751  17.384 -0.1385  0.2792 -0.3661
  291MPD2    C3 4440   0.002   2.887  17.358  0.3736  0.1175 -0.3521
  291MPD2    C4 4441   4.667   2.942  17.249 -0.1314  0.0885  0.2816
  291MPD2    C5 4442   4.598   2.860  17.158  0.2347 -0.4982 -0.1712
  291MPD2     H 4443   0.029   2.702  17.470 -0.9176  0.8917  0.3938
  291MPD2    H1 4444   4.668   3.050  17.238 -2.2596 -0.0306 -1.0002
  291MPD2    H2 4445   4.517   2.674  17.121  0.5975  0.3921 -1.2769
  291MPD2    H3 4446   4.558   2.908  17.070 -0.4746  0.2997  0.5861
  291MPD2     N 4447   0.077   2.974  17.441  0.3011 -0.4630 -0.2556
  291MPD2    H5 4448   0.079   3.072  17.415  0.7830  0.0756  1.8561
  291MPD2    N1 4449   4.632   2.537  17.324 -0.1308 -0.2634  0.0012
  291MPD2    H7 4450   4.699   2.502  17.391  0.4391  2.2011  0.6810
  292TMC3    C1 4451   4.574   2.309  17.300  0.0044  0.1770  1.0294
  292TMC3    C2 4452   4.676   2.274  17.384  0.6416  0.7888  0.1599
  292TMC3    C3 4453   4.684   2.144  17.425  0.5140  0.2457  0.2033
  292TMC3    C4 4454   4.489   2.217  17.239  0.1140 -0.0576 -0.9490
  292TMC3    C5 4455   4.513   2.085  17.273 -0.5600  0.2131  0.4154
  292TMC3    C6 4456   4.611   2.048  17.362  0.7335  0.4440 -0.4430
  292TMC3     C 4457   4.555   2.448  17.255  0.2135 -0.0940 -0.2030
  292TMC3     O 4458   4.462   2.471  17.179  0.0467 -0.2429  0.4287
  292TMC3     H 4459   4.733   2.355  17.429  0.4820  0.2725  1.2940
  292TMC3    H1 4460   4.407   2.249  17.175  0.3895  1.3218 -0.6181
  292TMC3    H2 4461   4.619   1.940  17.373  2.3465  0.1232 -4.7655
  292TMC3    C7 4462   4.418   1.989  17.229 -0.1437 -0.8787 -0.4513
  292TMC3    C8 4463   0.057   2.101  17.513  0.6169  0.2945  0.1771
  292TMC3    O1 4464   4.393   1.894  17.303  0.2262  0.2662 -1.0813
  292TMC3    O2 4465   0.155   2.173  17.535 -0.0414  0.6480  0.2427
  293MPD2     C 4466   2.363   4.311  12.322 -0.2485  0.9102 -0.1203
  293MPD2    C1 4467   2.264   4.224  12.341 -0.1605 -0.1295  0.5219
  293MPD2    C2 4468   2.224   4.224  12.474  0.3030 -0.3454 -0.1061
  293MPD2    C3 4469   2.276   4.310  12.575 -0.0345  0.2815  0.2026
  293MPD2    C4 4470   2.368   4.410  12.544  0.0399  0.3112  0.0643
  293MPD2    C5 4471   2.409   4.403  12.414  0.1989 -0.1178 -0.3090
  293MPD2     H 4472   2.162   4.141  12.504  0.2974  0.2791  1.6007
  293MPD2    H1 4473   2.405   4.486  12.612 -2.5870  0.3062  1.5092
  293MPD2    H2 4474   2.421   4.322  12.231  0.4852 -0.0622  0.2233
  293MPD2    H3 4475   2.495   4.457  12.377  0.5620 -0.0439  0.6509
  293MPD2     N 4476   2.218   4.285  12.704  0.5080 -0.6523 -0.1257
  293MPD2    H5 4477   2.161   4.202  12.715 -1.1920  0.5397  0.0537
  293MPD2    N1 4478   2.234   4.125  12.241  0.2327  0.0173  0.6725
  293MPD2    H7 4479   2.304   4.117  12.168  0.5429  1.5143  0.8126
  294TMC3    C1 4480   2.139   3.922  12.142  0.3093  0.0760 -0.3200
  294TMC3    C2 4481   2.050   3.815  12.151  0.4289  0.0036  0.1437
  294TMC3    C3 4482   2.075   3.697  12.077  0.4922 -1.0985 -0.2384
  294TMC3    C4 4483   2.243   3.920  12.045 -0.5087  0.1423 -0.2756
  294TMC3    C5 4484   2.262   3.796  11.988 -0.0661  0.3839 -0.0022
  294TMC3    C6 4485   2.180   3.691  11.992  0.5756  0.6375  0.2152
  294TMC3     C 4486   2.144   4.020  12.250  0.6227 -0.3527 -0.0560
  294TMC3     O 4487   2.061   3.999  12.340  0.4250 -0.4717 -0.3151
  294TMC3     H 4488   1.963   3.811  12.214  1.0511 -0.6533  0.9621
  294TMC3    H1 4489   2.317   3.998  12.031 -1.1465  0.8877  0.4829
  294TMC3    H2 4490   2.177   3.614  11.915 -0.9425 -0.5134  1.4429
  294TMC3    C7 4491   2.355   3.787  11.887  0.0961 -0.3822 -0.0689
  294TMC3    C8 4492   1.988   3.588  12.111 -0.9466  0.2230  0.0429
  294TMC3    O1 4493   2.434   3.689  11.892 -0.2064 -0.7920  0.6561
  294TMC3    O2 4494   1.882   3.604  12.174  0.2621  0.0500 -0.3185
  295MPD2     C 4495   3.048   2.319   0.801  0.1046 -0.2052 -0.5072
  295MPD2    C1 4496   2.920   2.355   0.847  0.2664 -0.2599 -0.0891
  295MPD2    C2 4497   2.846   2.268   0.920 -0.0282  0.4392  0.0594
  295MPD2    C3 4498   2.903   2.146   0.955  0.3089  0.4126 -0.2600
  295MPD2    C4 4499   3.027   2.109   0.912  0.2266  0.3843 -0.5761
  295MPD2    C5 4500   3.097   2.193   0.832  0.3856  0.1888 -0.4973
  295MPD2     H 4501   2.751   2.301   0.961  0.3054  0.0546  1.1297
  295MPD2    H1 4502   3.071   2.010   0.918  2.3672  1.4253  1.1798
  295MPD2    H2 4503   3.118   2.386   0.751 -0.5597  2.8580  2.7282
  295MPD2    H3 4504   3.193   2.155   0.800  0.4316  0.7372 -1.0098
  295MPD2     N 4505   2.846   2.050   1.047 -0.3270 -0.4895 -0.5456
  295MPD2    H5 4506   2.900   1.972   1.085 -0.4856 -0.5432 -0.4311
  295MPD2    N1 4507   2.861   2.478   0.817 -1.1347 -0.2108  0.2461
  295MPD2    H7 4508   2.776   2.495   0.870 -0.1799  0.8556  1.4321
  296TMC3    C1 4509   2.671   1.936   1.174 -0.3078 -0.7899 -0.1112
  296TMC3    C2 4510   2.567   1.968   1.254 -0.2336 -0.3950 -0.1496
  296TMC3    C3 4511   2.553   1.888   1.363  0.8276 -0.4909  0.8280
  296TMC3    C4 4512   2.753   1.825   1.192  0.4580 -0.5648 -0.0017
  296TMC3    C5 4513   2.723   1.746   1.301  0.2387 -0.1587 -0.1495
  296TMC3    C6 4514   2.627   1.776   1.388 -0.1954 -0.1276  1.1069
  296TMC3     C 4515   2.709   2.044   1.078 -0.1250  0.1165  0.7094
  296TMC3     O 4516   2.614   2.108   1.040 -0.0119  0.1039 -0.1601
  296TMC3     H 4517   2.505   2.055   1.238 -1.0896 -0.9959 -0.0593
  296TMC3    H1 4518   2.833   1.798   1.124 -0.0744  0.4130 -1.0015
  296TMC3    H2 4519   2.601   1.710   1.471 -0.8717 -1.3613 -0.0733
  296TMC3    C7 4520   2.794   1.623   1.303  0.6046  0.2157  0.7948
  296TMC3    C8 4521   2.467   1.935   1.474 -0.4213 -0.6152  0.5023
  296TMC3    O1 4522   2.857   1.593   1.201 -0.2041 -0.7697 -0.1610
  296TMC3    O2 4523   2.409   1.847   1.539 -0.0721  0.0557 -0.3950
  297MPD2     C 4524   4.241   4.335  15.688 -0.4433  0.7319  0.0689
  297MPD2    C1 4525   4.240   4.458  15.607  0.4916 -0.2281  0.1664
  297MPD2    C2 4526   4.351   4.537  15.594  0.0345 -0.1516 -0.0430
  297MPD2    C3 4527   4.470   4.499  15.656  0.3900 -0.8659 -0.5567
  297MPD2    C4 4528   4.475   4.387  15.734  0.0396 -0.3233  0.4349
  297MPD2    C5 4529   4.359   4.308  15.745 -0.7706 -0.6596 -0.2726
  297MPD2     H 4530   4.349   4.626  15.533 -2.1949  0.3263  0.7448
  297MPD2    H1 4531   4.565   4.360  15.788  0.5830 -1.3460 -0.9767
  297MPD2    H2 4532   4.156   4.271  15.709 -0.4623  0.7615  0.0830
  297MPD2    H3 4533   4.362   4.230  15.821 -1.0343 -0.2728  0.1350
  297MPD2     N 4534   4.586   4.583  15.647 -0.0599 -0.1499  0.7099
  297MPD2    H5 4535   4.667   4.541  15.691 -0.6046 -0.7008  1.1808
  297MPD2    N1 4536   4.125   4.510  15.542 -0.3549  0.4171  0.1890
  297MPD2    H7 4537   4.131   4.591  15.481  1.5103 -0.6991 -1.0804
  298TMC3    C1 4538   3.904   4.553  15.516  0.0496 -0.4761  0.6810
  298TMC3    C2 4539   3.927   4.648  15.417  0.4196  0.7006 -0.4877
  298TMC3    C3 4540   3.840   0.023  15.405 -0.8850  0.6757 -0.4451
  298TMC3    C4 4541   3.808   4.577  15.608  0.5578 -0.1984  0.0577
  298TMC3    C5 4542   3.729   4.687  15.597  0.1275 -0.6736 -0.5918
  298TMC3    C6 4543   3.730   0.036  15.492  0.1940  0.3334 -0.4288
  298TMC3     C 4544   4.001   4.453  15.551 -0.3285  0.8787  0.5082
  298TMC3     O 4545   3.968   4.354  15.613 -0.2063  1.0842 -0.3034
  298TMC3     H 4546   3.999   4.626  15.339  1.1026 -0.1353  0.3748
  298TMC3    H1 4547   3.811   4.526  15.703 -0.5243 -0.3800 -0.0070
  298TMC3    H2 4548   3.662   0.119  15.504 -0.0806  0.0132  0.2296
  298TMC3    C7 4549   3.640   4.716  15.707  0.1178 -0.2703 -0.4893
  298TMC3    C8 4550   3.901   0.141  15.348 -0.0986  0.2590  0.2272
  298TMC3    O1 4551   3.670   4.665  15.815  0.5939 -0.1500  0.0415
  298TMC3    O2 4552   4.018   0.131  15.313  0.1696 -0.3823  0.0735
  299MPD2     C 4553   0.959   3.900  10.683  0.4591 -0.4353 -0.5310
  299MPD2    C1 4554   0.964   4.017  10.620  0.1913  0.1125 -0.1400
  299MPD2    C2 4555   0.877   4.028  10.510  0.6795 -0.0373  0.5853
  299MPD2    C3 4556   0.787   3.935  10.465  0.2112 -0.5126 -0.3761
  299MPD2    C4 4557   0.787   3.816  10.531 -0.5846  0.3781  0.5180
  299MPD2    C5 4558   0.873   3.801  10.639  0.0056  0.8732  0.9228
  299MPD2     H 4559   0.875   4.126  10.464  2.8596 -1.3263 -2.2624
  299MPD2    H1 4560   0.735   3.724  10.507  0.8011 -0.5725  1.1598
  299MPD2    H2 4561   1.008   3.888  10.779  1.1776  0.3147 -0.8022
  299MPD2    H3 4562   0.882   3.707  10.692 -0.7405  1.1125  1.4726
  299MPD2     N 4563   0.689   3.957  10.362 -0.5840  0.4809 -0.1629
  299MPD2    H5 4564   0.623   3.884  10.337 -1.0896  0.7439  0.4021
  299MPD2    N1 4565   1.050   4.117  10.673  0.0942  0.5084 -0.5030
  299MPD2    H7 4566   1.091   4.101  10.765  0.1574  1.4777 -0.3679
  300TMC3    C1 4567   0.556   4.064  10.215  0.7316  0.1197  0.6738
  300TMC3    C2 4568   0.546   4.163  10.127  0.4450 -0.0295 -0.0622
  300TMC3    C3 4569   0.425   4.191  10.071 -0.3359 -0.5732 -0.2784
  300TMC3    C4 4570   0.456   3.974  10.239 -0.6459  0.6342 -0.5127
  300TMC3    C5 4571   0.340   3.995  10.170  0.3217  0.2319  0.4686
  300TMC3    C6 4572   0.322   4.102  10.087 -0.4639 -1.0011  0.4717
  300TMC3     C 4573   0.680   4.069  10.292  0.1426 -0.2152 -0.9444
  300TMC3     O 4574   0.739   4.174  10.301 -0.5633 -0.2610 -0.2712
  300TMC3     H 4575   0.624   4.237  10.120  1.1376 -0.5357  2.1500
  300TMC3    H1 4576   0.453   3.901  10.320 -0.8923 -0.7561 -1.7860
  300TMC3    H2 4577   0.221   4.133  10.062  0.3314 -0.7505 -2.5312
  300TMC3    C7 4578   0.221   3.948  10.232 -0.2954 -0.0470 -0.5739
  300TMC3    C8 4579   0.408   4.318   9.999  0.1998  0.2588 -0.1604
  300TMC3    O1 4580   0.194   3.831  10.233  0.3017  0.1455  0.5550
  300TMC3    O2 4581   0.488   4.407  10.025 -0.5420 -0.0111 -0.0818
  301MPD2     C 4582   2.660   0.235   0.999 -0.3304  0.2747  0.1259
  301MPD2    C1 4583   2.548   0.215   0.927  0.7340  0.3100  0.4346
  301MPD2    C2 4584   2.542   0.111   0.837  0.3261 -0.0648 -0.3123
  301MPD2    C3 4585   2.647   0.018   0.833  0.1484 -0.4317 -0.9187
  301MPD2    C4 4586   2.737   0.023   0.940  0.5784  0.1285 -0.1343
  301MPD2    C5 4587   2.745   0.134   1.012 -0.0089  0.4514  0.0053
  301MPD2     H 4588   2.461   0.117   0.765  1.7016 -0.3663 -1.8798
  301MPD2    H1 4589   2.814   4.682   0.943 -0.3013 -0.7754 -0.5257
  301MPD2    H2 4590   2.673   0.326   1.056  0.4671 -0.9578  1.8909
  301MPD2    H3 4591   2.840   0.151   1.059  0.1507 -0.7740  0.1240
  301MPD2     N 4592   2.649   4.644   0.742 -0.4578  0.2077 -0.1499
  301MPD2    H5 4593   2.709   4.564   0.764  2.1823  2.5401  1.1211
  301MPD2    N1 4594   2.442   0.309   0.912  0.6782  0.2085 -0.2345
  301MPD2    H7 4595   2.366   0.292   0.847  0.6233 -1.4771  0.2945
  302TMC3    C1 4596   2.588   4.506   0.562  0.4393 -0.2973  0.0790
  302TMC3    C2 4597   2.549   4.410   0.650 -0.3885  0.4065 -0.5771
  302TMC3    C3 4598   2.452   4.322   0.622  0.2811 -0.2658  0.4996
  302TMC3    C4 4599   2.529   4.507   0.436  0.0853  0.4704  0.3181
  302TMC3    C5 4600   2.439   4.410   0.408 -0.1059 -0.3553  0.5130
  302TMC3    C6 4601   2.391   4.320   0.502  0.3207  0.0982  0.6071
  302TMC3     C 4602   2.594   4.641   0.620 -0.2312 -0.4119 -0.2727
  302TMC3     O 4603   2.576   0.003   0.544 -0.1836 -0.1135  0.6334
  302TMC3     H 4604   2.595   4.399   0.747 -1.0040 -2.1452 -0.5653
  302TMC3    H1 4605   2.565   4.576   0.361  3.0412  0.1064  1.4013
  302TMC3    H2 4606   2.322   4.242   0.470  1.5243  1.1454 -4.5227
  302TMC3    C7 4607   2.342   4.437   0.306 -0.0176  0.3858 -0.1917
  302TMC3    C8 4608   2.432   4.214   0.717 -0.2633  0.1730  0.2158
  302TMC3    O1 4609   2.396   4.467   0.200 -0.3196 -0.4128 -0.5112
  302TMC3    O2 4610   2.521   4.203   0.801  0.3331  0.2255 -0.5500
  303MPD2     C 4611   3.351   3.897  10.577 -0.6135  0.3024 -0.7835
  303MPD2    C1 4612   3.283   3.780  10.557 -0.0678  0.7881 -0.6216
  303MPD2    C2 4613   3.213   3.769  10.437  0.1189 -1.0218  0.3764
  303MPD2    C3 4614   3.234   3.870  10.338 -0.5646 -0.8121 -0.0208
  303MPD2    C4 4615   3.307   3.981  10.367 -0.0522  0.7093  0.1309
  303MPD2    C5 4616   3.369   3.993  10.488 -0.9385  0.2876 -0.2487
  303MPD2     H 4617   3.168   3.675  10.408  0.8475 -1.5182  0.8610
  303MPD2    H1 4618   3.323   4.063  10.299 -0.6652  1.5680  1.0177
  303MPD2    H2 4619   3.396   3.915  10.674 -0.7024  1.5832 -0.9816
  303MPD2    H3 4620   3.436   4.077  10.497  0.7291 -0.7353 -2.9475
  303MPD2     N 4621   3.167   3.873  10.213  0.2675  0.4478  0.5395
  303MPD2    H5 4622   3.196   3.943  10.146  0.0315 -0.5499 -0.6157
  303MPD2    N1 4623   3.270   3.688  10.666  0.1441 -0.0392 -0.0869
  303MPD2    H7 4624   3.303   3.717  10.757 -0.5490  0.3992  0.0329
  304TMC3    C1 4625   3.199   3.501  10.789 -0.0986  0.4010 -0.1022
  304TMC3    C2 4626   3.098   3.568  10.853 -0.3111  0.3637 -0.9613
  304TMC3    C3 4627   3.023   3.513  10.950 -0.6879 -0.3635 -0.1617
  304TMC3    C4 4628   3.220   3.367  10.817 -0.3380 -0.0762 -0.1257
  304TMC3    C5 4629   3.142   3.306  10.912  0.0750 -0.6584 -0.5999
  304TMC3    C6 4630   3.048   3.380  10.981  0.0507  0.3069 -0.5637
  304TMC3     C 4631   3.244   3.550  10.659  0.6807 -0.2173 -0.0128
  304TMC3     O 4632   3.248   3.477  10.562  0.3350  0.3193  0.0250
  304TMC3     H 4633   3.067   3.662  10.809  0.8230  2.2404  2.2736
  304TMC3    H1 4634   3.294   3.312  10.760 -0.2651  1.9004 -1.9411
  304TMC3    H2 4635   2.981   3.338  11.055  1.2646 -0.3980  0.1383
  304TMC3    C7 4636   3.076   3.190  10.863  0.2304 -0.0596 -0.2232
  304TMC3    C8 4637   2.887   3.557  10.952  0.2581 -0.7104 -0.0168
  304TMC3    O1 4638   2.955   3.203  10.856  0.4180 -0.1334  0.2962
  304TMC3    O2 4639   2.866   3.675  10.947  0.2883 -0.0887 -0.0987
  305MPD2     C 4640   1.118   1.379  13.639 -0.2130 -0.7294  0.2126
  305MPD2    C1 4641   1.030   1.279  13.676 -0.2252  0.9806  0.0325
  305MPD2    C2 4642   0.946   1.230  13.583 -0.3063  0.2182 -0.3810
  305MPD2    C3 4643   0.945   1.290  13.455  0.0298 -1.0060 -0.5666
  305MPD2    C4 4644   1.032   1.396  13.421  0.4528  0.3051 -0.0782
  305MPD2    C5 4645   1.124   1.428  13.515 -0.6102  0.0881 -0.6871
  305MPD2     H 4646   0.877   1.148  13.599 -0.1637  0.5544  2.0100
  305MPD2    H1 4647   1.040   1.444  13.324 -3.0780  0.1642 -0.4318
  305MPD2    H2 4648   1.192   1.408  13.713 -1.9763  1.1052  1.2390
  305MPD2    H3 4649   1.193   1.509  13.490 -0.9107  0.7858  0.7317
  305MPD2     N 4650   0.868   1.235  13.347  0.3244  0.0089 -0.1240
  305MPD2    H5 4651   0.879   1.277  13.255 -0.1435 -1.1573 -0.7139
  305MPD2    N1 4652   1.044   1.229  13.809 -0.4623  0.3258  1.1241
  305MPD2    H7 4653   1.083   1.282  13.886 -0.3212 -0.0462  1.3054
  306TMC3    C1 4654   1.036   1.085  13.979  0.0500 -0.1973  0.3870
  306TMC3    C2 4655   1.116   0.983  14.010 -0.2380  0.7457 -0.0888
  306TMC3    C3 4656   1.160   0.968  14.143 -0.2122 -0.1108  0.0270
  306TMC3    C4 4657   0.971   1.151  14.072 -0.0275  0.1564 -0.1586
  306TMC3    C5 4658   1.007   1.139  14.206  0.0334 -0.0642  0.2036
  306TMC3    C6 4659   1.104   1.047  14.234 -0.2909 -0.6254 -0.1668
  306TMC3     C 4660   1.007   1.106  13.845  0.9312 -0.3408 -0.1512
  306TMC3     O 4661   0.970   1.006  13.785  0.3622 -0.3890  0.4128
  306TMC3     H 4662   1.172   0.933  13.932 -0.5659 -0.2614  0.3169
  306TMC3    H1 4663   0.891   1.210  14.028  0.2782  0.2430 -0.5988
  306TMC3    H2 4664   1.132   1.030  14.337  0.3037  0.4407 -0.1512
  306TMC3    C7 4665   0.898   1.128  14.296  0.1246  0.0271 -0.3881
  306TMC3    C8 4666   1.238   0.847  14.169  0.3303  0.0802 -0.3425
  306TMC3    O1 4667   0.791   1.094  14.251 -0.1905  0.6470  0.0678
  306TMC3    O2 4668   1.262   0.782  14.069 -0.1185 -0.2001  0.1434
  307MPD2     C 4669   3.280   3.334  17.636  0.7710 -0.6922  0.4021
  307MPD2    C1 4670   3.195   3.439  17.633  1.0984 -0.4373  0.7678
  307MPD2    C2 4671   3.122   3.480   0.002  0.3262  0.1904 -0.4076
  307MPD2    C3 4672   3.146   3.411   0.118  0.5016  0.2701  0.7966
  307MPD2    C4 4673   3.221   3.294   0.127  0.0375  1.3813  0.1867
  307MPD2    C5 4674   3.284   3.264   0.010  0.1216  0.7219 -0.1562
  307MPD2     H 4675   3.062   3.570  17.729  0.1265  0.2761  1.0265
  307MPD2    H1 4676   3.239   3.228   0.212 -1.5890  0.6074 -0.0566
  307MPD2    H2 4677   3.339   3.298  17.553  1.3170  0.5425  0.2465
  307MPD2    H3 4678   3.347   3.175   0.007  1.2361  1.4915  0.8556
  307MPD2     N 4679   3.096   3.472   0.234  0.2306  0.5966  0.0478
  307MPD2    H5 4680   3.043   3.558   0.224 -1.7201 -0.6546 -0.1976
  307MPD2    N1 4681   3.171   3.515  17.514 -0.1800  0.0873  0.2169
  307MPD2    H7 4682   3.120   3.602  17.519 -0.1966  0.2316 -2.2251
  308TMC3    C1 4683   2.806   3.579   0.483 -0.2014 -0.9340 -0.3358
  308TMC3    C2 4684   2.846   3.714   0.468 -0.2134  0.3581  0.4257
  308TMC3    C3 4685   2.982   3.736   0.444  0.3206 -0.2607 -0.3385
  308TMC3    C4 4686   2.906   3.482   0.483  0.5711 -0.6526 -0.4335
  308TMC3    C5 4687   3.035   3.514   0.452  0.5879  0.3249 -0.1621
  308TMC3    C6 4688   3.070   3.642   0.423  0.2512  0.0264 -0.3023
  308TMC3     C 4689   2.682   3.546   0.528  0.3731 -0.1199 -0.0054
  308TMC3     O 4690   2.663   3.440   0.585  0.1925 -0.8408  0.5646
  308TMC3     H 4691   2.782   3.801   0.477  1.6443  1.7288  0.4028
  308TMC3    H1 4692   2.879   3.378   0.500  0.5836  0.0769  4.1414
  308TMC3    H2 4693   3.171   3.668   0.393  1.0582 -0.8297  1.7315
  308TMC3    C7 4694   3.106   3.427   0.366  0.3156 -0.2250 -0.6614
  308TMC3    C8 4695   3.014   3.872   0.398 -0.2608  0.0385  0.0588
  308TMC3    O1 4696   3.127   3.314   0.409 -0.3217  0.0084 -0.3014
  308TMC3    O2 4697   2.924   3.950   0.385 -0.1902 -0.2843  0.5342
  309MPD2     C 4698   2.154   4.201  16.934  0.3021 -0.2267 -0.3196
  309MPD2    C1 4699   2.064   4.164  16.837  0.1185 -0.1958 -0.1814
  309MPD2    C2 4700   1.930   4.164  16.865 -0.5637  0.7294  0.0161
  309MPD2    C3 4701   1.885   4.196  16.991 -1.0797  0.4688 -0.0682
  309MPD2    C4 4702   1.981   4.227  17.089  0.0875 -0.3905  0.7311
  309MPD2    C5 4703   2.109   4.233  17.057 -0.6566  0.6174 -0.0500
  309MPD2     H 4704   1.858   4.144  16.786  1.2888 -0.0130 -1.4893
  309MPD2    H1 4705   1.962   4.248  17.193 -0.3914 -0.3653  0.6368
  309MPD2    H2 4706   2.257   4.222  16.912  0.8175 -0.4634  1.8254
  309MPD2    H3 4707   2.181   4.270  17.129  1.3125 -0.8398 -1.2982
  309MPD2     N 4708   1.752   4.207  17.025  0.5805  0.1019  0.4844
  309MPD2    H5 4709   1.734   4.239  17.120 -2.0843  1.8644 -0.6126
  309MPD2    N1 4710   2.102   4.130  16.708 -0.0830  0.6114  0.3727
  309MPD2    H7 4711   2.034   4.110  16.634  1.5648 -1.7697 -0.4865
  310TMC3    C1 4712   2.242   4.099  16.526 -0.4934  0.0517  0.2027
  310TMC3    C2 4713   2.152   4.158  16.438  0.6918 -0.1405 -0.1979
  310TMC3    C3 4714   2.179   4.142  16.302 -0.6204  0.3220  0.3154
  310TMC3    C4 4715   2.354   4.025  16.485 -0.1609  0.0003 -0.3695
  310TMC3    C5 4716   2.363   4.008  16.345  0.9656  0.8746  0.1283
  310TMC3    C6 4717   2.276   4.066  16.253 -0.0458 -0.2800  0.5103
  310TMC3     C 4718   2.233   4.110  16.670  0.2651 -0.3942  0.5077
  310TMC3     O 4719   2.332   4.105  16.744  0.1478 -0.3037  0.4144
  310TMC3     H 4720   2.076   4.227  16.471 -1.9130 -2.7689 -0.6921
  310TMC3    H1 4721   2.418   3.976  16.557  0.7216 -0.2374 -1.3160
  310TMC3    H2 4722   2.310   4.062  16.150  1.3878  0.6363  0.9560
  310TMC3    C7 4723   2.461   3.912  16.286  0.1921 -0.3032 -0.2183
  310TMC3    C8 4724   2.097   4.204  16.194  0.0696  0.1169 -0.2035
  310TMC3    O1 4725   2.463   3.898  16.163 -0.4278 -0.8714 -0.3573
  310TMC3    O2 4726   2.088   4.153  16.084 -0.2422 -0.1082 -0.7013
  311MPD2     C 4727   0.050   0.838  11.981 -0.1967 -0.2551 -0.2490
  311MPD2    C1 4728   0.083   0.888  12.105  0.6322  0.0204  0.8142
  311MPD2    C2 4729   0.001   0.862  12.211  0.3761  0.3510  0.2972
  311MPD2    C3 4730   4.622   0.781  12.204 -0.2125  0.3670 -0.0280
  311MPD2    C4 4731   4.598   0.722  12.083  0.4416  0.3095 -0.2695
  311MPD2    C5 4732   4.669   0.755  11.973  0.0515  0.7270  0.0272
  311MPD2     H 4733   0.015   0.907  12.309  0.9376  0.9321 -0.0501
  311MPD2    H1 4734   4.516   0.653  12.064  1.2943 -0.6448 -0.4954
  311MPD2    H2 4735   0.106   0.849  11.888  2.3230 -0.7039  1.2100
  311MPD2    H3 4736   4.636   0.722  11.875  0.1159 -2.0091  0.9162
  311MPD2     N 4737   4.548   0.774  12.320 -0.1811 -0.3605 -0.2884
  311MPD2    H5 4738   4.583   0.818  12.405  0.6929  0.0267 -0.8439
  311MPD2    N1 4739   0.190   0.980  12.129 -0.2677 -0.0896  0.3763
  311MPD2    H7 4740   0.199   1.018  12.223 -0.5250  0.0663  0.3394
  312TMC3    C1 4741   4.345   0.781  12.434  0.1894 -0.4549 -0.3863
  312TMC3    C2 4742   4.224   0.723  12.464  0.3948  0.3912 -0.2214
  312TMC3    C3 4743   4.167   0.766  12.577 -0.2237  0.5872  0.4274
  312TMC3    C4 4744   4.403   0.880  12.510  0.3807  0.3095  0.2842
  312TMC3    C5 4745   4.348   0.901  12.633  0.2673  0.2540 -0.0003
  312TMC3    C6 4746   4.231   0.846  12.660 -0.0602  0.2564 -0.2799
  312TMC3     C 4747   4.421   0.727  12.327  0.0945 -0.4669  0.3228
  312TMC3     O 4748   4.368   0.641  12.257  0.6410  0.0104 -0.5533
  312TMC3     H 4749   4.171   0.648  12.406  0.4735 -0.3133  0.6157
  312TMC3    H1 4750   4.488   0.940  12.481 -0.5177  0.9568 -1.0141
  312TMC3    H2 4751   4.184   0.872  12.754 -0.7961 -2.5286  0.1272
  312TMC3    C7 4752   4.403   1.000  12.725  0.6345  0.2726  1.1840
  312TMC3    C8 4753   4.035   0.723  12.617  0.4775  0.6794 -0.6961
  312TMC3    O1 4754   4.463   1.097  12.679 -0.2347 -0.2908  0.6103
  312TMC3    O2 4755   4.003   0.614  12.570 -0.3625 -0.4586 -0.3228
  313MPD2     C 4756   4.237   4.716  11.161  0.0700 -0.8003 -0.7211
  313MPD2    C1 4757   4.189   0.015  11.037  0.2022  0.3500  0.3816
  313MPD2    C2 4758   4.103   4.664  10.977 -0.0621  0.0054  0.3204
  313MPD2    C3 4759   4.046   4.559  11.038  0.1641 -0.2271  0.4662
  313MPD2    C4 4760   4.083   4.526  11.167 -0.0991  0.2473  0.1147
  313MPD2    C5 4761   4.183   4.605  11.226  0.2790  0.1019  0.0331
  313MPD2     H 4762   4.082   4.683  10.873  0.9453 -0.4830  0.0279
  313MPD2    H1 4763   4.047   4.436  11.215  2.7765 -0.0115  1.8391
  313MPD2    H2 4764   4.300   0.056  11.206 -1.1685 -0.5687  0.6373
  313MPD2    H3 4765   4.207   4.589  11.331  2.0577  1.5854 -0.1662
  313MPD2     N 4766   3.958   4.475  10.962  0.2466 -0.0583 -0.2546
  313MPD2    H5 4767   3.935   4.503  10.867  0.3609 -1.5423 -0.7073
  313MPD2    N1 4768   4.232   0.136  10.977 -0.7018 -0.2339  0.1959
  313MPD2    H7 4769   4.315   0.176  11.018  0.1165 -1.1782 -0.5139
  314TMC3    C1 4770   4.229   0.324  10.838 -0.4133 -0.4805 -0.2787
  314TMC3    C2 4771   4.356   0.317  10.806  0.3035 -0.0109  0.1731
  314TMC3    C3 4772   4.401   0.417  10.728 -0.3901  0.4644  0.0352
  314TMC3    C4 4773   4.143   0.417  10.791 -0.4050 -0.1800 -0.3493
  314TMC3    C5 4774   4.190   0.523  10.720 -0.7331  0.7804 -0.0689
  314TMC3    C6 4775   4.321   0.520  10.686  0.5887 -0.7565  0.0977
  314TMC3     C 4776   4.160   0.208  10.890  0.5677  0.3742 -0.2041
  314TMC3     O 4777   4.043   0.184  10.860  0.2378  0.1993 -0.5346
  314TMC3     H 4778   4.419   0.243  10.855  0.2525 -0.4203 -0.3822
  314TMC3    H1 4779   4.038   0.396  10.804 -0.1307 -0.9949  0.5537
  314TMC3    H2 4780   4.359   0.597  10.620 -0.7897 -0.1266  0.0398
  314TMC3    C7 4781   4.083   0.563  10.619  0.3492 -0.0875  0.3979
  314TMC3    C8 4782   4.548   0.411  10.699 -0.2385  0.3668 -0.0117
  314TMC3    O1 4783   3.963   0.568  10.646  0.1128  0.7445  0.4123
  314TMC3    O2 4784   4.586   0.297  10.689 -0.3748 -0.0153  0.6077
  315MPD2     C 4785   3.466   4.673  17.660 -1.0071  0.7227 -0.1566
  315MPD2    C1 4786   3.495   4.590  17.552  0.1016 -0.4720 -0.4717
  315MPD2    C2 4787   3.524   4.655  17.433  0.5147 -0.3688  0.0815
  315MPD2    C3 4788   3.538   0.052  17.422 -0.9306 -0.8154  0.7655
  315MPD2    C4 4789   3.510   0.128  17.530 -0.0748 -0.1464 -0.3481
  315MPD2    C5 4790   3.468   0.074  17.648  0.5501 -0.2958 -0.2952
  315MPD2     H 4791   3.529   4.597  17.342 -1.8019 -0.1197 -0.2101
  315MPD2    H1 4792   3.518   0.236  17.528 -0.6133 -0.0699  1.3858
  315MPD2    H2 4793   3.438   4.636   0.017  1.4619  1.6456  0.8844
  315MPD2    H3 4794   3.430   0.128  17.734  0.6255  1.8826 -1.6072
  315MPD2     N 4795   3.601   0.094  17.304 -0.3981 -0.3384  0.9446
  315MPD2    H5 4796   3.613   0.027  17.229 -4.1463  0.5065 -0.4426
  315MPD2    N1 4797   3.493   4.444  17.552  0.1370 -0.2844  0.2526
  315MPD2    H7 4798   3.514   4.402  17.462  2.4784  2.5606 -0.5290
  316TMC3    C1 4799   3.785   0.204  17.225 -0.1843  0.3467  0.1874
  316TMC3    C2 4800   3.868   0.152  17.329  1.1177  0.4669 -0.5345
  316TMC3    C3 4801   3.947   0.043  17.308 -0.0234  0.0642  0.1037
  316TMC3    C4 4802   3.782   0.136  17.101  0.4511 -0.4404  0.0793
  316TMC3    C5 4803   3.875   0.039  17.077  0.0190  0.1275 -0.5317
  316TMC3    C6 4804   3.953   4.726  17.179  0.2743 -0.0441 -0.0185
  316TMC3     C 4805   3.657   0.214  17.286 -0.3639  0.1000  0.0889
  316TMC3     O 4806   3.654   0.322  17.346  0.0705  0.4739  1.0853
  316TMC3     H 4807   3.849   0.194  17.427 -1.5187  3.2236 -2.1954
  316TMC3    H1 4808   3.710   0.170  17.028 -0.3058 -0.9390  0.5910
  316TMC3    H2 4809   4.017   4.640  17.161  0.8106  0.0654  1.3687
  316TMC3    C7 4810   3.903   0.016  16.940  0.4165 -0.0469  0.0325
  316TMC3    C8 4811   3.931   4.693  17.424 -0.2507 -0.2185 -0.3733
  316TMC3    O1 4812   4.020   0.022  16.915  0.3388  0.9105  0.5565
  316TMC3    O2 4813   3.924   0.019  17.530 -0.3327 -0.6820  0.4413
  317MPD2     C 4814   0.867   2.887  12.684  0.2088  0.3043 -0.3440
  317MPD2    C1 4815   0.916   2.760  12.641 -0.1284 -0.4909 -0.2433
  317MPD2    C2 4816   0.935   2.665  12.743  0.3591  0.9453 -0.8807
  317MPD2    C3 4817   0.931   2.697  12.876 -0.2692  0.1044  0.0107
  317MPD2    C4 4818   0.886   2.823  12.916 -0.2518  0.3871  0.0106
  317MPD2    C5 4819   0.849   2.918  12.819  0.6781 -1.0812 -0.0171
  317MPD2     H 4820   0.967   2.566  12.712  1.4831  1.0770 -0.1314
  317MPD2    H1 4821   0.864   2.850  13.019  1.1450 -2.6493  1.1004
  317MPD2    H2 4822   0.855   2.967  12.612  1.8166 -2.6346 -3.8884
  317MPD2    H3 4823   0.804   3.006  12.863  0.1568 -0.0746 -2.5095
  317MPD2     N 4824   0.967   2.601  12.972 -0.4765 -0.3124 -0.2638
  317MPD2    H5 4825   1.003   2.515  12.933 -0.7907 -0.0786 -1.0613
  317MPD2    N1 4826   0.942   2.726  12.508  0.5726 -0.4769  0.1144
  317MPD2    H7 4827   0.977   2.631  12.496 -2.1732 -1.6393  1.3142
  318TMC3    C1 4828   1.000   2.492  13.183 -0.9321  0.9411 -0.0583
  318TMC3    C2 4829   0.976   2.365  13.135  0.3527 -0.7247  0.0988
  318TMC3    C3 4830   1.022   2.260  13.213  0.1556  1.0037  0.5935
  318TMC3    C4 4831   1.072   2.515  13.291 -0.9018 -1.1982  0.3156
  318TMC3    C5 4832   1.123   2.411  13.356  0.4922 -0.4213 -0.0071
  318TMC3    C6 4833   1.107   2.282  13.320  0.1451  0.3018  0.5124
  318TMC3     C 4834   0.968   2.618  13.113 -0.3107  0.1848  0.4516
  318TMC3     O 4835   0.933   2.711  13.180 -0.5997  0.1036  0.8144
  318TMC3     H 4836   0.927   2.362  13.038  0.6296 -0.0500 -0.0604
  318TMC3    H1 4837   1.084   2.618  13.321 -1.2140 -0.7311 -1.1762
  318TMC3    H2 4838   1.150   2.199  13.374  2.0038  2.3553  2.2071
  318TMC3    C7 4839   1.227   2.449  13.448  0.5027  0.0190 -1.0564
  318TMC3    C8 4840   0.949   2.141  13.204 -0.0542 -0.0870 -0.1401
  318TMC3    O1 4841   1.216   2.561  13.491  0.0207  0.4484  0.6358
  318TMC3    O2 4842   0.986   2.050  13.278 -0.1119 -0.1665  0.2299
  319MPD2     C 4843   1.819   3.930  16.282  0.1852 -0.2826  0.5489
  319MPD2    C1 4844   1.785   3.807  16.325 -0.1185 -0.0609  0.1341
  319MPD2    C2 4845   1.696   3.730  16.252  0.8023  0.3993  0.3087
  319MPD2    C3 4846   1.627   3.783  16.142 -0.6993 -0.3566  0.1311
  319MPD2    C4 4847   1.661   3.909  16.101 -0.4304  0.5717  0.3124
  319MPD2    C5 4848   1.766   3.977  16.162 -0.0673  0.2457 -0.2556
  319MPD2     H 4849   1.685   3.625  16.276 -1.4798  1.0968  2.2663
  319MPD2    H1 4850   1.611   3.955  16.016  0.9521 -3.4269 -2.6276
  319MPD2    H2 4851   1.899   3.990  16.324 -0.0682  1.0259 -0.8011
  319MPD2    H3 4852   1.794   4.077  16.130  1.6091 -0.9150 -2.4049
  319MPD2     N 4853   1.518   3.721  16.075 -0.1634  0.3868 -0.0611
  319MPD2    H5 4854   1.471   3.774  16.003 -1.2672  0.3955  0.6614
  319MPD2    N1 4855   1.842   3.742  16.437 -0.2858 -0.2133 -0.1402
  319MPD2    H7 4856   1.810   3.646  16.449  0.1950 -0.3238  0.2930
  320TMC3    C1 4857   1.349   3.549  16.059 -0.0158 -0.9464 -0.0616
  320TMC3    C2 4858   1.303   3.589  15.939 -0.2482 -0.2045 -0.6959
  320TMC3    C3 4859   1.174   3.544  15.900  0.1867  0.1505 -0.1789
  320TMC3    C4 4860   1.281   3.460  16.134  0.2846 -0.0691 -0.4812
  320TMC3    C5 4861   1.165   3.407  16.090 -0.4547 -1.4270 -0.0320
  320TMC3    C6 4862   1.107   3.450  15.972 -0.1288 -0.5828 -0.4168
  320TMC3     C 4863   1.466   3.601  16.126  0.3452  0.9447 -0.8583
  320TMC3     O 4864   1.511   3.524  16.211  0.0208  0.3950  0.2720
  320TMC3     H 4865   1.348   3.659  15.870 -0.3735 -0.2945 -0.8705
  320TMC3    H1 4866   1.306   3.447  16.239 -3.3979 -1.5127  0.1892
  320TMC3    H2 4867   1.022   3.397  15.931  0.0503 -2.1857  1.2695
  320TMC3    C7 4868   1.153   3.273  16.126  0.4229 -0.0160 -0.4726
  320TMC3    C8 4869   1.118   3.611  15.786  0.0316 -0.3212 -0.6868
  320TMC3    O1 4870   1.050   3.210  16.139 -0.4849 -0.1083  0.1753
  320TMC3    O2 4871   1.179   3.711  15.745 -0.1568  0.8498  0.1931
  321TMC3    C1 4872   1.924   3.738  16.650  0.1580  0.6060  0.4731
  321TMC3    C2 4873   1.859   3.615  16.665 -0.0467  0.1105  0.1377
  321TMC3    C3 4874   1.861   3.570  16.791  0.5223 -0.1966 -0.7952
  321TMC3    C4 4875   1.996   3.801  16.751 -0.3930  0.2125 -0.4887
  321TMC3    C5 4876   1.997   3.746  16.875  1.0167  0.1355  0.0447
  321TMC3    C6 4877   1.922   3.634  16.897  1.2569 -0.4325 -0.0521
  321TMC3     C 4878   1.912   3.816  16.528  0.3145 -0.5161  0.3725
  321TMC3     O 4879   1.949   3.936  16.528  0.2667  0.8224 -0.4127
  321TMC3     H 4880   1.824   3.551  16.584  0.7275 -1.5508  1.1252
  321TMC3    H1 4881   2.052   3.891  16.732 -1.1801  1.4335  3.0464
  321TMC3    H2 4882   1.913   3.591  16.997  1.8755  2.2563  1.1470
  321TMC3    C7 4883   2.123   3.732  16.945 -0.3198 -0.0537 -0.0833
  321TMC3    C8 4884   1.862   3.429  16.813  0.5062 -0.0062 -0.0760
  321TMC3    O1 4885   2.159   3.615  16.949  0.8366 -0.6709  0.1671
  321TMC3    O2 4886   1.775   3.356  16.765  0.0881  0.2939  0.6144
  322MPD2     C 4887   0.602   0.578  13.341 -1.1540 -0.7439  0.8647
  322MPD2    C1 4888   0.648   0.494  13.433 -0.2425  0.4119 -0.0956
  322MPD2    C2 4889   0.638   0.357  13.408  0.2577  0.5935 -0.1826
  322MPD2    C3 4890   0.582   0.308  13.293  0.3563 -0.4609 -0.2458
  322MPD2    C4 4891   0.546   0.399  13.189 -0.2431 -0.3972  0.5851
  322MPD2    C5 4892   0.558   0.534  13.219  0.8980  0.4639 -0.5537
  322MPD2     H 4893   0.688   0.284  13.471  0.1971  0.0229 -0.7916
  322MPD2    H1 4894   0.505   0.361  13.096  1.6770 -0.6712 -0.1559
  322MPD2    H2 4895   0.603   0.686  13.355  0.4767 -0.6264 -0.1762
  322MPD2    H3 4896   0.540   0.611  13.145 -2.8177 -0.0731 -0.1903
  322MPD2     N 4897   0.587   0.168  13.276  0.7656 -0.6123  0.4361
  322MPD2    H5 4898   0.610   0.118  13.362 -1.4081  1.3508  2.1556
  322MPD2    N1 4899   0.702   0.553  13.544 -0.0588 -0.3681 -0.0703
  322MPD2    H7 4900   0.692   0.653  13.553 -2.8104 -0.6509  0.1520
  323TMC3    C1 4901   0.816   0.559  13.754  0.1084  0.1068  0.8375
  323TMC3    C2 4902   0.913   0.648  13.724  0.5322  0.0929  1.0130
  323TMC3    C3 4903   1.030   0.651  13.797  0.0523  0.3326 -0.2585
  323TMC3    C4 4904   0.827   0.487  13.869  0.4162  0.2287 -0.0020
  323TMC3    C5 4905   0.934   0.505  13.953 -0.2004  0.0541  0.2245
  323TMC3    C6 4906   1.046   0.579  13.909  0.5134  0.3450  0.0743
  323TMC3     C 4907   0.751   0.479  13.649  1.0238  0.4572 -0.1470
  323TMC3     O 4908   0.752   0.359  13.673 -0.2816  0.1947  0.4111
  323TMC3     H 4909   0.902   0.693  13.626  1.1761  1.1778  1.4402
  323TMC3    H1 4910   0.740   0.429  13.897  0.6480 -0.3982 -0.5920
  323TMC3    H2 4911   1.138   0.594  13.964 -0.2688 -1.3503  1.8459
  323TMC3    C7 4912   0.945   0.402  14.055 -0.5609  0.0410  0.4410
  323TMC3    C8 4913   1.148   0.706  13.737  0.8694 -0.4128  0.2801
  323TMC3    O1 4914   0.866   0.305  14.047 -0.4246 -0.0184 -0.4538
  323TMC3    O2 4915   1.250   0.660  13.779 -0.4110  0.1552 -0.4157
  324MPD2     C 4916   2.543   1.351  14.104  0.0725  0.9731  1.1429
  324MPD2    C1 4917   2.571   1.458  14.024  0.3698  0.1090  0.1938
  324MPD2    C2 4918   2.475   1.520  13.949  0.0902  0.3460 -0.0965
  324MPD2    C3 4919   2.345   1.487  13.969 -0.2368 -0.8241  0.0144
  324MPD2    C4 4920   2.310   1.395  14.061  0.1458 -0.1878  0.1760
  324MPD2    C5 4921   2.408   1.318  14.117 -0.4047 -0.0867 -0.5838
  324MPD2     H 4922   2.508   1.585  13.868  0.8268 -0.9919 -0.8719
  324MPD2    H1 4923   2.208   1.383  14.095 -0.1545 -1.6684 -1.2635
  324MPD2    H2 4924   2.620   1.297  14.158 -0.1266 -0.1589  0.2915
  324MPD2    H3 4925   2.364   1.239  14.177  0.5395  2.4870  3.5714
  324MPD2     N 4926   2.241   1.545  13.895 -0.4204  0.5245 -0.0167
  324MPD2    H5 4927   2.153   1.501  13.918  0.7475 -1.6955  0.2202
  324MPD2    N1 4928   2.704   1.520  14.019  0.5697 -0.1675 -0.0903
  324MPD2    H7 4929   2.710   1.606  13.965  1.9162 -0.3105 -0.1702
  325TMC3    C1 4930   2.117   1.696  13.776 -0.0940  1.1128 -0.3283
  325TMC3    C2 4931   2.036   1.593  13.732  0.2310 -0.5745  0.0020
  325TMC3    C3 4932   1.908   1.621  13.691 -0.0704 -0.1482 -0.5161
  325TMC3    C4 4933   2.070   1.823  13.788  0.1428 -0.7708  0.3254
  325TMC3    C5 4934   1.935   1.841  13.763 -0.0947  0.8230 -0.3430
  325TMC3    C6 4935   1.853   1.743  13.710  0.0374  0.6600  0.3440
  325TMC3     C 4936   2.244   1.666  13.832  0.1765 -0.2669  0.5802
  325TMC3     O 4937   2.332   1.750  13.832 -0.5898 -0.0484  0.6299
  325TMC3     H 4938   2.088   1.503  13.701  0.8577 -0.6108  1.1320
  325TMC3    H1 4939   2.136   1.896  13.833 -1.0560 -0.0815  0.9547
  325TMC3    H2 4940   1.750   1.769  13.688 -0.3271 -1.4970 -0.4319
  325TMC3    C7 4941   1.867   1.970  13.806 -0.3569  0.4500  0.4347
  325TMC3    C8 4942   1.837   1.524  13.607  0.3982 -0.0470  0.5611
  325TMC3    O1 4943   1.937   2.070  13.802  0.2458 -0.1497 -0.0920
  325TMC3    O2 4944   1.893   1.421  13.572  0.0759  0.5230  0.1620
  326MPD2     C 4945   4.239   2.458  10.700  0.3637 -0.5803 -0.0212
  326MPD2    C1 4946   4.216   2.483  10.563 -0.0032 -0.3895 -0.0809
  326MPD2    C2 4947   4.308   2.559  10.492 -0.2018 -0.8240  0.2766
  326MPD2    C3 4948   4.420   2.607  10.546  0.4720  0.0324 -0.2399
  326MPD2    C4 4949   4.447   2.564  10.670  0.2640 -0.4609  0.0093
  326MPD2    C5 4950   4.359   2.486  10.748 -0.1854 -0.1895  0.1199
  326MPD2     H 4951   4.299   2.571  10.385 -0.3200 -0.8207  0.2875
  326MPD2    H1 4952   4.544   2.589  10.712  0.3726 -0.4688 -0.2377
  326MPD2    H2 4953   4.169   2.401  10.760 -2.4612  1.2668 -1.6176
  326MPD2    H3 4954   4.378   2.450  10.849  2.0314 -1.1017 -0.6103
  326MPD2     N 4955   4.520   2.679  10.479 -0.9243 -0.5281  0.5489
  326MPD2    H5 4956   4.613   2.680  10.520 -1.0970  1.0943  0.8707
  326MPD2    N1 4957   4.092   2.476  10.494 -0.1932 -0.4140 -0.2342
  326MPD2    H7 4958   4.084   2.502  10.396 -0.2666  2.1761  0.4802
  327TMC3    C1 4959   3.885   2.409  10.450 -0.3322  0.3250 -0.2483
  327TMC3    C2 4960   3.802   2.514  10.452  0.6026 -0.1442 -0.6897
  327TMC3    C3 4961   3.757   2.563  10.329  0.2688 -0.2834 -0.3025
  327TMC3    C4 4962   3.928   2.350  10.339  0.5560  1.1012  0.4730
  327TMC3    C5 4963   3.890   2.395  10.217  0.2988  0.3031  0.6160
  327TMC3    C6 4964   3.812   2.504  10.217 -0.7654  0.6352 -0.3777
  327TMC3     C 4965   3.982   2.412  10.547 -0.4086  0.3831  0.2390
  327TMC3     O 4966   3.972   2.348  10.649 -0.7755  0.3095 -0.5590
  327TMC3     H 4967   3.800   2.579  10.539  0.3749 -1.4939  0.3114
  327TMC3    H1 4968   3.983   2.257  10.352  1.2549  1.3452 -0.7919
  327TMC3    H2 4969   3.786   2.541  10.118  3.3864  2.1561 -0.9037
  327TMC3    C7 4970   3.997   2.407  10.119 -0.5071  0.2426  0.3531
  327TMC3    C8 4971   3.720   2.701  10.314 -0.3449 -0.4778  0.4232
  327TMC3    O1 4972   3.973   2.477  10.020  0.0085 -0.2247 -0.4091
  327TMC3    O2 4973   3.754   2.758  10.206 -0.3593 -0.1132  0.1586
  328MPD2     C 4974   1.257   2.693  17.127  0.1246  0.6592  0.3943
  328MPD2    C1 4975   1.169   2.591  17.141  0.2706  0.4156 -0.9366
  328MPD2    C2 4976   1.086   2.546  17.040 -0.2615 -0.2415  0.6619
  328MPD2    C3 4977   1.093   2.612  16.918 -0.3472  0.2495  0.0488
  328MPD2    C4 4978   1.180   2.717  16.897 -0.6183  1.0585  0.5333
  328MPD2    C5 4979   1.273   2.747  17.001 -0.4267  0.2106  0.0369
  328MPD2     H 4980   1.007   2.478  17.069 -0.5298 -0.6868 -1.1383
  328MPD2    H1 4981   1.198   2.764  16.801  0.1496  0.4714  0.3859
  328MPD2    H2 4982   1.316   2.730  17.210 -1.7681  3.1066  0.6515
  328MPD2    H3 4983   1.346   2.825  16.984 -0.1041 -0.2881 -0.8157
  328MPD2     N 4984   0.997   2.581  16.823  0.3756 -0.5413 -0.3584
  328MPD2    H5 4985   0.997   2.636  16.738  0.1580 -1.7868 -1.1659
  328MPD2    N1 4986   1.162   2.526  17.267  0.1690 -0.7265  0.1719
  328MPD2    H7 4987   1.219   2.568  17.341 -0.6368 -0.4413  0.6252
  329TMC3    C1 4988   1.123   2.363  17.437 -0.2430  0.8634 -0.8102
  329TMC3    C2 4989   1.081   2.460  17.523 -0.4287 -0.0937 -0.1825
  329TMC3    C3 4990   1.066   2.415  17.653  0.8501  0.5948 -0.3761
  329TMC3    C4 4991   1.123   2.232  17.477 -0.4917  0.0927 -0.2673
  329TMC3    C5 4992   1.108   2.197  17.607  0.3223 -0.1344  0.2949
  329TMC3    C6 4993   1.080   2.292  17.701  0.5056 -0.2029 -0.0372
  329TMC3     C 4994   1.097   2.402  17.298 -0.6719  0.3250  0.0640
  329TMC3     O 4995   1.042   2.319  17.230  0.0122 -0.4241  0.3100
  329TMC3     H 4996   1.064   2.561  17.487 -0.7245  0.9893  3.0626
  329TMC3    H1 4997   1.152   2.159  17.403  0.9952 -0.6283  1.0162
  329TMC3    H2 4998   1.074   2.264   0.065 -2.0591 -0.9085 -0.3596
  329TMC3    C7 4999   1.051   2.067  17.625  0.5433  0.4585  0.0365
  329TMC3    C8 5000   1.032   2.509   0.014  0.3380  0.1731  0.6464
  329TMC3    O1 5001   1.063   1.986  17.537  0.0831  0.0483  0.0087
  329TMC3    O2 5002   1.067   2.480   0.128  0.3594  0.0156 -0.6953
  330TMC3    C1 5003   4.554   1.346   8.830 -0.2771  0.7347 -0.6796
  330TMC3    C2 5004   4.456   1.251   8.812 -1.0305 -0.3138 -0.2108
  330TMC3    C3 5005   4.447   1.161   8.908 -0.5454  0.4054  0.2857
  330TMC3    C4 5006   4.646   1.339   8.929 -0.0798 -0.9257  0.6453
  330TMC3    C5 5007   4.636   1.240   9.029 -0.5715 -0.6115 -0.8357
  330TMC3    C6 5008   4.530   1.156   9.014  0.4059  0.7738  0.3487
  330TMC3     C 5009   4.566   1.464   8.742 -0.4241  0.2778 -0.0499
  330TMC3     O 5010   4.674   1.520   8.752  0.1522  0.2576  0.0100
  330TMC3     H 5011   4.398   1.246   8.720 -0.7719  0.3120 -0.4106
  330TMC3    H1 5012   4.724   1.413   8.944 -1.3042  0.2480  1.2456
  330TMC3    H2 5013   4.524   1.075   9.086 -0.6931  2.0824  1.7263
  330TMC3    C7 5014   4.722   1.240   9.149 -0.0092  0.1063  0.1246
  330TMC3    C8 5015   4.370   1.045   8.873 -0.3429 -0.1347  0.1103
  330TMC3    O1 5016   0.081   1.316   9.150 -0.5053  0.0345 -0.1875
  330TMC3    O2 5017   4.349   1.024   8.756  0.3209 -0.0762  0.5486
  331MPD2     C 5018   2.282   1.203  12.621  0.8002 -0.1070  0.3495
  331MPD2    C1 5019   2.194   1.200  12.517 -0.5594  0.6765 -0.6281
  331MPD2    C2 5020   2.127   1.088  12.490 -1.0018  0.3355 -0.1177
  331MPD2    C3 5021   2.139   0.976  12.567 -0.6586 -0.3279 -0.3060
  331MPD2    C4 5022   2.220   0.980  12.674  0.1647 -0.2197 -0.5470
  331MPD2    C5 5023   2.293   1.089  12.695  0.0752  0.4507  0.2317
  331MPD2     H 5024   2.075   1.083  12.395  0.9331 -0.7820 -1.1188
  331MPD2    H1 5025   2.232   0.898  12.744 -1.3515  0.4350  0.4812
  331MPD2    H2 5026   2.350   1.284  12.644 -1.4935  1.4363  1.5708
  331MPD2    H3 5027   2.362   1.089  12.778  0.4466  3.2087 -0.0691
  331MPD2     N 5028   2.077   0.849  12.522 -0.6522  0.5916 -0.4239
  331MPD2    H5 5029   2.002   0.860  12.454 -2.3163  1.2630  1.5094
  331MPD2    N1 5030   2.185   1.315  12.427  0.2839 -0.0423  0.1955
  331MPD2    H7 5031   2.252   1.390  12.442  1.4171 -1.2210  0.9478
  332TMC3    C1 5032   2.107   0.632  12.448 -0.1063  0.7224 -0.8763
  332TMC3    C2 5033   2.090   0.696  12.317  0.5666 -0.1780  0.2380
  332TMC3    C3 5034   2.180   0.660  12.225  0.2659 -0.8602 -0.2707
  332TMC3    C4 5035   2.194   0.534  12.469 -0.2933  0.1760 -0.1430
  332TMC3    C5 5036   2.287   0.506  12.372 -0.4126  0.5727 -0.1058
  332TMC3    C6 5037   2.283   0.568  12.248 -0.4075 -0.0478 -0.5781
  332TMC3     C 5038   2.105   0.722  12.565  0.5981 -0.6639 -0.7887
  332TMC3     O 5039   2.175   0.688  12.667 -0.0832  0.4780 -0.3083
  332TMC3     H 5040   2.003   0.755  12.288 -0.1902 -3.4954 -4.1602
  332TMC3    H1 5041   2.194   0.471  12.557 -1.0235  1.9845  1.1622
  332TMC3    H2 5042   2.351   0.540  12.168 -0.1347 -1.0609  0.0002
  332TMC3    C7 5043   2.420   0.485  12.431  0.1460 -0.3270 -0.0271
  332TMC3    C8 5044   2.203   0.747  12.119  0.4529 -0.3977 -0.5245
  332TMC3    O1 5045   2.510   0.446  12.357 -0.1976  0.0491  0.2942
  332TMC3    O2 5046   2.276   0.714  12.029 -0.7068  0.4747  0.1091
  333MPD2     C 5047   2.797   1.362  10.904 -0.4054 -0.3480 -1.5159
  333MPD2    C1 5048   2.872   1.256  10.856 -1.0484 -0.8001  0.3291
  333MPD2    C2 5049   2.830   1.132  10.887 -0.7995 -0.1743 -0.0975
  333MPD2    C3 5050   2.720   1.106  10.964  0.5091  0.0293 -1.0953
  333MPD2    C4 5051   2.653   1.213  11.027  0.6047 -0.1898  0.4053
  333MPD2    C5 5052   2.687   1.340  10.982 -0.9822 -0.2801 -1.1042
  333MPD2     H 5053   2.877   1.046  10.841 -0.9853 -0.0115 -0.5941
  333MPD2    H1 5054   2.557   1.200  11.075  1.3153 -3.6880  0.8346
  333MPD2    H2 5055   2.827   1.462  10.875 -2.0754  0.4239 -0.5949
  333MPD2    H3 5056   2.619   1.419  11.014  1.7535  2.2167 -1.5131
  333MPD2     N 5057   2.681   0.969  10.976  0.4302  0.6734  0.3670
  333MPD2    H5 5058   2.749   0.905  10.937 -1.3174 -0.9003 -0.0957
  333MPD2    N1 5059   2.992   1.281  10.779  0.1352 -0.0191 -0.0481
  333MPD2    H7 5060   3.012   1.373  10.742 -1.1847  0.1686 -0.2936
  334TMC3    C1 5061   3.191   1.240  10.640  0.1511 -0.0309  0.1925
  334TMC3    C2 5062   3.301   1.166  10.624  0.1960  0.4425 -0.4072
  334TMC3    C3 5063   3.413   1.216  10.564 -0.3953 -0.2398  0.3554
  334TMC3    C4 5064   3.194   1.374  10.600  0.3021 -0.3882 -0.3208
  334TMC3    C5 5065   3.309   1.425  10.547 -0.2437 -0.1690  0.2813
  334TMC3    C6 5066   3.424   1.354  10.532 -0.0648  0.2701  0.4482
  334TMC3     C 5067   3.086   1.189  10.740  0.1034  0.1214 -0.3012
  334TMC3     O 5068   3.099   1.074  10.775 -0.1021 -0.5273 -0.4116
  334TMC3     H 5069   3.303   1.064  10.661 -0.0227 -0.1701 -2.0732
  334TMC3    H1 5070   3.106   1.434  10.620 -0.7185 -2.3721  1.1940
  334TMC3    H2 5071   3.516   1.397  10.493 -0.7273  1.4394  0.1698
  334TMC3    C7 5072   3.294   1.544  10.465 -0.2111  0.2608  0.1927
  334TMC3    C8 5073   3.531   1.141  10.591 -0.0238 -0.4421  0.3888
  334TMC3    O1 5074   3.398   1.597  10.443  0.0313 -0.4140 -0.4102
  334TMC3    O2 5075   3.521   1.058  10.681  0.1442 -0.1753  0.0625
  335TMC3    C1 5076   1.957   2.432  17.592 -0.0519  0.5301  0.1707
  335TMC3    C2 5077   1.896   2.405  17.474  0.1606  0.5720  0.2928
  335TMC3    C3 5078   1.970   2.414  17.354  0.1522 -0.1859  0.2366
  335TMC3    C4 5079   2.084   2.454  17.600 -0.0891  0.0254  0.3999
  335TMC3    C5 5080   2.157   2.448  17.480 -0.5505 -0.1828  0.1469
  335TMC3    C6 5081   2.104   2.429  17.357  0.0844  0.8294 -0.6941
  335TMC3     C 5082   1.895   2.404  17.718  0.0425 -0.3642  0.5219
  335TMC3     O 5083   1.948   2.451   0.081  0.2735 -0.0251  0.1466
  335TMC3     H 5084   1.789   2.394  17.471  0.2851 -0.5062  0.0132
  335TMC3    H1 5085   2.142   2.465  17.691  2.1106  0.1636 -1.0454
  335TMC3    H2 5086   2.166   2.424  17.268 -1.5764 -1.8775 -1.7065
  335TMC3    C7 5087   2.297   2.427  17.482  0.7079 -0.5164 -0.1443
  335TMC3    C8 5088   1.912   2.378  17.222 -0.1937 -0.8991  0.0556
  335TMC3    O1 5089   2.363   2.478  17.395  0.2452  0.1233 -0.0671
  335TMC3    O2 5090   1.949   2.449  17.129 -0.1715 -0.2941 -0.2031
  336MPD2     C 5091   1.411   0.117  15.860  0.0675 -0.1624 -0.3085
  336MPD2    C1 5092   1.418   0.047  15.747  0.3712 -0.2442  0.5098
  336MPD2    C2 5093   1.467   4.654  15.741  0.2254 -0.4587 -0.0203
  336MPD2    C3 5094   1.479   4.582  15.861  0.1240 -0.3694  0.2159
  336MPD2    C4 5095   1.461   4.648  15.981  0.3045  0.1139  0.2826
  336MPD2    C5 5096   1.427   0.045  15.975  0.2332  0.0579 -0.2975
  336MPD2     H 5097   1.483   4.604  15.647 -0.5530 -1.2894  0.2869
  336MPD2    H1 5098   1.461   4.585  16.070  1.3605 -0.4640 -0.1223
  336MPD2    H2 5099   1.370   0.218  15.865  1.8750  0.5551 -0.0369
  336MPD2    H3 5100   1.422   0.100  16.069  0.8191 -0.2974 -0.0506
  336MPD2     N 5101   1.514   4.446  15.868  0.2871 -0.1278 -0.4338
  336MPD2    H5 5102   1.501   4.393  15.954  0.7330  0.3712 -0.0614
  336MPD2    N1 5103   1.398   0.110  15.622  0.1371  0.2673  0.2481
  336MPD2    H7 5104   1.371   0.049  15.545  1.0900  0.3632 -0.1691
  337TMC3    C1 5105   1.359   0.265  15.463 -0.2485  0.0953 -0.1130
  337TMC3    C2 5106   1.275   0.182  15.399 -0.2740 -0.0263  0.6833
  337TMC3    C3 5107   1.201   0.220  15.295  0.3445  0.5600  0.6065
  337TMC3    C4 5108   1.376   0.389  15.421  0.0870  0.0900 -0.0853
  337TMC3    C5 5109   1.321   0.432  15.308  0.8655 -0.5753  1.3059
  337TMC3    C6 5110   1.232   0.340  15.238 -0.1560  0.6040 -0.9131
  337TMC3     C 5111   1.385   0.242  15.601  0.8822 -0.1774 -0.4323
  337TMC3     O 5112   1.413   0.333  15.672 -0.4650  0.2033 -0.7978
  337TMC3     H 5113   1.245   0.088  15.443 -1.4411  0.2949  0.5728
  337TMC3    H1 5114   1.441   0.461  15.468 -0.2915  0.7929 -0.6349
  337TMC3    H2 5115   1.195   0.361  15.139 -0.2913  0.3321 -0.9196
  337TMC3    C7 5116   1.355   0.562  15.254  0.8538 -0.1028 -0.1005
  337TMC3    C8 5117   1.107   0.121  15.244  0.0821 -0.1972 -0.0157
  337TMC3    O1 5118   1.439   0.633  15.305 -0.3669  0.4856  0.0202
  337TMC3    O2 5119   1.099   0.013  15.300  0.6410 -0.0892 -0.0175
  338MPD2     C 5120   1.846   4.458   0.734  0.9116  0.5028 -0.0373
  338MPD2    C1 5121   1.781   4.396   0.630  0.5860  0.2289 -0.3895
  338MPD2    C2 5122   1.645   4.412   0.632 -0.4134 -0.1643 -0.0001
  338MPD2    C3 5123   1.578   4.480   0.732 -0.0115  0.0871 -0.2043
  338MPD2    C4 5124   1.647   4.530   0.837  0.6619  0.2096  0.1600
  338MPD2    C5 5125   1.777   4.526   0.831 -0.1433  0.3265  0.2572
  338MPD2     H 5126   1.583   4.367   0.555  0.3871 -0.9728 -0.1618
  338MPD2    H1 5127   1.598   4.583   0.919 -0.6503 -2.3880  1.0546
  338MPD2    H2 5128   1.953   4.456   0.750  0.6139 -1.7773  1.6210
  338MPD2    H3 5129   1.842   4.578   0.901 -0.8387  0.6695  0.6430
  338MPD2     N 5130   1.437   4.475   0.737 -0.0040 -0.5692  0.1196
  338MPD2    H5 5131   1.384   4.447   0.655 -2.6838  2.5782  0.7399
  338MPD2    N1 5132   1.840   4.307   0.536  0.0289 -0.2076 -0.2958
  338MPD2    H7 5133   1.778   4.260   0.471  0.4425 -0.8059 -0.2539
  339TMC3    C1 5134   1.220   4.467   0.806  0.3502  0.8806 -0.0492
  339TMC3    C2 5135   1.164   4.361   0.875  0.1310 -0.0619 -0.2469
  339TMC3    C3 5136   1.048   4.308   0.829 -0.6394 -0.3787 -0.6035
  339TMC3    C4 5137   1.168   4.507   0.691 -0.1292  0.0488 -0.4153
  339TMC3    C5 5138   1.061   4.438   0.641  1.0734 -0.3208  0.4419
  339TMC3    C6 5139   0.996   4.338   0.706  0.9327 -0.3433  0.4694
  339TMC3     C 5140   1.358   4.496   0.847  0.7004 -0.4274  0.4963
  339TMC3     O 5141   1.395   4.482   0.961 -0.0730 -0.3562 -0.1637
  339TMC3     H 5142   1.201   4.323   0.970 -0.0313 -0.9143 -0.5278
  339TMC3    H1 5143   1.210   4.596   0.643  0.1223  0.9766  1.5295
  339TMC3    H2 5144   0.906   4.300   0.660  2.0651 -0.5487 -1.5781
  339TMC3    C7 5145   1.028   4.466   0.501 -0.2067 -0.0146 -0.0331
  339TMC3    C8 5146   0.981   4.205   0.918 -0.1092  0.2274  0.0729
  339TMC3    O1 5147   1.077   4.568   0.459  0.4093  0.4588  0.0008
  339TMC3    O2 5148   1.011   4.203   1.039  0.0804  0.0631 -0.3300
  340MPD2     C 5149   2.666   1.984   9.647  0.0859  0.2774  0.3412
  340MPD2    C1 5150   2.767   1.903   9.605 -0.6621  0.4015  0.6573
  340MPD2    C2 5151   2.892   1.932   9.655 -0.0414  0.0752  0.7296
  340MPD2    C3 5152   2.923   2.044   9.724 -0.3321  0.2101  0.0791
  340MPD2    C4 5153   2.822   2.123   9.763  0.1911 -0.3242  0.1398
  340MPD2    C5 5154   2.685   2.098   9.717  0.1494  0.2433  0.0717
  340MPD2     H 5155   2.971   1.867   9.620 -1.1446  0.6822 -2.8559
  340MPD2    H1 5156   2.821   2.215   9.821 -2.9546 -0.1836 -0.0891
  340MPD2    H2 5157   2.566   1.958   9.611 -0.1628  0.9584  0.5432
  340MPD2    H3 5158   2.600   2.158   9.746 -0.9123  0.0760 -2.6262
  340MPD2     N 5159   3.047   2.077   9.773  1.0311 -0.7472 -0.4893
  340MPD2    H5 5160   3.055   2.172   9.808  0.0480 -0.9013  0.1409
  340MPD2    N1 5161   2.732   1.792   9.525 -0.0089 -0.8357 -0.0570
  340MPD2    H7 5162   2.633   1.781   9.506  0.2495 -1.2928 -1.1213
  341TMC3    C1 5163   2.733   1.595   9.399 -0.4921  0.0275 -0.3711
  341TMC3    C2 5164   2.619   1.554   9.456 -0.5587 -0.3044 -0.8339
  341TMC3    C3 5165   2.558   1.437   9.407 -0.2040  0.7421  0.5489
  341TMC3    C4 5166   2.793   1.541   9.288 -0.3425 -0.1856 -0.1266
  341TMC3    C5 5167   2.729   1.419   9.255  0.6020  0.4199 -0.0860
  341TMC3    C6 5168   2.611   1.374   9.301 -0.2307  0.2913 -1.2164
  341TMC3     C 5169   2.813   1.703   9.461  0.4921 -0.1987  0.1767
  341TMC3     O 5170   2.934   1.705   9.439  0.3316  0.2529 -0.2280
  341TMC3     H 5171   2.572   1.603   9.541  0.9002 -0.3647 -0.0035
  341TMC3    H1 5172   2.888   1.575   9.249 -0.9015  0.7935 -0.6425
  341TMC3    H2 5173   2.559   1.285   9.267 -0.6229 -0.8980  2.4745
  341TMC3    C7 5174   2.781   1.343   9.144  0.6232  0.4356 -0.4105
  341TMC3    C8 5175   2.453   1.369   9.489 -0.4887 -0.0466 -0.0456
  341TMC3    O1 5176   2.882   1.392   9.093 -0.3300  0.0615 -0.1095
  341TMC3    O2 5177   2.430   1.253   9.461 -0.1235  0.1694 -0.0048
  342MPD2     C 5178   4.549   0.515  17.226 -0.1058  0.5069  0.0719
  342MPD2    C1 5179   4.595   0.532  17.095  0.4692  0.6595 -0.8745
  342MPD2    C2 5180   4.587   0.660  17.039  0.1164  0.3395 -0.1775
  342MPD2    C3 5181   4.547   0.770  17.108 -0.4897  0.7755  0.1319
  342MPD2    C4 5182   4.520   0.751  17.246  0.2885 -0.1961 -0.2768
  342MPD2    C5 5183   4.517   0.626  17.296 -0.6654 -0.2750  0.0571
  342MPD2     H 5184   4.607   0.667  16.932  1.2610  1.1755  0.0971
  342MPD2    H1 5185   4.493   0.835  17.308  0.6003 -0.9076  0.8137
  342MPD2    H2 5186   4.547   0.425  17.287 -0.4039 -1.7824 -3.3054
  342MPD2    H3 5187   4.476   0.607  17.394  0.0716  2.0280  0.8221
  342MPD2     N 5188   4.529   0.902  17.063 -0.0841  0.5157 -0.3554
  342MPD2    H5 5189   4.499   0.975  17.126  0.2661 -0.1260  0.5475
  342MPD2    N1 5190   4.631   0.422  17.006 -0.3123 -0.2072 -0.9618
  342MPD2    H7 5191   4.654   0.442  16.909  1.8703  0.2807 -0.3356
  343TMC3    C1 5192   4.701   0.204  16.947  0.5167  0.8418  0.7934
  343TMC3    C2 5193   0.026   0.253  16.830 -0.7471 -0.0195  0.3452
  343TMC3    C3 5194   0.053   0.173  16.719  0.0117 -0.1074  0.3063
  343TMC3    C4 5195   4.682   0.071  16.963  0.0877 -0.3774  0.3126
  343TMC3    C5 5196   4.713   4.724  16.859  0.3636 -0.3226 -0.0521
  343TMC3    C6 5197   0.012   0.041  16.736  0.2998 -0.9932  0.5314
  343TMC3     C 5198   4.641   0.289  17.043 -0.5707 -0.2273  0.1434
  343TMC3     O 5199   4.628   0.239  17.158  0.5750 -0.9437  0.1829
  343TMC3     H 5200   0.046   0.359  16.825 -1.7267  0.1206 -0.5743
  343TMC3    H1 5201   4.629   0.037  17.051 -0.1503 -0.8919 -0.0314
  343TMC3    H2 5202   0.027   4.703  16.657  1.7931  0.3056 -0.4020
  343TMC3    C7 5203   4.656   4.591  16.860 -0.9608  0.0477 -0.4272
  343TMC3    C8 5204   0.162   0.217  16.626  0.4833 -0.4339  0.6993
  343TMC3    O1 5205   4.614   4.554  16.752  0.2616  0.4256 -0.4577
  343TMC3    O2 5206   0.250   0.286  16.672  0.3240 -0.2921  0.3869
  344MPD2     C 5207   1.162   0.117  10.343 -0.2185 -0.3091  0.0297
  344MPD2    C1 5208   1.216   0.146  10.471 -0.0294  0.4216  0.1231
  344MPD2    C2 5209   1.281   0.262  10.491  0.8517 -0.2606 -0.1014
  344MPD2    C3 5210   1.282   0.362  10.387 -0.3313 -0.1609  0.5351
  344MPD2    C4 5211   1.232   0.329  10.262  0.2757 -0.1157  0.0818
  344MPD2    C5 5212   1.173   0.209  10.244 -0.2232 -0.2274 -0.1895
  344MPD2     H 5213   1.326   0.275  10.588 -0.6505  0.6802  0.4668
  344MPD2    H1 5214   1.225   0.408  10.188  0.6814  0.7220  0.9312
  344MPD2    H2 5215   1.118   0.022  10.313 -1.6546  0.7842 -1.3053
  344MPD2    H3 5216   1.126   0.192  10.148 -1.0859 -0.3588  0.2558
  344MPD2     N 5217   1.333   0.485  10.416  0.1565 -0.3325  0.0409
  344MPD2    H5 5218   1.341   0.546  10.336  0.4425 -3.7312 -2.5391
  344MPD2    N1 5219   1.210   0.045  10.570 -0.3339 -0.0739 -0.2521
  344MPD2    H7 5220   1.285   0.047  10.638 -1.4951  2.5179  0.9118
  345TMC3    C1 5221   1.451   0.645  10.542  0.0052  0.0299 -0.0002
  345TMC3    C2 5222   1.495   0.691  10.661  0.0596 -0.5192  0.2893
  345TMC3    C3 5223   1.592   0.789  10.664  0.0289 -0.5422 -0.1841
  345TMC3    C4 5224   1.515   0.693  10.427 -0.0772  0.1393  0.1379
  345TMC3    C5 5225   1.602   0.795  10.438  0.1648  0.4562  0.3437
  345TMC3    C6 5226   1.650   0.837  10.550 -0.7387 -0.3523  0.5262
  345TMC3     C 5227   1.352   0.536  10.544  0.2926 -0.1765 -0.1969
  345TMC3     O 5228   1.308   0.505  10.653  0.0486 -0.1419  0.2955
  345TMC3     H 5229   1.454   0.658  10.755 -0.0426 -0.2710  0.3313
  345TMC3    H1 5230   1.495   0.642  10.333 -0.0387 -0.9323  0.7188
  345TMC3    H2 5231   1.723   0.917  10.548 -0.4748 -0.6224 -0.7806
  345TMC3    C7 5232   1.616   0.882  10.325  0.0350 -0.2896 -0.7701
  345TMC3    C8 5233   1.568   0.887  10.760  0.6774 -0.1903  0.0389
  345TMC3    O1 5234   1.657   0.997  10.344  0.0363  0.1164  0.4664
  345TMC3    O2 5235   1.543   0.839  10.873 -0.6162 -0.1164  0.3091
  346MPD2     C 5236   0.578   1.806  13.997 -0.3026 -0.2543 -0.0457
  346MPD2    C1 5237   0.694   1.771  13.943 -0.1876 -0.3585  0.2594
  346MPD2    C2 5238   0.813   1.797  14.007  0.0769  0.1824  0.2808
  346MPD2    C3 5239   0.811   1.848  14.136 -0.0401 -0.4124  0.7301
  346MPD2    C4 5240   0.686   1.887  14.191 -0.3644  0.4864 -1.0918
  346MPD2    C5 5241   0.572   1.861  14.121 -0.3652 -0.2254  0.8238
  346MPD2     H 5242   0.903   1.776  13.951 -0.9252 -0.5646 -1.0458
  346MPD2    H1 5243   0.679   1.951  14.277  1.8372  0.0046 -0.5467
  346MPD2    H2 5244   0.486   1.789  13.943 -0.4457 -1.3685  0.5441
  346MPD2    H3 5245   0.474   1.878  14.164  0.2518  1.0493  1.7523
  346MPD2     N 5246   0.935   1.881  14.198  0.0985 -0.0169  0.0865
  346MPD2    H5 5247   1.020   1.867  14.143  0.4265  1.3334  0.2423
  346MPD2    N1 5248   0.714   1.727  13.809 -0.6094  1.0303 -0.0709
  346MPD2    H7 5249   0.807   1.707  13.775 -0.5741 -0.1052  0.7072
  347TMC3    C1 5250   1.091   1.922  14.377 -0.0072  0.0870  0.1274
  347TMC3    C2 5251   1.170   1.973  14.290  0.1197  0.3438  0.1592
  347TMC3    C3 5252   1.304   1.947  14.317 -1.1658  0.2496  0.0117
  347TMC3    C4 5253   1.128   1.836  14.478  0.3854  0.3739  0.4867
  347TMC3    C5 5254   1.259   1.816  14.513  0.6896 -0.1889  0.6900
  347TMC3    C6 5255   1.351   1.872  14.426  0.2273  0.9331  0.1396
  347TMC3     C 5256   0.954   1.906  14.328  0.1883 -0.5798  0.3269
  347TMC3     O 5257   0.868   1.898  14.413 -0.2377  0.4268  0.5515
  347TMC3     H 5258   1.136   2.015  14.196 -1.0897 -0.6084  0.1712
  347TMC3    H1 5259   1.048   1.796  14.539  0.3797 -0.6277 -0.1810
  347TMC3    H2 5260   1.454   1.842  14.435  0.7776  3.1024  0.9836
  347TMC3    C7 5261   1.278   1.694  14.582  0.3289 -0.3309  0.4943
  347TMC3    C8 5262   1.396   1.952  14.209 -0.2105  0.9113 -0.5737
  347TMC3    O1 5263   1.192   1.610  14.565  0.7411 -0.3902 -0.5357
  347TMC3    O2 5264   1.476   1.860  14.207  0.2557  0.2074 -0.3302
  348MPD2     C 5265   0.493   1.780  11.178  0.3021 -0.2231 -0.2465
  348MPD2    C1 5266   0.440   1.702  11.081  0.1665 -0.1081 -0.3085
  348MPD2    C2 5267   0.395   1.761  10.973  0.0561 -0.2456  0.6308
  348MPD2    C3 5268   0.420   1.893  10.941  0.4122 -0.5168  0.5954
  348MPD2    C4 5269   0.469   1.976  11.041 -0.4098 -0.7658 -0.1401
  348MPD2    C5 5270   0.509   1.917  11.159  0.0843 -0.1603  0.5531
  348MPD2     H 5271   0.365   1.703  10.886  0.5012  2.2423 -1.1712
  348MPD2    H1 5272   0.474   2.084  11.041  1.8408 -0.8695 -0.5457
  348MPD2    H2 5273   0.524   1.742  11.275  1.9347 -0.8951 -1.0199
  348MPD2    H3 5274   0.533   1.981  11.243 -0.7523  0.9854 -0.0841
  348MPD2     N 5275   0.396   1.942  10.808  0.1407 -0.2043  0.5143
  348MPD2    H5 5276   0.346   1.882  10.742 -1.0535  1.2107  0.1417
  348MPD2    N1 5277   0.400   1.567  11.106 -0.0752 -0.1727 -0.6655
  348MPD2    H7 5278   0.353   1.521  11.029  0.7816  1.0721 -1.9407
  349TMC3    C1 5279   0.379   1.352  11.205  0.0194 -0.2876  0.1009
  349TMC3    C2 5280   0.418   1.264  11.302  0.2387 -0.0664  0.3886
  349TMC3    C3 5281   0.364   1.136  11.300  0.2248 -0.5906  0.0893
  349TMC3    C4 5282   0.304   1.311  11.092 -0.3105 -0.7681 -0.0471
  349TMC3    C5 5283   0.261   1.182  11.097  0.1694 -0.3956  0.1520
  349TMC3    C6 5284   0.292   1.091  11.199  0.0898 -0.1915 -0.6273
  349TMC3     C 5285   0.425   1.492  11.219 -0.5626  0.2799 -0.5223
  349TMC3     O 5286   0.506   1.517  11.310  0.0264 -0.1003 -0.6492
  349TMC3     H 5287   0.478   1.305  11.383  1.3899 -0.2817 -0.3495
  349TMC3    H1 5288   0.276   1.385  11.017 -0.5636 -0.9574 -0.1382
  349TMC3    H2 5289   0.264   0.986  11.203  2.2469 -0.8664 -3.4735
  349TMC3    C7 5290   0.171   1.134  10.989  0.1355 -0.1887  0.3500
  349TMC3    C8 5291   0.418   1.027  11.380 -0.7040 -0.7335 -0.8889
  349TMC3    O1 5292   0.101   1.040  11.001  0.4376 -0.0700  0.8133
  349TMC3    O2 5293   0.345   0.936  11.414  0.1157  0.8704  0.4844
  350MPD2     C 5294   3.845   4.328  10.029  0.9785  0.1168 -0.1127
  350MPD2    C1 5295   3.740   4.244  10.066 -0.0672  0.4958 -0.2426
  350MPD2    C2 5296   3.705   4.242  10.199  0.4754  0.6146 -0.7262
  350MPD2    C3 5297   3.779   4.312  10.292 -0.0533  0.6727  0.6157
  350MPD2    C4 5298   3.882   4.397  10.253  0.4517 -0.0905  0.1742
  350MPD2    C5 5299   3.918   4.398  10.119 -0.2308  0.1373  0.1816
  350MPD2     H 5300   3.625   4.182  10.241  0.3377  0.8774 -0.6170
  350MPD2    H1 5301   3.951   4.451  10.317 -1.8448  0.6412  2.0172
  350MPD2    H2 5302   3.883   4.339   9.929  1.3144 -0.9036 -0.0987
  350MPD2    H3 5303   4.001   4.463  10.093 -1.1237  0.5602 -1.5893
  350MPD2     N 5304   3.738   4.312  10.433  0.3308 -0.7617  0.3229
  350MPD2    H5 5305   3.645   4.284  10.463  0.4769 -0.2976  1.2312
  350MPD2    N1 5306   3.670   4.160   9.977  0.0064 -0.6277  0.3506
  350MPD2    H7 5307   3.610   4.088  10.015  0.7868 -0.4001  2.0058
  351TMC3    C1 5308   3.595   4.076   9.772 -0.9672 -0.2773  0.0347
  351TMC3    C2 5309   3.633   4.040   9.649  0.1702 -0.1212  0.3241
  351TMC3    C3 5310   3.568   3.938   9.591  0.1158 -0.2699  0.0498
  351TMC3    C4 5311   3.506   4.008   9.843  0.6354 -0.6417  0.3167
  351TMC3    C5 5312   3.438   3.910   9.782  0.4432 -0.0962 -0.3926
  351TMC3    C6 5313   3.469   3.873   9.656 -0.5644 -0.2390  0.4841
  351TMC3     C 5314   3.680   4.168   9.838  0.7203 -0.1897 -0.3769
  351TMC3     O 5315   3.756   4.230   9.771  0.3915  0.8468 -0.2452
  351TMC3     H 5316   3.721   4.081   9.601  1.0451 -1.0111  1.1882
  351TMC3    H1 5317   3.472   4.043   9.940  0.7704 -1.9556  0.8548
  351TMC3    H2 5318   3.416   3.794   9.604 -0.7359  2.3868 -3.2458
  351TMC3    C7 5319   3.389   3.814   9.880  0.1372 -0.0011  0.4237
  351TMC3    C8 5320   3.575   3.939   9.444 -0.6524 -0.8044 -0.7926
  351TMC3    O1 5321   3.366   3.860   9.993 -0.7805  0.0831 -0.3035
  351TMC3    O2 5322   3.503   3.852   9.399 -0.5995  0.0887  0.0134
  352MPD2     C 5323   2.164   1.293   0.919  0.2122  0.5259  0.0649
  352MPD2    C1 5324   2.052   1.233   0.982 -0.6907  0.2339  0.2961
  352MPD2    C2 5325   2.060   1.099   0.998 -0.3115  0.1142 -0.0845
  352MPD2    C3 5326   2.180   1.031   0.965  0.5161  0.5535 -0.1467
  352MPD2    C4 5327   2.279   1.094   0.895  0.0652  0.0268 -0.1448
  352MPD2    C5 5328   2.275   1.228   0.880  0.5345  0.0904 -0.3201
  352MPD2     H 5329   1.964   1.052   1.017 -0.2075  0.0085  0.1817
  352MPD2    H1 5330   2.367   1.046   0.854 -1.1592 -3.3734  1.1700
  352MPD2    H2 5331   2.169   1.400   0.900 -1.3071  0.6666  0.4407
  352MPD2    H3 5332   2.366   1.271   0.840 -1.3638  2.0357 -2.5230
  352MPD2     N 5333   2.199   0.891   0.978 -0.5631 -0.4870  0.0958
  352MPD2    H5 5334   2.282   0.854   0.931 -1.3613  0.6878 -2.2563
  352MPD2    N1 5335   1.941   1.312   0.999  0.0365  0.4613  0.0279
  352MPD2    H7 5336   1.947   1.408   0.966  0.1686  0.3851 -0.1700
  353TMC3    C1 5337   2.148   0.660   1.000  0.1186 -0.3149  0.2174
  353TMC3    C2 5338   2.276   0.617   0.988  0.3135 -0.4958  0.3345
  353TMC3    C3 5339   2.304   0.486   0.961  0.0551  0.2182  0.1254
  353TMC3    C4 5340   2.049   0.567   1.010 -0.1397  0.2380 -0.4911
  353TMC3    C5 5341   2.075   0.443   0.974 -0.1850 -0.0654  0.2542
  353TMC3    C6 5342   2.202   0.394   0.952  0.2768  0.4837  0.2857
  353TMC3     C 5343   2.109   0.798   1.027 -0.8244 -0.4953 -0.9466
  353TMC3     O 5344   2.001   0.825   1.079  0.3015 -0.1508 -0.0685
  353TMC3     H 5345   2.348   0.698   0.996  1.3102 -1.5915  2.3628
  353TMC3    H1 5346   1.945   0.596   1.014 -0.5179 -1.2068 -0.0699
  353TMC3    H2 5347   2.213   0.286   0.942  0.3415  0.5961 -0.8352
  353TMC3    C7 5348   1.964   0.362   0.918 -0.4775  0.8695 -0.0494
  353TMC3    C8 5349   2.438   0.437   0.969  0.4375 -0.2954  0.2564
  353TMC3    O1 5350   1.973   0.324   0.803 -0.3668  0.3258  0.6189
  353TMC3    O2 5351   2.525   0.495   1.034 -0.0733  0.0360 -0.2852
  354TMC3    C1 5352   3.521   2.575  12.908  0.5494  0.6207 -0.1181
  354TMC3    C2 5353   3.558   2.684  12.826  0.2100 -0.6025 -0.0408
  354TMC3    C3 5354   3.621   2.652  12.709  0.4902  0.6159  0.8411
  354TMC3    C4 5355   3.559   2.450  12.873  0.4409 -0.0992 -0.3423
  354TMC3    C5 5356   3.613   2.428  12.748  0.5907  0.7720 -0.6428
  354TMC3    C6 5357   3.652   2.528  12.669 -0.6797 -0.1138 -0.2500
  354TMC3     C 5358   3.459   2.586  13.039  0.7555  1.0292  0.5094
  354TMC3     O 5359   3.470   2.485  13.108 -0.2500 -0.4895  0.7337
  354TMC3     H 5360   3.548   2.786  12.863  0.9769  0.6432 -3.3250
  354TMC3    H1 5361   3.525   2.362  12.925 -1.4596  0.5977 -0.4222
  354TMC3    H2 5362   3.688   2.514  12.568 -1.4047 -2.8913 -0.1215
  354TMC3    C7 5363   3.706   2.314  12.754 -0.1850 -0.0588  0.1104
  354TMC3    C8 5364   3.611   2.754  12.610  0.1224  0.3750 -0.5664
  354TMC3    O1 5365   3.682   2.232  12.845 -0.7741  0.5466 -0.5056
  354TMC3    O2 5366   3.692   2.744  12.522 -0.1223  0.5687 -0.0602
  355MPD2     C 5367   4.214   3.504  11.084 -0.1088 -0.1199  0.1985
  355MPD2    C1 5368   4.297   3.555  10.994  0.3568 -0.2421  0.4574
  355MPD2    C2 5369   4.435   3.543  11.020 -0.7648  0.0530 -0.1504
  355MPD2    C3 5370   4.483   3.498  11.145 -0.3242 -0.2017  0.0067
  355MPD2    C4 5371   4.389   3.455  11.240 -0.4570 -0.5739 -0.2321
  355MPD2    C5 5372   4.260   3.440  11.200 -0.0181  0.1877  0.1666
  355MPD2     H 5373   4.513   3.576  10.952  0.7300  1.3808  2.1668
  355MPD2    H1 5374   4.427   3.423  11.336 -1.8307 -0.2554  0.4314
  355MPD2    H2 5375   4.107   3.506  11.065  0.1244 -0.6104 -1.1228
  355MPD2    H3 5376   4.201   3.388  11.274 -0.1906  0.9340  0.5468
  355MPD2     N 5377   4.618   3.506  11.185  0.2760  0.1785  0.4022
  355MPD2    H5 5378   4.646   3.482  11.280  1.4189 -1.2843 -0.3207
  355MPD2    N1 5379   4.242   3.614  10.871  0.1770  0.1374 -0.2626
  355MPD2    H7 5380   4.144   3.603  10.850 -0.0074 -0.5428  0.9170
  356TMC3    C1 5381   0.098   3.590  11.151  0.3866 -0.3412 -0.1813
  356TMC3    C2 5382   0.153   3.681  11.059 -0.1211  0.8652 -0.1375
  356TMC3    C3 5383   0.223   3.788  11.111  0.4811 -0.0807  0.4795
  356TMC3    C4 5384   0.100   3.616  11.282 -0.1570 -0.6950  0.0998
  356TMC3    C5 5385   0.179   3.716  11.328  0.2368 -0.3375  0.0329
  356TMC3    C6 5386   0.250   3.809  11.242 -0.2991 -0.5234 -0.0651
  356TMC3     C 5387   4.721   3.524  11.097  0.1565  0.2858 -0.3903
  356TMC3     O 5388   4.727   3.500  10.978  0.4883 -0.3689 -0.2578
  356TMC3     H 5389   0.161   3.650  10.956 -3.0796  0.2912 -0.2023
  356TMC3    H1 5390   0.053   3.547  11.351  2.3255 -0.2571  2.2071
  356TMC3    H2 5391   0.326   3.879  11.274  0.2456 -1.5082  0.8243
  356TMC3    C7 5392   0.171   3.748  11.469 -0.1151 -0.2767 -1.5834
  356TMC3    C8 5393   0.305   3.856  11.013  0.3122  0.2283 -1.0928
  356TMC3    O1 5394   0.108   3.670  11.538  0.0549  0.0853  0.1241
  356TMC3    O2 5395   0.327   3.802  10.903  0.2324  0.7046 -0.6147
  357MPD2     C 5396   4.130   3.012   0.636 -0.5058 -0.1403 -0.1015
  357MPD2    C1 5397   4.179   2.889   0.600  0.0492  0.0366 -0.4479
  357MPD2    C2 5398   4.307   2.856   0.649  0.3911  0.3195  0.0284
  357MPD2    C3 5399   4.370   2.932   0.741  0.1660 -0.6332  0.2053
  357MPD2    C4 5400   4.318   3.051   0.789 -0.0731 -0.0546  0.0309
  357MPD2    C5 5401   4.197   3.089   0.729 -0.5042 -0.0369  0.0434
  357MPD2     H 5402   4.351   2.758   0.634  1.0553  0.6038  0.1370
  357MPD2    H1 5403   4.368   3.115   0.860 -0.6096  2.1195 -1.5451
  357MPD2    H2 5404   4.039   3.058   0.599  0.4632  1.3582 -0.6272
  357MPD2    H3 5405   4.147   3.180   0.760  0.5518 -0.0321  1.7076
  357MPD2     N 5406   4.477   2.874   0.810 -0.3636 -0.0125 -0.3566
  357MPD2    H5 5407   4.494   2.775   0.792 -0.4944 -0.1965  0.4902
  357MPD2    N1 5408   4.107   2.811   0.503  0.2994 -0.8112  0.4373
  357MPD2    H7 5409   4.018   2.851   0.475  0.1444  0.3413  2.5422
  358TMC3    C1 5410   4.038   2.630   0.368  0.7254  0.2984 -0.1542
  358TMC3    C2 5411   3.936   2.704   0.308 -0.1101  0.3632 -0.2840
  358TMC3    C3 5412   3.858   2.647   0.209 -0.2245 -0.5843  0.8803
  358TMC3    C4 5413   4.068   2.505   0.319 -0.2846  0.2897 -0.2276
  358TMC3    C5 5414   4.000   2.460   0.207  0.1306 -0.4283 -0.9915
  358TMC3    C6 5415   3.900   2.531   0.149  0.4660  0.3688 -0.5357
  358TMC3     C 5416   4.129   2.680   0.469 -0.2570  0.0338  0.0303
  358TMC3     O 5417   4.215   2.601   0.502  0.2972  0.4553 -0.0494
  358TMC3     H 5418   3.895   2.789   0.362 -0.7408  0.0011 -0.1837
  358TMC3    H1 5419   4.128   2.439   0.380 -0.7652  0.0579 -0.0077
  358TMC3    H2 5420   3.834   2.474   0.084  0.7477 -1.9711  1.2220
  358TMC3    C7 5421   4.018   2.321   0.178  0.2629 -0.8386 -0.3916
  358TMC3    C8 5422   3.775   2.737   0.140 -0.4102 -0.1286 -0.2608
  358TMC3    O1 5423   4.067   2.250   0.264  0.5424 -0.2868  0.4762
  358TMC3    O2 5424   3.717   2.680   0.048 -0.5620 -0.4971  0.1493
  359MPD2     C 5425   4.161   1.861  11.970 -0.7692 -0.0735 -0.0671
  359MPD2    C1 5426   4.163   1.869  11.826 -0.3790 -0.1755  0.1953
  359MPD2    C2 5427   4.060   1.798  11.761  0.1347 -0.4856 -1.0538
  359MPD2    C3 5428   3.954   1.753  11.832 -0.3155  0.2324 -0.1510
  359MPD2    C4 5429   3.944   1.771  11.965  0.0540  0.3265 -0.3714
  359MPD2    C5 5430   4.049   1.819  12.034  0.8009  0.1187  0.1457
  359MPD2     H 5431   4.075   1.770  11.657  0.6606 -1.0420 -0.8264
  359MPD2    H1 5432   3.863   1.732  12.025 -0.3596  2.5189  0.4941
  359MPD2    H2 5433   4.252   1.892  12.019  0.2496 -2.9641 -0.1066
  359MPD2    H3 5434   4.044   1.812  12.142  1.4640 -2.3586  0.0127
  359MPD2     N 5435   3.847   1.696  11.759 -0.5978  0.1069 -0.2709
  359MPD2    H5 5436   3.774   1.657  11.819 -1.3435  1.0491 -0.5791
  359MPD2    N1 5437   4.274   1.911  11.747 -0.2678 -0.1878  0.2375
  359MPD2    H7 5438   4.255   1.913  11.647 -2.7240  0.7124  0.7204
  360TMC3    C1 5439   4.442   2.040  11.673  0.3681 -0.0925  0.0543
  360TMC3    C2 5440   4.486   2.163  11.673  0.7645  0.1421  0.3286
  360TMC3    C3 5441   4.563   2.204  11.570  0.2904  0.4487  0.4491
  360TMC3    C4 5442   4.450   1.960  11.555 -0.3748  0.0250  0.3603
  360TMC3    C5 5443   4.514   2.012  11.450  0.4011  1.5227 -0.8298
  360TMC3    C6 5444   4.572   2.134  11.453  0.0173 -0.2273 -0.1692
  360TMC3     C 5445   4.372   1.991  11.788  0.8603 -0.3506 -0.1065
  360TMC3     O 5446   4.382   2.035  11.900 -0.5179  0.7665 -0.5153
  360TMC3     H 5447   4.509   2.213  11.766  2.3598 -0.2892  0.1610
  360TMC3    H1 5448   4.411   1.860  11.548 -1.7307  0.3672  3.0157
  360TMC3    H2 5449   4.636   2.159  11.369 -3.2934  0.4954 -2.4844
  360TMC3    C7 5450   4.528   1.922  11.336  0.4598  0.0275 -0.2158
  360TMC3    C8 5451   4.641   2.326  11.582 -0.4464 -0.0875  0.3446
  360TMC3    O1 5452   4.504   1.801  11.348 -0.0872 -0.0835 -0.2817
  360TMC3    O2 5453   4.606   2.412  11.665 -0.0381 -0.3119 -0.3702
  361MPD2     C 5454   1.453   0.951  16.323  1.6188 -0.5934  0.0739
  361MPD2    C1 5455   1.400   1.025  16.422 -0.2478  0.0352 -0.5779
  361MPD2    C2 5456   1.375   0.980  16.552 -0.5692 -0.3233  0.3397
  361MPD2    C3 5457   1.391   0.846  16.579 -0.3661  0.2873  0.5649
  361MPD2    C4 5458   1.448   0.772  16.481 -0.1562  0.4546 -0.0742
  361MPD2    C5 5459   1.483   0.819  16.355 -0.7760  0.1420 -0.6993
  361MPD2     H 5460   1.322   1.052  16.613  0.3364 -0.1087  0.8760
  361MPD2    H1 5461   1.450   0.665  16.500  1.0979  0.2346 -1.4682
  361MPD2    H2 5462   1.468   0.993  16.225 -1.4817 -0.7896 -0.4859
  361MPD2    H3 5463   1.520   0.750  16.280 -0.2851 -0.7570  0.3624
  361MPD2     N 5464   1.367   0.785  16.711  0.3939 -0.5116  0.1895
  361MPD2    H5 5465   1.369   0.685  16.725  1.1864 -0.4407  0.5468
  361MPD2    N1 5466   1.361   1.158  16.403 -0.1828  0.2441  0.4129
  361MPD2    H7 5467   1.308   1.197  16.481 -1.4930  2.5277 -1.6450
  362TMC3    C1 5468   1.275   1.349  16.310  0.2751 -0.0021 -0.4853
  362TMC3    C2 5469   1.261   1.406  16.437 -0.0009  0.4638 -0.2754
  362TMC3    C3 5470   1.149   1.478  16.455 -0.0125  0.0193 -0.5085
  362TMC3    C4 5471   1.184   1.375  16.209 -0.2123 -0.2314  0.0310
  362TMC3    C5 5472   1.076   1.440  16.232  0.2081 -0.0031 -0.1754
  362TMC3    C6 5473   1.054   1.501  16.355  1.0895  1.0054  0.2610
  362TMC3     C 5474   1.364   1.228  16.286  0.1284 -0.0476 -0.0895
  362TMC3     O 5475   1.392   1.197  16.169 -0.0249  0.3221  0.1118
  362TMC3     H 5476   1.332   1.393  16.518  2.2555 -0.0203 -2.3381
  362TMC3    H1 5477   1.198   1.332  16.110 -1.9132  1.2867 -0.8672
  362TMC3    H2 5478   0.971   1.567  16.378  0.4297  0.3628 -0.2834
  362TMC3    C7 5479   0.999   1.501  16.123  0.3292 -0.3089  0.3856
  362TMC3    C8 5480   1.141   1.553  16.576 -0.8255 -0.6591  0.5356
  362TMC3    O1 5481   0.934   1.603  16.155  0.3762 -0.3667 -0.1000
  362TMC3    O2 5482   1.248   1.582  16.633 -0.0657 -0.9708  0.1782
  363TMC3    C1 5483   4.335   3.075   8.703  0.1374  0.9149  0.5954
  363TMC3    C2 5484   4.422   3.035   8.807 -0.4721  0.8234  0.6071
  363TMC3    C3 5485   4.484   3.130   8.878 -0.4585  0.4136 -0.7701
  363TMC3    C4 5486   4.307   3.204   8.680 -0.0488  0.4530  0.0827
  363TMC3    C5 5487   4.369   3.301   8.751  0.5832  0.6334 -0.3053
  363TMC3    C6 5488   4.455   3.263   8.850 -0.3012  0.2390 -0.8319
  363TMC3     C 5489   4.268   2.973   8.632 -0.0232 -0.5206  0.1069
  363TMC3     O 5490   4.162   2.996   8.580 -0.4292  0.0327 -0.0223
  363TMC3     H 5491   4.433   2.931   8.837  0.1099  0.6037 -0.3955
  363TMC3    H1 5492   4.233   3.233   8.607 -2.0548  3.1922  3.2269
  363TMC3    H2 5493   4.485   3.334   8.927 -3.1537  1.7068 -1.0742
  363TMC3    C7 5494   4.346   3.439   8.724 -0.0981  0.6375 -0.7357
  363TMC3    C8 5495   4.586   3.090   8.976 -0.4760  0.0532 -0.0405
  363TMC3    O1 5496   4.390   3.521   8.804  0.3448  0.5313  0.0721
  363TMC3    O2 5497   4.597   3.176   9.061 -0.9829  0.6586 -0.0964
  364MPD2     C 5498   3.550   3.146  10.484 -0.2408 -0.0381  0.0202
  364MPD2    C1 5499   3.573   3.111  10.352  0.5307 -0.1181  1.0068
  364MPD2    C2 5500   3.604   2.979  10.336  0.5907 -0.0249  0.4328
  364MPD2    C3 5501   3.616   2.889  10.442 -0.0290  0.9203  0.2999
  364MPD2    C4 5502   3.582   2.928  10.570 -0.3556  0.1998  0.1663
  364MPD2    C5 5503   3.557   3.058  10.586 -1.2436 -0.4617  0.1008
  364MPD2     H 5504   3.624   2.941  10.237 -0.9493 -1.7386  0.7785
  364MPD2    H1 5505   3.591   2.866  10.659  1.8981 -0.9290 -0.8517
  364MPD2    H2 5506   3.542   3.247  10.521 -2.3222 -0.1655 -0.0839
  364MPD2    H3 5507   3.525   3.095  10.682  0.7972 -0.2185  0.6941
  364MPD2     N 5508   3.663   2.754  10.430 -0.3238  0.0545  0.3034
  364MPD2    H5 5509   3.654   2.706  10.519 -0.0928  0.3787  0.5020
  364MPD2    N1 5510   3.588   3.206  10.255 -0.4606  0.4289  0.1576
  364MPD2    H7 5511   3.556   3.299  10.279 -1.0244 -0.0887  1.3656
  365TMC3    C1 5512   3.688   3.327  10.079 -0.2237  0.5039  0.2782
  365TMC3    C2 5513   3.692   3.334   9.944 -0.5235  0.2876 -0.4296
  365TMC3    C3 5514   3.700   3.462   9.894 -1.0364 -0.2141  0.4798
  365TMC3    C4 5515   3.683   3.437  10.167 -0.1400 -0.1955  0.2625
  365TMC3    C5 5516   3.703   3.557  10.107  0.6675  0.6628  0.2162
  365TMC3    C6 5517   3.710   3.569   9.974  0.2779  0.2148 -0.6127
  365TMC3     C 5518   3.656   3.201  10.135  0.6426 -0.6369  0.2584
  365TMC3     O 5519   3.700   3.103  10.076 -0.0451 -0.0537 -0.0729
  365TMC3     H 5520   3.688   3.243   9.885  0.0853 -1.0236  1.5411
  365TMC3    H1 5521   3.703   3.410  10.270 -1.4707  2.0454  1.1068
  365TMC3    H2 5522   3.705   3.669   9.933  1.4762  0.1180 -0.9898
  365TMC3    C7 5523   3.722   3.683  10.188  0.8242  0.2706 -0.1668
  365TMC3    C8 5524   3.698   3.489   9.752  0.8291  0.3147 -0.9129
  365TMC3    O1 5525   3.767   3.787  10.144 -0.2277 -0.1551 -0.6718
  365TMC3    O2 5526   3.654   3.596   9.708  0.2602  0.6094 -0.0039
  366MPD2     C 5527   0.874   3.981  15.081 -0.1494 -0.2194 -0.6139
  366MPD2    C1 5528   0.975   3.986  14.989  0.2243 -0.3062 -0.7687
  366MPD2    C2 5529   1.040   3.868  14.950 -0.0057  0.4423 -0.0939
  366MPD2    C3 5530   1.010   3.752  15.011 -0.2735 -0.4758  0.4121
  366MPD2    C4 5531   0.918   3.748  15.116 -0.0031  0.0028 -0.3144
  366MPD2    C5 5532   0.844   3.862  15.141  0.6580  1.0526  0.3906
  366MPD2     H 5533   1.119   3.867  14.876 -1.0073  1.4926 -1.1740
  366MPD2    H1 5534   0.914   3.661  15.180  0.6341 -1.2422 -1.9492
  366MPD2    H2 5535   0.820   4.070  15.112 -2.5372 -1.8710 -0.0604
  366MPD2    H3 5536   0.762   3.865  15.210  0.2711 -1.4837  0.0499
  366MPD2     N 5537   1.090   3.649  14.964  0.0336  0.3321 -0.2873
  366MPD2    H5 5538   1.139   3.668  14.878 -2.5151  0.4049 -1.7362
  366MPD2    N1 5539   1.018   4.110  14.944 -0.9261  0.2084 -0.3485
  366MPD2    H7 5540   1.110   4.102  14.901 -0.4285 -1.0251  0.9443
  367TMC3    C1 5541   1.006   4.336  14.875  0.4915 -0.1392 -0.2002
  367TMC3    C2 5542   1.138   4.364  14.896  0.4765  0.5182 -0.3474
  367TMC3    C3 5543   1.191   4.484  14.859 -0.6923 -0.0356 -0.4206
  367TMC3    C4 5544   0.924   4.429  14.811 -0.0103 -0.5563  0.2212
  367TMC3    C5 5545   0.987   4.544  14.759 -0.4554 -0.0265  0.0126
  367TMC3    C6 5546   1.114   4.581  14.792  0.6752  0.2914  0.1303
  367TMC3     C 5547   0.945   4.228  14.936  0.2762 -0.8009  0.3220
  367TMC3     O 5548   0.827   4.245  14.963 -0.4543  0.2649  0.1864
  367TMC3     H 5549   1.194   4.310  14.972  0.1743 -0.3931 -0.7660
  367TMC3    H1 5550   0.821   4.407  14.784  0.1308 -0.4381 -0.3945
  367TMC3    H2 5551   1.158   4.672  14.754 -0.7241  0.1783 -1.7637
  367TMC3    C7 5552   0.919   4.633  14.671  0.5225 -0.6345  0.0344
  367TMC3    C8 5553   1.301   4.524  14.947 -0.5266  0.3412 -1.1893
  367TMC3    O1 5554   0.930   0.021  14.685 -0.1113  0.0860 -0.2241
  367TMC3    O2 5555   1.373   4.436  14.992 -0.2569 -0.6677  1.0345
  368MPD2     C 5556   2.741   1.441  12.980 -0.4686  0.1906 -0.5125
  368MPD2    C1 5557   2.780   1.562  12.921 -0.0347 -0.0373  0.0890
  368MPD2    C2 5558   2.891   1.565  12.828 -0.7957  0.3575 -0.1576
  368MPD2    C3 5559   2.952   1.445  12.802 -1.0782  0.2332  0.0479
  368MPD2    C4 5560   2.913   1.324  12.864  0.2132 -0.3165  0.0765
  368MPD2    C5 5561   2.812   1.324  12.949 -0.3340 -0.2570 -0.1418
  368MPD2     H 5562   2.928   1.659  12.787 -0.6898 -0.3923 -1.7636
  368MPD2    H1 5563   2.955   1.228  12.838  0.9214 -0.2054  0.8128
  368MPD2    H2 5564   2.668   1.438  13.060  0.3149 -0.2907  0.1939
  368MPD2    H3 5565   2.783   1.235  13.004  0.1529  0.4215  1.1993
  368MPD2     N 5566   3.044   1.427  12.702 -0.4857  0.1435  0.0617
  368MPD2    H5 5567   3.072   1.338  12.664  0.5123  0.7399 -0.6105
  368MPD2    N1 5568   2.707   1.680  12.950  0.1739  0.1578 -0.6788
  368MPD2    H7 5569   2.632   1.672  13.017  1.7579  0.4551  1.1198
  369TMC3    C1 5570   2.591   1.869  12.893 -0.1841 -0.4369 -0.0575
  369TMC3    C2 5571   2.597   1.980  12.804 -0.1448  0.1364  0.2702
  369TMC3    C3 5572   2.511   1.988  12.699 -0.2531  0.2026 -0.0032
  369TMC3    C4 5573   2.489   1.780  12.877  0.8899  0.3279  0.3949
  369TMC3    C5 5574   2.410   1.791  12.771  0.1110  0.2600  0.3764
  369TMC3    C6 5575   2.415   1.892  12.679  0.0896 -0.4910 -0.5838
  369TMC3     C 5576   2.720   1.803  12.897 -0.1928 -0.2937  0.8743
  369TMC3     O 5577   2.801   1.844  12.816  0.3619  0.7331 -0.3421
  369TMC3     H 5578   2.674   2.055  12.816 -0.3356  0.0292  2.1570
  369TMC3    H1 5579   2.457   1.703  12.946 -0.7308  0.3515 -0.3141
  369TMC3    H2 5580   2.374   1.894  12.579  0.7050  0.0192 -0.8225
  369TMC3    C7 5581   2.324   1.675  12.755  0.2714  0.1629 -0.6642
  369TMC3    C8 5582   2.588   1.997  12.574  0.0435  0.2297 -0.2614
  369TMC3    O1 5583   2.331   1.575  12.826  0.4062  0.7346  0.3932
  369TMC3    O2 5584   2.534   2.029  12.471  0.1831 -0.2090 -0.0884
  370TMC3    C1 5585   2.128   2.064  16.135  0.3882 -0.0586 -0.2610
  370TMC3    C2 5586   2.099   1.970  16.237 -0.8986  0.2363  0.1870
  370TMC3    C3 5587   2.025   1.859  16.214 -0.2949 -0.0254  0.6790
  370TMC3    C4 5588   2.077   2.039  16.008  0.4250 -0.7258 -0.2357
  370TMC3    C5 5589   2.003   1.921  15.985 -0.3920  0.9594 -0.6006
  370TMC3    C6 5590   1.974   1.832  16.084  0.6756 -0.5527 -0.2789
  370TMC3     C 5591   2.216   2.171  16.171  0.0347  0.1702 -0.7475
  370TMC3     O 5592   2.284   2.156  16.273  0.1420  0.1682 -0.3567
  370TMC3     H 5593   2.142   1.985  16.336 -2.2366  2.6093  0.3985
  370TMC3    H1 5594   2.066   2.119  15.935 -1.0023 -0.4806  0.2595
  370TMC3    H2 5595   1.906   1.748  16.071 -1.2750  1.0641 -0.6749
  370TMC3    C7 5596   1.985   1.877  15.849  0.0271  0.4121 -0.1582
  370TMC3    C8 5597   1.986   1.767  16.316  0.3092  0.3151  0.2656
  370TMC3    O1 5598   1.954   1.954  15.760 -0.0360 -0.1849 -0.1785
  370TMC3    O2 5599   1.942   1.662  16.273 -0.0212 -0.0875 -0.1616
  371TMC3    C1 5600   3.333   0.308  15.303  0.3016  0.1526  0.2019
  371TMC3    C2 5601   3.225   0.296  15.385  0.6321 -0.1886 -0.2314
  371TMC3    C3 5602   3.145   0.405  15.392  0.4362 -0.3132  0.2166
  371TMC3    C4 5603   3.367   0.426  15.244  0.1929 -0.8849  0.0338
  371TMC3    C5 5604   3.286   0.532  15.256  0.1836 -0.8459 -0.4883
  371TMC3    C6 5605   3.175   0.527  15.335 -1.1558 -0.3881 -0.2809
  371TMC3     C 5606   3.426   0.195  15.289 -0.7178  0.5935 -0.1989
  371TMC3     O 5607   3.545   0.220  15.273 -0.4800  0.5012  0.0769
  371TMC3     H 5608   3.199   0.208  15.443  0.4960 -0.0006 -0.0126
  371TMC3    H1 5609   3.455   0.432  15.181 -0.1506 -0.6148 -0.4224
  371TMC3    H2 5610   3.113   0.615  15.349  1.8975  1.2184  3.1300
  371TMC3    C7 5611   3.317   0.642  15.174  0.0038 -0.5124 -0.0729
  371TMC3    C8 5612   3.009   0.384  15.443 -0.2561 -0.2361 -0.1802
  371TMC3    O1 5613   3.434   0.663  15.159 -0.2392 -0.1930 -0.1780
  371TMC3    O2 5614   2.972   0.266  15.433  0.3511  0.6358  0.2326
  372MPD2     C 5615   2.764   1.172  13.804  0.5869  0.1588 -0.0237
  372MPD2    C1 5616   2.838   1.109  13.704  0.2111  0.2661 -0.3612
  372MPD2    C2 5617   2.852   0.969  13.720  0.2666 -0.4561  0.8959
  372MPD2    C3 5618   2.809   0.899  13.835  0.2686  0.8741  0.3849
  372MPD2    C4 5619   2.749   0.974  13.932 -0.3963  0.0436 -0.4903
  372MPD2    C5 5620   2.735   1.105  13.917 -0.8163  0.1543 -0.4213
  372MPD2     H 5621   2.896   0.911  13.640  1.3056 -1.7193  2.4112
  372MPD2    H1 5622   2.702   0.926  14.017  1.0793 -1.3726 -0.4646
  372MPD2    H2 5623   2.726   1.273  13.806 -0.6040 -0.3012  0.3122
  372MPD2    H3 5624   2.686   1.159  13.997  2.1290  0.5863  1.0912
  372MPD2     N 5625   2.828   0.761  13.842 -0.2902  0.8631  0.2892
  372MPD2    H5 5626   2.850   0.717  13.753  1.0624 -0.8067  1.4392
  372MPD2    N1 5627   2.884   1.162  13.582  1.0055  0.2161 -0.4779
  372MPD2    H7 5628   2.938   1.098  13.525  0.6693  0.7876 -1.4404
  373TMC3    C1 5629   2.833   0.542  13.929  0.2566 -0.1648 -0.0605
  373TMC3    C2 5630   2.847   0.460  14.042  0.6149 -0.0550 -0.1901
  373TMC3    C3 5631   2.857   0.327  14.020 -0.7748 -0.2693 -0.1991
  373TMC3    C4 5632   2.838   0.494  13.801 -0.5199 -1.1460 -0.0008
  373TMC3    C5 5633   2.842   0.361  13.783  0.1879 -0.0274  0.1684
  373TMC3    C6 5634   2.847   0.270  13.891 -0.2062 -0.7628  0.1924
  373TMC3     C 5635   2.825   0.689  13.951  0.1246 -0.2895 -0.2967
  373TMC3     O 5636   2.812   0.719  14.070  0.5058 -0.1499  0.1088
  373TMC3     H 5637   2.840   0.496  14.144 -1.7684 -2.0681  0.3595
  373TMC3    H1 5638   2.833   0.563  13.718  0.4937 -0.6815  0.3138
  373TMC3    H2 5639   2.848   0.162  13.895 -2.4723 -0.7642  0.7070
  373TMC3    C7 5640   2.884   0.316  13.651 -0.7091 -0.1749  0.4280
  373TMC3    C8 5641   2.840   0.241  14.138  0.1055  0.0789  0.4810
  373TMC3    O1 5642   2.942   0.393  13.576 -0.2766 -0.2164  0.0556
  373TMC3    O2 5643   2.753   0.158  14.127 -0.4787  0.2062  0.3068
  374TMC3    C1 5644   3.773   1.122   9.286  0.3289 -0.0158  0.2551
  374TMC3    C2 5645   3.891   1.178   9.236 -0.1082  0.1221  0.0603
  374TMC3    C3 5646   3.934   1.131   9.110  0.0229 -0.0545  0.0408
  374TMC3    C4 5647   3.699   1.037   9.211 -0.0953 -0.2462  0.4340
  374TMC3    C5 5648   3.741   1.008   9.084 -0.0871 -0.3800 -0.3724
  374TMC3    C6 5649   3.855   1.049   9.030  0.0615 -0.0953  0.5175
  374TMC3     C 5650   3.737   1.155   9.421  0.4110 -0.2948 -1.2704
  374TMC3     O 5651   3.660   1.079   9.479  0.5318  0.2472  0.4755
  374TMC3     H 5652   3.947   1.255   9.288  1.0020 -0.7581  0.1761
  374TMC3    H1 5653   3.604   1.000   9.247  0.5392 -0.1652  2.1780
  374TMC3    H2 5654   3.900   0.993   8.949  0.5132  2.2143 -0.8104
  374TMC3    C7 5655   3.663   0.909   9.014 -0.5585 -0.3300 -0.1310
  374TMC3    C8 5656   4.051   1.187   9.055  0.3769  0.3035  0.2294
  374TMC3    O1 5657   3.583   0.843   9.077 -0.6263  0.0504 -0.2941
  374TMC3    O2 5658   4.063   1.200   8.934 -0.2516  0.3556 -0.0120
  375MPD2     C 5659   3.532   1.852  17.214 -0.2984 -0.4911  0.2593
  375MPD2    C1 5660   3.471   1.952  17.133  0.3326 -0.2282  0.4728
  375MPD2    C2 5661   3.505   1.952  16.997 -0.6934  0.9799  0.2144
  375MPD2    C3 5662   3.591   1.862  16.939  0.0169 -0.8320 -0.3447
  375MPD2    C4 5663   3.648   1.769  17.023  0.1954 -0.2343  0.7637
  375MPD2    C5 5664   3.615   1.758  17.159 -0.3158 -0.6684  0.4104
  375MPD2     H 5665   3.459   2.027  16.933 -0.5419  0.3789 -0.5956
  375MPD2    H1 5666   3.719   1.696  16.985  1.3658 -0.1666  2.8292
  375MPD2    H2 5667   3.523   1.850  17.323 -0.0673 -0.7156  0.2733
  375MPD2    H3 5668   3.669   1.687  17.221  0.0133 -0.1361  0.7351
  375MPD2     N 5669   3.612   1.856  16.801  0.0090  0.4457 -0.3512
  375MPD2    H5 5670   3.660   1.780  16.755 -0.2044 -0.0646  0.2692
  375MPD2    N1 5671   3.365   2.035  17.178  0.0533  0.2550 -0.3280
  375MPD2    H7 5672   3.333   2.107  17.114  2.1681 -1.1234 -2.8940
  376TMC3    C1 5673   3.589   1.904  16.567 -0.7211  0.3379 -0.1096
  376TMC3    C2 5674   3.717   1.854  16.537  0.3997  0.7105 -0.1737
  376TMC3    C3 5675   3.753   1.860  16.411  0.1258  0.1707 -0.9769
  376TMC3    C4 5676   3.506   1.950  16.471 -0.3967  0.7352  0.0827
  376TMC3    C5 5677   3.552   1.953  16.345 -0.2894  0.3381 -0.7099
  376TMC3    C6 5678   3.678   1.912  16.315  0.3387 -0.0318 -0.6614
  376TMC3     C 5679   3.556   1.936  16.704  0.0463 -0.3423  0.0615
  376TMC3     O 5680   3.484   2.032  16.723 -0.1926  0.0180  0.1311
  376TMC3     H 5681   3.785   1.811  16.610  1.0607  2.3887  0.2081
  376TMC3    H1 5682   3.411   1.987  16.505  0.8404  3.7560  0.2862
  376TMC3    H2 5683   3.701   1.902  16.210  1.4083 -0.1787 -0.4101
  376TMC3    C7 5684   3.478   2.009  16.235 -1.0533  0.3574  0.0929
  376TMC3    C8 5685   3.891   1.863  16.375  0.9763 -0.2410  1.3380
  376TMC3    O1 5686   3.537   2.084  16.161  0.1666 -0.3782  0.2993
  376TMC3    O2 5687   3.922   1.953  16.299  0.1352  0.1416 -0.1856
  377MPD2     C 5688   2.038   2.012  12.584 -0.0812  0.0080 -0.2612
  377MPD2    C1 5689   1.966   2.009  12.468  0.2662  0.0947 -0.2849
  377MPD2    C2 5690   1.832   1.971  12.464 -0.3199  0.3342 -0.0732
  377MPD2    C3 5691   1.778   1.929  12.583  0.9099  0.4803 -0.4430
  377MPD2    C4 5692   1.854   1.914  12.695 -0.1101 -0.4909 -0.1032
  377MPD2    C5 5693   1.981   1.958  12.697 -0.0136 -0.2697 -0.9700
  377MPD2     H 5694   1.775   1.963  12.372 -1.5051  0.3496  0.6551
  377MPD2    H1 5695   1.806   1.876  12.784  1.9773  2.0470  2.0785
  377MPD2    H2 5696   2.142   2.043  12.587  0.0635 -0.6492  1.5440
  377MPD2    H3 5697   2.031   1.969  12.793  0.7811  2.4617 -1.6993
  377MPD2     N 5698   1.643   1.885  12.594  0.6324  0.1259  0.4993
  377MPD2    H5 5699   1.621   1.831  12.677 -2.9655 -0.0230 -0.5298
  377MPD2    N1 5700   2.036   2.029  12.342  0.1004 -0.5479 -0.1760
  377MPD2    H7 5701   2.137   2.043  12.351  0.2042 -0.4635 -1.4876
  378TMC3    C1 5702   2.109   2.114  11.883  0.5170 -0.6440  1.1598
  378TMC3    C2 5703   2.018   2.120  11.993  0.4784  0.8125 -0.6436
  378TMC3    C3 5704   2.067   2.080  12.116 -0.1545 -0.3586  0.1736
  378TMC3    C4 5705   2.237   2.058  11.879 -0.4156 -0.2913 -0.4524
  378TMC3    C5 5706   2.280   2.024  12.008 -0.0336 -0.0419 -0.1789
  378TMC3    C6 5707   2.191   2.022  12.119  0.2752  0.0542  1.2884
  378TMC3     C 5708   2.051   2.170  11.764  0.7431 -0.1215  0.2798
  378TMC3     O 5709   1.949   2.232  11.774 -0.3291 -0.0309 -0.1048
  378TMC3     H 5710   1.927   2.177  11.982  0.3021  0.4808 -0.9011
  378TMC3    H1 5711   2.309   2.082  11.801  0.2886 -1.2140 -0.0851
  378TMC3    H2 5712   2.231   1.980  12.211  1.7186  0.3269  0.7810
  378TMC3    C7 5713   2.408   1.957  12.025 -0.3187 -0.4002 -0.1674
  378TMC3    C8 5714   1.970   2.041  12.215 -0.6167 -0.7174 -0.1217
  378TMC3    O1 5715   2.449   1.954  12.147  0.2738  0.5659 -0.3229
  378TMC3    O2 5716   1.854   2.055  12.189  1.2025 -0.5603 -0.4652
  379MPD2     C 5717   1.781   4.571  16.032  0.6530  0.1463  0.1717
  379MPD2    C1 5718   1.862   4.486  15.965 -0.0841  0.2326  0.0408
  379MPD2    C2 5719   1.946   4.407  16.035  0.0565 -0.4786 -0.3489
  379MPD2    C3 5720   1.945   4.399  16.172  0.3721 -0.5847 -0.6027
  379MPD2    C4 5721   1.856   4.480  16.237  0.2039 -0.6739 -0.5178
  379MPD2    C5 5722   1.774   4.564  16.168  0.5014  0.5410 -0.4823
  379MPD2     H 5723   2.034   4.371  15.983  0.9611  1.2883 -0.0111
  379MPD2    H1 5724   1.840   4.474  16.344  0.1360  1.4002 -0.4085
  379MPD2    H2 5725   1.717   4.638  15.976 -0.4579 -0.5921  0.5721
  379MPD2    H3 5726   1.707   4.621  16.232  0.9536  0.5296 -0.0019
  379MPD2     N 5727   2.034   4.316  16.241  0.8983 -0.0584  0.3364
  379MPD2    H5 5728   2.056   4.329  16.340  2.0660 -0.9532  0.1998
  379MPD2    N1 5729   1.882   4.509  15.832  0.1276 -0.3940 -0.3108
  379MPD2    H7 5730   1.835   4.589  15.791 -0.1063 -0.2539  0.2350
  380TMC3    C1 5731   1.942   4.483  15.612  1.0048  0.7514 -0.7314
  380TMC3    C2 5732   2.046   4.453  15.529 -0.1609 -0.2259 -0.0624
  380TMC3    C3 5733   2.030   4.498  15.397 -0.6452  0.2128  0.6587
  380TMC3    C4 5734   1.831   4.553  15.573  0.3064  0.1039 -0.4720
  380TMC3    C5 5735   1.819   4.599  15.443 -0.1499 -0.7008 -1.1997
  380TMC3    C6 5736   1.920   4.576  15.354 -0.7038  1.0078  0.2350
  380TMC3     C 5737   1.964   4.436  15.745 -0.2888  0.5937 -0.0524
  380TMC3     O 5738   2.017   4.329  15.763 -0.1058  0.3022  0.1164
  380TMC3     H 5739   2.134   4.407  15.572 -0.0357 -0.3118 -0.4133
  380TMC3    H1 5740   1.754   4.577  15.645 -2.2340 -1.1847 -2.7543
  380TMC3    H2 5741   1.922   4.614  15.253 -0.1243  0.2874 -0.0182
  380TMC3    C7 5742   1.724   4.695  15.402 -0.0367 -0.3377 -0.2241
  380TMC3    C8 5743   2.153   4.543  15.332  0.3255 -0.5356  0.4516
  380TMC3    O1 5744   1.699   0.055  15.465  0.0274 -0.3065  1.0706
  380TMC3    O2 5745   2.142   4.654  15.276  0.1513 -0.5579 -0.3188
  381TMC3    C1 5746   1.800   1.114  16.014 -0.1416 -0.0633  0.3716
  381TMC3    C2 5747   1.929   1.157  15.997 -0.5446 -0.7200 -0.5048
  381TMC3    C3 5748   1.970   1.251  16.087 -0.2657 -0.3026  0.8726
  381TMC3    C4 5749   1.718   1.147  16.121  0.0227 -0.1918  1.1747
  381TMC3    C5 5750   1.762   1.246  16.205 -0.4083  0.0981 -0.0497
  381TMC3    C6 5751   1.886   1.305  16.181  0.2988  1.0082  0.4632
  381TMC3     C 5752   1.750   1.010  15.925  0.4503  0.7306 -0.4140
  381TMC3     O 5753   1.629   0.998  15.925  0.2653 -0.2915  0.1044
  381TMC3     H 5754   1.997   1.133  15.917  0.5854  0.7454  0.0177
  381TMC3    H1 5755   1.628   1.088  16.133 -0.2942  0.3481  1.4680
  381TMC3    H2 5756   1.908   1.399  16.229  0.3234  1.7622 -1.0313
  381TMC3    C7 5757   1.752   1.177  16.333 -0.2308  0.0224 -0.0536
  381TMC3    C8 5758   2.092   1.323  16.066 -0.1311 -0.2724  0.8193
  381TMC3    O1 5759   1.784   1.062  16.325 -0.6890  0.1806 -0.2703
  381TMC3    O2 5760   2.151   1.295  15.963 -0.0779 -0.2702  0.1559
  382MPD2     C 5761   1.102   3.515  16.415  0.6846 -0.2337 -0.5948
  382MPD2    C1 5762   1.205   3.514  16.504 -0.0203  0.8915 -0.3229
  382MPD2    C2 5763   1.209   3.413  16.597 -0.5024 -0.3310 -0.2019
  382MPD2    C3 5764   1.118   3.311  16.598 -0.4033 -1.1055  0.2668
  382MPD2    C4 5765   1.031   3.305  16.492 -0.2390  0.5938  0.1269
  382MPD2    C5 5766   1.009   3.413  16.405  0.1904 -0.1606 -0.5291
  382MPD2     H 5767   1.288   3.429  16.670 -1.2981 -0.6010  0.7253
  382MPD2    H1 5768   0.960   3.223  16.479  1.4092 -0.9076  0.5865
  382MPD2    H2 5769   1.081   3.590  16.339  2.1860  1.5115  0.7298
  382MPD2    H3 5770   0.938   3.421  16.324  0.9990 -0.1056 -1.2288
  382MPD2     N 5771   1.103   3.214  16.694  0.3230  0.0540 -0.2230
  382MPD2    H5 5772   1.039   3.137  16.675  0.2314  0.3143 -0.9529
  382MPD2    N1 5773   1.305   3.616  16.508  0.1957  0.3900  0.0020
  382MPD2    H7 5774   1.390   3.592  16.558  1.1023  0.5056 -1.4862
  383TMC3    C1 5775   1.148   3.101  16.903  0.3395 -0.3687  0.1808
  383TMC3    C2 5776   1.038   3.024  16.876  0.2942  0.0974  0.5947
  383TMC3    C3 5777   0.981   2.964  16.982 -0.6800 -0.3168 -1.0151
  383TMC3    C4 5778   1.200   3.113  17.032 -1.1964  0.4697 -0.4253
  383TMC3    C5 5779   1.149   3.038  17.131 -0.6095  0.5418  0.3070
  383TMC3    C6 5780   1.041   2.962  17.105 -0.0097 -0.3061  0.2936
  383TMC3     C 5781   1.173   3.212  16.814 -0.5098  0.3506  0.2762
  383TMC3     O 5782   1.248   3.300  16.859  0.0522  0.1441  0.0703
  383TMC3     H 5783   0.990   3.022  16.779  1.9889  1.1308 -0.2786
  383TMC3    H1 5784   1.285   3.172  17.067 -1.7300  0.8911  0.1649
  383TMC3    H2 5785   0.995   2.909  17.187 -1.6492 -1.8179 -1.5946
  383TMC3    C7 5786   1.230   3.048  17.255 -0.1101  0.1329  0.0631
  383TMC3    C8 5787   0.868   2.881  16.947 -0.3808  0.0893  0.0337
  383TMC3    O1 5788   1.347   3.080  17.251 -0.3715  0.0963 -0.3721
  383TMC3    O2 5789   0.821   2.889  16.830  0.5412 -0.0992  0.3016
  384MPD2     C 5790   2.886   4.527  11.509  0.2350  0.5734 -0.4822
  384MPD2    C1 5791   2.944   4.566  11.628  0.6697  0.2444 -0.4160
  384MPD2    C2 5792   3.062   4.502  11.662  0.0545 -0.0124 -0.5483
  384MPD2    C3 5793   3.126   4.420  11.574 -1.1163  0.1622 -0.5286
  384MPD2    C4 5794   3.076   4.392  11.451 -0.0389  0.5992 -0.5742
  384MPD2    C5 5795   2.956   4.458  11.419 -0.2491  0.6442 -0.0680
  384MPD2     H 5796   3.112   4.519  11.757 -1.0941  0.2935 -0.0050
  384MPD2    H1 5797   3.115   4.320  11.379  1.0528  0.6218 -0.0047
  384MPD2    H2 5798   2.804   4.592  11.480  0.2844  0.5222 -0.7340
  384MPD2    H3 5799   2.910   4.429  11.326 -1.6735  1.3586  0.4207
  384MPD2     N 5800   3.243   4.359  11.617 -0.2463  0.0752 -0.4135
  384MPD2    H5 5801   3.284   4.394  11.702  0.7262 -0.0418 -0.8358
  384MPD2    N1 5802   2.892   4.665  11.714  0.2649  0.0854 -0.0441
  384MPD2    H7 5803   2.802   4.706  11.690  0.1530 -0.6466 -0.8853
  385TMC3    C1 5804   3.413   4.219  11.662  0.7788 -0.3718 -0.3209
  385TMC3    C2 5805   3.434   4.085  11.687 -0.0495  0.3176 -0.4813
  385TMC3    C3 5806   3.474   4.047  11.810 -0.2007 -0.0062  0.3535
  385TMC3    C4 5807   3.446   4.316  11.751 -0.2685  0.2403  0.0944
  385TMC3    C5 5808   3.482   4.276  11.877 -0.5590 -0.1345  0.1431
  385TMC3    C6 5809   3.498   4.143  11.908 -0.3514  0.4619  0.0960
  385TMC3     C 5810   3.301   4.248  11.573 -0.0228 -0.6836  0.6529
  385TMC3     O 5811   3.270   4.171  11.485 -0.0342 -0.4012  0.1473
  385TMC3     H 5812   3.430   4.015  11.604  1.2483  0.2765 -0.5120
  385TMC3    H1 5813   3.428   4.423  11.744 -0.5931  0.0921 -1.2500
  385TMC3    H2 5814   3.508   4.112  12.012  2.8168  0.2845 -0.2712
  385TMC3    C7 5815   3.396   4.355  11.958  0.2876  0.6193 -0.2203
  385TMC3    C8 5816   3.485   3.899  11.833 -0.0603 -0.0208  0.3116
  385TMC3    O1 5817   3.292   4.372  11.899 -0.0040 -0.2883 -0.1385
  385TMC3    O2 5818   3.437   3.860  11.939  0.0017  0.3850 -0.5797
  386TMC3    C1 5819   3.554   1.632  11.191  0.2028 -0.3846  0.7121
  386TMC3    C2 5820   3.588   1.694  11.071  0.2156  0.0568  0.2947
  386TMC3    C3 5821   3.529   1.816  11.048  0.0093 -0.0742  0.4335
  386TMC3    C4 5822   3.457   1.682  11.276 -0.0958  0.0867  0.6665
  386TMC3    C5 5823   3.390   1.794  11.237  0.7794  0.3400 -0.0537
  386TMC3    C6 5824   3.423   1.864  11.122  0.7204  0.6297 -0.3519
  386TMC3     C 5825   3.597   1.494  11.208  0.0823  0.0218  0.1088
  386TMC3     O 5826   3.689   1.442  11.146  0.5062  0.2894  0.6435
  386TMC3     H 5827   3.662   1.646  11.008  0.0184 -1.6977  1.4106
  386TMC3    H1 5828   3.457   1.643  11.377  1.2681  1.6527  1.2794
  386TMC3    H2 5829   3.381   1.961  11.096  0.6908  0.3362 -1.3914
  386TMC3    C7 5830   3.282   1.848  11.312  0.4450 -0.2425 -0.3737
  386TMC3    C8 5831   3.553   1.888  10.924 -0.1910  0.1931  0.0815
  386TMC3    O1 5832   3.281   1.816  11.432  0.2290 -0.2971  0.6521
  386TMC3    O2 5833   3.463   1.961  10.883 -0.7848  0.0956 -0.3562
  387MPD2     C 5834   1.410   1.948   9.288  0.3514 -0.1899  0.1627
  387MPD2    C1 5835   1.517   1.992   9.362  0.5092  0.0530 -0.2638
  387MPD2    C2 5836   1.618   1.900   9.389  0.6831  0.5704  0.1580
  387MPD2    C3 5837   1.596   1.764   9.365  0.7457 -0.6116  0.2907
  387MPD2    C4 5838   1.477   1.716   9.318  0.0749 -0.1649 -0.5187
  387MPD2    C5 5839   1.381   1.808   9.279  0.3361  0.1752  0.6103
  387MPD2     H 5840   1.709   1.941   9.433  0.3743  1.8110 -0.3565
  387MPD2    H1 5841   1.445   1.612   9.314 -0.8895  0.1775 -1.8149
  387MPD2    H2 5842   1.330   2.013   9.255 -0.1180 -1.2976 -0.8723
  387MPD2    H3 5843   1.286   1.778   9.238  0.9961 -0.2024 -0.6502
  387MPD2     N 5844   1.695   1.677   9.418 -0.7054  0.0315  0.1316
  387MPD2    H5 5845   1.770   1.724   9.468  1.0331  0.3551 -2.7758
  387MPD2    N1 5846   1.545   2.125   9.390 -0.3268 -0.6681  0.2029
  387MPD2    H7 5847   1.628   2.133   9.448  0.9756 -1.5972 -1.5248
  388TMC3    C1 5848   1.515   2.342   9.441  0.1573 -0.7161 -0.2023
  388TMC3    C2 5849   1.518   2.472   9.396  0.7654 -0.2589 -0.3258
  388TMC3    C3 5850   1.585   2.571   9.476  0.5499  0.4835 -0.2414
  388TMC3    C4 5851   1.577   2.307   9.559  0.3793 -0.9462  0.2645
  388TMC3    C5 5852   1.657   2.405   9.621 -0.4350  0.2369  0.3235
  388TMC3    C6 5853   1.647   2.532   9.589 -0.3164  0.1469 -0.0973
  388TMC3     C 5854   1.479   2.235   9.351 -0.0381 -0.1002 -0.2718
  388TMC3     O 5855   1.396   2.246   9.260 -0.0998 -0.4053 -0.0165
  388TMC3     H 5856   1.478   2.497   9.299 -1.4361  0.2190  0.7055
  388TMC3    H1 5857   1.553   2.214   9.608 -1.3022 -0.8557 -0.4024
  388TMC3    H2 5858   1.714   2.606   9.633 -0.5603  0.2407  0.1146
  388TMC3    C7 5859   1.728   2.371   9.742 -0.3631 -0.8505  0.0003
  388TMC3    C8 5860   1.524   2.705   9.467 -0.2009  0.6071 -0.0730
  388TMC3    O1 5861   1.743   2.451   9.837 -0.0974  0.0843 -0.7297
  388TMC3    O2 5862   1.450   2.726   9.373  0.2170 -0.3973 -0.1127
  389MPD2     C 5863   0.648   0.503  10.581 -0.0109  0.4354 -0.1236
  389MPD2    C1 5864   0.557   0.404  10.551 -0.5555 -0.0785 -0.5307
  389MPD2    C2 5865   0.533   0.303  10.645  0.4810  0.5005 -0.0616
  389MPD2    C3 5866   0.590   0.309  10.774 -0.1931 -0.5224 -0.3850
  389MPD2    C4 5867   0.674   0.412  10.799  0.3286  0.1574 -0.2656
  389MPD2    C5 5868   0.705   0.510  10.706 -0.6990  0.8838 -0.1579
  389MPD2     H 5869   0.468   0.223  10.613 -0.0105  0.6224  0.6273
  389MPD2    H1 5870   0.711   0.432  10.899  2.8298  1.3482 -1.4371
  389MPD2    H2 5871   0.675   0.578  10.508  1.3773  0.2962  0.2405
  389MPD2    H3 5872   0.767   0.595  10.731  1.6726 -1.2462  1.1922
  389MPD2     N 5873   0.560   0.220  10.877 -0.1766  0.0604  0.4338
  389MPD2    H5 5874   0.593   0.235  10.972 -0.0936  1.2829  0.2111
  389MPD2    N1 5875   0.494   0.417  10.429  0.3075  0.3127  0.5674
  389MPD2    H7 5876   0.517   0.501  10.377  1.1216 -0.4043 -0.2366
  390TMC3    C1 5877   0.430   0.050  10.991 -0.7309  0.2800  0.6788
  390TMC3    C2 5878   0.365   4.665  10.982 -0.2558  0.5237  1.0930
  390TMC3    C3 5879   0.315   4.608  11.099 -0.1688  0.5223  0.1782
  390TMC3    C4 5880   0.433   0.114  11.114  0.1857 -0.4374 -0.5825
  390TMC3    C5 5881   0.355   0.064  11.216  0.2106  0.0105 -0.1370
  390TMC3    C6 5882   0.295   4.671  11.218  0.1192 -0.0127  1.1749
  390TMC3     C 5883   0.472   0.114  10.869 -0.2752 -0.2887  0.6151
  390TMC3     O 5884   0.421   0.069  10.771 -0.0970 -0.7054 -0.3247
  390TMC3     H 5885   0.371   4.615  10.886  2.2898  0.7889  1.1091
  390TMC3    H1 5886   0.487   0.207  11.127 -1.2271  0.2173  0.6788
  390TMC3    H2 5887   0.231   4.644  11.301 -0.1902 -0.2964  0.8449
  390TMC3    C7 5888   0.340   0.155  11.325 -0.6091 -0.4328  0.3727
  390TMC3    C8 5889   0.247   4.480  11.069  0.4631  0.9551  1.1187
  390TMC3    O1 5890   0.361   0.271  11.299  0.2968  0.1536  0.0220
  390TMC3    O2 5891   0.248   4.436  10.956 -0.4200  0.3494  0.1531
  391MPD2     C 5892   0.101   1.573  10.387 -0.5105 -0.7506 -0.7156
  391MPD2    C1 5893   0.203   1.636  10.315  0.4423 -0.8867 -0.6071
  391MPD2    C2 5894   0.200   1.619  10.175  0.4811  0.5014  0.9037
  391MPD2    C3 5895   0.089   1.553  10.117  0.0695 -0.3200  0.5489
  391MPD2    C4 5896   4.724   1.495  10.194  0.1400  0.4588  0.4062
  391MPD2    C5 5897   4.732   1.503  10.330  0.3547 -0.4666 -0.0081
  391MPD2     H 5898   0.276   1.661  10.110  0.2375 -0.3493  0.0624
  391MPD2    H1 5899   4.636   1.451  10.148  1.8215 -2.5388  0.0205
  391MPD2    H2 5900   0.106   1.583  10.495 -3.7248  1.4179 -0.7764
  391MPD2    H3 5901   4.654   1.455  10.389  0.2406 -0.1916  0.0680
  391MPD2     N 5902   0.077   1.568   9.978  0.7467 -0.1909  0.1636
  391MPD2    H5 5903   0.139   1.635   9.932  0.8012 -0.6835 -0.4847
  391MPD2    N1 5904   0.289   1.728  10.381  0.0092  0.3367  0.4149
  391MPD2    H7 5905   0.259   1.748  10.476 -0.9653  2.8568 -0.4127
  392TMC3    C1 5906   4.716   1.540   9.759  0.3908 -0.0044  0.1734
  392TMC3    C2 5907   4.631   1.469   9.673  0.0358  0.0019 -0.2211
  392TMC3    C3 5908   4.599   1.531   9.553  0.0155 -0.1918 -0.7778
  392TMC3    C4 5909   0.029   1.665   9.733 -0.0865  0.7995  0.2930
  392TMC3    C5 5910   4.725   1.719   9.613 -0.7070 -0.0697  0.0334
  392TMC3    C6 5911   4.641   1.657   9.519 -0.3010  0.0060  0.0946
  392TMC3     C 5912   4.728   1.493   9.896  0.5054 -0.0544 -0.1173
  392TMC3     O 5913   4.664   1.393   9.920 -0.9546 -0.1202  0.2242
  392TMC3     H 5914   4.591   1.370   9.694  0.6474 -0.1129  0.4199
  392TMC3    H1 5915   0.092   1.723   9.799 -2.2304  1.5751  1.6674
  392TMC3    H2 5916   4.603   1.715   9.435  0.7605  1.1675  0.4025
  392TMC3    C7 5917   0.048   1.850   9.592 -0.5091  0.7148 -0.1731
  392TMC3    C8 5918   4.492   1.464   9.476  0.2428  0.0826  0.2859
  392TMC3    O1 5919   0.134   1.888   9.666  0.1764  0.0389  0.2627
  392TMC3    O2 5920   4.419   1.368   9.517  0.5996  0.5481 -0.0811
  393TMC3    C1 5921   2.835   4.560  10.390 -0.5434  0.2289  0.1786
  393TMC3    C2 5922   2.811   4.490  10.278 -0.4011 -0.1121 -0.7636
  393TMC3    C3 5923   2.736   4.378  10.293 -0.7445  0.0803  0.2939
  393TMC3    C4 5924   2.807   4.513  10.511  0.4241  1.1737 -0.2486
  393TMC3    C5 5925   2.744   4.396  10.525  0.4043  0.7218  0.0359
  393TMC3    C6 5926   2.702   4.331  10.414  1.1006 -0.8322 -0.1054
  393TMC3     C 5927   2.929   4.669  10.397  1.0572  0.3281  0.0752
  393TMC3     O 5928   2.995   4.681  10.498 -0.2715 -0.3648  0.3189
  393TMC3     H 5929   2.832   4.531  10.180  2.2616 -0.8880 -0.5210
  393TMC3    H1 5930   2.846   4.560  10.601  0.2987 -0.8850  0.8741
  393TMC3    H2 5931   2.677   4.228  10.437 -0.3120 -0.7330 -1.1657
  393TMC3    C7 5932   2.808   4.308  10.621 -0.0329 -0.0630 -0.6622
  393TMC3    C8 5933   2.707   4.292  10.177  0.1868  0.5634 -0.1692
  393TMC3    O1 5934   2.739   4.220  10.678  0.0542 -0.3233 -0.0025
  393TMC3    O2 5935   2.643   4.193  10.204 -0.6027 -0.3674 -0.3545
  394TMC3    C1 5936   0.384   0.380  10.244  0.1702  0.1003 -0.5416
  394TMC3    C2 5937   0.269   0.336  10.187  0.1879 -0.5022  0.1904
  394TMC3    C3 5938   0.266   0.323  10.052  0.0112  0.1558  0.0115
  394TMC3    C4 5939   0.493   0.408  10.169 -0.3270  0.0211  0.0804
  394TMC3    C5 5940   0.487   0.399  10.031  0.5401  0.2602 -0.2585
  394TMC3    C6 5941   0.373   0.361   9.972  0.5058  0.4386  0.4220
  394TMC3     C 5942   0.413   0.325  10.373 -0.3781 -0.3246  0.0145
  394TMC3     O 5943   0.358   0.227  10.413  0.6415 -0.8109 -0.2304
  394TMC3     H 5944   0.195   0.297  10.257 -1.4496  1.5686 -0.3585
  394TMC3    H1 5945   0.583   0.433  10.224 -0.4960  0.1493  0.3000
  394TMC3    H2 5946   0.364   0.355   9.864 -0.1058  0.8062  0.4499
  394TMC3    C7 5947   0.583   0.471   9.943  0.2645  0.4730 -0.4024
  394TMC3    C8 5948   0.185   0.214  10.001  0.4416  0.1363  0.1045
  394TMC3    O1 5949   0.541   0.547   9.853 -0.6769 -0.7824 -0.0813
  394TMC3    O2 5950   0.066   0.233   9.968 -0.3247  0.2557  0.1057
  395TMC3    C1 5951   4.412   1.952  14.540 -0.3860  0.1898 -0.5869
  395TMC3    C2 5952   4.312   1.927  14.450  0.2247  0.0014  0.4369
  395TMC3    C3 5953   4.295   2.005  14.343 -0.7107  0.7229  0.0768
  395TMC3    C4 5954   4.488   2.061  14.527  0.5419 -0.5436  0.2046
  395TMC3    C5 5955   4.461   2.152  14.429  0.8316  0.3676 -0.0751
  395TMC3    C6 5956   4.367   2.123  14.330 -0.4169 -0.2861 -0.0817
  395TMC3     C 5957   4.411   1.885  14.667 -0.0787 -0.3047 -0.1084
  395TMC3     O 5958   4.309   1.876  14.737 -0.6634 -0.1190 -0.4027
  395TMC3     H 5959   4.240   1.847  14.463 -0.3674  0.5778  0.6809
  395TMC3    H1 5960   4.561   2.091  14.602 -1.9322  1.2716  1.8948
  395TMC3    H2 5961   4.333   2.198  14.260 -1.3996  0.8393  1.5979
  395TMC3    C7 5962   4.540   2.272  14.409 -0.6067  0.5484 -0.2147
  395TMC3    C8 5963   4.171   2.002  14.260 -0.3770 -0.0908  0.5906
  395TMC3    O1 5964   4.606   2.324  14.499  0.1457  0.2941 -0.0323
  395TMC3    O2 5965   4.106   2.106  14.249  0.6609 -0.3309 -0.6021
  396MPD2     C 5966   4.109   2.752  16.470 -0.1719  0.2269 -0.4600
  396MPD2    C1 5967   4.197   2.826  16.535  0.8864  0.2803 -0.5520
  396MPD2    C2 5968   4.275   2.931  16.470  0.3113  0.4096  0.2034
  396MPD2    C3 5969   4.265   2.949  16.337  0.1810 -0.0352  0.8758
  396MPD2    C4 5970   4.166   2.877  16.275  0.3239 -0.7973  0.2519
  396MPD2    C5 5971   4.087   2.780  16.342 -0.2749 -0.9817 -0.0192
  396MPD2     H 5972   4.333   2.998  16.532 -0.6955  1.2705  0.2203
  396MPD2    H1 5973   4.144   2.885  16.169  0.3011 -2.8688  0.1136
  396MPD2    H2 5974   4.065   2.662  16.512  1.7676 -0.3745  0.2693
  396MPD2    H3 5975   4.027   2.716  16.279 -1.7658 -0.7040  1.1144
  396MPD2     N 5976   4.353   3.040  16.273  0.6115  0.8646 -0.1987
  396MPD2    H5 5977   4.414   3.097  16.331  0.5167  1.2876 -0.5134
  396MPD2    N1 5978   4.221   2.780  16.670  0.0020  0.0720  0.1145
  396MPD2    H7 5979   4.181   2.688  16.688 -1.9492  0.8300 -0.3450
  397TMC3    C1 5980   4.352   2.748  16.858  0.1472 -0.0380 -0.0349
  397TMC3    C2 5981   4.490   2.748  16.853 -0.2530 -0.9224  0.0080
  397TMC3    C3 5982   4.552   2.634  16.817  0.2831 -0.4340  0.0105
  397TMC3    C4 5983   4.283   2.633  16.848  0.0549 -0.6604 -0.0818
  397TMC3    C5 5984   4.350   2.512  16.835  0.2818 -0.1043 -0.2237
  397TMC3    C6 5985   4.488   2.516  16.814  0.0428  0.0036  0.2847
  397TMC3     C 5986   4.307   2.839  16.764  0.2217 -0.0669  0.5007
  397TMC3     O 5987   4.371   2.940  16.748  0.2059  0.2915  0.6460
  397TMC3     H 5988   4.542   2.843  16.841 -2.3839  0.0680 -1.3267
  397TMC3    H1 5989   4.179   2.637  16.879 -0.5935 -0.7375 -2.2651
  397TMC3    H2 5990   4.534   2.418  16.813 -2.3961 -1.1521  0.4038
  397TMC3    C7 5991   4.301   2.395  16.906  0.9559 -0.4137  1.1776
  397TMC3    C8 5992   4.699   2.637  16.820  0.1262  0.6453 -0.2438
  397TMC3    O1 5993   4.357   2.289  16.877 -0.2794 -0.2168 -0.3786
  397TMC3    O2 5994   0.012   2.565  16.907  0.6459  0.7483  0.3680
  398MPD2     C 5995   2.268   4.408  17.580 -0.2837  0.8906 -0.7924
  398MPD2    C1 5996   2.367   4.313  17.587  0.3495 -0.0380  1.0565
  398MPD2    C2 5997   2.500   4.349  17.618  0.5295  0.2572  0.5209
  398MPD2    C3 5998   2.532   4.481  17.628  0.4158 -0.7962 -0.3289
  398MPD2    C4 5999   2.432   4.579  17.614 -0.2260 -0.0903 -0.1304
  398MPD2    C5 6000   2.303   4.536  17.587  0.7947 -0.1125  0.3202
  398MPD2     H 6001   2.578   4.277  17.637  0.5136 -0.1280 -0.8930
  398MPD2    H1 6002   2.452   4.683  17.634 -2.1351 -0.1645  2.2520
  398MPD2    H2 6003   2.168   4.386  17.547  0.1433 -0.8970 -0.8634
  398MPD2    H3 6004   2.227   4.614  17.582  1.6884  0.7117 -0.5372
  398MPD2     N 6005   2.664   4.500  17.672 -0.2851  0.5125 -0.2149
  398MPD2    H5 6006   2.716   4.421  17.710  1.6686  1.0457 -1.7850
  398MPD2    N1 6007   2.345   4.175  17.578 -0.1206  0.0156  0.2920
  398MPD2    H7 6008   2.418   4.119  17.622 -0.0849  0.5154  0.8659
  399TMC3    C1 6009   2.233   3.970  17.512 -0.6297 -0.8784 -0.1324
  399TMC3    C2 6010   2.300   3.909  17.617  0.2889 -0.3797 -0.0425
  399TMC3    C3 6011   2.279   3.778  17.637 -0.3897 -0.0746  0.2394
  399TMC3    C4 6012   2.154   3.907  17.427 -0.2329  0.0452  0.3359
  399TMC3    C5 6013   2.133   3.778  17.451 -0.0223 -0.5895 -0.0113
  399TMC3    C6 6014   2.195   3.704  17.554  0.0920  0.1988 -0.3388
  399TMC3     C 6015   2.239   4.120  17.511 -0.5371  0.0460  0.0762
  399TMC3     O 6016   2.144   4.168  17.453  0.0644 -0.1809  0.5973
  399TMC3     H 6017   2.360   3.961  17.691  1.2416 -0.4490 -0.7613
  399TMC3    H1 6018   2.114   3.968  17.347 -0.8283 -0.2334  0.4232
  399TMC3    H2 6019   2.173   3.599  17.569  0.0928 -0.0228 -1.8544
  399TMC3    C7 6020   2.045   3.705  17.368 -0.0709 -0.9626 -0.2675
  399TMC3    C8 6021   2.363   3.700  17.732 -0.2973  0.0308  0.4175
  399TMC3    O1 6022   2.063   3.584  17.358  0.1816  0.1538  0.0922
  399TMC3    O2 6023   2.456   3.760   0.038 -0.4706  0.1655 -0.3094
  400TMC3    C1 6024   0.815   2.503  16.702  0.2631  0.0701  0.3758
  400TMC3    C2 6025   0.746   2.394  16.657 -0.4489  0.1474 -0.1477
  400TMC3    C3 6026   0.641   2.418  16.568  0.7893  0.2056 -0.3905
  400TMC3    C4 6027   0.799   2.624  16.644  0.4423 -0.7412 -0.2834
  400TMC3    C5 6028   0.699   2.638  16.546  0.7504 -0.0985  0.0136
  400TMC3    C6 6029   0.620   2.534  16.507 -0.5735  0.0143  0.1212
  400TMC3     C 6030   0.907   2.483  16.820  0.6271  0.2663 -0.6559
  400TMC3     O 6031   0.895   2.378  16.884  0.2798  0.2795  0.4848
  400TMC3     H 6032   0.765   2.295  16.697 -1.8221  0.3027  0.8934
  400TMC3    H1 6033   0.854   2.713  16.672  1.3861 -1.7063  0.8966
  400TMC3    H2 6034   0.539   2.555  16.438  0.6904 -1.4261 -1.7809
  400TMC3    C7 6035   0.666   2.764  16.478  0.0271 -0.7643 -0.2698
  400TMC3    C8 6036   0.559   2.301  16.545 -0.1775  0.0463  0.4281
  400TMC3    O1 6037   0.630   2.746  16.359  0.0221  0.1096  0.0412
  400TMC3    O2 6038   0.544   2.215  16.633 -0.1453 -0.0742  0.3776
  401MPD2     C 6039   4.028   1.325   0.523 -0.0095 -0.4626 -0.0929
  401MPD2    C1 6040   4.139   1.260   0.554 -0.4898  0.1764 -0.1936
  401MPD2    C2 6041   4.130   1.129   0.603 -0.1729  0.2802 -0.0187
  401MPD2    C3 6042   4.008   1.064   0.610 -0.2259  0.3321 -0.5464
  401MPD2    C4 6043   3.892   1.140   0.574 -0.5048  0.3948 -0.0686
  401MPD2    C5 6044   3.902   1.268   0.531 -0.1752  0.1219  0.3188
  401MPD2     H 6045   4.218   1.070   0.622 -0.8212 -1.1600 -1.5034
  401MPD2    H1 6046   3.792   1.101   0.561 -0.3287  0.3935 -1.3827
  401MPD2    H2 6047   4.034   1.430   0.495 -0.1795  0.1876  2.2931
  401MPD2    H3 6048   3.812   1.322   0.502 -0.3557 -0.2691  0.1638
  401MPD2     N 6049   4.002   0.927   0.632  0.6014  0.8292  0.0655
  401MPD2    H5 6050   4.093   0.882   0.632 -0.4663 -1.3017 -0.7187
  401MPD2    N1 6051   4.269   1.316   0.536  0.6473 -0.4692  0.6840
  401MPD2    H7 6052   4.350   1.259   0.560 -0.2715 -1.4237  1.4747
  402TMC3    C1 6053   3.902   0.704   0.654 -0.0288  0.1056 -0.3115
  402TMC3    C2 6054   4.017   0.673   0.719  0.4190 -0.0868 -0.3557
  402TMC3    C3 6055   4.054   0.542   0.718 -0.2791 -0.1437 -0.5124
  402TMC3    C4 6056   3.834   0.612   0.574  0.0076 -0.3358 -0.3595
  402TMC3    C5 6057   3.892   0.493   0.553 -0.3248  0.1832 -0.8988
  402TMC3    C6 6058   3.994   0.452   0.635 -0.0805 -0.9434  0.1632
  402TMC3     C 6059   3.893   0.852   0.612  0.4385  0.2937 -0.2375
  402TMC3     O 6060   3.783   0.885   0.568 -0.4690  0.0842 -0.2526
  402TMC3     H 6061   4.076   0.755   0.757 -0.0144 -0.1040  0.3472
  402TMC3    H1 6062   3.758   0.652   0.508  1.1824  0.2138 -1.3644
  402TMC3    H2 6063   4.033   0.351   0.633 -2.5024 -1.9378  1.6130
  402TMC3    C7 6064   3.825   0.401   0.470 -0.4169  0.1427  0.2361
  402TMC3    C8 6065   4.145   0.489   0.816 -0.1957  0.6016  0.4320
  402TMC3    O1 6066   3.704   0.419   0.443  0.1971  0.8509 -0.2075
  402TMC3    O2 6067   4.154   0.367   0.817 -0.2833 -0.2290 -0.1622
  403MPD2     C 6068   2.193   3.810  13.282  0.3740  0.3198 -0.1783
  403MPD2    C1 6069   2.263   3.923  13.309  0.2083 -0.1152  0.1976
  403MPD2    C2 6070   2.343   3.916  13.424  0.1341 -0.1824 -0.5978
  403MPD2    C3 6071   2.362   3.800  13.497  0.5317  0.0669  0.7038
  403MPD2    C4 6072   2.300   3.682  13.455  0.3502 -0.6634  0.0383
  403MPD2    C5 6073   2.210   3.692  13.349 -0.2335 -0.2485 -0.2462
  403MPD2     H 6074   2.396   4.005  13.457 -0.4692 -0.2234  0.4790
  403MPD2    H1 6075   2.321   3.586  13.500  0.2219 -0.4167  0.6191
  403MPD2    H2 6076   2.124   3.812  13.199  0.7367 -0.8699 -0.5121
  403MPD2    H3 6077   2.157   3.604  13.316 -0.7480  0.2270 -0.6999
  403MPD2     N 6078   2.451   3.811  13.606 -0.6377 -0.2411  0.0094
  403MPD2    H5 6079   2.494   3.901  13.626 -2.0481  0.4607 -0.1240
  403MPD2    N1 6080   2.220   4.036  13.245 -0.1017 -0.7245 -0.3291
  403MPD2    H7 6081   2.134   4.026  13.191 -1.4650 -0.0472  1.7046
  404TMC3    C1 6082   2.206   4.254  13.175  0.6222 -0.5835 -0.4287
  404TMC3    C2 6083   2.079   4.227  13.178  0.7976 -0.4825  0.1325
  404TMC3    C3 6084   2.009   4.223  13.059  0.4624  0.3489 -0.1725
  404TMC3    C4 6085   2.264   4.297  13.061  0.4285  0.4644  0.0546
  404TMC3    C5 6086   2.197   4.299  12.940 -0.3023 -0.3472  0.1870
  404TMC3    C6 6087   2.070   4.253  12.940  0.2972 -0.5124  0.3229
  404TMC3     C 6088   2.278   4.154  13.255  0.7432 -0.0704  0.0474
  404TMC3     O 6089   2.386   4.183  13.303 -0.4399 -0.1329  0.3675
  404TMC3     H 6090   2.035   4.200  13.274  1.1878 -2.2081 -0.1782
  404TMC3    H1 6091   2.372   4.301  13.051  0.6331 -3.2405  0.6364
  404TMC3    H2 6092   2.011   4.262  12.849 -0.2883  1.0576  0.8670
  404TMC3    C7 6093   2.247   4.360  12.820  0.1534  0.0453 -0.4310
  404TMC3    C8 6094   1.905   4.115  13.040 -0.7138 -0.1099 -0.4075
  404TMC3    O1 6095   2.340   4.440  12.834  0.5166  0.7538  0.1540
  404TMC3    O2 6096   1.938   4.052  12.940  0.1136 -0.3010 -0.2263
  405MPD2     C 6097   2.827   0.237  14.710  0.1109 -0.3388  0.4962
  405MPD2    C1 6098   2.749   0.149  14.640 -0.3744  0.0325  0.3074
  405MPD2    C2 6099   2.677   0.196  14.533 -0.3835  0.8415 -0.2586
  405MPD2    C3 6100   2.671   0.329  14.498 -0.2811 -0.5375 -0.0209
  405MPD2    C4 6101   2.746   0.420  14.571  0.3458 -0.0645  0.3520
  405MPD2    C5 6102   2.823   0.372  14.673 -0.3511 -0.6091  0.1164
  405MPD2     H 6103   2.624   0.126  14.469 -0.9913 -1.1424  2.4332
  405MPD2    H1 6104   2.760   0.527  14.559  0.3227 -0.0622  0.3476
  405MPD2    H2 6105   2.881   0.206  14.799  0.3126  1.5468  1.0360
  405MPD2    H3 6106   2.874   0.442  14.738 -0.7964  0.8475 -1.1038
  405MPD2     N 6107   2.598   0.361  14.378  0.3478  0.3281  0.4855
  405MPD2    H5 6108   2.540   0.287  14.340  0.7393  0.6684 -0.7540
  405MPD2    N1 6109   2.746   0.016  14.684  0.4457 -0.0583 -0.3667
  405MPD2    H7 6110   2.791   4.725  14.771  3.4973  1.4452 -1.4934
  406TMC3    C1 6111   2.501   0.538  13.971  1.9732  0.0023 -0.0180
  406TMC3    C2 6112   2.491   0.411  13.927  1.1304  0.4519  0.3969
  406TMC3    C3 6113   2.494   0.305  14.016  0.4264 -0.0769 -0.5652
  406TMC3    C4 6114   2.527   0.563  14.100  0.0471  0.2055 -0.3481
  406TMC3    C5 6115   2.517   0.464  14.191 -0.6207 -0.6603 -1.0469
  406TMC3    C6 6116   2.497   0.338  14.147  0.2691  0.0395  0.2816
  406TMC3     C 6117   2.401   0.625  13.914 -0.3192 -0.4120  0.1827
  406TMC3     O 6118   2.421   0.745  13.908 -0.8638 -0.5694  0.2418
  406TMC3     H 6119   2.465   0.389  13.824  2.2162 -1.5931  0.5618
  406TMC3    H1 6120   2.553   0.665  14.124  0.4757  0.0418 -0.1300
  406TMC3    H2 6121   2.465   0.265  14.220 -3.0561  1.1126 -0.1224
  406TMC3    C7 6122   2.589   0.479  14.317 -0.4250 -0.2813  0.7059
  406TMC3    C8 6123   2.443   0.177  13.977  0.1894 -0.3572  0.0653
  406TMC3    O1 6124   2.645   0.580  14.346 -0.5881 -0.4492 -0.1092
  406TMC3    O2 6125   2.366   0.169  13.879  0.0935 -0.3903  0.0544
  407MPD2     C 6126   1.127   1.386   9.392  0.2033 -0.0909  0.1396
  407MPD2    C1 6127   1.254   1.401   9.440  0.0199  0.0894 -0.0701
  407MPD2    C2 6128   1.286   1.525   9.498 -0.3096  0.4500 -0.4780
  407MPD2    C3 6129   1.197   1.623   9.506 -0.3508 -0.6556  0.3730
  407MPD2    C4 6130   1.070   1.598   9.453  0.0907 -0.3218 -0.6722
  407MPD2    C5 6131   1.039   1.487   9.401 -0.0320 -0.2201  0.8886
  407MPD2     H 6132   1.381   1.536   9.550  0.8518 -2.0058 -2.0820
  407MPD2    H1 6133   0.991   1.672   9.462  1.2670  0.7260  1.0012
  407MPD2    H2 6134   1.105   1.301   9.328 -0.0426 -0.2511  0.4367
  407MPD2    H3 6135   0.936   1.474   9.372  0.5602  2.8132 -2.4572
  407MPD2     N 6136   1.214   1.749   9.567  0.6132 -0.2082 -0.2306
  407MPD2    H5 6137   1.142   1.820   9.562 -1.9508 -2.8995 -1.9538
  407MPD2    N1 6138   1.362   1.309   9.425 -0.1213  0.2907  0.2306
  407MPD2    H7 6139   1.455   1.344   9.444 -0.6757  1.2253  1.2820
  408TMC3    C1 6140   1.467   1.097   9.409  0.5083  1.1616 -0.4275
  408TMC3    C2 6141   1.571   1.154   9.348  0.3510 -0.3602 -0.1558
  408TMC3    C3 6142   1.688   1.077   9.331 -0.1002  0.0569 -0.4117
  408TMC3    C4 6143   1.454   0.965   9.450 -0.5513 -1.0463 -0.3276
  408TMC3    C5 6144   1.568   0.890   9.424  0.0287 -0.7177 -0.6580
  408TMC3    C6 6145   1.684   0.945   9.375 -0.5156  0.5481 -0.4628
  408TMC3     C 6146   1.349   1.176   9.388  0.1663 -0.3004  0.1148
  408TMC3     O 6147   1.244   1.117   9.377 -0.1364 -0.1889 -0.0883
  408TMC3     H 6148   1.574   1.257   9.314  0.9004 -0.1277  0.5843
  408TMC3    H1 6149   1.359   0.932   9.492 -0.3708 -2.4230 -0.9933
  408TMC3    H2 6150   1.769   0.880   9.356 -0.6534 -0.1286  1.2924
  408TMC3    C7 6151   1.568   0.745   9.449 -0.4588  0.1236 -0.3520
  408TMC3    C8 6152   1.813   1.139   9.313 -0.2563 -0.0641  0.4590
  408TMC3    O1 6153   1.677   0.689   9.468 -0.4098 -1.1284  0.0249
  408TMC3    O2 6154   1.913   1.077   9.333 -0.7164 -0.0106 -0.3942
  409MPD2     C 6155   4.691   1.738  16.630 -0.0865  0.1149 -0.1461
  409MPD2    C1 6156   0.077   1.776  16.680 -0.0560 -0.3657  0.3420
  409MPD2    C2 6157   0.134   1.897  16.650 -0.0991  0.1949 -0.1715
  409MPD2    C3 6158   0.055   1.994  16.589  0.5569 -0.5658  0.1323
  409MPD2    C4 6159   4.668   1.958  16.535 -0.0341 -0.3506 -0.3749
  409MPD2    C5 6160   4.621   1.827  16.556 -0.3573 -0.6456  0.3924
  409MPD2     H 6161   0.229   1.921  16.697 -0.5226  1.9742 -0.2319
  409MPD2    H1 6162   4.618   2.040  16.485 -1.9493  0.4508  2.8960
  409MPD2    H2 6163   4.643   1.644  16.656 -0.7841  1.1123  2.1098
  409MPD2    H3 6164   4.518   1.806  16.531 -0.7352  3.5965 -1.7612
  409MPD2     N 6165   0.087   2.135  16.584  0.2635  0.6264 -0.5165
  409MPD2    H5 6166   0.018   2.196  16.543 -0.5248  0.5773  0.7368
  409MPD2    N1 6167   0.160   1.688  16.748  0.2751 -0.4117 -0.6073
  409MPD2    H7 6168   0.257   1.717  16.751 -0.0123  0.3528  1.3654
  410TMC3    C1 6169   0.199   2.337  16.629 -0.6681  0.3523 -0.4617
  410TMC3    C2 6170   0.262   2.415  16.721  0.0162  0.3833  1.2828
  410TMC3    C3 6171   0.302   2.543  16.690  0.0676 -0.4858 -0.9474
  410TMC3    C4 6172   0.165   2.398  16.504 -0.4066 -0.1996 -0.8971
  410TMC3    C5 6173   0.212   2.517  16.466  0.1307  0.5911 -0.4016
  410TMC3    C6 6174   0.288   2.592  16.562 -0.1654 -0.8708 -0.5437
  410TMC3     C 6175   0.191   2.193  16.652  0.5327  0.2693  0.1395
  410TMC3     O 6176   0.250   2.146  16.749 -0.1874  0.6619 -0.5252
  410TMC3     H 6177   0.276   2.369  16.819  0.6225 -1.1394  0.4846
  410TMC3    H1 6178   0.105   2.335  16.439  1.1435 -1.5134 -1.0530
  410TMC3    H2 6179   0.306   2.697  16.545  1.6713 -1.4514 -2.2644
  410TMC3    C7 6180   0.213   2.557  16.331 -0.2808 -0.0376 -0.1302
  410TMC3    C8 6181   0.401   2.612  16.774 -0.2266  0.5637 -0.6554
  410TMC3    O1 6182   0.156   2.475  16.258  0.4278  0.0242  0.0685
  410TMC3    O2 6183   0.433   2.722  16.731 -0.4007 -0.4810 -0.0414
  411MPD2     C 6184   4.716   3.069  13.967 -0.0190 -0.3298  0.4761
  411MPD2    C1 6185   4.678   3.076  14.098 -0.2458  0.0597  1.3015
  411MPD2    C2 6186   4.606   2.974  14.153  0.9828  0.7358 -0.4662
  411MPD2    C3 6187   4.573   2.859  14.076 -0.3409 -0.3771 -0.5606
  411MPD2    C4 6188   4.621   2.851  13.943 -0.1429 -0.3684  0.1146
  411MPD2    C5 6189   4.683   2.961  13.890 -0.5895 -0.2141  0.1319
  411MPD2     H 6190   4.579   2.971  14.258  0.8797 -0.9608 -0.5458
  411MPD2    H1 6191   4.594   2.773  13.873 -0.6097 -0.7363  0.7064
  411MPD2    H2 6192   0.024   3.155  13.918 -1.1675  0.1675  0.3420
  411MPD2    H3 6193   4.703   2.975  13.784 -1.4287  0.4536  0.0668
  411MPD2     N 6194   4.471   2.764  14.114 -0.2230 -0.1941  0.0489
  411MPD2    H5 6195   4.457   2.698  14.038  5.0796 -1.0814 -0.1429
  411MPD2    N1 6196   4.698   3.196  14.169  0.4034 -0.0369 -0.2671
  411MPD2    H7 6197   4.714   3.278  14.111  0.9431  0.5145  0.6499
  412TMC3    C1 6198   4.293   2.672  14.242 -0.2412  0.3756  0.1499
  412TMC3    C2 6199   4.176   2.713  14.300 -0.1186 -0.0846 -0.4456
  412TMC3    C3 6200   4.063   2.643  14.272  0.6175 -0.7713 -0.1997
  412TMC3    C4 6201   4.297   2.561  14.157  0.3673  0.0322  0.7451
  412TMC3    C5 6202   4.191   2.477  14.161 -0.0169 -0.1749 -0.9280
  412TMC3    C6 6203   4.074   2.519  14.223 -0.0685  0.7173 -0.4640
  412TMC3     C 6204   4.390   2.774  14.226 -0.7434  0.0382  0.1069
  412TMC3     O 6205   4.386   2.863  14.312  0.1777 -0.0606 -0.1727
  412TMC3     H 6206   4.176   2.803  14.361  0.2529  0.3722 -1.1161
  412TMC3    H1 6207   4.386   2.536  14.100  0.0076  1.5038 -0.4713
  412TMC3    H2 6208   3.987   2.455  14.223 -0.8360  1.7524 -1.0287
  412TMC3    C7 6209   4.166   2.397  14.037  0.3449 -0.3948 -0.9247
  412TMC3    C8 6210   3.979   2.719  14.182 -0.1507  0.7266 -0.7887
  412TMC3    O1 6211   4.256   2.326  13.996  0.3106  0.7754 -0.2798
  412TMC3    O2 6212   3.920   2.653  14.100 -0.1678  0.4954  0.5525
  413MPD2     C 6213   1.593   1.225  15.555  0.1679  0.3484 -0.3383
  413MPD2    C1 6214   1.579   1.232  15.414 -0.1595  0.0349 -0.3852
  413MPD2    C2 6215   1.689   1.227  15.328  0.1023 -0.4534 -0.3072
  413MPD2    C3 6216   1.811   1.206  15.378 -0.0282 -0.7745  0.3013
  413MPD2    C4 6217   1.823   1.197  15.519 -0.1576  0.2172 -0.1877
  413MPD2    C5 6218   1.714   1.206  15.601 -0.2899 -0.3839 -0.0857
  413MPD2     H 6219   1.681   1.240  15.221  0.5487  1.0333 -0.1635
  413MPD2    H1 6220   1.924   1.195  15.558  0.2772 -1.9891 -1.4403
  413MPD2    H2 6221   1.503   1.230  15.616 -1.3543 -0.2865 -2.4886
  413MPD2    H3 6222   1.726   1.202  15.708 -2.3149  0.3509  0.1863
  413MPD2     N 6223   1.931   1.203  15.298 -0.5248  0.6181  0.1520
  413MPD2    H5 6224   2.013   1.197  15.358  0.0974 -0.1156 -0.7637
  413MPD2    N1 6225   1.443   1.232  15.366  0.2799 -0.2986  0.2568
  413MPD2    H7 6226   1.372   1.202  15.431  0.1654  0.5252  0.5160
  414TMC3    C1 6227   2.099   1.199  15.132  0.5729 -0.6388  0.1532
  414TMC3    C2 6228   2.176   1.129  15.221  0.2658 -0.3704 -0.1857
  414TMC3    C3 6229   2.308   1.165  15.229  0.2353  0.4113  0.3347
  414TMC3    C4 6230   2.155   1.299  15.046  0.0590 -0.4304  0.0680
  414TMC3    C5 6231   2.285   1.335  15.070  0.8730  0.3003 -0.8406
  414TMC3    C6 6232   2.363   1.267  15.156  0.4237  0.0473  0.7166
  414TMC3     C 6233   1.955   1.216  15.161 -0.4990 -0.1214  0.1479
  414TMC3     O 6234   1.877   1.276  15.078 -0.3420  0.5130  0.1007
  414TMC3     H 6235   2.146   1.036  15.267 -0.7415 -0.2437 -0.5989
  414TMC3    H1 6236   2.098   1.364  14.980 -2.1352 -0.6667  1.7264
  414TMC3    H2 6237   2.471   1.273  15.150  0.4313 -1.2715 -0.2608
  414TMC3    C7 6238   2.370   1.379  14.966 -0.4136  0.0987 -0.0533
  414TMC3    C8 6239   2.392   1.047  15.227  0.3327 -0.4008  0.2132
  414TMC3    O1 6240   2.460   1.462  14.989  0.0317 -0.0101 -0.0776
  414TMC3    O2 6241   2.361   0.960  15.148  0.4695 -0.0520  0.1095
  415TMC3    C1 6242   3.004   3.811  10.039 -0.2258  0.0389  0.3705
  415TMC3    C2 6243   3.058   3.909   9.954 -0.1121 -0.1650 -0.2762
  415TMC3    C3 6244   3.006   3.935   9.833 -0.3439 -0.5490  0.4301
  415TMC3    C4 6245   2.885   3.751  10.001 -0.2572  0.0241 -0.0369
  415TMC3    C5 6246   2.835   3.783   9.874 -0.1442  0.0947 -0.0679
  415TMC3    C6 6247   2.898   3.866   9.782 -0.0353  0.0203  0.2830
  415TMC3     C 6248   3.071   3.780  10.167  0.1286 -0.2979  0.1815
  415TMC3     O 6249   3.043   3.670  10.217  0.0359 -0.1472 -0.4824
  415TMC3     H 6250   3.141   3.965   9.996 -0.6340  1.3481 -1.2394
  415TMC3    H1 6251   2.843   3.687  10.078 -0.9383  1.0565  0.4637
  415TMC3    H2 6252   2.859   3.885   9.683  0.2237  2.9431  0.7377
  415TMC3    C7 6253   2.729   3.698   9.817  0.1812  0.0524 -0.0761
  415TMC3    C8 6254   3.064   4.026   9.740  0.3206  0.4501  0.8323
  415TMC3    O1 6255   2.717   3.682   9.693  0.2540  0.8020  0.3682
  415TMC3    O2 6256   3.040   4.014   9.620  0.1856  0.3214 -0.2664
  416MPD2     C 6257   0.141   2.798  11.090  0.0969 -0.5266  0.3105
  416MPD2    C1 6258   0.042   2.809  10.995  0.4434 -0.1332 -0.0143
  416MPD2    C2 6259   0.052   2.737  10.878  0.0366  0.0752 -0.5033
  416MPD2    C3 6260   0.151   2.649  10.861  0.3243  0.1149  0.0064
  416MPD2    C4 6261   0.249   2.634  10.961 -0.1013 -0.5080 -0.2513
  416MPD2    C5 6262   0.250   2.711  11.072  0.5624 -0.2031 -0.1346
  416MPD2     H 6263   4.701   2.737  10.812 -1.0714  0.1559  0.9367
  416MPD2    H1 6264   0.330   2.564  10.950  1.0748  0.4785  2.0732
  416MPD2    H2 6265   0.144   2.857  11.181  3.3443  0.7174 -0.5858
  416MPD2    H3 6266   0.338   2.711  11.135  1.8586  1.2720 -1.9604
  416MPD2     N 6267   0.156   2.559  10.758 -0.0790  0.0157 -0.5505
  416MPD2    H5 6268   0.235   2.496  10.769  0.0850  0.1764 -0.7918
  416MPD2    N1 6269   4.671   2.898  11.012  0.2232 -0.0199  0.2470
  416MPD2    H7 6270   4.606   2.917  10.936 -0.7226  0.2907  1.1476
  417TMC3    C1 6271   4.502   3.013  11.147 -0.2603  0.1908  0.2222
  417TMC3    C2 6272   4.410   2.973  11.240 -0.9154 -0.0612  0.7895
  417TMC3    C3 6273   4.282   3.020  11.231 -0.4564 -1.0777  0.5309
  417TMC3    C4 6274   4.474   3.089  11.037 -0.2925  0.1707 -0.2789
  417TMC3    C5 6275   4.343   3.141  11.039  0.0004  0.4401  0.2724
  417TMC3    C6 6276   4.251   3.114  11.131 -0.2462 -0.2977 -0.2614
  417TMC3     C 6277   4.629   2.930  11.137  0.1215  0.1113  0.4045
  417TMC3     O 6278   4.675   2.887  11.240  0.4025  0.0599  0.5029
  417TMC3     H 6279   4.437   2.915  11.327 -0.2418  0.3625  0.8691
  417TMC3    H1 6280   4.545   3.109  10.958 -0.0808  1.3514  0.2083
  417TMC3    H2 6281   4.147   3.143  11.120 -0.2962 -1.6788 -3.4641
  417TMC3    C7 6282   4.304   3.192  10.908 -0.6288  0.0900  0.1992
  417TMC3    C8 6283   4.183   3.006  11.336 -0.0366 -0.2478 -0.1917
  417TMC3    O1 6284   4.380   3.259  10.840  0.3430  0.2075  0.2669
  417TMC3    O2 6285   4.127   3.109  11.371  0.4074  0.5431 -1.0003
  418TMC3    C1 6286   3.079   4.597  17.641  0.3706  0.4788 -0.0086
  418TMC3    C2 6287   2.952   4.647  17.623  0.2351  0.7902 -0.2812
  418TMC3    C3 6288   2.856   4.604  17.712 -0.4109 -0.5021  0.0445
  418TMC3    C4 6289   3.105   4.500  17.730  0.0596  0.2767  0.4011
  418TMC3    C5 6290   3.007   4.468   0.082  0.0951  0.5610  0.2455
  418TMC3    C6 6291   2.880   4.512   0.063  0.2756  0.0406  0.5034
  418TMC3     C 6292   3.153   4.573  17.519 -0.1728  0.7906  0.3026
  418TMC3     O 6293   3.134   4.667  17.444 -0.7805 -0.3559 -0.4432
  418TMC3     H 6294   2.939   4.718  17.542  1.7429  1.0091 -0.3307
  418TMC3    H1 6295   3.206   4.460  17.739 -0.6981 -1.3075  1.8359
  418TMC3    H2 6296   2.803   4.481   0.133 -1.1055 -0.1168 -1.0763
  418TMC3    C7 6297   3.029   4.358   0.176 -0.2898  0.7204  0.4543
  418TMC3    C8 6298   2.721   4.620  17.668  0.3965  0.0132  0.4776
  418TMC3    O1 6299   2.932   4.286   0.193  0.8980 -0.3143  0.0332
  418TMC3    O2 6300   2.701   4.714  17.591  0.0040 -0.1556 -0.1325
  419MPD2     C 6301   2.008   2.385  12.376 -0.0325  0.4958 -0.2036
  419MPD2    C1 6302   1.930   2.485  12.328  0.3572 -0.2039 -0.0067
  419MPD2    C2 6303   1.842   2.539  12.412  0.5470  0.0701  0.0715
  419MPD2    C3 6304   1.820   2.498  12.536 -0.0006  0.9935  0.3168
  419MPD2    C4 6305   1.906   2.406  12.591  0.5589  0.2777 -0.0675
  419MPD2    C5 6306   2.002   2.355  12.508  0.1974  0.1591  0.2051
  419MPD2     H 6307   1.762   2.599  12.372 -0.2488 -1.5191 -0.7088
  419MPD2    H1 6308   1.894   2.372  12.693 -1.0985 -1.1680 -0.7439
  419MPD2    H2 6309   2.091   2.342  12.322 -0.4320 -0.9969  0.3823
  419MPD2    H3 6310   2.071   2.285  12.554 -1.2595 -0.8372  0.8831
  419MPD2     N 6311   1.702   2.550  12.599  0.0213  0.3463 -0.5868
  419MPD2    H5 6312   1.649   2.603  12.531  0.1746  0.2901 -0.7509
  419MPD2    N1 6313   1.946   2.532  12.194  0.0570 -0.5638  0.2034
  419MPD2    H7 6314   1.900   2.622  12.180  2.7829  0.7924 -0.1081
  420TMC3    C1 6315   1.511   2.558  12.735  0.0266 -0.3277  0.5289
  420TMC3    C2 6316   1.454   2.613  12.622  0.1171 -0.4241 -0.5567
  420TMC3    C3 6317   1.354   2.704  12.640  0.6387  0.4737 -0.1058
  420TMC3    C4 6318   1.482   2.585  12.860  0.2069  0.5749  0.0775
  420TMC3    C5 6319   1.378   2.669  12.874  0.1526 -0.3285 -0.3433
  420TMC3    C6 6320   1.312   2.727  12.769  0.0742 -0.6191 -0.2437
  420TMC3     C 6321   1.648   2.509  12.720  0.1995  0.1193 -0.6469
  420TMC3     O 6322   1.711   2.453  12.810  0.6242 -0.1551  0.1030
  420TMC3     H 6323   1.473   2.577  12.521  1.1646 -1.3689 -0.0248
  420TMC3    H1 6324   1.529   2.534  12.943  0.7813  1.1622  0.1178
  420TMC3    H2 6325   1.223   2.788  12.779  0.5257  0.0312 -0.1930
  420TMC3    C7 6326   1.341   2.715  13.010 -0.3862 -0.4448 -0.6711
  420TMC3    C8 6327   1.300   2.793  12.538 -0.3696 -0.1924 -0.0613
  420TMC3    O1 6328   1.375   2.648  13.103  0.8003  0.3364  0.1788
  420TMC3    O2 6329   1.230   2.885  12.574 -0.0717 -0.0347  0.5966
  421TMC3    C1 6330   2.595   3.731  13.778 -0.1206  0.8614  0.2242
  421TMC3    C2 6331   2.613   3.862  13.823  0.2675  0.1737  0.2363
  421TMC3    C3 6332   2.737   3.890  13.876 -0.0634 -0.1395 -0.4452
  421TMC3    C4 6333   2.688   3.631  13.800 -0.3281  0.1668 -0.1430
  421TMC3    C5 6334   2.806   3.667  13.848 -0.0533  0.6424  0.0283
  421TMC3    C6 6335   2.834   3.796  13.896  0.2763  0.4714 -0.1284
  421TMC3     C 6336   2.482   3.702  13.689  0.1899  0.6939  0.3939
  421TMC3     O 6337   2.443   3.583  13.690  0.0034  0.3066 -0.1490
  421TMC3     H 6338   2.535   3.937  13.814  1.9331  1.8739 -0.0408
  421TMC3    H1 6339   2.663   3.537  13.754  2.2233  0.3846 -1.9737
  421TMC3    H2 6340   2.929   3.815  13.945 -0.5347 -0.7832  1.9634
  421TMC3    C7 6341   2.905   3.610  13.754  0.5414  0.2966  0.2754
  421TMC3    C8 6342   2.781   4.026  13.885  0.9905 -0.2218 -0.0745
  421TMC3    O1 6343   2.865   3.530  13.670  0.6990 -0.4502  0.2363
  421TMC3    O2 6344   2.904   4.036  13.866 -0.2366  0.5198  0.2160
  422TMC3    C1 6345   0.588   1.227  12.066  0.3631 -0.3139  0.4240
  422TMC3    C2 6346   0.535   1.344  12.115  0.2178 -0.7324 -0.6043
  422TMC3    C3 6347   0.404   1.335  12.144 -0.0390 -0.4846 -0.2797
  422TMC3    C4 6348   0.516   1.114  12.050  0.2557 -0.1757 -1.1972
  422TMC3    C5 6349   0.384   1.114  12.095 -0.3210  0.4412 -0.4504
  422TMC3    C6 6350   0.334   1.223  12.159  0.0885 -0.0136  0.4751
  422TMC3     C 6351   0.721   1.244  12.036  0.0516  0.2994  0.7145
  422TMC3     O 6352   0.750   1.359  11.998 -0.2165 -0.5206 -0.3623
  422TMC3     H 6353   0.593   1.434  12.130 -0.0560 -0.7653  0.6912
  422TMC3    H1 6354   0.544   1.035  11.980  1.4829  0.7644 -1.7661
  422TMC3    H2 6355   0.232   1.219  12.197  0.7029  1.3145  2.2451
  422TMC3    C7 6356   0.289   1.014  12.039  0.3457 -0.0255 -0.2812
  422TMC3    C8 6357   0.336   1.454  12.178  0.3934 -0.0714 -0.4401
  422TMC3    O1 6358   0.300   0.984  11.920  0.3688  0.0417  0.1780
  422TMC3    O2 6359   0.408   1.548  12.221 -0.1126  0.1741  0.4893
  423MPD2     C 6360   1.691   1.787   0.597  0.5984  0.1598  0.5435
  423MPD2    C1 6361   1.711   1.652   0.612  0.6403  0.9185 -0.1887
  423MPD2    C2 6362   1.742   1.579   0.505 -0.1283  1.2041  0.1889
  423MPD2    C3 6363   1.761   1.639   0.386 -0.2880  1.1006  0.0110
  423MPD2    C4 6364   1.751   1.773   0.376  0.4950  0.5855 -0.2713
  423MPD2    C5 6365   1.711   1.845   0.476 -0.9213 -0.3819 -0.8217
  423MPD2     H 6366   1.767   1.474   0.511  0.2216  1.1117 -2.7270
  423MPD2    H1 6367   1.779   1.822   0.283  1.8320  1.2166  0.4455
  423MPD2    H2 6368   1.669   1.854   0.680  0.4214  1.2975 -0.4312
  423MPD2    H3 6369   1.705   1.954   0.475  1.8711 -0.1990  1.8984
  423MPD2     N 6370   1.801   1.572   0.273 -0.2984 -0.2866 -0.0594
  423MPD2    H5 6371   1.818   1.628   0.190  0.5738  0.8814  0.9010
  423MPD2    N1 6372   1.688   1.588   0.734  0.0582 -0.2249  0.2279
  423MPD2    H7 6373   1.706   1.488   0.740  1.6637  0.2396  3.2767
  424TMC3    C1 6374   1.635   1.567   0.958  0.3125  0.1471 -0.3998
  424TMC3    C2 6375   1.723   1.459   0.950 -0.1051 -0.7222 -0.2638
  424TMC3    C3 6376   1.712   1.367   1.047 -0.3495  0.0479 -0.2081
  424TMC3    C4 6377   1.535   1.584   1.058  0.1468 -0.1786  0.1592
  424TMC3    C5 6378   1.523   1.483   1.149  0.2330  0.3922  0.4782
  424TMC3    C6 6379   1.611   1.377   1.146 -0.0470 -0.2373 -0.1223
  424TMC3     C 6380   1.622   1.644   0.838  0.0786 -0.6868 -0.1467
  424TMC3     O 6381   1.542   1.739   0.842  0.6850  0.7829 -0.0561
  424TMC3     H 6382   1.806   1.451   0.881 -1.3473  0.9603 -1.9528
  424TMC3    H1 6383   1.470   1.670   1.057  1.3117  0.6964 -0.7764
  424TMC3    H2 6384   1.604   1.299   1.221  2.3350 -1.1021 -0.8374
  424TMC3    C7 6385   1.436   1.483   1.262 -0.3199  0.3583 -0.4897
  424TMC3    C8 6386   1.826   1.273   1.065  0.3108 -0.8187  0.7078
  424TMC3    O1 6387   1.471   1.414   1.360  0.1468 -0.4433 -0.0290
  424TMC3    O2 6388   1.828   1.187   1.154  0.3577  0.0609 -0.3123
  425MPD2     C 6389   0.591   1.215  17.151  0.3925 -0.5533 -0.3711
  425MPD2    C1 6390   0.533   1.100  17.094  0.5092  0.1861 -0.7791
  425MPD2    C2 6391   0.403   1.098  17.057  0.0124 -0.2205 -0.5504
  425MPD2    C3 6392   0.318   1.206  17.090  0.0469  0.6318  0.4766
  425MPD2    C4 6393   0.379   1.318  17.145 -0.3106 -0.1054  0.8455
  425MPD2    C5 6394   0.511   1.326  17.171  0.0242  0.0874 -0.6063
  425MPD2     H 6395   0.356   1.024  16.994 -1.9514 -0.6239  1.3878
  425MPD2    H1 6396   0.316   1.403  17.169  0.3412  0.7533 -0.4693
  425MPD2    H2 6397   0.695   1.231  17.177  0.2611  0.2643 -0.3368
  425MPD2    H3 6398   0.551   1.422  17.201  0.6129 -1.2387  2.8579
  425MPD2     N 6399   0.184   1.191  17.055 -0.1857 -0.6246 -0.1542
  425MPD2    H5 6400   0.165   1.114  16.992  1.1668  0.1510 -1.4990
  425MPD2    N1 6401   0.604   0.976  17.089 -0.0346  0.3704 -0.1192
  425MPD2    H7 6402   0.705   0.972  17.104  0.6608  1.7034 -4.4163
  426TMC3    C1 6403   0.638   0.754  17.021 -0.2671 -0.1307 -0.3525
  426TMC3    C2 6404   0.754   0.790  16.957 -0.0041  0.5958 -0.5313
  426TMC3    C3 6405   0.817   0.698  16.892  0.2445 -0.3783  0.2769
  426TMC3    C4 6406   0.600   0.622  17.037 -0.3481 -0.1345 -0.0159
  426TMC3    C5 6407   0.666   0.528  16.967 -0.0691 -0.0519 -0.5847
  426TMC3    C6 6408   0.780   0.569  16.897  0.5142  0.2202 -0.6397
  426TMC3     C 6409   0.547   0.855  17.068  0.3909  0.6104 -0.4902
  426TMC3     O 6410   0.427   0.833  17.081 -1.1153  0.4256  0.2572
  426TMC3     H 6411   0.776   0.896  16.951  0.0082  0.5571 -1.1530
  426TMC3    H1 6412   0.498   0.602  17.069 -0.1338  0.2676  0.9110
  426TMC3    H2 6413   0.823   0.495  16.831  0.2109 -0.8865  0.4078
  426TMC3    C7 6414   0.621   0.391  16.953 -0.4429  0.3713  0.2914
  426TMC3    C8 6415   0.910   0.729  16.784 -0.5182 -0.3317  0.1206
  426TMC3    O1 6416   0.673   0.324  16.862  0.0895  0.5157 -0.3169
  426TMC3    O2 6417   0.969   0.834  16.795 -0.7029 -0.6167 -0.3951
  427MPD2     C 6418   3.868   3.080  14.470 -0.1590  0.0114  0.0570
  427MPD2    C1 6419   3.856   3.054  14.613  1.0677 -0.3660 -0.1763
  427MPD2    C2 6420   3.734   3.079  14.672  0.1054  0.0644 -0.1359
  427MPD2    C3 6421   3.631   3.134  14.600  0.1939  0.2252  0.4850
  427MPD2    C4 6422   3.640   3.158  14.463 -0.3272 -0.1590 -0.2438
  427MPD2    C5 6423   3.757   3.128  14.400 -0.1754 -0.2932  0.1103
  427MPD2     H 6424   3.729   3.052  14.777 -0.4255  0.8108  0.0249
  427MPD2    H1 6425   3.562   3.205  14.403 -0.7664  0.9178  1.1748
  427MPD2    H2 6426   3.952   3.058  14.405  0.6580 -1.3139  1.5612
  427MPD2    H3 6427   3.772   3.147  14.294 -0.4976  0.2941  0.1662
  427MPD2     N 6428   3.506   3.174  14.659  0.6434  0.2092  0.2286
  427MPD2    H5 6429   3.433   3.206  14.596 -0.4569 -1.9239  0.4214
  427MPD2    N1 6430   3.957   2.992  14.686 -0.4733  0.2532  0.2136
  427MPD2    H7 6431   3.943   2.960  14.782 -0.6255  0.2505  0.1898
  428TMC3    C1 6432   4.143   2.870  14.727 -0.5027  0.5629  0.6441
  428TMC3    C2 6433   4.085   2.762  14.785 -0.3885 -0.6610 -0.5046
  428TMC3    C3 6434   4.160   2.679  14.870  0.1774  0.1445  0.1768
  428TMC3    C4 6435   4.279   2.897  14.742 -0.6973  0.8598  0.3668
  428TMC3    C5 6436   4.349   2.823  14.830  0.4324  0.2274  0.0097
  428TMC3    C6 6437   4.289   2.716  14.892 -0.1911  0.0789 -0.2448
  428TMC3     C 6438   4.069   2.945  14.628  0.4785  0.2736  0.1551
  428TMC3     O 6439   4.123   2.979  14.528  0.4434  0.0562  0.1740
  428TMC3     H 6440   3.979   2.748  14.769 -0.6049  0.1295  0.2308
  428TMC3    H1 6441   4.310   2.988  14.692 -1.5338 -0.6506 -2.9215
  428TMC3    H2 6442   4.347   2.668  14.971 -0.1000  1.5391  0.5755
  428TMC3    C7 6443   4.466   2.872  14.892 -0.2636 -0.9574  0.1445
  428TMC3    C8 6444   4.082   2.578  14.941 -0.8230  0.1657  0.6987
  428TMC3    O1 6445   4.475   2.857  15.013 -0.3539 -0.2619  0.2417
  428TMC3    O2 6446   3.963   2.565  14.915 -0.2450 -0.2312  0.0618
  429MPD2     C 6447   0.148   3.116  17.008 -0.3199  0.0946  0.9402
  429MPD2    C1 6448   0.272   3.101  17.077  0.0846  0.3904 -0.6425
  429MPD2    C2 6449   0.355   3.205  17.104 -0.0826 -0.2595  0.9063
  429MPD2    C3 6450   0.327   3.324  17.049  0.2679 -0.1722 -0.1095
  429MPD2    C4 6451   0.211   3.335  16.967  0.2880 -0.2262 -0.5027
  429MPD2    C5 6452   0.121   3.239  16.952  0.2298 -0.3388  0.2111
  429MPD2     H 6453   0.446   3.189  17.161 -1.2432 -3.7379  1.7638
  429MPD2    H1 6454   0.204   3.431  16.916  1.9337  0.7207  1.0082
  429MPD2    H2 6455   0.082   3.030  17.000 -1.8397  1.4891 -1.4648
  429MPD2    H3 6456   0.029   3.254  16.896  0.7501 -0.4439 -0.6696
  429MPD2     N 6457   0.419   3.430  17.060 -0.2958  0.5936  0.5890
  429MPD2    H5 6458   0.503   3.413  17.115 -1.1416 -0.9502  1.4179
  429MPD2    N1 6459   0.312   2.977  17.130 -0.8934  0.1616  0.6756
  429MPD2    H7 6460   0.380   2.981  17.206 -0.8711  0.5899  0.6325
  430TMC3    C1 6461   0.560   3.579  16.944  0.1681 -0.1047 -0.7256
  430TMC3    C2 6462   0.564   3.686  16.861  0.0072  0.5152 -0.7446
  430TMC3    C3 6463   0.650   3.674  16.752 -0.6864  0.2679 -1.2338
  430TMC3    C4 6464   0.650   3.469  16.928 -0.3066 -0.1997 -0.8933
  430TMC3    C5 6465   0.747   3.481  16.834 -0.0798 -0.0305 -0.2501
  430TMC3    C6 6466   0.745   3.584  16.742 -0.4520  0.6846  0.0219
  430TMC3     C 6467   0.427   3.540  16.979 -0.0993  0.7262  0.5728
  430TMC3     O 6468   0.344   3.591  16.907 -0.5070 -0.0870 -0.2608
  430TMC3     H 6469   0.480   3.754  16.865  0.6884  1.3731 -1.0571
  430TMC3    H1 6470   0.637   3.374  16.979  2.1601 -0.7489 -1.2718
  430TMC3    H2 6471   0.823   3.587  16.666  0.3872 -0.1001  0.8559
  430TMC3    C7 6472   0.765   3.352  16.774  0.2421  1.0102 -0.2105
  430TMC3    C8 6473   0.602   3.708  16.621  0.2663  0.4994 -0.1110
  430TMC3    O1 6474   0.812   3.266  16.847 -0.3141 -0.2310 -0.4128
  430TMC3    O2 6475   0.652   3.637  16.536 -0.2409 -0.7849  0.5391
  431MPD2     C 6476   1.914   3.331  12.227 -0.1709  0.0547 -0.1885
  431MPD2    C1 6477   2.009   3.341  12.122  0.2663 -0.1005 -0.4987
  431MPD2    C2 6478   2.044   3.223  12.058 -0.9827  0.4356  0.3169
  431MPD2    C3 6479   1.999   3.101  12.105 -0.3003 -0.0722 -0.0149
  431MPD2    C4 6480   1.922   3.096  12.220 -0.0876 -0.2374 -0.9218
  431MPD2    C5 6481   1.879   3.208  12.281 -0.0569 -0.6533 -0.1276
  431MPD2     H 6482   2.099   3.236  11.965  0.4220 -0.9006  0.9580
  431MPD2    H1 6483   1.882   3.007  12.266 -1.5986  0.5385 -0.7508
  431MPD2    H2 6484   1.869   3.412  12.283  0.5744 -0.5265  1.2537
  431MPD2    H3 6485   1.813   3.200  12.366 -1.5043 -0.3768 -1.2135
  431MPD2     N 6486   2.015   2.980  12.045 -0.1681  0.1832 -0.2248
  431MPD2    H5 6487   1.960   2.907  12.090  0.5551 -0.7274 -0.8135
  431MPD2    N1 6488   2.050   3.470  12.064 -0.5900  0.5686 -0.2877
  431MPD2    H7 6489   2.132   3.469  12.004 -1.2487  1.2827 -1.1910
  432TMC3    C1 6490   2.083   2.811  11.916  0.4520 -0.3501  0.3082
  432TMC3    C2 6491   2.130   2.764  11.795  0.6712  0.2184 -0.9632
  432TMC3    C3 6492   2.147   2.632  11.782  0.0751 -0.6350 -0.7707
  432TMC3    C4 6493   2.035   2.722  12.015  0.0870  0.4899 -0.2391
  432TMC3    C5 6494   2.046   2.589  11.988  0.7149  0.6592  0.3029
  432TMC3    C6 6495   2.108   2.541  11.874  0.4917  0.6754 -0.7337
  432TMC3     C 6496   2.104   2.950  11.949  0.3530  0.0765 -0.6686
  432TMC3     O 6497   2.173   3.023  11.877 -0.0929 -0.4007 -0.2342
  432TMC3     H 6498   2.164   2.845  11.730 -1.4727 -0.1126 -2.4687
  432TMC3    H1 6499   2.022   2.759  12.116 -1.5023  1.5269 -0.8299
  432TMC3    H2 6500   2.124   2.434  11.867  0.7271  0.6367  0.5104
  432TMC3    C7 6501   2.037   2.491  12.097 -0.0245 -0.1918 -0.3222
  432TMC3    C8 6502   2.195   2.579  11.654  0.4808  0.5547 -0.1377
  432TMC3    O1 6503   2.124   2.405  12.101 -0.7057  0.0604  0.2444
  432TMC3    O2 6504   2.176   2.457  11.644  0.4419  0.3352  0.3879
  433MPD2     C 6505   0.797   2.325  10.395  0.3614 -0.0425 -0.2710
  433MPD2    C1 6506   0.771   2.218  10.481  0.3413 -0.3879  0.1142
  433MPD2    C2 6507   0.746   2.240  10.614 -0.1016 -0.5325  0.0896
  433MPD2    C3 6508   0.747   2.370  10.661 -0.7793 -0.2509 -0.3371
  433MPD2    C4 6509   0.769   2.473  10.574 -0.0913  0.4172 -0.2632
  433MPD2    C5 6510   0.801   2.448  10.445 -0.0130 -0.2612  0.7462
  433MPD2     H 6511   0.710   2.161  10.678  0.7618 -1.2290 -0.2771
  433MPD2    H1 6512   0.759   2.575  10.612 -0.5916 -0.0985  1.0046
  433MPD2    H2 6513   0.843   2.305  10.299  0.3307  0.3383 -0.3629
  433MPD2    H3 6514   0.820   2.521  10.367  0.8281 -2.3524 -1.0057
  433MPD2     N 6515   0.725   2.380  10.801  0.0148  0.1101 -0.3280
  433MPD2    H5 6516   0.711   2.297  10.858  3.7893  1.1832  2.2001
  433MPD2    N1 6517   0.783   2.090  10.427 -0.4401  0.4898 -0.1611
  433MPD2    H7 6518   0.824   2.083  10.335 -1.3548  0.2845 -0.5525
  434TMC3    C1 6519   0.847   1.870  10.425 -0.5792  0.0464 -0.0202
  434TMC3    C2 6520   0.943   1.799  10.486  0.3303  0.6526 -0.2363
  434TMC3    C3 6521   0.987   1.679  10.421 -0.5919  0.2558  0.5703
  434TMC3    C4 6522   0.797   1.837  10.302 -0.0883 -0.5389  0.0881
  434TMC3    C5 6523   0.853   1.732  10.237 -0.3531 -0.1041 -0.1011
  434TMC3    C6 6524   0.942   1.643  10.297 -0.1280 -0.6286  0.1136
  434TMC3     C 6525   0.797   1.978  10.502  0.1974  0.0103  0.2816
  434TMC3     O 6526   0.791   1.959  10.624  0.3521  0.1479  0.2069
  434TMC3     H 6527   0.983   1.823  10.584  1.3697 -0.9969 -0.2488
  434TMC3    H1 6528   0.722   1.901  10.258  1.6444  1.0663 -0.4870
  434TMC3    H2 6529   0.994   1.569  10.237 -0.3784  0.3207 -1.2712
  434TMC3    C7 6530   0.794   1.688  10.119  0.2032 -0.5686  0.1294
  434TMC3    C8 6531   1.075   1.593  10.485  0.6779  0.1039 -0.5126
  434TMC3    O1 6532   0.731   1.765  10.045 -0.0997 -0.5185  0.1439
  434TMC3    O2 6533   1.151   1.645  10.566 -0.0207  0.4911 -0.3874
  435MPD2     C 6534   1.988   2.084  15.284  0.0010  0.8006  0.2098
  435MPD2    C1 6535   1.993   2.062  15.424  0.5563  0.0013 -0.6805
  435MPD2    C2 6536   2.108   2.013  15.480  0.0285 -0.1263 -0.0226
  435MPD2    C3 6537   2.220   1.985  15.407  0.6015  0.3716 -0.4968
  435MPD2    C4 6538   2.214   1.996  15.271  0.2554  0.0727 -0.6845
  435MPD2    C5 6539   2.097   2.045  15.207  0.1033  0.8385 -1.0248
  435MPD2     H 6540   2.103   1.983  15.584  0.9225  0.8120  0.2811
  435MPD2    H1 6541   2.306   1.981  15.216  0.2056 -2.5969 -0.0160
  435MPD2    H2 6542   1.902   2.121  15.230 -0.1472 -4.4347 -3.2078
  435MPD2    H3 6543   2.095   2.080  15.105  3.7482 -0.4532 -1.5425
  435MPD2     N 6544   2.336   1.940  15.475 -0.0398  0.6572 -0.3895
  435MPD2    H5 6545   2.322   1.938  15.576  0.9116  1.0351 -0.2537
  435MPD2    N1 6546   1.885   2.067  15.513 -0.4054  0.1239 -0.1953
  435MPD2    H7 6547   1.905   2.037  15.608 -1.3379  4.1119  1.2598
  436TMC3    C1 6548   1.708   2.209  15.826  0.7001 -0.9669 -0.0426
  436TMC3    C2 6549   1.768   2.187  15.705  0.3721  0.3979 -0.2720
  436TMC3    C3 6550   1.688   2.145  15.603  0.5910 -0.0137 -0.0374
  436TMC3    C4 6551   1.577   2.184  15.852 -0.0524  0.0447 -0.0462
  436TMC3    C5 6552   1.501   2.144  15.748  0.5228  0.4897  0.5390
  436TMC3    C6 6553   1.553   2.129  15.620 -0.1184  0.4300  0.8967
  436TMC3     C 6554   1.801   2.240  15.931 -0.4687 -0.2816  0.8454
  436TMC3     O 6555   1.912   2.273  15.892 -0.7476 -0.3978  0.5113
  436TMC3     H 6556   1.875   2.202  15.690  0.3588  0.4306 -0.3328
  436TMC3    H1 6557   1.524   2.207  15.943  2.2704  1.2293  1.0218
  436TMC3    H2 6558   1.491   2.080  15.546 -0.3268  1.4196  0.4200
  436TMC3    C7 6559   1.366   2.106  15.789  0.0630  0.2369 -0.1956
  436TMC3    C8 6560   1.759   2.107  15.482 -1.0573 -0.1861 -0.1218
  436TMC3    O1 6561   1.349   2.062  15.903 -0.3177  0.3613  0.3410
  436TMC3    O2 6562   1.708   2.126  15.374  0.1115 -0.3017  0.6203
  437TMC3    C1 6563   1.716   3.142  11.812  0.0086 -0.4784  0.4337
  437TMC3    C2 6564   1.623   3.165  11.909 -0.8285  0.3080  0.2406
  437TMC3    C3 6565   1.636   3.287  11.977  0.0992 -0.1562 -0.5571
  437TMC3    C4 6566   1.806   3.240  11.762  0.4248 -0.0053  0.0891
  437TMC3    C5 6567   1.791   3.364  11.816  0.8915 -0.1631  0.4888
  437TMC3    C6 6568   1.711   3.391  11.926 -0.9141 -0.7679  0.1512
  437TMC3     C 6569   1.735   3.001  11.775 -0.2674  0.2447 -0.0744
  437TMC3     O 6570   1.658   2.917  11.816 -0.6588 -0.6652 -0.0350
  437TMC3     H 6571   1.568   3.079  11.945  0.1326  0.0876  1.2031
  437TMC3    H1 6572   1.875   3.231  11.679 -0.8646  1.8547 -1.1859
  437TMC3    H2 6573   1.730   3.483  11.980 -0.7150 -0.0626 -1.1228
  437TMC3    C7 6574   1.852   3.472  11.733  0.0988 -0.6797 -0.2260
  437TMC3    C8 6575   1.576   3.297  12.104  0.5280  0.0021 -0.0898
  437TMC3    O1 6576   1.900   3.460  11.625  0.0917  0.5249 -0.2298
  437TMC3    O2 6577   1.551   3.196  12.167 -0.6383 -0.0939 -0.4379
  438MPD2     C 6578   2.967   4.500  16.091  0.5072 -0.3776  0.1038
  438MPD2    C1 6579   3.094   4.508  16.142  0.3066  0.0905 -0.0784
  438MPD2    C2 6580   3.099   4.521  16.281 -0.3220  0.1763  0.3730
  438MPD2    C3 6581   2.978   4.543  16.355 -0.3621  0.3225 -0.0650
  438MPD2    C4 6582   2.857   4.529  16.297 -0.7756  0.2838  0.2491
  438MPD2    C5 6583   2.851   4.510  16.165 -0.6017  0.0359 -0.5090
  438MPD2     H 6584   3.196   4.528  16.330  0.8639 -2.1768 -1.6672
  438MPD2    H1 6585   2.767   4.546  16.356 -1.8318  1.1595 -1.6136
  438MPD2    H2 6586   2.952   4.504  15.984  0.2258  0.7015  0.1864
  438MPD2    H3 6587   2.756   4.507  16.112 -1.1489  0.1277  0.4540
  438MPD2     N 6588   2.982   4.549  16.492  0.1066  0.1201  0.5045
  438MPD2    H5 6589   2.897   4.537  16.546 -0.6050  0.0606 -0.6204
  438MPD2    N1 6590   3.216   4.483  16.072 -0.0234 -0.1826  0.6892
  438MPD2    H7 6591   3.303   4.492  16.123 -0.9669 -0.8073  2.4255
  439TMC3    C1 6592   3.360   4.415  15.895 -0.4962  0.1750  0.3118
  439TMC3    C2 6593   3.380   4.395  15.764  0.1629  0.6256  0.0157
  439TMC3    C3 6594   3.511   4.377  15.726 -0.2371 -0.2744 -0.1826
  439TMC3    C4 6595   3.465   4.402  15.977 -0.4589  0.0767 -0.3857
  439TMC3    C5 6596   3.591   4.370  15.934 -0.4852  0.7774  0.6682
  439TMC3    C6 6597   3.627   4.368  15.800 -0.8335  0.5407 -0.7776
  439TMC3     C 6598   3.225   4.452  15.940 -0.0819 -0.0124 -0.3671
  439TMC3     O 6599   3.139   4.445  15.859 -0.1757 -0.0020  0.6916
  439TMC3     H 6600   3.303   4.415  15.691 -0.0183  2.1626  0.6183
  439TMC3    H1 6601   3.445   4.396  16.083 -0.3467 -1.6473 -0.4670
  439TMC3    H2 6602   3.715   4.314  15.769 -0.0997  0.9987  0.4681
  439TMC3    C7 6603   3.695   4.328  16.026 -0.9728 -0.5553  0.4527
  439TMC3    C8 6604   3.515   4.272  15.629  0.0240 -0.6259 -0.4006
  439TMC3    O1 6605   3.693   4.390  16.131 -0.2557 -0.0783  0.0894
  439TMC3    O2 6606   3.608   4.275  15.550  0.1491 -0.2748  0.0629
  440MPD2     C 6607   2.247   0.253  14.402 -0.9113  0.4140  0.6613
  440MPD2    C1 6608   2.274   0.375  14.462  1.4015  0.7319  0.1018
  440MPD2    C2 6609   2.330   0.389  14.585 -0.4787 -0.3960 -0.1592
  440MPD2    C3 6610   2.367   0.272  14.650 -0.3835 -0.4517  0.0237
  440MPD2    C4 6611   2.334   0.149  14.602 -0.0421  0.0328  0.3617
  440MPD2    C5 6612   2.277   0.141  14.472 -0.0077  0.4918 -0.0612
  440MPD2     H 6613   2.347   0.489  14.624  0.7734 -0.5613 -0.2670
  440MPD2    H1 6614   2.372   0.054  14.639 -0.5901 -0.4592 -0.3251
  440MPD2    H2 6615   2.210   0.246  14.301 -1.0363 -2.3054  0.8930
  440MPD2    H3 6616   2.269   0.045  14.422  1.7058  0.1260  0.3584
  440MPD2     N 6617   2.438   0.278  14.774  0.1341 -0.7371 -0.2410
  440MPD2    H5 6618   2.440   0.187  14.819 -2.2637 -1.3998 -1.4665
  440MPD2    N1 6619   2.236   0.497  14.394 -0.2845  0.1655  0.7185
  440MPD2    H7 6620   2.238   0.586  14.443 -1.8145 -0.3310  1.6621
  441TMC3    C1 6621   2.579   0.371  14.939  0.0269  0.0727  0.3483
  441TMC3    C2 6622   2.674   0.463  14.962 -0.6691  0.9845 -0.5200
  441TMC3    C3 6623   2.784   0.431  15.030 -0.9389  0.1780 -0.8686
  441TMC3    C4 6624   2.585   0.246  14.997  0.0670  0.5785  0.2767
  441TMC3    C5 6625   2.697   0.213  15.069  0.5310  0.4564 -0.1515
  441TMC3    C6 6626   2.795   0.310  15.085 -0.3336  0.0848  0.1224
  441TMC3     C 6627   2.490   0.390  14.832  0.4369  0.1608  0.3427
  441TMC3     O 6628   2.488   0.502  14.786  0.2805  0.2131  0.1249
  441TMC3     H 6629   2.666   0.554  14.903 -2.1671  0.3486 -1.2741
  441TMC3    H1 6630   2.496   0.185  15.000 -0.0123  0.6629 -0.4363
  441TMC3    H2 6631   2.883   0.285  15.143 -1.6354 -0.3436  1.9018
  441TMC3    C7 6632   2.711   0.092  15.151 -0.1882  0.4423  0.0646
  441TMC3    C8 6633   2.839   0.553  15.110 -0.2692 -0.4027 -0.2201
  441TMC3    O1 6634   2.809   0.074  15.220  0.2357  0.0194 -0.0075
  441TMC3    O2 6635   2.958   0.558  15.138 -0.5670 -0.7180 -0.0821
  442MPD2     C 6636   0.166   0.848  15.936 -0.5130  0.3192  0.0230
  442MPD2    C1 6637   0.100   0.752  16.004 -0.4229  0.2871  0.3784
  442MPD2    C2 6638   0.066   0.632  15.936 -0.0614  0.3903 -0.2202
  442MPD2    C3 6639   0.120   0.610  15.808 -0.0513 -0.2644 -0.1581
  442MPD2    C4 6640   0.185   0.713  15.743  1.1332 -0.4899  0.5567
  442MPD2    C5 6641   0.210   0.827  15.811 -0.2831 -0.4531 -0.5218
  442MPD2     H 6642   0.013   0.555  15.992  0.7325  0.2539  0.3442
  442MPD2    H1 6643   0.241   0.688  15.655  1.6018 -0.8000  0.9439
  442MPD2    H2 6644   0.192   0.940  15.988  0.0205 -0.6706  1.5007
  442MPD2    H3 6645   0.267   0.906  15.763 -1.6031  0.5321 -0.4703
  442MPD2     N 6646   0.115   0.482  15.736  0.2312  0.3686 -0.1431
  442MPD2    H5 6647   0.173   0.479  15.653  1.3695  1.9873  0.5856
  442MPD2    N1 6648   0.075   0.779  16.142 -0.4499 -0.2681  0.4463
  442MPD2    H7 6649   0.081   0.874  16.177 -1.0289  0.0015 -0.1938
  443TMC3    C1 6650   0.023   0.737  16.361  0.0468  0.1572  0.6552
  443TMC3    C2 6651   4.697   0.865  16.371 -0.0050 -0.2894 -1.0531
  443TMC3    C3 6652   4.578   0.876  16.433 -0.4342  0.5665 -0.1341
  443TMC3    C4 6653   4.713   0.646  16.451 -0.2737 -0.1075 -0.1008
  443TMC3    C5 6654   4.612   0.670  16.535  0.3639 -0.8613  0.1042
  443TMC3    C6 6655   4.537   0.786  16.529 -0.7722  0.3022 -0.5849
  443TMC3     C 6656   0.042   0.685  16.231  1.0003 -0.2159  0.4374
  443TMC3     O 6657   0.048   0.564  16.217 -0.1398 -0.2987 -0.8305
  443TMC3     H 6658   4.718   0.929  16.286 -0.7553  3.0988  1.3610
  443TMC3    H1 6659   0.023   0.548  16.446 -0.2240  0.0247 -2.0102
  443TMC3    H2 6660   4.439   0.789  16.573 -0.6728  2.2628 -0.5266
  443TMC3    C7 6661   4.562   0.556  16.616 -0.4190  0.5441 -0.0319
  443TMC3    C8 6662   4.464   0.905  16.350  0.1100  0.2042  0.6633
  443TMC3    O1 6663   4.628   0.454  16.612  0.1204  0.0260  0.4123
  443TMC3    O2 6664   4.365   0.828  16.351 -0.3682 -0.0934 -0.2640
  444MPD2     C 6665   0.381   0.196  16.436  0.1231 -0.1607 -0.4669
  444MPD2    C1 6666   0.266   0.127  16.425  0.3318  0.0845 -0.0557
  444MPD2    C2 6667   0.262   0.027  16.331  0.1726  0.0511 -0.0236
  444MPD2    C3 6668   0.373   4.730  16.250  0.3354 -1.2160 -0.1675
  444MPD2    C4 6669   0.491   0.073  16.260  0.3688  0.1149 -0.0818
  444MPD2    C5 6670   0.496   0.172  16.360  0.4368  0.0245  0.2767
  444MPD2     H 6671   0.180   4.693  16.315 -1.0603  1.4879  0.1047
  444MPD2    H1 6672   0.583   0.041  16.212 -0.0250 -1.7299  0.3962
  444MPD2    H2 6673   0.397   0.278  16.504 -1.2934 -0.4560  0.2061
  444MPD2    H3 6674   0.586   0.228  16.384  0.4411 -0.4612  1.3848
  444MPD2     N 6675   0.360   4.622  16.161  1.0397 -0.2852  0.0479
  444MPD2    H5 6676   0.269   4.577  16.155  0.9704 -0.4894  2.5311
  444MPD2    N1 6677   0.162   0.141  16.512  0.0407  0.8359  0.0216
  444MPD2    H7 6678   0.074   0.095  16.490 -0.5789  1.4676  1.1749
  445TMC3    C1 6679   0.436   4.459  16.014  0.0513  1.0093  0.0242
  445TMC3    C2 6680   0.318   4.466  15.942  0.2899  0.3643 -0.4265
  445TMC3    C3 6681   0.277   4.350  15.876  0.0247  0.1848  0.5276
  445TMC3    C4 6682   0.517   4.348  16.010 -0.0290  0.1323  0.3869
  445TMC3    C5 6683   0.470   4.241  15.946  0.5527 -0.1004  0.4443
  445TMC3    C6 6684   0.356   4.235  15.879  0.1295  0.5537  0.2587
  445TMC3     C 6685   0.470   4.568  16.103 -0.2080 -0.6177 -1.3932
  445TMC3     O 6686   0.577   4.549  16.154 -0.5257  0.4009  0.9327
  445TMC3     H 6687   0.260   4.557  15.952  0.9712  0.8412 -0.8052
  445TMC3    H1 6688   0.609   4.346  16.066 -1.0598  5.5744  2.2511
  445TMC3    H2 6689   0.350   4.146  15.817 -2.6426 -0.2876  1.7356
  445TMC3    C7 6690   0.556   4.124  15.948 -0.5412 -0.4154  0.2336
  445TMC3    C8 6691   0.158   4.366  15.795 -0.9563 -0.1675 -0.6348
  445TMC3    O1 6692   0.502   4.014  15.939  0.1425 -0.3740  0.1544
  445TMC3    O2 6693   0.110   4.476  15.775 -0.0545 -0.6795 -0.0363
  446MPD2     C 6694   0.737   1.474  11.027  0.0710  0.3809 -0.6185
  446MPD2    C1 6695   0.771   1.458  10.886  0.7010 -0.4378  0.0098
  446MPD2    C2 6696   0.870   1.541  10.834  0.1189 -0.4832 -0.5652
  446MPD2    C3 6697   0.934   1.640  10.903 -0.5509 -0.1943  0.1856
  446MPD2    C4 6698   0.891   1.659  11.034  0.0905  0.0299 -0.3217
  446MPD2    C5 6699   0.797   1.579  11.094 -0.1820  1.1920  0.2032
  446MPD2     H 6700   0.904   1.525  10.733  1.2548  1.0705 -0.4297
  446MPD2    H1 6701   0.930   1.741  11.094  0.1926 -1.2604  1.3713
  446MPD2    H2 6702   0.665   1.416  11.085  0.4145 -1.8070 -2.3691
  446MPD2    H3 6703   0.765   1.602  11.194 -1.9393  1.4092 -0.4194
  446MPD2     N 6704   1.051   1.697  10.848  0.1905 -0.0872  0.1575
  446MPD2    H5 6705   1.083   1.671  10.756  0.2452 -2.2490  0.8044
  446MPD2    N1 6706   0.715   1.348  10.808  0.0710  0.0402 -0.3684
  446MPD2    H7 6707   0.754   1.324  10.718 -1.3430 -0.1607 -0.9213
  447TMC3    C1 6708   1.265   1.804  10.844 -0.6334  0.0366 -0.3606
  447TMC3    C2 6709   1.252   1.857  10.717 -0.6250  0.3199  1.0452
  447TMC3    C3 6710   1.364   1.897  10.658 -0.6846 -0.0607  0.2006
  447TMC3    C4 6711   1.387   1.784  10.910 -0.8165  0.1503 -0.7660
  447TMC3    C5 6712   1.499   1.826  10.847 -0.1512 -0.1974  0.0167
  447TMC3    C6 6713   1.492   1.886  10.722  0.6792 -0.3046 -0.5974
  447TMC3     C 6714   1.142   1.776  10.917 -0.1749  0.2021  0.1203
  447TMC3     O 6715   1.141   1.795  11.038  0.2648  0.3140 -0.0931
  447TMC3     H 6716   1.158   1.878  10.668  0.1353 -0.2920 -0.6526
  447TMC3    H1 6717   1.386   1.748  11.013  2.9869 -1.7936 -1.3980
  447TMC3    H2 6718   1.582   1.904  10.665  1.2593 -1.9426 -0.2061
  447TMC3    C7 6719   1.630   1.786  10.889  0.4930  0.6884  0.0305
  447TMC3    C8 6720   1.358   1.958  10.531 -0.1531  0.9050  0.5806
  447TMC3    O1 6721   1.710   1.782  10.798 -0.3902  0.3360 -0.3912
  447TMC3    O2 6722   1.282   1.905  10.446 -0.8167 -0.2511  0.1679
  448TMC3    C1 6723   3.173   1.306  16.882 -0.5779 -0.3464 -0.2151
  448TMC3    C2 6724   3.171   1.213  16.777 -0.1267  0.7949 -0.1090
  448TMC3    C3 6725   3.237   1.095  16.794 -0.2138 -0.0215 -0.3320
  448TMC3    C4 6726   3.241   1.281  16.998 -0.1254  0.7054  0.6867
  448TMC3    C5 6727   3.292   1.155  17.017  0.2809 -0.5770  0.5116
  448TMC3    C6 6728   3.301   1.066  16.911  0.0776 -0.2468 -0.1720
  448TMC3     C 6729   3.109   1.437  16.846 -0.0831 -0.4746 -0.5726
  448TMC3     O 6730   3.039   1.436  16.745  0.2244  0.2034  0.1899
  448TMC3     H 6731   3.119   1.234  16.685  1.2738 -0.7440 -1.2519
  448TMC3    H1 6732   3.233   1.354  17.077 -3.1815  0.7720  0.3439
  448TMC3    H2 6733   3.341   0.967  16.927  0.1425  0.1403  2.0037
  448TMC3    C7 6734   3.368   1.128  17.141 -0.2418 -0.6516 -0.4329
  448TMC3    C8 6735   3.219   0.992  16.695  0.1693 -0.3050 -0.2698
  448TMC3    O1 6736   3.439   1.218  17.191  0.3225  0.4281 -0.2433
  448TMC3    O2 6737   3.307   0.910  16.679 -0.5954  0.1864 -0.3024
  449MPD2     C 6738   4.725   4.576  13.602 -0.7790  0.3644 -0.1287
  449MPD2    C1 6739   4.601   4.619  13.558 -0.6453 -0.3678  0.3708
  449MPD2    C2 6740   4.500   4.524  13.543 -0.1308 -0.2224  0.0598
  449MPD2    C3 6741   4.526   4.388  13.557  0.1656 -0.0881  0.0191
  449MPD2    C4 6742   4.650   4.343  13.595  0.7084 -0.5798 -0.5474
  449MPD2    C5 6743   0.008   4.440  13.622 -0.5109  0.2348 -0.2378
  449MPD2     H 6744   4.405   4.558  13.503  0.4416  1.1190 -0.1603
  449MPD2    H1 6745   4.674   4.238  13.596 -0.2059 -0.7843 -0.3481
  449MPD2    H2 6746   0.063   4.653  13.620 -2.5100  2.0622 -0.2555
  449MPD2    H3 6747   0.107   4.409  13.653  0.2676  0.9597 -2.0598
  449MPD2     N 6748   4.420   4.300  13.521 -0.1095 -0.8232 -0.5786
  449MPD2    H5 6749   4.335   4.340  13.483 -0.1651 -0.9334 -0.5714
  449MPD2    N1 6750   4.575   0.017  13.520 -0.5252 -0.0319 -0.4281
  449MPD2    H7 6751   4.485   0.045  13.480 -1.2656  0.0366  1.2960
  450TMC3    C1 6752   4.610   0.235  13.455 -0.6614  0.1349  0.8378
  450TMC3    C2 6753   4.644   0.244  13.322 -1.2208  0.3020 -0.8437
  450TMC3    C3 6754   4.546   0.257  13.225 -0.0571  0.5923 -0.0869
  450TMC3    C4 6755   4.475   0.233  13.483 -1.1438  0.2283 -0.7029
  450TMC3    C5 6756   4.384   0.262  13.384 -0.0135 -0.4961 -0.2674
  450TMC3    C6 6757   4.417   0.287  13.257  0.2426  0.4020 -0.2056
  450TMC3     C 6758   4.673   0.114  13.496 -0.0180  0.2670 -0.2325
  450TMC3     O 6759   0.058   0.107  13.495 -0.1630  0.2234 -0.5819
  450TMC3     H 6760   0.014   0.233  13.299 -0.8132  0.1381  1.0699
  450TMC3    H1 6761   4.443   0.224  13.587  1.3563 -2.5324 -0.1828
  450TMC3    H2 6762   4.350   0.302  13.173 -1.0419 -3.3779  0.1532
  450TMC3    C7 6763   4.279   0.162  13.394 -0.2707 -0.6336 -1.1029
  450TMC3    C8 6764   4.582   0.280  13.085 -0.5557 -0.2652 -0.6453
  450TMC3    O1 6765   4.315   0.060  13.449 -0.2803  0.0334  0.0312
  450TMC3    O2 6766   4.500   0.314  13.004 -0.2890  0.4376  0.2004
  451MPD2     C 6767   1.197   3.033   0.674  0.0842 -0.2104  0.3593
  451MPD2    C1 6768   1.226   3.055   0.541  0.2532  0.2693  0.9525
  451MPD2    C2 6769   1.263   2.953   0.458  0.0952  0.2690  0.0232
  451MPD2    C3 6770   1.303   2.831   0.514  0.9033 -0.6412 -0.2761
  451MPD2    C4 6771   1.278   2.812   0.651 -0.1807 -0.5009  0.5539
  451MPD2    C5 6772   1.229   2.912   0.732 -0.1859  0.5628  0.3618
  451MPD2     H 6773   1.279   2.969   0.352  0.9005  1.1656  0.2790
  451MPD2    H1 6774   1.298   2.716   0.699  3.4973 -0.5328 -1.0530
  451MPD2    H2 6775   1.164   3.105   0.748  1.4300  0.0703  0.6915
  451MPD2    H3 6776   1.208   2.903   0.838 -2.1746  0.7656 -0.0017
  451MPD2     N 6777   1.338   2.717   0.439  0.2275 -0.1797  0.8222
  451MPD2    H5 6778   1.337   2.626   0.484 -0.1566  0.7323  2.6316
  451MPD2    N1 6779   1.177   3.183   0.484 -0.1360 -1.1814  0.1514
  451MPD2    H7 6780   1.124   3.239   0.550  0.5151  0.0309 -0.3674
  452TMC3    C1 6781   1.427   2.591   0.256 -0.0401  0.0969  0.0974
  452TMC3    C2 6782   1.350   2.481   0.282  0.0129  0.3141  0.1154
  452TMC3    C3 6783   1.363   2.378   0.195 -0.5629 -0.4713 -0.0894
  452TMC3    C4 6784   1.500   2.597   0.141  0.6829 -0.3291 -0.1654
  452TMC3    C5 6785   1.499   2.498   0.047  0.2676  0.0688  0.5134
  452TMC3    C6 6786   1.427   2.387   0.075  0.6045  0.0420 -0.0230
  452TMC3     C 6787   1.382   2.718   0.307  0.2988  0.4917 -0.5140
  452TMC3     O 6788   1.400   2.812   0.234 -0.3532  0.1101 -0.2661
  452TMC3     H 6789   1.262   2.487   0.345 -0.5756 -0.4776 -0.6157
  452TMC3    H1 6790   1.561   2.686   0.133 -0.0119  0.0203 -1.4780
  452TMC3    H2 6791   1.429   2.299   0.012 -0.4026  0.1745 -0.2494
  452TMC3    C7 6792   1.525   2.540  17.654 -0.7976 -0.0882  0.5715
  452TMC3    C8 6793   1.314   2.248   0.228  0.8483  0.1177  0.0653
  452TMC3    O1 6794   1.571   2.650  17.637  0.2891 -0.8214  0.5785
  452TMC3    O2 6795   1.290   2.176   0.136  0.7303  0.2742  0.4927
  453TMC3    C1 6796   2.820   0.341  11.452  0.0434 -0.1011 -0.9946
  453TMC3    C2 6797   2.853   0.228  11.367  0.0887  0.6715  0.0058
  453TMC3    C3 6798   2.841   0.243  11.226 -0.2185 -0.0462 -0.1566
  453TMC3    C4 6799   2.814   0.464  11.396 -0.1734  0.4259 -0.0781
  453TMC3    C5 6800   2.822   0.473  11.261  0.5869 -0.6599 -0.2777
  453TMC3    C6 6801   2.836   0.369  11.177 -0.4707  0.2252  0.6983
  453TMC3     C 6802   2.896   0.332  11.572 -0.0610  0.9796  0.6077
  453TMC3     O 6803   2.981   0.242  11.572  0.2336  0.5884 -1.1924
  453TMC3     H 6804   2.855   0.126  11.402 -3.0598  0.5673 -0.0497
  453TMC3    H1 6805   2.820   0.555  11.455  0.0176  0.6473 -0.4382
  453TMC3    H2 6806   2.846   0.384  11.070 -1.3745 -1.7214  0.3374
  453TMC3    C7 6807   2.880   0.592  11.218  0.7899 -0.0383  0.3013
  453TMC3    C8 6808   2.797   0.132  11.149 -0.0488  0.6415  0.0747
  453TMC3    O1 6809   2.967   0.580  11.135 -0.1209  0.5431 -0.4142
  453TMC3    O2 6810   2.709   0.155  11.067 -0.9649  0.3260  0.5971
  454MPD2     C 6811   1.155   4.512  15.888 -0.8741 -0.1477  0.1744
  454MPD2    C1 6812   1.114   4.577  15.775 -0.3604  0.2100  0.3857
  454MPD2    C2 6813   1.070   4.705  15.779  0.2654 -0.6384 -0.1296
  454MPD2    C3 6814   1.072   0.040  15.891  0.0336 -0.9970  0.0425
  454MPD2    C4 6815   1.121   4.714  16.004  0.1652  0.1002 -0.4189
  454MPD2    C5 6816   1.149   4.583  16.010 -0.2210  0.8093  0.0758
  454MPD2     H 6817   1.044   0.012  15.683 -0.9766  0.6255  0.7610
  454MPD2    H1 6818   1.122   0.024  16.103  0.7984  0.7451 -0.7183
  454MPD2    H2 6819   1.192   4.410  15.881 -2.0545 -0.3896 -2.3590
  454MPD2    H3 6820   1.190   4.533  16.097  2.1161 -2.3956 -2.8730
  454MPD2     N 6821   1.012   0.164  15.909  0.0354 -0.6224 -0.2902
  454MPD2    H5 6822   0.996   0.187  16.007 -1.6629 -0.2788 -0.6634
  454MPD2    N1 6823   1.102   4.509  15.653 -0.9734 -0.0639  0.2931
  454MPD2    H7 6824   1.081   4.565  15.571  0.9361  0.7294  0.3299
  455TMC3    C1 6825   0.871   0.334  15.860  0.6234 -0.3885 -0.7183
  455TMC3    C2 6826   0.890   0.384  15.985 -0.2760 -0.3870 -0.4925
  455TMC3    C3 6827   0.777   0.396  16.055  0.4419 -1.0298  0.5267
  455TMC3    C4 6828   0.747   0.300  15.812  0.8973 -0.5378 -0.7210
  455TMC3    C5 6829   0.635   0.306  15.890 -0.6145  0.2021  0.3311
  455TMC3    C6 6830   0.652   0.357  16.016  0.0954 -0.3763  0.0350
  455TMC3     C 6831   0.972   0.246  15.809 -0.3154 -0.2816 -1.0210
  455TMC3     O 6832   0.976   0.236  15.687  0.0268 -0.7651  0.5486
  455TMC3     H 6833   0.993   0.393  16.018 -0.7526  1.9054  0.3876
  455TMC3    H1 6834   0.744   0.267  15.708 -1.5930 -1.0956 -0.4685
  455TMC3    H2 6835   0.568   0.351  16.084 -0.4615 -2.1681 -0.7838
  455TMC3    C7 6836   0.578   0.174  15.895  0.4612 -0.3947  0.8055
  455TMC3    C8 6837   0.793   0.448  16.185  0.2175  0.3040 -0.1058
  455TMC3    O1 6838   0.457   0.161  15.877  0.1934 -0.5085 -0.3959
  455TMC3    O2 6839   0.702   0.418  16.263 -0.4603  0.3178 -0.5596
  456MPD2     C 6840   3.285   4.725  15.646 -0.4332 -0.3244  0.2228
  456MPD2    C1 6841   3.397   0.004  15.720 -0.1814 -0.0816 -0.0811
  456MPD2    C2 6842   3.389   0.026  15.858 -0.5219 -0.0098 -0.1874
  456MPD2    C3 6843   3.269   0.063  15.918  1.0570  0.1096 -0.3372
  456MPD2    C4 6844   3.160   0.065  15.835 -0.2072 -0.1694 -1.0414
  456MPD2    C5 6845   3.172   0.025  15.704 -0.3495 -0.2034  0.3080
  456MPD2     H 6846   3.471   0.019  15.929 -0.6261  1.2008  0.0382
  456MPD2    H1 6847   3.060   0.070  15.876  0.4960 -1.1682  0.8019
  456MPD2    H2 6848   3.293   4.691  15.543  2.6711 -2.9156  1.3058
  456MPD2    H3 6849   3.094   0.013  15.630  0.0684  0.3115 -0.2130
  456MPD2     N 6850   3.264   0.097  16.058  0.4717 -0.3993  0.1986
  456MPD2    H5 6851   3.353   0.111  16.105  0.4563 -0.6264  0.2959
  456MPD2    N1 6852   3.516   0.001  15.648 -0.8927  0.2980 -0.3678
  456MPD2    H7 6853   3.510   0.004  15.546  1.1252  3.5403 -0.3812
  457TMC3    C1 6854   3.194   0.197  16.258 -0.1023 -0.4408  0.4785
  457TMC3    C2 6855   3.142   0.316  16.312  0.7469 -0.1180 -0.0191
  457TMC3    C3 6856   3.155   0.341  16.452  0.1799 -0.0015 -0.3979
  457TMC3    C4 6857   3.286   0.118  16.341  0.3178  0.2514  0.0443
  457TMC3    C5 6858   3.306   0.160  16.469 -0.1464 -0.5185  0.0682
  457TMC3    C6 6859   3.242   0.267  16.526  1.0867  0.0803  0.1351
  457TMC3     C 6860   3.160   0.158  16.124  0.1538  0.9486 -0.3736
  457TMC3     O 6861   3.055   0.194  16.076  0.3887 -0.2442 -0.4821
  457TMC3     H 6862   3.067   0.374  16.261  0.1718 -1.5961 -0.8589
  457TMC3    H1 6863   3.347   0.040  16.296  1.0788  0.1868  1.2192
  457TMC3    H2 6864   3.261   0.290  16.630  0.1280  0.8106  0.1482
  457TMC3    C7 6865   3.420   0.117  16.545 -0.1162 -0.5220 -0.0308
  457TMC3    C8 6866   3.145   0.475  16.506 -1.0560 -0.2820  0.1470
  457TMC3    O1 6867   3.402   0.104  16.664  0.0798 -0.1858  0.0081
  457TMC3    O2 6868   3.225   0.508  16.593 -0.1848  0.1912  0.3228
  458MPD2     C 6869   1.976   3.975  11.692  0.6564 -0.3932 -0.6290
  458MPD2    C1 6870   1.911   3.952  11.807  0.5116  0.6835  0.5560
  458MPD2    C2 6871   1.871   3.826  11.845 -0.5048  0.2700  0.7613
  458MPD2    C3 6872   1.889   3.721  11.752 -0.7286 -0.1194 -0.0101
  458MPD2    C4 6873   1.954   3.753  11.635 -0.2063 -0.2547 -0.1357
  458MPD2    C5 6874   1.996   3.875  11.602 -0.1344  0.9645  0.1059
  458MPD2     H 6875   1.822   3.806  11.939  0.6446  1.5069  1.6191
  458MPD2    H1 6876   1.963   3.684  11.553 -1.3069  0.8517 -1.1926
  458MPD2    H2 6877   2.001   4.075  11.658  0.1712 -0.7623 -2.0872
  458MPD2    H3 6878   2.046   3.900  11.510 -1.2868  3.6197  0.1936
  458MPD2     N 6879   1.848   3.594  11.797 -0.3042  0.6801 -0.0655
  458MPD2    H5 6880   1.808   3.587  11.891  1.2884 -1.7653  0.4298
  458MPD2    N1 6881   1.895   4.067  11.883 -0.0926 -0.0888 -0.4249
  458MPD2    H7 6882   1.924   4.157  11.846 -1.4101  0.9157  1.0093
  459TMC3    C1 6883   1.833   4.201  12.068 -0.2795  0.4810  0.2456
  459TMC3    C2 6884   1.946   4.281  12.046 -0.0112  0.9984  0.1037
  459TMC3    C3 6885   1.968   4.380  12.143  0.0493  0.2170  0.6763
  459TMC3    C4 6886   1.754   4.211  12.182 -0.5268 -0.3354 -0.3195
  459TMC3    C5 6887   1.791   4.303  12.275 -0.9974  0.7024  0.0894
  459TMC3    C6 6888   1.889   4.393  12.253  1.1201 -0.4914  0.2642
  459TMC3     C 6889   1.829   4.070  12.006 -1.2194  0.0737 -0.2238
  459TMC3     O 6890   1.797   3.981  12.079  0.2387  0.3110 -0.2516
  459TMC3     H 6891   2.015   4.271  11.963  1.4060 -1.3946  1.5852
  459TMC3    H1 6892   1.671   4.144  12.196 -1.4540  0.3035 -2.7220
  459TMC3    H2 6893   1.914   4.449  12.342  0.9371  0.8246 -0.5176
  459TMC3    C7 6894   1.765   4.270  12.410  0.5007  0.2175 -0.2164
  459TMC3    C8 6895   2.078   4.469  12.128  0.5753 -0.0006 -0.4691
  459TMC3    O1 6896   1.739   4.364  12.482  0.4095  0.3465 -0.0064
  459TMC3    O2 6897   2.168   4.437  12.051  0.1066  0.0483  0.0996
  460MPD2     C 6898   1.550   2.264  10.415  1.0846  0.4526  0.0763
  460MPD2    C1 6899   1.481   2.143  10.413  0.3197 -0.4960 -0.4719
  460MPD2    C2 6900   1.433   2.107  10.286 -0.0310  0.4593  0.3636
  460MPD2    C3 6901   1.469   2.178  10.173  0.1678 -0.3041 -0.7816
  460MPD2    C4 6902   1.538   2.302  10.179  0.0318 -0.6067 -0.3460
  460MPD2    C5 6903   1.587   2.335  10.305 -0.3750  0.3026 -0.4120
  460MPD2     H 6904   1.378   2.016  10.266 -0.5544  1.1668 -1.4713
  460MPD2    H1 6905   1.575   2.360  10.096 -2.8058  0.7884 -0.6460
  460MPD2    H2 6906   1.588   2.308  10.506 -0.2061  0.7375  0.4854
  460MPD2    H3 6907   1.637   2.428  10.330 -0.6081  0.7907 -1.7127
  460MPD2     N 6908   1.417   2.123  10.041  0.2857 -0.1488  0.3880
  460MPD2    H5 6909   1.366   2.035  10.044 -2.0959  1.1829 -0.9089
  460MPD2    N1 6910   1.447   2.063  10.527 -0.4878  0.2510 -0.0694
  460MPD2    H7 6911   1.475   2.099  10.617  1.7051  0.7406 -0.9366
  461TMC3    C1 6912   1.336   2.120   9.813 -0.0914 -0.5099  0.1477
  461TMC3    C2 6913   1.365   1.991   9.783 -0.0324  0.2539  0.6186
  461TMC3    C3 6914   1.317   1.935   9.671 -0.1934  0.4272 -0.2040
  461TMC3    C4 6915   1.270   2.198   9.731  0.3642 -0.9869  0.3367
  461TMC3    C5 6916   1.236   2.147   9.605  0.0670  0.6231  0.1215
  461TMC3    C6 6917   1.253   2.015   9.576  0.1176  0.1607 -0.6674
  461TMC3     C 6918   1.394   2.196   9.926  0.5034 -0.1001 -0.2133
  461TMC3     O 6919   1.420   2.317   9.907 -0.0553  0.3948  0.9016
  461TMC3     H 6920   1.418   1.931   9.857 -2.6057 -2.5852  0.1496
  461TMC3    H1 6921   1.234   2.289   9.777  2.1307 -1.1520  2.0575
  461TMC3    H2 6922   1.236   1.980   9.475  0.9719  1.4207 -1.2595
  461TMC3    C7 6923   1.141   2.221   9.523 -0.1855 -0.0908  0.4089
  461TMC3    C8 6924   1.324   1.790   9.639 -0.2740  0.2654 -0.5109
  461TMC3    O1 6925   1.067   2.143   9.463  0.0811 -0.0906  0.2194
  461TMC3    O2 6926   1.405   1.721   9.698 -0.7515 -0.2587  0.0835
  462TMC3    C1 6927   0.307   3.250  17.678  0.1664 -0.0980 -0.3308
  462TMC3    C2 6928   0.408   3.202   0.016  0.3268 -0.2084  1.0698
  462TMC3    C3 6929   0.430   3.069   0.013 -0.7788 -0.3253 -0.1143
  462TMC3    C4 6930   0.238   3.164  17.595 -0.1388 -0.0253 -0.3640
  462TMC3    C5 6931   0.258   3.034  17.600  0.4857 -0.4457 -0.1786
  462TMC3    C6 6932   0.364   2.981  17.676 -0.0053  0.0301 -0.0881
  462TMC3     C 6933   0.331   3.387  17.635  0.5431  0.3080 -0.7293
  462TMC3     O 6934   0.423   3.441  17.697 -0.0184 -0.4698 -0.6161
  462TMC3     H 6935   0.458   3.269   0.085  0.1352  0.6596  0.3706
  462TMC3    H1 6936   0.159   3.206  17.535  0.3525  3.1151  1.1753
  462TMC3    H2 6937   0.363   2.877  17.706 -0.5859 -0.7336 -2.7722
  462TMC3    C7 6938   0.166   2.931  17.544 -0.2200 -0.2374 -0.1795
  462TMC3    C8 6939   0.540   3.022   0.091 -0.4892 -0.1652  0.2967
  462TMC3    O1 6940   0.176   2.821  17.598  0.0861  0.2981  0.1199
  462TMC3    O2 6941   0.585   3.106   0.169  0.1245  0.4062 -0.3924
  463MPD2     C 6942   1.800   1.236   1.713  0.2940 -0.0530  1.3322
  463MPD2    C1 6943   1.810   1.130   1.626  0.8587  0.6202  0.5861
  463MPD2    C2 6944   1.938   1.064   1.618  0.2126 -0.2598  0.0810
  463MPD2    C3 6945   2.051   1.113   1.691 -0.1615 -0.1274 -0.0275
  463MPD2    C4 6946   2.037   1.237   1.756 -0.4986 -0.4578 -0.1860
  463MPD2    C5 6947   1.913   1.287   1.769 -0.1160 -0.4747  0.0931
  463MPD2     H 6948   1.947   0.979   1.551 -1.5930 -0.4708  0.1066
  463MPD2    H1 6949   2.120   1.289   1.805 -0.6554  1.6210 -2.1158
  463MPD2    H2 6950   1.704   1.283   1.731  0.2800  0.0574  0.9834
  463MPD2    H3 6951   1.916   1.381   1.823 -0.4037  0.8303 -2.1486
  463MPD2     N 6952   2.177   1.057   1.694  0.1875 -0.3254  0.6450
  463MPD2    H5 6953   2.248   1.101   1.751 -0.2960  1.4852 -0.1710
  463MPD2    N1 6954   1.712   1.081   1.537  0.2632  0.4777  0.5333
  463MPD2    H7 6955   1.742   1.016   1.465 -0.5096 -0.7855  1.3491
  464TMC3    C1 6956   1.508   1.075   1.419  0.6754  0.7501 -0.2068
  464TMC3    C2 6957   1.377   1.115   1.411  1.3914  0.0339  0.1569
  464TMC3    C3 6958   1.305   1.069   1.306 -0.1018 -0.0926  0.2514
  464TMC3    C4 6959   1.555   0.967   1.349 -0.0336 -0.2707  0.2983
  464TMC3    C5 6960   1.476   0.915   1.250  0.4265 -0.0558  0.3545
  464TMC3    C6 6961   1.355   0.976   1.213 -0.1296 -0.1129  0.2305
  464TMC3     C 6962   1.584   1.135   1.527 -0.4603  0.6142 -1.0272
  464TMC3     O 6963   1.532   1.220   1.599 -0.4899  0.2059 -0.2265
  464TMC3     H 6964   1.346   1.202   1.468  0.7363 -0.1023  0.0011
  464TMC3    H1 6965   1.654   0.928   1.371 -0.1702 -0.5311  0.4564
  464TMC3    H2 6966   1.308   0.950   1.118  1.9688  0.5782 -0.9955
  464TMC3    C7 6967   1.550   0.829   1.155  0.1722  0.5873  0.0776
  464TMC3    C8 6968   1.181   1.137   1.272  0.1029  0.1934 -0.4098
  464TMC3    O1 6969   1.671   0.852   1.143 -0.7470  0.2248  0.4983
  464TMC3    O2 6970   1.153   1.141   1.150 -0.5233 -0.3122  0.4176
  465MPD2     C 6971   2.439   4.369  15.998 -0.2840 -0.3160 -0.1939
  465MPD2    C1 6972   2.410   4.434  16.114 -0.0156  0.0359  0.4872
  465MPD2    C2 6973   2.325   4.542  16.116  0.1034  0.2301  0.2630
  465MPD2    C3 6974   2.268   4.592  16.003  0.1842  0.0497  0.1620
  465MPD2    C4 6975   2.297   4.524  15.887  0.6785  0.5848 -0.9639
  465MPD2    C5 6976   2.383   4.416  15.881  0.5013  1.0218 -0.0113
  465MPD2     H 6977   2.301   4.588  16.212 -0.4372  0.0426  0.2201
  465MPD2    H1 6978   2.240   4.544  15.797  0.4921 -0.6604 -1.1189
  465MPD2    H2 6979   2.507   4.285  15.999  1.1185  0.8530  3.2219
  465MPD2    H3 6980   2.385   4.358  15.789 -0.2701 -1.0686  1.2928
  465MPD2     N 6981   2.189   4.712  16.008  0.6422  0.0283 -0.1464
  465MPD2    H5 6982   2.154   0.010  16.098  0.5873 -0.3985 -0.0090
  465MPD2    N1 6983   2.465   4.397  16.238 -0.3022  0.5811 -0.2690
  465MPD2    H7 6984   2.429   4.453  16.314 -0.5649  1.7505 -1.2584
  466TMC3    C1 6985   1.862   0.246  16.031 -0.4967 -0.5507 -0.9409
  466TMC3    C2 6986   1.893   0.371  15.980  0.0591  0.7019 -0.1970
  466TMC3    C3 6987   2.002   0.378  15.901 -0.4160 -0.2500 -0.5018
  466TMC3    C4 6988   1.948   0.137  16.019  0.4820 -0.3017 -0.5754
  466TMC3    C5 6989   2.053   0.157  15.935 -0.1355  0.2287  0.2676
  466TMC3    C6 6990   2.076   0.273  15.865  0.7881  0.2786  0.1535
  466TMC3     C 6991   1.733   0.220  16.104  0.1561 -0.6356 -0.2883
  466TMC3     O 6992   1.733   0.128  16.187  0.1129  0.4505 -0.2833
  466TMC3     H 6993   1.824   0.451  16.003  2.4798  2.3851  1.2716
  466TMC3    H1 6994   1.924   0.037  16.053  1.3669  0.5095  2.3425
  466TMC3    H2 6995   2.159   0.284  15.797  1.0046 -0.2302  0.3394
  466TMC3    C7 6996   2.139   0.047  15.898 -0.9843  0.2703 -0.7957
  466TMC3    C8 6997   2.066   0.507  15.881 -0.1665 -0.5021 -1.0091
  466TMC3    O1 6998   2.156   0.036  15.781 -0.2772 -0.1153 -0.9877
  466TMC3    O2 6999   2.134   0.527  15.779 -0.2738 -0.1960  0.1255
  467TMC3    C1 7000   3.636   3.354  13.135  0.1403 -0.1983 -0.3480
  467TMC3    C2 7001   3.702   3.407  13.027  0.4030  0.3382 -0.6480
  467TMC3    C3 7002   3.664   3.529  12.977 -0.2253  0.6728  0.2926
  467TMC3    C4 7003   3.526   3.417  13.187 -0.0302  0.5941  0.6873
  467TMC3    C5 7004   3.479   3.526  13.122  0.4742 -0.3971  0.8147
  467TMC3    C6 7005   3.548   3.587  13.022  0.2949  0.0883  0.1430
  467TMC3     C 7006   3.716   3.299  13.250 -0.1887  0.2931 -0.0420
  467TMC3     O 7007   3.744   3.374  13.345  0.3683 -0.0915  0.9190
  467TMC3     H 7008   3.794   3.368  12.988  1.1154 -1.2631  2.6128
  467TMC3    H1 7009   3.486   3.381  13.282  0.7772 -2.7945 -0.2472
  467TMC3    H2 7010   3.508   3.680  12.984 -0.8902  0.0728  1.3638
  467TMC3    C7 7011   3.362   3.580  13.168 -0.6468 -0.3254  0.3845
  467TMC3    C8 7012   3.766   3.621  12.941 -0.3824  0.2351 -0.3141
  467TMC3    O1 7013   3.348   3.702  13.159  0.2562 -0.0728  0.5775
  467TMC3    O2 7014   3.735   3.741  12.955  0.1489 -0.5764  0.8364
  468MPD2     C 7015   3.086   1.856  10.124 -0.6306 -0.7457 -0.6372
  468MPD2    C1 7016   3.193   1.874  10.207 -0.0962  0.1375  0.3102
  468MPD2    C2 7017   3.224   1.774  10.293 -0.3101 -0.0218  0.2841
  468MPD2    C3 7018   3.143   1.662  10.306  0.2201  0.0237  0.7095
  468MPD2    C4 7019   3.036   1.647  10.224  0.3765 -0.2130  0.0187
  468MPD2    C5 7020   3.018   1.741  10.128  0.8209  0.1219 -0.5132
  468MPD2     H 7021   3.317   1.782  10.348  0.5628 -3.5158 -0.6484
  468MPD2    H1 7022   2.975   1.557  10.229  1.7908 -1.1738  0.1166
  468MPD2    H2 7023   3.052   1.921  10.044  0.4867  0.0798 -0.4504
  468MPD2    H3 7024   2.946   1.727  10.048 -0.6584 -0.1597  0.8703
  468MPD2     N 7025   3.172   1.562  10.403  0.5887  0.0198 -0.0924
  468MPD2    H5 7026   3.092   1.501  10.418  0.8306  0.3654  2.5493
  468MPD2    N1 7027   3.264   1.995  10.210  0.1859  0.1380  0.1430
  468MPD2    H7 7028   3.341   2.010  10.275  0.4193  2.7919 -0.7250
  469TMC3    C1 7029   3.316   2.220  10.206 -0.8915 -0.6718  0.4594
  469TMC3    C2 7030   3.445   2.183  10.237 -1.1623 -0.8804 -0.2876
  469TMC3    C3 7031   3.516   2.245  10.331 -0.3359  0.0466  0.1686
  469TMC3    C4 7032   3.264   2.336  10.266 -0.3910  0.3167  0.8836
  469TMC3    C5 7033   3.335   2.384  10.375  0.0072 -0.1370 -0.2382
  469TMC3    C6 7034   3.464   2.342  10.408 -0.7042  0.1998  0.0322
  469TMC3     C 7035   3.222   2.119  10.159  0.2204  0.5286  0.5049
  469TMC3     O 7036   3.108   2.141  10.116 -0.3947  0.0932 -0.5669
  469TMC3     H 7037   3.493   2.110  10.172 -3.8699 -2.2758 -0.7417
  469TMC3    H1 7038   3.158   2.355  10.255 -0.0951  0.0097 -2.3067
  469TMC3    H2 7039   3.531   2.384  10.482 -2.2293  1.5885  0.6160
  469TMC3    C7 7040   3.264   2.475  10.464 -0.6402 -0.4686  0.7411
  469TMC3    C8 7041   3.644   2.185  10.368  0.1235 -0.0269  0.1651
  469TMC3    O1 7042   3.176   2.544  10.415 -0.3104 -0.1574  0.5772
  469TMC3    O2 7043   3.697   2.119  10.277  0.0556  0.1491 -0.1339
  470TMC3    C1 7044   4.329   2.994  17.378  0.5857  0.0665  0.1828
  470TMC3    C2 7045   4.407   3.061  17.461  0.2939 -0.6331  0.1186
  470TMC3    C3 7046   4.456   2.995  17.568 -0.5796  0.4731 -0.9907
  470TMC3    C4 7047   4.291   2.864  17.402  0.2268 -0.8604 -0.2881
  470TMC3    C5 7048   4.350   2.797  17.509  0.5130  0.6718 -0.4961
  470TMC3    C6 7049   4.435   2.856  17.592 -0.0261 -0.3675  0.3496
  470TMC3     C 7050   4.290   3.057  17.255 -0.0586  0.1202 -0.1467
  470TMC3     O 7051   4.339   3.171  17.241  0.3267  0.1288 -1.3595
  470TMC3     H 7052   4.421   3.168  17.452  1.0893 -0.6897  0.6549
  470TMC3    H1 7053   4.222   2.813  17.336  0.0317 -0.7835 -0.1400
  470TMC3    H2 7054   4.471   2.805  17.681 -1.7066 -1.4127  0.4213
  470TMC3    C7 7055   4.337   2.652  17.517 -0.5114  0.4971 -0.0240
  470TMC3    C8 7056   4.547   3.072  17.647 -0.1010  0.7276 -0.5658
  470TMC3    O1 7057   4.259   2.606  17.438 -0.1327  0.2162 -0.2565
  470TMC3    O2 7058   4.559   3.193  17.614  0.3648  0.8161 -0.3179
  471MPD2     C 7059   0.228   3.816  16.294  0.2706 -0.6127 -0.0876
  471MPD2    C1 7060   0.314   3.709  16.305  0.2125 -0.2396  0.3570
  471MPD2    C2 7061   0.407   3.707  16.405 -0.1713  0.0290  0.2663
  471MPD2    C3 7062   0.409   3.806  16.503  0.5246  0.1596 -0.1455
  471MPD2    C4 7063   0.309   3.902  16.500 -0.0744  0.8316  0.8657
  471MPD2    C5 7064   0.227   3.917  16.388 -0.1045 -0.1142 -0.4325
  471MPD2     H 7065   0.471   3.620  16.415 -0.2098 -0.1079 -0.6812
  471MPD2    H1 7066   0.307   3.978  16.577  0.8531  1.7740 -0.0359
  471MPD2    H2 7067   0.151   3.828  16.218  1.9161  1.5720 -1.4221
  471MPD2    H3 7068   0.169   4.008  16.381  0.3595 -0.0601 -3.2196
  471MPD2     N 7069   0.496   3.796  16.616 -0.3036  0.3692  0.1475
  471MPD2    H5 7070   0.470   3.861  16.690 -1.7398  1.6873 -1.5187
  471MPD2    N1 7071   0.320   3.602  16.210  0.2285  0.4323 -0.0224
  471MPD2    H7 7072   0.397   3.539  16.229 -0.1974 -0.2665 -0.6124
  472TMC3    C1 7073   0.258   3.484  16.016 -0.5457  0.9223  0.0831
  472TMC3    C2 7074   0.220   3.499  15.887 -0.8770  0.3472  0.2416
  472TMC3    C3 7075   0.248   3.385  15.811  0.6804  0.2394  0.4137
  472TMC3    C4 7076   0.305   3.374  16.074  0.3418 -1.1364  0.1976
  472TMC3    C5 7077   0.335   3.271  15.996 -0.3293 -0.5506  0.2338
  472TMC3    C6 7078   0.305   3.273  15.860 -0.4224  0.0685 -0.4325
  472TMC3     C 7079   0.225   3.591  16.112  0.4966 -0.6156  0.5410
  472TMC3     O 7080   0.127   3.652  16.075 -0.5441 -0.1405 -0.4763
  472TMC3     H 7081   0.184   3.593  15.846 -0.4025  0.4268  0.0087
  472TMC3    H1 7082   0.314   3.365  16.182 -2.8342  0.6319  0.6057
  472TMC3    H2 7083   0.334   3.201  15.785  0.0016 -1.5297  1.2527
  472TMC3    C7 7084   0.317   3.142  16.063  0.0139  0.3717 -0.1039
  472TMC3    C8 7085   0.143   3.357  15.713  0.4904 -0.7118 -0.3612
  472TMC3    O1 7086   0.269   3.143  16.178 -0.2577  0.3950  0.2481
  472TMC3    O2 7087   0.079   3.454  15.679  0.0591 -0.1282 -0.2634
  473MPD2     C 7088   0.319   0.651  13.473  0.7034  0.1930  0.0136
  473MPD2    C1 7089   0.256   0.765  13.439  0.3962 -0.3996  0.1722
  473MPD2    C2 7090   0.284   0.886  13.505  0.3201 -0.2262  0.1894
  473MPD2    C3 7091   0.373   0.884  13.611  0.4282 -0.0808 -0.5529
  473MPD2    C4 7092   0.430   0.766  13.645 -0.1341 -0.1470 -0.4483
  473MPD2    C5 7093   0.403   0.641  13.584  0.1670  0.0218 -0.3006
  473MPD2     H 7094   0.241   0.976  13.462 -1.0777 -0.3363  1.3575
  473MPD2    H1 7095   0.496   0.766  13.731 -0.3078  2.2206 -0.3092
  473MPD2    H2 7096   0.307   0.559  13.417 -0.8548  0.8930 -0.7788
  473MPD2    H3 7097   0.454   0.554  13.624 -0.1495  0.6118  1.3806
  473MPD2     N 7098   0.411   0.997  13.684  0.3520 -0.1790  0.7838
  473MPD2    H5 7099   0.490   0.989  13.747  0.9469 -0.2136  0.0364
  473MPD2    N1 7100   0.169   0.772  13.331 -0.3829 -0.0904 -0.3190
  473MPD2    H7 7101   0.133   0.865  13.314 -3.8330 -1.4313 -0.3256
  474TMC3    C1 7102   0.384   1.232  13.769  0.1945 -0.4898  0.3653
  474TMC3    C2 7103   0.293   1.329  13.796  0.2546  0.6049  0.0930
  474TMC3    C3 7104   0.327   1.433  13.880 -0.3716  0.4425 -0.0510
  474TMC3    C4 7105   0.513   1.246  13.818 -0.4929  0.4503 -0.4772
  474TMC3    C5 7106   0.543   1.366  13.879 -0.1609  0.3850 -0.5486
  474TMC3    C6 7107   0.452   1.457  13.929  0.3922 -0.4661  0.1182
  474TMC3     C 7108   0.337   1.116  13.682 -0.0736 -1.3738  0.2253
  474TMC3     O 7109   0.223   1.133  13.639 -0.1141 -0.3029 -0.3097
  474TMC3     H 7110   0.192   1.332  13.758 -0.7061  1.2550  2.7203
  474TMC3    H1 7111   0.592   1.174  13.797 -0.7557  0.6300 -2.1080
  474TMC3    H2 7112   0.477   1.543  13.990 -2.0538  1.1548 -1.2014
  474TMC3    C7 7113   0.686   1.398  13.912  1.0856  0.5995  0.1196
  474TMC3    C8 7114   0.217   1.525  13.909  0.4027 -0.2889  0.6846
  474TMC3    O1 7115   0.770   1.378  13.827  0.7481  0.0505  0.3220
  474TMC3    O2 7116   0.110   1.475  13.929  0.3191  0.1178  0.1325
  475MPD2     C 7117   3.216   4.074  10.840  0.1738  0.0634 -0.0760
  475MPD2    C1 7118   3.260   4.195  10.784  0.8626 -0.4592  0.2221
  475MPD2    C2 7119   3.170   4.276  10.719  0.0125 -0.3331  0.2195
  475MPD2    C3 7120   3.036   4.247  10.711  0.5491 -0.5068  0.1466
  475MPD2    C4 7121   3.003   4.129  10.769  0.0153  0.0841  0.1650
  475MPD2    C5 7122   3.092   4.046  10.820  0.2276 -0.2394  0.0024
  475MPD2     H 7123   3.206   4.365  10.668  1.7116 -0.7186  0.7434
  475MPD2    H1 7124   2.905   4.082  10.769  1.2461 -2.4664  0.5921
  475MPD2    H2 7125   3.270   4.004  10.902  2.5809  2.5558  0.6478
  475MPD2    H3 7126   3.051   3.951  10.853  0.4804 -0.9305 -1.6689
  475MPD2     N 7127   2.949   4.318  10.627  0.3501  0.1207  0.0552
  475MPD2    H5 7128   2.989   4.399  10.579 -0.4294  0.8684  0.6682
  475MPD2    N1 7129   3.395   4.232  10.791 -0.4394 -0.3157  0.1023
  475MPD2    H7 7130   3.414   4.325  10.755 -0.3245 -0.7578 -1.0031
  476TMC3    C1 7131   3.626   4.227  10.815 -0.8058  0.4549  0.7104
  476TMC3    C2 7132   3.649   4.267  10.689 -0.0169 -0.0747  0.1709
  476TMC3    C3 7133   3.771   4.319  10.665 -0.1781  0.1549 -0.3441
  476TMC3    C4 7134   3.715   4.227  10.919 -0.3893 -0.0521 -0.0987
  476TMC3    C5 7135   3.837   4.288  10.896 -0.5880 -0.2190 -0.0737
  476TMC3    C6 7136   3.863   4.335  10.768  0.0084 -0.5825  0.7091
  476TMC3     C 7137   3.500   4.171  10.853 -0.5489 -0.2801 -0.3709
  476TMC3     O 7138   3.505   4.097  10.950  0.2382 -0.8147  0.4823
  476TMC3     H 7139   3.574   4.255  10.611  0.0599  1.9720 -0.2281
  476TMC3    H1 7140   3.696   4.201  11.022 -0.7216 -0.2982 -0.2179
  476TMC3    H2 7141   3.956   4.386  10.745 -1.1883  2.4125  2.5343
  476TMC3    C7 7142   3.892   4.363  11.008  0.4681 -0.7471 -0.0829
  476TMC3    C8 7143   3.824   4.339  10.534 -0.6405 -0.1801  0.0952
  476TMC3    O1 7144   3.858   4.334  11.126 -0.4279  0.4599 -0.3406
  476TMC3    O2 7145   3.948   4.352  10.521 -0.0567  0.2069  0.4969
  477MPD2     C 7146   1.666   1.504  11.695  0.1446  0.3939  0.1605
  477MPD2    C1 7147   1.625   1.396  11.625  0.4495  0.1499 -0.0340
  477MPD2    C2 7148   1.654   1.269  11.672  0.2652  0.4142  0.1374
  477MPD2    C3 7149   1.722   1.245  11.786 -0.4319 -0.0574 -1.1143
  477MPD2    C4 7150   1.769   1.353  11.855  0.2394  0.8801  0.2406
  477MPD2    C5 7151   1.744   1.481  11.809  0.1602 -0.2414 -0.2460
  477MPD2     H 7152   1.620   1.187  11.609  1.5373  0.2063 -0.2792
  477MPD2    H1 7153   1.819   1.344  11.951  2.1409 -2.5787 -1.0796
  477MPD2    H2 7154   1.628   1.602  11.670  1.3818  0.0678 -2.9296
  477MPD2    H3 7155   1.775   1.565  11.870  0.7819  0.1564 -1.1066
  477MPD2     N 7156   1.750   1.122  11.837 -0.6777  0.2439  0.5048
  477MPD2    H5 7157   1.773   1.116  11.935 -1.6413 -2.4400  0.5737
  477MPD2    N1 7158   1.538   1.425  11.516  0.5267  0.1197 -0.1196
  477MPD2    H7 7159   1.518   1.523  11.498 -1.4908 -0.3197 -0.2244
  478TMC3    C1 7160   1.397   1.390  11.331  0.4898 -0.2594  0.5305
  478TMC3    C2 7161   1.352   1.518  11.355 -0.2095 -0.0666 -0.5912
  478TMC3    C3 7162   1.261   1.575  11.271  0.4647  0.1187  0.3685
  478TMC3    C4 7163   1.354   1.309  11.229 -0.2241 -0.1393 -0.0368
  478TMC3    C5 7164   1.271   1.375  11.138  0.0601  0.6094 -0.7872
  478TMC3    C6 7165   1.232   1.509  11.156  0.0755 -0.9518 -0.0763
  478TMC3     C 7166   1.490   1.332  11.427  0.0496 -0.0179  0.1340
  478TMC3     O 7167   1.520   1.215  11.410  0.5120  0.2891  0.8980
  478TMC3     H 7168   1.365   1.564  11.452  0.0709 -1.1677 -0.1177
  478TMC3    H1 7169   1.387   1.209  11.206 -1.0683 -0.6985  1.1754
  478TMC3    H2 7170   1.153   1.549  11.094 -0.5605 -1.0723  0.6567
  478TMC3    C7 7171   1.201   1.295  11.040  0.8925  0.9319  0.4654
  478TMC3    C8 7172   1.149   1.619  11.355  1.1997 -0.1662 -0.3451
  478TMC3    O1 7173   1.179   1.180  11.064  0.2122 -0.2051 -0.0367
  478TMC3    O2 7174   1.138   1.578  11.470  0.2109 -0.0647 -0.1297
  479MPD2     C 7175   4.691   3.117  14.757  0.2118  0.6350 -0.7672
  479MPD2    C1 7176   4.643   3.040  14.851 -0.0338  0.9475 -0.1053
  479MPD2    C2 7177   4.695   3.040  14.982  0.0698  0.1012  0.5416
  479MPD2    C3 7178   0.052   3.135  15.020  0.4364 -0.0248 -0.8935
  479MPD2    C4 7179   0.093   3.227  14.926  0.3342 -0.3041  0.9059
  479MPD2    C5 7180   0.048   3.210  14.801 -0.0570 -0.5854 -0.1332
  479MPD2     H 7181   4.674   2.957  15.048 -2.5481 -0.6450 -1.2172
  479MPD2    H1 7182   0.153   3.315  14.947  1.2402 -0.9529  1.0245
  479MPD2    H2 7183   4.661   3.109  14.654 -2.7584  1.6885  0.0146
  479MPD2    H3 7184   0.084   3.282  14.728  1.6094  0.7342  2.0094
  479MPD2     N 7185   0.102   3.150  15.150 -0.7137 -0.2503  0.1169
  479MPD2    H5 7186   0.181   3.214  15.152 -0.6223 -0.4323  2.7670
  479MPD2    N1 7187   4.542   2.952  14.808  0.4050  0.0770 -0.2266
  479MPD2    H7 7188   4.521   2.959  14.709  0.7729  1.2801 -0.2102
  480TMC3    C1 7189   4.541   2.869  15.392  0.3703  0.2842  0.5411
  480TMC3    C2 7190   4.427   2.914  15.327 -0.2546 -0.5403 -0.1249
  480TMC3    C3 7191   4.437   3.031  15.263  0.3567 -0.6994 -0.7720
  480TMC3    C4 7192   4.661   2.931  15.367  0.5213  0.1824 -0.3634
  480TMC3    C5 7193   4.667   3.040  15.286  0.4884  0.6149 -0.6449
  480TMC3    C6 7194   4.555   3.099  15.229  0.2387  0.0277  0.5111
  480TMC3     C 7195   4.539   2.759  15.487 -0.0651 -0.2785 -0.2634
  480TMC3     O 7196   4.640   2.697  15.520 -0.4385  0.4484 -0.5252
  480TMC3     H 7197   4.331   2.864  15.333 -0.1084 -0.5940  1.6978
  480TMC3    H1 7198   0.014   2.906  15.425 -0.2454 -1.0892  0.2582
  480TMC3    H2 7199   4.562   3.195  15.181 -1.3775  1.9085  4.0438
  480TMC3    C7 7200   0.061   3.094  15.269  0.2206 -0.1621 -0.0813
  480TMC3    C8 7201   4.314   3.072  15.197 -0.5063  0.1111  0.2293
  480TMC3    O1 7202   0.128   3.107  15.369 -0.2865  0.3632 -0.3563
  480TMC3    O2 7203   4.208   3.031  15.242  0.5213 -0.0852  0.9249
  481MPD2     C 7204   1.565   2.745  13.967 -0.3000  1.0412  0.4843
  481MPD2    C1 7205   1.454   2.669  14.010  0.3349 -0.8736 -0.0755
  481MPD2    C2 7206   1.455   2.606  14.133  0.5172 -0.1695 -0.2753
  481MPD2    C3 7207   1.569   2.620  14.212  0.5388 -0.2147 -0.3668
  481MPD2    C4 7208   1.671   2.709  14.181 -0.0177  0.4305  0.7721
  481MPD2    C5 7209   1.666   2.774  14.062  0.5428 -0.2851 -0.0506
  481MPD2     H 7210   1.363   2.562  14.169  1.3820 -1.4829  0.3317
  481MPD2    H1 7211   1.758   2.726  14.244  1.4725  2.1066 -1.7304
  481MPD2    H2 7212   1.567   2.787  13.868 -0.7188 -1.1711 -0.4644
  481MPD2    H3 7213   1.753   2.823  14.022  0.2359 -0.3041 -0.7446
  481MPD2     N 7214   1.591   2.553  14.330 -0.8671  0.6383  0.0742
  481MPD2    H5 7215   1.670   2.583  14.387 -1.6025  1.7886  0.4838
  481MPD2    N1 7216   1.339   2.670  13.921 -0.3226 -0.0134  0.6195
  481MPD2    H7 7217   1.355   2.715  13.832 -1.1734 -1.1127 -0.0963
  482TMC3    C1 7218   1.142   2.626  13.834 -0.1660  0.2238 -0.4152
  482TMC3    C2 7219   1.049   2.524  13.805 -1.7076 -0.6886 -0.5233
  482TMC3    C3 7220   0.966   2.550  13.695 -0.1448  0.6189  0.5005
  482TMC3    C4 7221   1.153   2.743  13.766  0.2331  0.6160 -1.0186
  482TMC3    C5 7222   1.060   2.764  13.673 -0.2340 -0.2651 -0.3561
  482TMC3    C6 7223   0.974   2.671  13.630 -0.2173  0.0155 -0.3979
  482TMC3     C 7224   1.224   2.607  13.947  0.1649 -0.4128 -0.3060
  482TMC3     O 7225   1.203   2.516  14.024  0.6571 -0.8057 -0.0647
  482TMC3     H 7226   1.049   2.433  13.863 -0.6640 -2.0397 -2.6779
  482TMC3    H1 7227   1.214   2.829  13.790  1.2749 -1.1115  2.5206
  482TMC3    H2 7228   0.916   2.690  13.540  1.0963  2.5606 -0.7050
  482TMC3    C7 7229   1.079   2.876  13.583  0.4013 -0.6974  0.2120
  482TMC3    C8 7230   0.894   2.440  13.652 -0.0983  0.5588  0.7522
  482TMC3    O1 7231   1.011   2.978  13.596 -0.3328  0.2035 -0.0021
  482TMC3    O2 7232   0.944   2.330  13.667  0.1349  0.0571 -0.1829
  483TMC3    C1 7233   4.437   1.451   0.450  1.1934 -1.2560  0.4689
  483TMC3    C2 7234   4.477   1.488   0.323 -0.0429 -0.2172 -0.4459
  483TMC3    C3 7235   4.607   1.493   0.294 -0.0255 -0.2336  0.0015
  483TMC3    C4 7236   4.531   1.407   0.543  0.4986  0.5171  1.0553
  483TMC3    C5 7237   4.665   1.408   0.509 -0.5366  0.2505  0.1766
  483TMC3    C6 7238   4.701   1.450   0.384  0.2741  0.0558 -0.7175
  483TMC3     C 7239   4.295   1.434   0.477  0.9142 -0.3006  0.5115
  483TMC3     O 7240   4.225   1.513   0.421  0.4121 -0.3221  0.0351
  483TMC3     H 7241   4.403   1.528   0.255  0.0707 -0.2877 -0.6109
  483TMC3    H1 7242   4.496   1.366   0.637  0.4345  0.5650  1.0522
  483TMC3    H2 7243   0.069   1.455   0.352  0.7975 -2.0957  0.6158
  483TMC3    C7 7244   0.025   1.339   0.591 -0.6460 -0.2456 -0.0412
  483TMC3    C8 7245   4.635   1.605   0.199  0.3125  0.6223 -0.2178
  483TMC3    O1 7246   0.140   1.334   0.550  0.3409 -0.1302  0.0211
  483TMC3    O2 7247   4.549   1.660   0.136 -0.1872 -0.4963  0.3040
  484MPD2     C 7248   2.130   0.064  12.282 -0.3396  0.6453 -0.5159
  484MPD2    C1 7249   2.164   4.690  12.199  0.1247  0.0319 -0.5296
  484MPD2    C2 7250   2.296   4.675  12.156  0.3741 -0.5971  0.6348
  484MPD2    C3 7251   2.392   0.032  12.204 -0.4966 -0.6162  0.3489
  484MPD2    C4 7252   2.350   0.134  12.291 -0.2005  1.0604  0.5623
  484MPD2    C5 7253   2.226   0.152  12.326  0.1898 -0.2272 -0.1122
  484MPD2     H 7254   2.326   4.593  12.092  2.1225 -1.0421  2.0149
  484MPD2    H1 7255   2.423   0.199  12.339  0.8796  0.0408  0.2841
  484MPD2    H2 7256   2.032   0.073  12.327  0.0071 -0.8160  0.5306
  484MPD2    H3 7257   2.197   0.231  12.394 -0.4055  0.4663 -1.1603
  484MPD2     N 7258   2.523   0.018  12.172  0.5474  0.1582  0.0834
  484MPD2    H5 7259   2.589   0.075  12.222  2.6350 -1.7863 -0.4780
  484MPD2    N1 7260   2.069   4.590  12.192  0.0615 -0.4707 -0.5750
  484MPD2    H7 7261   1.974   4.607  12.224  0.5991  0.3983  0.5502
  485TMC3    C1 7262   2.719   4.698  12.053  0.0051  0.1456 -0.3545
  485TMC3    C2 7263   2.788   4.730  12.169 -0.0936 -0.6275  0.2524
  485TMC3    C3 7264   2.902   0.070  12.155 -0.7075  0.6589  0.0319
  485TMC3    C4 7265   2.762   4.725  11.926 -0.8436  0.8928 -0.2318
  485TMC3    C5 7266   2.878   0.055  11.913 -0.5348 -0.3324 -0.1611
  485TMC3    C6 7267   2.946   0.093  12.027  0.0614  0.1141 -0.9738
  485TMC3     C 7268   2.575   4.688  12.063 -0.3492 -0.3031 -0.0925
  485TMC3     O 7269   2.512   4.640  11.970 -0.6024 -0.7086  0.5400
  485TMC3     H 7270   2.749   4.711  12.268  0.5705 -1.3353  0.3812
  485TMC3    H1 7271   2.698   4.714  11.839 -1.5539 -1.1267  0.5418
  485TMC3    H2 7272   3.035   0.154  12.011  0.5118 -0.6616 -1.4439
  485TMC3    C7 7273   2.963   4.734  11.811 -0.1048 -0.3655 -1.4629
  485TMC3    C8 7274   2.999   0.014  12.241 -0.5453  0.5725  0.0853
  485TMC3    O1 7275   3.084   4.731  11.836  0.0233 -0.3614  0.4653
  485TMC3    O2 7276   2.971   4.720  12.357 -0.8388  0.2402 -0.3214
  486MPD2     C 7277   4.250   2.762  12.010  0.4751 -1.3624  0.1875
  486MPD2    C1 7278   4.238   2.843  12.119 -0.1191  0.6066  0.6591
  486MPD2    C2 7279   4.225   2.982  12.103 -0.1561  0.0099  0.1254
  486MPD2    C3 7280   4.211   3.031  11.972 -1.3582 -0.0090  0.5008
  486MPD2    C4 7281   4.222   2.947  11.865 -0.8583 -0.5812  0.1684
  486MPD2    C5 7282   4.240   2.815  11.884  0.1561 -0.1404  0.0458
  486MPD2     H 7283   4.216   3.057  12.181 -1.1432 -1.2816  1.2517
  486MPD2    H1 7284   4.214   2.985  11.764  0.0871  0.8116  0.6222
  486MPD2    H2 7285   4.245   2.655  12.021  1.3317 -1.5524 -1.2156
  486MPD2    H3 7286   4.246   2.746  11.801 -0.1007  0.3246 -0.3597
  486MPD2     N 7287   4.185   3.170  11.961  0.1604 -0.4549 -0.0572
  486MPD2    H5 7288   4.182   3.217  12.051  0.6163 -1.3499  0.4292
  486MPD2    N1 7289   4.220   2.774  12.240  0.1907  0.4178  0.0983
  486MPD2    H7 7290   4.241   2.675  12.242  3.3166  1.1119  1.2243
  487TMC3    C1 7291   4.170   2.745  12.473  0.0808 -0.6680  0.0432
  487TMC3    C2 7292   4.236   2.628  12.473  0.2032 -0.2393 -0.5194
  487TMC3    C3 7293   4.235   2.540  12.582  0.4620 -0.4361 -0.6549
  487TMC3    C4 7294   4.099   2.777  12.588  0.2198  0.0463  0.5338
  487TMC3    C5 7295   4.101   2.700  12.700 -0.0103  0.0168 -0.4030
  487TMC3    C6 7296   4.173   2.577  12.698 -0.5734 -0.3329  0.2623
  487TMC3     C 7297   4.166   2.834  12.357 -0.3729  0.1131  0.5199
  487TMC3     O 7298   4.134   2.952  12.374  0.5456  0.0000  0.0205
  487TMC3     H 7299   4.293   2.589  12.389 -0.3556 -2.2923  0.0685
  487TMC3    H1 7300   4.037   2.865  12.580 -1.0388 -0.6218  2.9639
  487TMC3    H2 7301   4.180   2.504  12.778 -2.7591 -1.8314 -0.9201
  487TMC3    C7 7302   4.010   2.720  12.813  0.2759 -0.2070 -0.0883
  487TMC3    C8 7303   4.332   2.434  12.577 -0.0933 -0.3053  0.7737
  487TMC3    O1 7304   4.013   2.638  12.903 -0.0859  0.1269  0.5088
  487TMC3    O2 7305   4.446   2.469  12.550 -0.0924  1.1393 -0.1797
  488MPD2     C 7306   4.116   4.694  15.846  0.2549  0.2452 -0.2859
  488MPD2    C1 7307   4.179   0.059  15.922  0.8811  0.4360  0.5130
  488MPD2    C2 7308   4.195   0.036  16.056 -0.4150  0.1289  0.0823
  488MPD2    C3 7309   4.151   4.651  16.119  0.3167  0.4473 -0.1557
  488MPD2    C4 7310   4.091   4.549  16.039 -0.3989 -0.0155  0.1475
  488MPD2    C5 7311   4.065   4.582  15.906 -0.2618  0.2248  0.1096
  488MPD2     H 7312   4.237   0.109  16.125  1.8656 -0.4358 -0.7109
  488MPD2    H1 7313   4.051   4.460  16.088  2.4711 -1.8219 -0.7896
  488MPD2    H2 7314   4.106   4.694  15.738  0.7032  1.7849 -0.3285
  488MPD2    H3 7315   4.014   4.510  15.843  0.2177  0.4453 -0.5320
  488MPD2     N 7316   4.183   4.638  16.251  0.0620  0.6255 -0.9916
  488MPD2    H5 7317   4.213   4.725  16.294  2.2911  0.2275 -1.7289
  488MPD2    N1 7318   4.243   0.170  15.861  0.8234  0.1429  0.4672
  488MPD2    H7 7319   4.302   0.233  15.915  1.3846  1.9069 -2.1690
  489TMC3    C1 7320   4.235   4.539  16.458 -0.1353 -0.5130 -0.2159
  489TMC3    C2 7321   4.307   4.650  16.489  0.1314 -0.0792  0.1785
  489TMC3    C3 7322   4.315   4.681  16.621  0.1248  0.2691  0.0891
  489TMC3    C4 7323   4.177   4.454  16.555  0.7482 -0.0465 -0.3343
  489TMC3    C5 7324   4.172   4.503  16.685 -0.5504 -0.2237 -0.4947
  489TMC3    C6 7325   4.240   4.618  16.713  0.2362  0.0814 -0.0632
  489TMC3     C 7326   4.170   4.526  16.327 -0.5845 -0.1523 -0.0317
  489TMC3     O 7327   4.115   4.418  16.304  0.7397 -0.2905  0.3488
  489TMC3     H 7328   4.362   4.710  16.417  2.5709 -1.1015  1.2309
  489TMC3    H1 7329   4.119   4.368  16.526 -1.4632  0.6875  1.9114
  489TMC3    H2 7330   4.231   4.655  16.815 -1.8458  0.4259 -0.3607
  489TMC3    C7 7331   4.083   4.445  16.793 -0.1832 -0.5127 -0.9026
  489TMC3    C8 7332   4.362   0.078  16.657  0.1914 -0.1895  0.3498
  489TMC3    O1 7333   4.125   4.453  16.908  0.0584 -0.3009 -0.3059
  489TMC3    O2 7334   4.453   0.114  16.581 -0.5280  0.5860 -0.6218
  490MPD2     C 7335   0.200   4.337  16.513  0.3024  0.4003  0.5773
  490MPD2    C1 7336   0.209   4.302  16.650 -0.3611  0.0785 -0.0693
  490MPD2    C2 7337   0.313   4.354  16.725 -0.2124 -0.0492  0.1281
  490MPD2    C3 7338   0.413   4.438  16.672 -0.0280 -0.3930 -0.0881
  490MPD2    C4 7339   0.419   4.448  16.532  0.2549  0.3737  0.7224
  490MPD2    C5 7340   0.308   4.399  16.461 -0.0224 -0.2726 -0.6720
  490MPD2     H 7341   0.320   4.331  16.831 -0.8244 -0.2690  0.1189
  490MPD2    H1 7342   0.491   4.495  16.467 -1.0298  0.8029 -0.4079
  490MPD2    H2 7343   0.114   4.316  16.450  0.0245 -1.4558  1.5564
  490MPD2    H3 7344   0.306   4.399  16.353 -1.3018 -1.4835 -0.6555
  490MPD2     N 7345   0.521   4.490  16.749 -0.1417 -0.1079  0.3252
  490MPD2    H5 7346   0.598   4.529  16.694  0.9556 -0.9782  1.2425
  490MPD2    N1 7347   0.112   4.205  16.693  0.1706 -0.0065  0.5589
  490MPD2    H7 7348   0.049   4.168  16.624 -0.1916  1.2176  0.2268
  491TMC3    C1 7349   0.021   4.043  16.833 -0.0683  0.1334  0.1170
  491TMC3    C2 7350   0.020   4.011  16.962  0.6107  0.1633 -0.0648
  491TMC3    C3 7351   0.033   3.879  16.995  0.0717 -0.0282  0.2456
  491TMC3    C4 7352   0.039   3.948  16.727  0.4060 -0.0057  0.3291
  491TMC3    C5 7353   0.061   3.819  16.773 -0.1864  0.6545 -0.2361
  491TMC3    C6 7354   0.049   3.779  16.906  0.3379  0.4261  0.0889
  491TMC3     C 7355   0.096   4.161  16.822  0.7212  0.0244  0.0979
  491TMC3     O 7356   0.139   4.199  16.929  0.0600  0.0416  0.4567
  491TMC3     H 7357   4.720   4.082  17.036  0.9380  0.1381  0.1142
  491TMC3    H1 7358   0.052   3.965  16.620  0.0064 -0.0402  0.2762
  491TMC3    H2 7359   0.052   3.674  16.930 -1.0158 -0.1052 -2.0412
  491TMC3    C7 7360   0.069   3.717  16.673 -0.1138  0.6064  0.0731
  491TMC3    C8 7361   4.702   3.838  17.120 -0.0344  1.0577  0.5718
  491TMC3    O1 7362   4.718   3.727  16.586 -0.2771  0.2559 -0.1389
  491TMC3    O2 7363   4.635   3.736  17.123 -0.0792  0.0266 -0.3691
  492MPD2     C 7364   1.078   0.001  11.259 -0.0637  0.0230 -0.0351
  492MPD2    C1 7365   1.045   4.619  11.192  0.1340 -0.3601  0.3095
  492MPD2    C2 7366   0.972   4.525  11.266  0.3422  0.5959 -0.5309
  492MPD2    C3 7367   0.938   4.544  11.401  1.2448  0.0225  0.0236
  492MPD2    C4 7368   0.956   4.671  11.452 -0.4088 -0.0800 -0.1013
  492MPD2    C5 7369   1.035   0.026  11.386 -1.2769 -1.0512 -0.0569
  492MPD2     H 7370   0.960   4.427  11.220 -0.1948 -0.1331  1.1514
  492MPD2    H1 7371   0.920   4.698  11.551  0.9789  0.0598  0.3650
  492MPD2    H2 7372   1.143   0.073  11.209 -3.6113  2.8485 -0.6122
  492MPD2    H3 7373   1.042   0.121  11.438 -2.2800 -1.4363  0.7755
  492MPD2     N 7374   0.888   4.436  11.485 -0.1877 -0.5936  0.4737
  492MPD2    H5 7375   0.875   4.452  11.584 -0.2375  1.8036  0.0856
  492MPD2    N1 7376   1.081   4.603  11.052 -1.0638  0.1195  0.6164
  492MPD2    H7 7377   1.163   4.656  11.022  0.1612 -1.8532  0.4804
  493TMC3    C1 7378   1.088   4.486  10.847  0.3513  0.2488 -0.1455
  493TMC3    C2 7379   1.134   4.596  10.781 -0.2094  0.3336  0.3870
  493TMC3    C3 7380   1.179   4.566  10.659 -0.1740 -0.4131 -0.3033
  493TMC3    C4 7381   1.092   4.360  10.804  0.0152  0.0146 -0.0783
  493TMC3    C5 7382   1.139   4.337  10.686  0.0365  0.1802 -0.7888
  493TMC3    C6 7383   1.191   4.440  10.613  0.4662 -0.2099  0.5355
  493TMC3     C 7384   1.024   4.505  10.971  0.0542 -0.4354 -0.1526
  493TMC3     O 7385   0.918   4.444  10.988 -0.6226 -0.2041 -0.5958
  493TMC3     H 7386   1.108   4.695  10.818 -0.4990  0.2099  0.5191
  493TMC3    H1 7387   1.045   4.274  10.850  0.8170 -1.2875 -1.6987
  493TMC3    H2 7388   1.216   4.433  10.508  0.5734 -1.9271  0.6841
  493TMC3    C7 7389   1.082   4.233  10.602  0.1101 -1.1942 -0.4391
  493TMC3    C8 7390   1.138   4.661  10.556  0.6237  0.5619 -1.3083
  493TMC3    O1 7391   1.075   4.252  10.480  0.1870  0.1896  0.4520
  493TMC3    O2 7392   1.055   4.623  10.474  0.7664 -0.0525 -0.5319
  494TMC3    C1 7393   0.987   1.021   0.223 -0.0057  0.0763 -0.4332
  494TMC3    C2 7394   0.976   0.892   0.185 -0.3352  0.2389 -0.3373
  494TMC3    C3 7395   1.087   0.835   0.131  0.1950 -0.3627  0.2044
  494TMC3    C4 7396   1.106   1.081   0.237  0.6902 -0.6228  0.8628
  494TMC3    C5 7397   1.213   1.028   0.174  0.4622 -0.0587 -0.0607
  494TMC3    C6 7398   1.204   0.906   0.124 -0.0445 -0.6125 -0.0386
  494TMC3     C 7399   0.874   1.085   0.289 -0.1092  0.0825 -0.1589
  494TMC3     O 7400   0.901   1.158   0.382 -0.0284  0.1268 -0.1156
  494TMC3     H 7401   0.879   0.846   0.170  0.7055 -1.5077 -1.6055
  494TMC3    H1 7402   1.106   1.183   0.273  1.7381 -0.0452 -0.7460
  494TMC3    H2 7403   1.288   0.869   0.066 -0.3105  0.3785 -1.0469
  494TMC3    C7 7404   1.294   1.120   0.107 -0.1575 -0.6752 -0.6330
  494TMC3    C8 7405   1.097   0.689   0.130 -0.3942  0.3232 -0.3806
  494TMC3    O1 7406   1.306   1.101  17.732 -0.4776 -0.2121 -0.0859
  494TMC3    O2 7407   1.212   0.648   0.142  0.3170 -0.8202 -0.1831
  495TMC3    C1 7408   4.634   3.334  14.352  0.4492  0.2168  0.5473
  495TMC3    C2 7409   4.566   3.401  14.255 -0.2819  0.0579  0.0702
  495TMC3    C3 7410   4.445   3.454  14.287  1.0249 -0.2905 -0.8730
  495TMC3    C4 7411   4.594   3.324  14.480 -0.8328 -0.0619  0.0301
  495TMC3    C5 7412   4.476   3.388  14.510  0.6084 -0.1941  0.5724
  495TMC3    C6 7413   4.393   3.443  14.414  0.3318  0.5332 -0.2519
  495TMC3     C 7414   4.704   3.211  14.307 -0.4253 -0.7791 -0.4537
  495TMC3     O 7415   4.705   3.122  14.393  0.0234 -0.9176  0.2402
  495TMC3     H 7416   4.622   3.429  14.167 -3.3244 -0.7850 -2.1044
  495TMC3    H1 7417   4.658   3.280  14.557  0.3142  0.2772 -0.7320
  495TMC3    H2 7418   4.298   3.495  14.428  1.2828  1.9589  0.8725
  495TMC3    C7 7419   4.434   3.374  14.646  0.2502  0.4010 -0.6026
  495TMC3    C8 7420   4.355   3.489  14.180  0.1025  0.4756  0.3611
  495TMC3    O1 7421   4.520   3.369  14.732 -0.0505 -0.2944 -0.1915
  495TMC3    O2 7422   4.245   3.534  14.211  0.0169 -0.1483  0.0084
  496MPD2     C 7423   1.881   3.073  14.407 -0.1570  0.4121  0.6040
  496MPD2    C1 7424   1.887   3.138  14.527  0.6042 -0.0381  0.3346
  496MPD2    C2 7425   1.798   3.100  14.626 -0.0555 -0.1616  0.1016
  496MPD2    C3 7426   1.687   3.014  14.606 -0.1165 -0.6916 -0.3573
  496MPD2    C4 7427   1.676   2.959  14.483 -0.0927 -0.8946 -0.4797
  496MPD2    C5 7428   1.775   2.980  14.389 -0.3369 -0.9999  0.2269
  496MPD2     H 7429   1.812   3.143  14.724 -0.5059  1.2776 -0.4696
  496MPD2    H1 7430   1.588   2.899  14.462 -0.2803  0.2125 -2.8528
  496MPD2    H2 7431   1.960   3.082  14.333  0.6141  0.2278  1.3976
  496MPD2    H3 7432   1.764   2.919  14.300  0.6795  0.5445 -0.9485
  496MPD2     N 7433   1.585   2.990  14.697  0.1959 -0.0817  0.4184
  496MPD2    H5 7434   1.508   2.929  14.671 -0.5677  0.9053  0.3361
  496MPD2    N1 7435   2.009   3.207  14.558  0.0520  0.5762 -0.7533
  496MPD2    H7 7436   2.082   3.193  14.489  0.3084 -0.1083 -0.3434
  497TMC3    C1 7437   1.453   3.020  14.889 -1.2334 -0.1819  0.2000
  497TMC3    C2 7438   1.345   2.976  14.821 -0.4607 -0.3769  0.3487
  497TMC3    C3 7439   1.229   2.946  14.885 -0.4135  0.0051  0.5611
  497TMC3    C4 7440   1.432   3.072  15.016 -0.3939  0.6572 -0.2063
  497TMC3    C5 7441   1.308   3.060  15.075 -0.5623 -0.1523 -0.2967
  497TMC3    C6 7442   1.204   2.994  15.015  0.6961 -0.4672  0.3254
  497TMC3     C 7443   1.574   3.051  14.826 -1.0084  0.1937  0.7377
  497TMC3     O 7444   1.652   3.114  14.895  0.3644 -0.7173 -0.1837
  497TMC3     H 7445   1.359   2.953  14.716 -0.8079  2.4420 -0.3179
  497TMC3    H1 7446   1.506   3.131  15.068 -0.6660 -0.3733  1.3322
  497TMC3    H2 7447   1.104   2.980  15.053  0.2452  1.7576 -0.0284
  497TMC3    C7 7448   1.280   3.145  15.197 -0.1680  0.1332  0.1738
  497TMC3    C8 7449   1.129   2.885  14.801 -0.3899 -0.4787 -0.0270
  497TMC3    O1 7450   1.164   3.163  15.223 -0.3241 -0.4404  0.5384
  497TMC3    O2 7451   1.116   2.935  14.692  0.0543 -0.0478 -0.3635
  498MPD2     C 7452   3.439   4.366   9.648  0.2771 -0.6705  0.2246
  498MPD2    C1 7453   3.398   4.377   9.777  0.0017 -0.0585 -0.2092
  498MPD2    C2 7454   3.301   4.288   9.821 -0.1665 -0.3449 -0.2273
  498MPD2    C3 7455   3.244   4.197   9.741 -0.1192 -0.6581  0.2096
  498MPD2    C4 7456   3.281   4.182   9.609  0.5208  0.6364 -0.3485
  498MPD2    C5 7457   3.385   4.266   9.563  0.0345 -0.1543  0.2604
  498MPD2     H 7458   3.269   4.298   9.925  0.5764 -1.4133  0.0994
  498MPD2    H1 7459   3.246   4.100   9.547  1.2527 -0.9157  1.2772
  498MPD2    H2 7460   3.511   4.435   9.607 -0.5033  0.0896  0.1289
  498MPD2    H3 7461   3.408   4.269   9.458 -1.0299 -0.7658  0.0178
  498MPD2     N 7462   3.147   4.115   9.807 -0.9760  0.4862  0.2578
  498MPD2    H5 7463   3.133   4.121   9.907 -0.5544 -0.1502  0.3526
  498MPD2    N1 7464   3.444   4.477   9.867  0.4077  0.2241 -0.2143
  498MPD2    H7 7465   3.411   4.464   9.963  1.0602 -1.4513 -0.2155
  499TMC3    C1 7466   3.588   4.638   9.957 -0.4201 -0.3997  0.1852
  499TMC3    C2 7467   3.586   4.565  10.075  0.4345  0.1791  0.3977
  499TMC3    C3 7468   3.660   4.626  10.175  0.6021 -0.6360 -0.3236
  499TMC3    C4 7469   3.679   4.734   9.937 -0.6332  0.0212 -0.0517
  499TMC3    C5 7470   3.775   0.030  10.030  0.1209 -0.1473 -0.0068
  499TMC3    C6 7471   3.760   4.716  10.154  0.1851 -0.4941 -0.3634
  499TMC3     C 7472   3.523   4.585   9.841 -0.0505 -0.4063 -0.3874
  499TMC3     O 7473   3.528   4.635   9.727  0.0822 -0.3454 -0.1668
  499TMC3     H 7474   3.511   4.495  10.109  0.8049 -0.0530  0.7331
  499TMC3    H1 7475   3.685   0.047   9.839  0.2410  0.5177  0.2481
  499TMC3    H2 7476   3.805   0.032  10.238  2.6041 -1.4979 -1.0533
  499TMC3    C7 7477   3.908   0.050   9.976 -0.1230  0.8480  0.8325
  499TMC3    C8 7478   3.606   4.621  10.309  0.4603 -0.0574  0.3735
  499TMC3    O1 7479   3.919   0.082   9.859 -0.0492  1.2160  0.2159
  499TMC3    O2 7480   3.495   4.573  10.316 -0.0984  0.2213  0.4907
  500MPD2     C 7481   0.244   0.673  10.326  0.0696  0.1056  0.0942
  500MPD2    C1 7482   0.276   0.725  10.200 -0.4641  0.1739  0.4121
  500MPD2    C2 7483   0.174   0.751  10.110 -0.0484  0.1410 -0.0114
  500MPD2    C3 7484   0.041   0.712  10.133 -0.2359 -0.1397 -0.2111
  500MPD2    C4 7485   0.019   0.639  10.250  0.6477  0.7781 -0.5654
  500MPD2    C5 7486   0.120   0.626  10.343 -0.1718 -0.0987  0.0202
  500MPD2     H 7487   0.204   0.779  10.010  1.1120  1.6982  0.7656
  500MPD2    H1 7488   4.655   0.603  10.272  1.4950  0.0984  2.1392
  500MPD2    H2 7489   0.307   0.642  10.409 -0.6887 -0.3456  0.5025
  500MPD2    H3 7490   0.096   0.562  10.428  0.1476  1.4923  1.2948
  500MPD2     N 7491   4.671   0.731  10.044  0.0243  0.0260 -0.3534
  500MPD2    H5 7492   4.591   0.671  10.063  0.8821 -0.8221  0.5343
  500MPD2    N1 7493   0.404   0.768  10.156  0.0452  0.2692 -0.0064
  500MPD2    H7 7494   0.416   0.823  10.072  0.3499  2.5677  1.5504
  501TMC3    C1 7495   0.631   0.768  10.146 -1.0095 -0.4726  0.5553
  501TMC3    C2 7496   0.626   0.854  10.040  0.4885 -0.5867 -0.7651
  501TMC3    C3 7497   0.742   0.884   9.976  0.3232 -0.3186  0.6096
  501TMC3    C4 7498   0.755   0.731  10.204  0.0063  0.1924 -0.2078
  501TMC3    C5 7499   0.872   0.776  10.142  0.1876  0.0021  0.3195
  501TMC3    C6 7500   0.869   0.853  10.030 -0.1733  0.0425 -0.2402
  501TMC3     C 7501   0.519   0.742  10.230 -0.0293 -0.0617  0.7979
  501TMC3     O 7502   0.536   0.679  10.332 -0.4620  0.0935 -0.1103
  501TMC3     H 7503   0.540   0.914  10.014 -0.1324 -0.6220  1.2088
  501TMC3    H1 7504   0.759   0.669  10.292 -1.5335  1.4071  0.7187
  501TMC3    H2 7505   0.958   0.868   9.970  0.3550  1.6339  0.9640
  501TMC3    C7 7506   0.986   0.769  10.227  0.1402 -0.1862 -0.8568
  501TMC3    C8 7507   0.747   1.000   9.896 -0.4916  0.1103  0.4060
  501TMC3    O1 7508   0.975   0.688  10.318  0.2560  0.5286  1.0194
  501TMC3    O2 7509   0.710   0.995   9.782  0.2403  0.5596  0.1809
  502TMC3    C1 7510   4.113   4.489  14.534  0.5142 -0.3037  0.0428
  502TMC3    C2 7511   4.083   4.617  14.553  0.1050  0.3444  0.8957
  502TMC3    C3 7512   3.956   4.659  14.580 -0.0891  0.1080  0.1237
  502TMC3    C4 7513   4.015   4.392  14.544 -0.9629 -0.0091  0.4637
  502TMC3    C5 7514   3.889   4.425  14.580 -0.3696  0.2124 -0.2945
  502TMC3    C6 7515   3.862   4.561  14.600 -0.2512 -0.4740 -0.9144
  502TMC3     C 7516   4.221   4.450  14.624 -0.1350 -0.2222 -0.0870
  502TMC3     O 7517   4.303   4.537  14.649  0.1320  0.4837 -0.0373
  502TMC3     H 7518   4.161   4.690  14.535  0.7451 -0.4826  0.3294
  502TMC3    H1 7519   4.042   4.291  14.517  0.5982  0.8274 -1.0828
  502TMC3    H2 7520   3.760   4.591  14.623 -0.9682 -3.5084 -0.0901
  502TMC3    C7 7521   3.844   4.332  14.681  0.2987  0.4213  0.2651
  502TMC3    C8 7522   3.921   0.062  14.557  0.5356  0.3965  0.6552
  502TMC3    O1 7523   3.925   4.249  14.718 -0.4559  0.1175  0.0925
  502TMC3    O2 7524   4.011   0.131  14.511  0.1046  0.3050 -0.4316
  503MPD2     C 7525   0.985   0.172  16.884 -0.0301 -0.1055 -0.5866
  503MPD2    C1 7526   1.090   0.193  16.963  0.2424 -0.2607  0.2943
  503MPD2    C2 7527   1.176   0.094  17.005  0.0211  0.9340 -0.1671
  503MPD2    C3 7528   1.160   4.700  16.960  0.4468  0.4615 -0.2724
  503MPD2    C4 7529   1.049   4.669  16.891 -0.2057  0.3656  0.2152
  503MPD2    C5 7530   0.960   0.036  16.854  0.2832  1.1565 -0.2363
  503MPD2     H 7531   1.270   0.118  17.053  1.2639  0.9010 -2.5825
  503MPD2    H1 7532   1.025   4.577  16.839 -0.7505  0.1560  0.8427
  503MPD2    H2 7533   0.916   0.246  16.845 -0.1511 -0.5101 -1.1341
  503MPD2    H3 7534   0.871   0.016  16.795 -0.1835  1.0021  0.5056
  503MPD2     N 7535   1.269   4.612  16.981  0.1078  0.3272 -0.2143
  503MPD2    H5 7536   1.337   4.640  17.051 -2.0601  0.7578  1.7213
  503MPD2    N1 7537   1.141   0.326  16.998  0.4186 -0.3541 -0.6400
  503MPD2    H7 7538   1.201   0.326  17.080 -0.7533  0.7545  0.2093
  504TMC3    C1 7539   1.382   4.420  16.991  0.2413 -0.9355 -0.2038
  504TMC3    C2 7540   1.355   4.403  17.126  0.5084  0.0729  0.0556
  504TMC3    C3 7541   1.420   4.306  17.194 -0.4686 -0.0002  0.2030
  504TMC3    C4 7542   1.459   4.327  16.927  0.0731 -0.5761 -0.4042
  504TMC3    C5 7543   1.523   4.236  17.006  0.6134 -0.1785 -0.0990
  504TMC3    C6 7544   1.512   4.226  17.142 -0.3367 -0.2072 -0.2033
  504TMC3     C 7545   1.288   4.494  16.914 -0.1909 -1.0231  0.5895
  504TMC3     O 7546   1.259   4.456  16.801 -0.4791 -0.3967  0.3141
  504TMC3     H 7547   1.271   4.453  17.172  0.4053  1.0703 -1.2254
  504TMC3    H1 7548   1.457   4.316  16.819  1.2756  0.2240 -0.5112
  504TMC3    H2 7549   1.534   4.131  17.190 -1.3898  0.2096  1.1145
  504TMC3    C7 7550   1.643   4.186  16.944 -0.6067  0.2753  0.1904
  504TMC3    C8 7551   1.375   4.280  17.336  0.7172 -0.2677  0.0406
  504TMC3    O1 7552   1.647   4.155  16.826  0.5909  0.4528  0.3075
  504TMC3    O2 7553   1.261   4.315  17.366 -0.1557 -0.0137 -0.5226
  505MPD2     C 7554   2.452   3.490  10.683 -0.0858  0.5343  0.1212
  505MPD2    C1 7555   2.529   3.377  10.677  0.1668  0.6570 -0.3100
  505MPD2    C2 7556   2.649   3.373  10.750  0.1168  0.7043 -0.6856
  505MPD2    C3 7557   2.687   3.470  10.838  0.4573 -0.2521 -0.4656
  505MPD2    C4 7558   2.608   3.578  10.844  0.6046  0.3971  0.6722
  505MPD2    C5 7559   2.488   3.587  10.771 -0.1304  0.2073  0.2787
  505MPD2     H 7560   2.716   3.290  10.732  0.1282  0.5501  0.0939
  505MPD2    H1 7561   2.623   3.654  10.920 -0.6575  2.0140 -0.6943
  505MPD2    H2 7562   2.371   3.514  10.615 -0.2289 -0.0964  0.0720
  505MPD2    H3 7563   2.434   3.681  10.775 -0.4709  0.0415 -0.4541
  505MPD2     N 7564   2.819   3.460  10.884 -0.1359  0.4233 -0.0547
  505MPD2    H5 7565   2.867   3.376  10.855 -0.2786  0.1637  0.4560
  505MPD2    N1 7566   2.487   3.276  10.586 -0.1634  0.1380 -0.0821
  505MPD2    H7 7567   2.415   3.294  10.517 -0.3941  1.2799  0.4512
  506TMC3    C1 7568   2.510   3.058  10.472 -0.5679 -1.1522  0.1522
  506TMC3    C2 7569   2.502   3.095  10.343 -0.7374  0.2765  0.1035
  506TMC3    C3 7570   2.540   3.006  10.245  0.4869  0.6834  0.2044
  506TMC3    C4 7571   2.555   2.935  10.505 -0.3099  0.1287 -0.1897
  506TMC3    C5 7572   2.617   2.855  10.410 -0.6626 -0.9154 -0.8188
  506TMC3    C6 7573   2.602   2.893  10.278 -0.6554 -0.0559  0.0455
  506TMC3     C 7574   2.549   3.155  10.576 -0.3882 -0.0926 -0.0891
  506TMC3     O 7575   2.616   3.102  10.661  0.1139  0.4156  0.4503
  506TMC3     H 7576   2.480   3.197  10.314 -2.2237  0.0546  0.5020
  506TMC3    H1 7577   2.554   2.897  10.606 -0.9505 -1.2677 -0.7140
  506TMC3    H2 7578   2.664   2.847  10.203 -0.1223 -1.9607  1.6624
  506TMC3    C7 7579   2.753   2.821  10.437 -0.2611  0.1755 -0.1321
  506TMC3    C8 7580   2.558   3.053  10.106 -0.3648 -0.2290 -0.2992
  506TMC3    O1 7581   2.800   2.719  10.379  0.2708 -0.7788 -0.6626
  506TMC3    O2 7582   2.560   2.975  10.016 -0.2319 -0.6245  0.1967
  507TMC3    C1 7583   2.448   4.525  14.784  0.2889  0.4049 -0.2390
  507TMC3    C2 7584   2.408   4.424  14.691  0.0682 -0.7736 -0.3521
  507TMC3    C3 7585   2.498   4.383  14.599 -0.2252  0.7675  0.1327
  507TMC3    C4 7586   2.577   4.557  14.778  0.0841 -0.2560  0.2619
  507TMC3    C5 7587   2.664   4.523  14.682  0.5028  0.6548  0.1533
  507TMC3    C6 7588   2.624   4.430  14.592  0.2566  0.0672 -0.0997
  507TMC3     C 7589   2.366   4.618  14.848  0.6952  0.0459  0.2045
  507TMC3     O 7590   2.405   4.725  14.896  0.1489  0.1568 -0.3614
  507TMC3     H 7591   2.307   4.386  14.682 -0.2937 -0.0193  0.4950
  507TMC3    H1 7592   2.605   4.635  14.847 -1.4378 -1.1825  1.9369
  507TMC3    H2 7593   2.685   4.386  14.514  1.3562 -0.7660  1.2293
  507TMC3    C7 7594   2.706   4.641  14.607 -0.0931  0.1160 -0.0166
  507TMC3    C8 7595   2.442   4.378  14.466 -0.2791 -0.1406  0.2136
  507TMC3    O1 7596   2.690   4.637  14.486 -0.0285 -0.1861 -0.1315
  507TMC3    O2 7597   2.337   4.314  14.454  0.1392  0.4103 -0.0467
  508MPD2     C 7598   3.108   2.004  16.236 -0.3316 -0.1121  0.0422
  508MPD2    C1 7599   3.235   2.035  16.186  0.1756  0.1009 -0.5721
  508MPD2    C2 7600   3.248   2.112  16.072 -0.3503 -0.2885  0.1168
  508MPD2    C3 7601   3.138   2.163  16.011 -1.0805  0.0597 -0.0643
  508MPD2    C4 7602   3.012   2.132  16.060 -0.2053  0.1552 -0.6338
  508MPD2    C5 7603   3.003   2.058  16.165 -0.2141  0.1733 -0.1651
  508MPD2     H 7604   3.343   2.157  16.047 -1.5859  1.1775 -1.9206
  508MPD2    H1 7605   2.921   2.148  16.004 -0.4711 -1.8234 -0.7575
  508MPD2    H2 7606   3.094   1.941  16.323 -2.0436  0.6706  0.3415
  508MPD2    H3 7607   2.907   2.031  16.207 -0.1214 -1.0445 -0.7724
  508MPD2     N 7608   3.157   2.246  15.903  0.6581 -0.0806  0.1873
  508MPD2    H5 7609   3.247   2.244  15.855  1.9154  1.0216  2.4853
  508MPD2    N1 7610   3.345   1.992  16.266 -0.1949 -0.3723 -0.5810
  508MPD2    H7 7611   3.332   1.934  16.348  1.3464 -2.6563 -1.9622
  509TMC3    C1 7612   3.068   2.636  15.638  0.0863  0.1378 -0.1040
  509TMC3    C2 7613   3.198   2.645  15.605 -0.7970 -0.1290  0.1502
  509TMC3    C3 7614   3.289   2.564  15.666 -0.2565 -0.1962 -0.1205
  509TMC3    C4 7615   3.033   2.533  15.721 -0.2401  1.0354 -0.1328
  509TMC3    C5 7616   3.120   2.445  15.774  0.5053 -0.9141 -0.5361
  509TMC3    C6 7617   3.256   2.468  15.753 -0.1409 -0.0197  0.4718
  509TMC3     C 7618   2.955   2.695  15.563 -1.1685 -0.1205  0.3819
  509TMC3     O 7619   2.843   2.648  15.573  0.2098 -0.0881 -0.1801
  509TMC3     H 7620   3.230   2.726  15.541  0.5950 -2.6007 -2.2617
  509TMC3    H1 7621   2.927   2.516  15.735  0.0118 -0.4746 -0.0205
  509TMC3    H2 7622   3.338   2.410  15.794 -1.4974 -1.9754  0.4003
  509TMC3    C7 7623   3.062   2.341  15.857  0.3832  0.4820 -0.0263
  509TMC3    C8 7624   3.426   2.562  15.619 -0.2115  0.2195 -0.2283
  509TMC3    O1 7625   2.946   2.360  15.891 -0.5070  0.2473  0.0155
  509TMC3    O2 7626   3.474   2.452  15.603 -0.0334  0.0295  0.2716
  510MPD2     C 7627   1.161   3.908  14.201  1.0229 -0.3531 -0.2347
  510MPD2    C1 7628   1.224   3.811  14.276  0.1799  0.0822 -0.0415
  510MPD2    C2 7629   1.344   3.764  14.214 -0.6242 -0.0814 -0.2163
  510MPD2    C3 7630   1.411   3.829  14.107 -0.3076 -0.3884 -0.3653
  510MPD2    C4 7631   1.343   3.933  14.044  0.1444 -1.0557  0.3919
  510MPD2    C5 7632   1.218   3.971  14.088  0.5439 -0.3778  0.7114
  510MPD2     H 7633   1.405   3.693  14.269  0.6153  1.5077  0.4709
  510MPD2    H1 7634   1.388   3.983  13.959  0.9566 -1.4127  0.6166
  510MPD2    H2 7635   1.059   3.938  14.222  1.3308 -0.5549  1.5445
  510MPD2    H3 7636   1.153   4.044  14.042 -0.0080  0.1820  2.3611
  510MPD2     N 7637   1.526   3.778  14.055 -0.0477  0.1068 -0.5850
  510MPD2    H5 7638   1.572   3.710  14.114  0.4668  1.1696  0.2264
  510MPD2    N1 7639   1.163   3.746  14.389 -0.0980  0.3267 -0.4192
  510MPD2    H7 7640   1.209   3.665  14.427 -2.4632 -0.8065  0.0420
  511TMC3    C1 7641   1.005   3.696  14.552 -0.1133 -0.5004  0.4966
  511TMC3    C2 7642   0.931   3.748  14.647 -0.6636 -0.3734 -0.4562
  511TMC3    C3 7643   0.836   3.669  14.704  0.1125  0.4239  0.4309
  511TMC3    C4 7644   1.004   3.566  14.512  0.3085  0.3748  0.1942
  511TMC3    C5 7645   0.914   3.489  14.574 -0.1749 -0.4547  0.1654
  511TMC3    C6 7646   0.820   3.541  14.660 -0.0653  0.2160  1.0411
  511TMC3     C 7647   1.056   3.793  14.456 -0.4629  0.6847  0.4859
  511TMC3     O 7648   1.009   3.900  14.457  0.4677 -0.0151 -0.0722
  511TMC3     H 7649   0.943   3.852  14.677 -0.7290 -0.7892  1.0152
  511TMC3    H1 7650   1.075   3.521  14.443  1.1712 -0.2116  1.4611
  511TMC3    H2 7651   0.730   3.492  14.693 -0.1424 -0.6829 -0.5130
  511TMC3    C7 7652   0.892   3.357  14.506  0.1438  0.6115  0.8380
  511TMC3    C8 7653   0.739   3.738  14.790  0.2450  0.2345 -0.6919
  511TMC3    O1 7654   0.942   3.336  14.398  0.2465  0.4945  0.7129
  511TMC3    O2 7655   0.736   3.862  14.797  0.4971 -0.0541  0.7050
  512TMC3    C1 7656   4.588   3.163  13.049  0.0152 -0.2667 -0.2063
  512TMC3    C2 7657   4.728   3.164  13.045  0.0678  0.1710  0.3954
  512TMC3    C3 7658   0.060   3.045  13.047  0.0389 -0.0518 -0.5833
  512TMC3    C4 7659   4.516   3.044  13.049  0.0283  0.2559  0.2404
  512TMC3    C5 7660   4.587   2.928  13.053 -0.2206 -0.0496  0.7696
  512TMC3    C6 7661   4.724   2.927  13.047 -0.6896  0.1123 -0.1756
  512TMC3     C 7662   4.510   3.286  13.044  0.5004 -0.2360 -0.1805
  512TMC3     O 7663   4.397   3.282  12.992 -0.0675  0.2476  0.1821
  512TMC3     H 7664   0.042   3.260  13.041  1.1211 -0.3796  0.2307
  512TMC3    H1 7665   4.407   3.048  13.042  0.0453 -0.2578 -0.3037
  512TMC3    H2 7666   0.038   2.831  13.036 -0.8026  0.0837 -0.4219
  512TMC3    C7 7667   4.505   2.806  13.023 -0.2409 -0.0265  0.0933
  512TMC3    C8 7668   0.205   3.039  13.066 -0.0589 -0.4220  0.0349
  512TMC3    O1 7669   4.388   2.812  12.987  0.4197  0.2921 -0.2787
  512TMC3    O2 7670   0.257   2.929  13.055  0.0411  0.4190 -0.4242
  513MPD2     C 7671   2.430   3.194  12.494  0.2236  0.3190 -0.9438
  513MPD2    C1 7672   2.470   3.302  12.417 -0.7856  0.7733  0.4087
  513MPD2    C2 7673   2.505   3.425  12.473  0.3066  0.2854  1.4720
  513MPD2    C3 7674   2.501   3.439  12.610 -0.1588 -0.3054  0.2444
  513MPD2    C4 7675   2.455   3.328  12.688  0.6693 -0.2691  0.5860
  513MPD2    C5 7676   2.426   3.214  12.630 -0.5750 -0.7673 -0.2046
  513MPD2     H 7677   2.548   3.501  12.408  0.6302  0.7442  2.2199
  513MPD2    H1 7678   2.461   3.331  12.796  1.0887  1.6385  0.4967
  513MPD2    H2 7679   2.392   3.103  12.449  1.0644 -0.6587  0.3132
  513MPD2    H3 7680   2.386   3.129  12.685  1.8088 -0.0632  2.6121
  513MPD2     N 7681   2.560   3.561  12.657 -0.6206 -0.1999 -0.3063
  513MPD2    H5 7682   2.601   3.618  12.583 -1.5055 -0.2066 -0.7982
  513MPD2    N1 7683   2.497   3.302  12.278  0.0197  0.5734 -0.4862
  513MPD2    H7 7684   2.533   3.388  12.238 -1.6970  0.8018 -1.5446
  514TMC3    C1 7685   2.499   3.234  12.062  0.0622  0.3929 -0.2043
  514TMC3    C2 7686   2.404   3.280  11.981 -1.0420 -0.1700 -0.1846
  514TMC3    C3 7687   2.438   3.372  11.887  0.1728 -0.3460  0.4541
  514TMC3    C4 7688   2.626   3.286  12.055 -0.2121 -0.8365  0.2441
  514TMC3    C5 7689   2.655   3.385  11.966 -0.2699  0.2579  0.2937
  514TMC3    C6 7690   2.566   3.425  11.870 -0.3354 -0.2714  0.2185
  514TMC3     C 7691   2.458   3.197  12.197  0.3452  0.9426  0.3665
  514TMC3     O 7692   2.416   3.085  12.223  0.3714 -0.4328  0.4961
  514TMC3     H 7693   2.303   3.244  11.996 -1.2252  0.0869 -0.8013
  514TMC3    H1 7694   2.702   3.262  12.129 -2.5899 -0.3919  2.8425
  514TMC3    H2 7695   2.599   3.491  11.791  0.0059  1.0725  1.4713
  514TMC3    C7 7696   2.741   3.487  12.014 -0.6665  0.2140 -0.2353
  514TMC3    C8 7697   2.343   3.402  11.787  0.4976  0.6018 -0.4944
  514TMC3    O1 7698   2.809   3.456  12.112  0.5129 -0.6122  0.2717
  514TMC3    O2 7699   2.223   3.388  11.811  0.7874  0.3641  0.1269
  515MPD2     C 7700   0.313   4.415  14.449 -0.1208  0.8364  0.0867
  515MPD2    C1 7701   0.264   4.498  14.345 -0.0313  0.0519 -0.1675
  515MPD2    C2 7702   0.264   4.633  14.368  0.3282  0.1050 -0.3969
  515MPD2    C3 7703   0.324   4.678  14.492  0.1259  0.0021  0.1783
  515MPD2    C4 7704   0.374   4.601  14.588  0.0746 -0.0379  0.1102
  515MPD2    C5 7705   0.373   4.464  14.564  0.0068 -0.2460 -0.2300
  515MPD2     H 7706   0.218   4.706  14.302  0.4419  1.1298  0.6637
  515MPD2    H1 7707   0.429   4.651  14.667  2.2624 -0.2465 -1.2776
  515MPD2    H2 7708   0.337   4.311  14.432  1.2002  1.6783 -3.2149
  515MPD2    H3 7709   0.430   4.396  14.626  2.3997  1.4477 -0.5767
  515MPD2     N 7710   0.341   0.079  14.515 -0.4127 -0.8301 -0.1423
  515MPD2    H5 7711   0.364   0.106  14.610  0.4188  1.4411 -0.9913
  515MPD2    N1 7712   0.181   4.457  14.236 -0.0481  0.0669  0.1589
  515MPD2    H7 7713   0.151   4.526  14.169 -1.8596 -0.5661  0.3107
  516TMC3    C1 7714   0.047   4.323  14.106 -0.5915  0.4850 -0.5322
  516TMC3    C2 7715   4.699   4.425  14.071 -1.1010 -1.0703  0.4719
  516TMC3    C3 7716   4.597   4.396  13.977 -0.4765 -0.3726  1.0640
  516TMC3    C4 7717   0.029   4.196  14.053 -0.1525 -0.4958 -0.0079
  516TMC3    C5 7718   4.648   4.178  13.985 -0.0636 -0.1597 -0.9179
  516TMC3    C6 7719   4.567   4.275  13.939 -0.1659  0.0258  0.3664
  516TMC3     C 7720   0.151   4.330  14.206 -0.1426 -0.4233 -0.0246
  516TMC3     O 7721   0.187   4.220  14.252 -0.6552 -0.2532  0.4093
  516TMC3     H 7722   4.705   4.523  14.117 -0.6527 -1.5744  1.4835
  516TMC3    H1 7723   0.093   4.115  14.085  0.9984 -0.8885 -3.3191
  516TMC3    H2 7724   4.476   4.255  13.883 -1.0633  0.4249  1.6812
  516TMC3    C7 7725   4.598   4.044  13.999  0.1368 -0.5097 -0.5505
  516TMC3    C8 7726   4.536   4.502  13.906  0.0033  0.2824 -0.1069
  516TMC3    O1 7727   4.677   3.953  13.981  0.1580  0.0936  0.1589
  516TMC3    O2 7728   4.435   4.475  13.843  0.0055  0.9049  0.2694
  517MPD2     C 7729   4.366   1.694  16.806 -0.2180 -0.0844 -0.3145
  517MPD2    C1 7730   4.394   1.657  16.932  0.5143  0.2324 -0.0433
  517MPD2    C2 7731   4.409   1.758  17.026  0.3551  0.1413 -0.6260
  517MPD2    C3 7732   4.390   1.889  16.999  0.2555 -0.4480  0.1054
  517MPD2    C4 7733   4.366   1.922  16.868 -0.3886 -0.0244  0.0943
  517MPD2    C5 7734   4.348   1.826  16.775 -0.3190 -0.1109 -0.5088
  517MPD2     H 7735   4.442   1.722  17.122 -1.3873 -1.5431 -0.6690
  517MPD2    H1 7736   4.363   2.026  16.839 -0.0335 -0.0252  0.0531
  517MPD2    H2 7737   4.363   1.631  16.718 -1.3536  0.8561 -0.9443
  517MPD2    H3 7738   4.324   1.858  16.674 -0.8760  1.4556  0.1256
  517MPD2     N 7739   4.415   2.002  17.093 -0.3380  0.2451  0.5590
  517MPD2    H5 7740   4.434   2.094  17.054  0.1685 -0.1722 -0.1713
  517MPD2    N1 7741   4.410   1.523  16.975  0.0466  0.9369 -0.7160
  517MPD2    H7 7742   4.440   1.515  17.071 -0.8819 -2.1092 -0.6693
  518TMC3    C1 7743   4.490   1.304  16.965  0.2250 -0.3409  0.5118
  518TMC3    C2 7744   4.469   1.175  16.916 -0.3279  0.2886 -0.3267
  518TMC3    C3 7745   4.563   1.080  16.937 -0.1823  0.5000 -0.2129
  518TMC3    C4 7746   4.602   1.331  17.036 -0.3393  0.5461 -0.1786
  518TMC3    C5 7747   4.695   1.233  17.061  0.1730 -0.3327  0.5384
  518TMC3    C6 7748   4.676   1.106  17.005  0.0022 -0.0762 -0.5973
  518TMC3     C 7749   4.414   1.415  16.902  0.4557  0.4356  0.1207
  518TMC3     O 7750   4.380   1.398  16.784 -0.0731  0.3377 -0.1658
  518TMC3     H 7751   4.384   1.139  16.860 -0.1563 -0.3183 -0.2045
  518TMC3    H1 7752   4.618   1.436  17.060 -1.3565  0.2780  1.6450
  518TMC3    H2 7753   0.003   1.019  17.021 -1.8673 -1.5618 -1.3750
  518TMC3    C7 7754   0.088   1.279  17.112  0.4684 -0.3392  0.3068
  518TMC3    C8 7755   4.531   0.938  16.929 -0.0157  0.1200 -0.5462
  518TMC3    O1 7756   0.098   1.374  17.189  0.1887 -0.5535  0.5299
  518TMC3    O2 7757   4.552   0.865  16.835 -0.2894 -0.6086 -0.5387
  519MPD2     C 7758   1.390   0.121  14.098  0.1008  0.4155 -0.3860
  519MPD2    C1 7759   1.341   0.049  13.990  0.7076 -0.1218 -0.1415
  519MPD2    C2 7760   1.349   4.649  13.992 -0.3478 -0.5514 -0.2229
  519MPD2    C3 7761   1.392   4.580  14.100  0.0097  0.4404  0.1139
  519MPD2    C4 7762   1.452   4.651  14.201 -0.7960  0.4150 -0.3296
  519MPD2    C5 7763   1.449   0.052  14.202  0.3502 -0.1864  0.1620
  519MPD2     H 7764   1.317   4.599  13.902  0.3148  2.8303 -2.3520
  519MPD2    H1 7765   1.504   4.601  14.282 -0.5581 -1.7044 -1.8109
  519MPD2    H2 7766   1.380   0.228  14.115 -1.8330  0.6376 -3.0494
  519MPD2    H3 7767   1.489   0.104  14.288  2.7813  1.3482 -1.8780
  519MPD2     N 7768   1.388   4.436  14.111  0.3867 -0.2628 -0.0226
  519MPD2    H5 7769   1.452   4.392  14.177 -0.0020  0.4061  0.7958
  519MPD2    N1 7770   1.265   0.097  13.876  0.6850 -1.2578  0.1786
  519MPD2    H7 7771   1.226   0.034  13.807 -1.5557  0.5414 -0.2033
  520TMC3    C1 7772   1.400   4.255  13.960  0.0556 -0.2264  0.8900
  520TMC3    C2 7773   1.379   4.256  13.821  0.0539  0.4740  0.8856
  520TMC3    C3 7774   1.487   4.245  13.737  0.2452 -0.2225  0.9441
  520TMC3    C4 7775   1.524   4.237  14.011 -0.2667 -0.0830 -0.4221
  520TMC3    C5 7776   1.629   4.229  13.924 -0.7234  0.1173  0.2355
  520TMC3    C6 7777   1.611   4.234  13.788  0.7243 -0.4712 -0.8441
  520TMC3     C 7778   1.323   4.357  14.017  0.0589 -0.1099  0.0490
  520TMC3     O 7779   1.222   4.387  13.959 -0.1324 -0.3795  0.9536
  520TMC3     H 7780   1.281   4.285  13.785  0.4824 -1.0552 -1.5445
  520TMC3    H1 7781   1.532   4.228  14.119  0.5155 -1.2617 -0.5759
  520TMC3    H2 7782   1.697   4.248  13.724 -0.8328 -3.4916 -3.6307
  520TMC3    C7 7783   1.738   4.155  13.979 -0.5941  0.0975  0.2746
  520TMC3    C8 7784   1.481   4.278  13.593 -0.0164 -0.4272  0.1437
  520TMC3    O1 7785   1.762   4.173  14.096  0.5882 -0.1496  0.2740
  520TMC3    O2 7786   1.588   4.270  13.530 -0.8594  0.2709  0.4281
  521MPD2     C 7787   2.480   2.290   0.022 -0.2418 -1.1217  0.3000
  521MPD2    C1 7788   2.471   2.331  17.628  0.2747 -0.5954  0.6479
  521MPD2    C2 7789   2.583   2.349  17.547  0.1375  0.4428 -0.1221
  521MPD2    C3 7790   2.702   2.315  17.608  0.1562  0.0027 -0.2606
  521MPD2    C4 7791   2.713   2.272   0.001 -0.1761 -0.3748 -0.1368
  521MPD2    C5 7792   2.600   2.261   0.082 -0.1955  0.0433  0.0378
  521MPD2     H 7793   2.577   2.379  17.444  2.6109  2.8447  0.4438
  521MPD2    H1 7794   2.808   2.267   0.053 -0.3662  0.5833  0.2891
  521MPD2    H2 7795   2.388   2.285   0.080 -0.5543  0.9337 -0.0440
  521MPD2    H3 7796   2.600   2.216   0.181 -1.4953 -0.4229 -0.1839
  521MPD2     N 7797   2.818   2.323  17.525  0.1003 -1.0886 -0.7160
  521MPD2    H5 7798   2.801   2.367  17.436  0.2197  0.2104 -0.1004
  521MPD2    N1 7799   2.338   2.357  17.592  0.1195 -1.1482 -0.2752
  521MPD2    H7 7800   2.260   2.340  17.654  1.0289  0.6616  1.3249
  522TMC3    C1 7801   3.025   2.255  17.429  1.1112 -0.4564 -0.8342
  522TMC3    C2 7802   3.110   2.152  17.422 -0.1727 -1.0544  0.0944
  522TMC3    C3 7803   3.204   2.154  17.317  0.0360 -0.2072 -0.1159
  522TMC3    C4 7804   3.057   2.373  17.364 -1.0436 -0.3773  0.3845
  522TMC3    C5 7805   3.160   2.377  17.278 -0.1872 -0.0526 -0.5639
  522TMC3    C6 7806   3.241   2.270  17.248 -0.0537  0.2051 -0.4075
  522TMC3     C 7807   2.927   2.248  17.546  0.0859  0.8610  1.0166
  522TMC3     O 7808   2.962   2.178  17.638  0.4162 -0.1109  0.3563
  522TMC3     H 7809   3.104   2.067  17.489 -0.5226 -2.2492 -1.4488
  522TMC3    H1 7810   3.001   2.463  17.387  1.3915  0.9531  1.0815
  522TMC3    H2 7811   3.327   2.282  17.183  0.3023  1.1251  0.2497
  522TMC3    C7 7812   3.184   2.498  17.201  0.0324 -0.1698  0.9959
  522TMC3    C8 7813   3.293   2.035  17.300  0.4079 -0.5651  0.4604
  522TMC3    O1 7814   3.298   2.533  17.176 -0.6669  0.0829  0.2568
  522TMC3    O2 7815   3.294   1.959  17.396 -0.0843 -0.0218  0.8497
  523MPD2     C 7816   1.114   2.565   9.400 -0.1526 -0.2269 -0.2473
  523MPD2    C1 7817   1.073   2.436   9.428 -0.1678  0.5171  0.7172
  523MPD2    C2 7818   0.947   2.397   9.385  0.7601  0.5468  0.0964
  523MPD2    C3 7819   0.873   2.470   9.301  0.0305 -0.3561 -0.1993
  523MPD2    C4 7820   0.914   2.597   9.263  0.2179  0.8865 -0.0481
  523MPD2    C5 7821   1.032   2.638   9.320 -0.0626  0.1733  0.1652
  523MPD2     H 7822   0.908   2.300   9.415 -0.6061  1.5619  1.6129
  523MPD2    H1 7823   0.862   2.666   9.197 -1.1511 -0.4001 -0.3057
  523MPD2    H2 7824   1.203   2.610   9.442 -1.0452  0.5354  0.8501
  523MPD2    H3 7825   1.057   2.741   9.299 -1.6703  0.6737  0.6946
  523MPD2     N 7826   0.743   2.431   9.254  0.2848 -1.0250  0.1752
  523MPD2    H5 7827   0.701   2.499   9.191  4.0281  2.3300  1.2713
  523MPD2    N1 7828   1.154   2.358   9.522 -0.0626 -0.5286  0.2054
  523MPD2    H7 7829   1.220   2.403   9.585  1.6933 -0.3509 -1.7289
  524TMC3    C1 7830   0.528   2.315   9.240 -0.2560  0.3048 -0.4143
  524TMC3    C2 7831   0.473   2.191   9.207  0.0798 -0.6543 -0.0052
  524TMC3    C3 7832   0.340   2.191   9.170  0.0563  0.5237 -0.1832
  524TMC3    C4 7833   0.459   2.430   9.244 -0.5614 -0.1426 -0.1248
  524TMC3    C5 7834   0.326   2.423   9.204  0.5636 -0.1108 -0.2543
  524TMC3    C6 7835   0.266   2.305   9.164  0.2657  0.3174  1.1232
  524TMC3     C 7836   0.673   2.310   9.278  0.3412 -0.1144 -0.3760
  524TMC3     O 7837   0.713   2.210   9.337 -0.4567  0.1081 -0.1714
  524TMC3     H 7838   0.532   2.104   9.181  0.8892  0.2468 -1.1550
  524TMC3    H1 7839   0.499   2.526   9.275  0.4103 -0.3433 -0.7723
  524TMC3    H2 7840   0.158   2.295   9.153  0.3793  0.8658 -0.3668
  524TMC3    C7 7841   0.241   2.529   9.258  0.2290  0.4953 -0.2013
  524TMC3    C8 7842   0.266   2.071   9.184  0.0834 -0.1031  0.2819
  524TMC3    O1 7843   0.277   2.574   9.366 -0.4951 -0.1452 -0.3478
  524TMC3    O2 7844   0.153   2.083   9.143 -0.7801 -0.3888 -0.2613
  525MPD2     C 7845   2.792   4.193  14.350 -0.9854 -0.0351  0.4329
  525MPD2    C1 7846   2.924   4.171  14.389  0.5459 -0.1415 -0.3882
  525MPD2    C2 7847   3.031   4.253  14.344 -0.0321 -0.1758 -0.2132
  525MPD2    C3 7848   2.994   4.360  14.261 -0.5754 -0.1543  0.0199
  525MPD2    C4 7849   2.869   4.378  14.218 -0.3046 -0.4608  0.6498
  525MPD2    C5 7850   2.776   4.291  14.259  0.3452 -0.2029  0.2756
  525MPD2     H 7851   3.132   4.241  14.383  0.1150  1.7471  0.0193
  525MPD2    H1 7852   2.837   4.455  14.149  2.2229  1.1954  1.3298
  525MPD2    H2 7853   2.712   4.128  14.383  0.1524 -0.6313  2.0846
  525MPD2    H3 7854   2.677   4.304  14.218  0.2125 -0.0103  0.6592
  525MPD2     N 7855   3.088   4.463  14.225 -0.0270  0.4260 -0.3147
  525MPD2    H5 7856   3.048   4.546  14.182  4.2331  2.5308 -0.1991
  525MPD2    N1 7857   2.955   4.068  14.484  0.4178 -0.0011  0.4734
  525MPD2    H7 7858   3.052   4.046  14.506  0.3943  0.2738  0.8579
  526TMC3    C1 7859   2.915   3.915  14.664 -0.5369 -0.0368 -0.0338
  526TMC3    C2 7860   2.860   3.913  14.791  0.3920 -0.9436  0.3023
  526TMC3    C3 7861   2.940   3.867  14.896  0.2698  0.5973 -0.2724
  526TMC3    C4 7862   3.037   3.858  14.641  0.1379 -0.2119  0.2953
  526TMC3    C5 7863   3.114   3.813  14.741 -0.4714 -0.7468 -0.2568
  526TMC3    C6 7864   3.070   3.818  14.869  0.9232  0.2983  0.4783
  526TMC3     C 7865   2.858   4.016  14.572 -0.5990 -0.0689 -0.6977
  526TMC3     O 7866   2.743   4.045  14.586 -0.2753 -0.1927 -0.3358
  526TMC3     H 7867   2.757   3.944  14.803 -0.5817 -3.7721 -0.8837
  526TMC3    H1 7868   3.080   3.846  14.542 -1.0893  4.0626 -0.7917
  526TMC3    H2 7869   3.137   3.776  14.943  1.3014  4.6760  2.6504
  526TMC3    C7 7870   3.235   3.728  14.716 -0.1446  0.2630  0.3451
  526TMC3    C8 7871   2.905   3.897  15.032  0.2637 -0.3199  0.2805
  526TMC3    O1 7872   3.271   3.638  14.794 -0.4193 -0.8203 -0.2987
  526TMC3    O2 7873   2.989   3.890  15.123  0.0666 -0.2419  0.2742
  527MPD2     C 7874   0.988   1.575   1.483 -0.0817  0.5498  0.3576
  527MPD2    C1 7875   0.981   1.615   1.353  0.1796  0.1431 -0.0901
  527MPD2    C2 7876   1.100   1.614   1.286  0.5776 -0.4290 -0.0319
  527MPD2    C3 7877   1.217   1.565   1.329  0.2526 -0.9497  0.8042
  527MPD2    C4 7878   1.217   1.527   1.460 -0.3111  0.6186  0.6087
  527MPD2    C5 7879   1.101   1.527   1.534 -0.3375  0.9885 -0.3551
  527MPD2     H 7880   1.105   1.653   1.185  0.5026 -1.2608 -0.3595
  527MPD2    H1 7881   1.308   1.486   1.503 -0.7482  1.1151  2.0019
  527MPD2    H2 7882   0.902   1.566   1.549  1.2377  0.5243  2.0532
  527MPD2    H3 7883   1.115   1.501   1.638  0.1400  1.0031 -0.4190
  527MPD2     N 7884   1.322   1.552   1.239 -0.0174 -0.2470  0.1663
  527MPD2    H5 7885   1.318   1.596   1.148 -0.4944  0.6575  0.6208
  527MPD2    N1 7886   0.864   1.646   1.280  0.3803  0.3795  0.4275
  527MPD2    H7 7887   0.876   1.670   1.182 -2.7480 -0.5747 -0.1801
  528TMC3    C1 7888   0.644   1.687   1.227  0.3599 -0.0034  0.5413
  528TMC3    C2 7889   0.667   1.664   1.098 -0.7026  0.0085 -1.0112
  528TMC3    C3 7890   0.571   1.704   1.009 -0.4153  0.7513  0.1405
  528TMC3    C4 7891   0.527   1.735   1.274 -0.4163 -0.0288  0.5597
  528TMC3    C5 7892   0.438   1.778   1.186 -0.0225  0.8299  0.3283
  528TMC3    C6 7893   0.459   1.771   1.050 -0.0398  0.1580  0.6036
  528TMC3     C 7894   0.737   1.644   1.331 -0.5294 -0.1751  0.1541
  528TMC3     O 7895   0.706   1.643   1.447  0.4132  0.7034 -0.3056
  528TMC3     H 7896   0.755   1.613   1.060 -1.4155 -1.3858 -0.7523
  528TMC3    H1 7897   0.516   1.766   1.377 -0.6563 -0.9080  0.8017
  528TMC3    H2 7898   0.393   1.818   0.978  0.5465  0.6489  0.3854
  528TMC3    C7 7899   0.303   1.829   1.231  0.1956 -1.2778  0.3324
  528TMC3    C8 7900   0.605   1.673   0.869 -0.2880 -0.1225  0.8535
  528TMC3    O1 7901   0.233   1.875   1.140  0.3489  0.0321  0.1551
  528TMC3    O2 7902   0.705   1.609   0.845  0.0751 -0.5911 -0.3274
  529MPD2     C 7903   2.829   4.703   0.335  0.1407  0.0486  0.3634
  529MPD2    C1 7904   2.964   4.699   0.335  0.0856 -0.6141  0.5793
  529MPD2    C2 7905   3.024   0.049   0.248 -0.1894 -0.3975 -0.4719
  529MPD2    C3 7906   2.951   0.130   0.164 -0.7724  0.8232 -0.0577
  529MPD2    C4 7907   2.818   0.136   0.180 -0.8720  0.8291  0.0841
  529MPD2    C5 7908   2.754   0.058   0.271 -0.6738 -0.0310 -0.0545
  529MPD2     H 7909   3.131   0.032   0.236 -0.2762 -1.7576  0.6944
  529MPD2    H1 7910   2.767   0.211   0.121  0.0274  1.8818  0.6307
  529MPD2    H2 7911   2.783   4.636   0.406 -0.3085 -0.4663 -0.4163
  529MPD2    H3 7912   2.646   0.061   0.282 -0.7431 -0.1696 -0.6914
  529MPD2     N 7913   3.002   0.204   0.064  0.6169  0.1189 -0.7734
  529MPD2    H5 7914   2.938   0.249  17.741  0.4985  2.1678  0.7908
  529MPD2    N1 7915   3.044   4.621   0.425 -0.5415  0.1354  0.8219
  529MPD2    H7 7916   3.144   4.629   0.409 -0.6839 -0.1595 -0.2370
  530TMC3    C1 7917   3.115   4.452   0.578  0.0950 -1.0779  0.1061
  530TMC3    C2 7918   3.223   4.525   0.618  0.0532 -0.3256 -0.5542
  530TMC3    C3 7919   3.314   4.465   0.699  0.2538  0.1614  0.7003
  530TMC3    C4 7920   3.098   4.319   0.607  0.7385  0.1725  0.2228
  530TMC3    C5 7921   3.193   4.271   0.693  0.0214 -0.2129 -0.4098
  530TMC3    C6 7922   3.302   4.337   0.742  0.0961  0.2965 -0.5451
  530TMC3     C 7923   3.011   4.519   0.504  0.6362  0.0202  0.2878
  530TMC3     O 7924   2.909   4.460   0.502 -0.0750 -0.4712  0.5288
  530TMC3     H 7925   3.236   4.630   0.593 -1.5951  0.6779  2.8361
  530TMC3    H1 7926   3.032   4.255   0.550 -0.2586  1.0739  0.3455
  530TMC3    H2 7927   3.358   4.298   0.825 -1.3278  2.5512  1.4750
  530TMC3    C7 7928   3.211   4.129   0.709 -0.4143  0.6807  0.4005
  530TMC3    C8 7929   3.417   4.548   0.749 -0.3551 -0.5553 -0.1706
  530TMC3    O1 7930   3.329   4.091   0.728 -0.1271 -0.2783 -0.0826
  530TMC3    O2 7931   3.402   4.669   0.735  0.0567 -0.4748 -0.3638
  531MPD2     C 7932   2.804   3.969  12.173  0.5362 -0.3274 -0.5459
  531MPD2    C1 7933   2.791   3.854  12.240  0.0561  1.0993  0.2169
  531MPD2    C2 7934   2.766   3.733  12.181 -0.6726 -0.5408  0.0381
  531MPD2    C3 7935   2.766   3.729  12.041 -0.2913  0.7606 -0.6223
  531MPD2    C4 7936   2.765   3.848  11.973  0.2292 -0.4254 -0.1898
  531MPD2    C5 7937   2.799   3.964  12.042  0.3853 -0.2131  0.1221
  531MPD2     H 7938   2.754   3.643  12.239 -0.7042  0.5873  1.7862
  531MPD2    H1 7939   2.761   3.859  11.865  0.1069 -0.8646 -0.2271
  531MPD2    H2 7940   2.830   4.066  12.213 -0.9039 -0.0784 -0.2203
  531MPD2    H3 7941   2.789   4.054  11.983 -1.7822 -1.7578 -1.8609
  531MPD2     N 7942   2.719   3.611  11.974 -0.3214  0.2345  0.8051
  531MPD2    H5 7943   2.656   3.645  11.902  2.2398  0.8833 -1.1229
  531MPD2    N1 7944   2.819   3.867  12.386  0.4289  0.0677 -0.0551
  531MPD2    H7 7945   2.853   3.955  12.424  0.8309  1.0807 -2.7689
  532TMC3    C1 7946   2.820   3.799  12.602 -0.6070  0.6608 -0.3265
  532TMC3    C2 7947   2.698   3.774  12.663  0.3367 -0.6164 -0.1835
  532TMC3    C3 7948   2.701   3.700  12.782 -0.3847 -0.6329  0.1688
  532TMC3    C4 7949   2.938   3.758  12.663  0.0641  0.3523 -0.8904
  532TMC3    C5 7950   2.936   3.698  12.789  0.0519  0.3368 -0.4151
  532TMC3    C6 7951   2.816   3.670  12.848 -0.8612  0.6398  0.4584
  532TMC3     C 7952   2.799   3.762  12.468 -0.2479  0.0880 -0.2202
  532TMC3     O 7953   2.716   3.673  12.457  0.4199 -0.0721  0.5652
  532TMC3     H 7954   2.605   3.808  12.618  0.4236  0.9910  0.8390
  532TMC3    H1 7955   3.025   3.747  12.599  1.2024 -0.2615  0.7574
  532TMC3    H2 7956   2.814   3.625  12.946  0.7463 -1.4432 -0.4480
  532TMC3    C7 7957   3.030   3.587  12.788  0.3908 -0.0557 -0.2589
  532TMC3    C8 7958   2.608   3.591  12.784  0.5611 -0.0538 -0.1388
  532TMC3    O1 7959   3.149   3.609  12.764  0.5008 -0.3992 -0.2287
  532TMC3    O2 7960   2.606   3.512  12.879 -0.4983  0.4932 -0.6738
  533TMC3    C1 7961   3.268   4.608  14.264  0.7805  0.5166  0.1964
  533TMC3    C2 7962   3.400   4.638  14.253 -0.0929 -0.1039  0.3926
  533TMC3    C3 7963   3.445   0.010  14.326 -0.3227  0.1851 -0.2566
  533TMC3    C4 7964   3.180   4.690  14.332  0.0573 -0.2682 -0.0221
  533TMC3    C5 7965   3.230   0.060  14.401  0.3109 -0.6505  0.9106
  533TMC3    C6 7966   3.365   0.090  14.397  0.4771  0.1639 -0.2756
  533TMC3     C 7967   3.220   4.475  14.271  0.0808 -0.7966 -0.8636
  533TMC3     O 7968   3.302   4.384  14.292  0.2733  0.1040 -0.1528
  533TMC3     H 7969   3.465   4.575  14.194 -0.2321 -2.1595  2.4506
  533TMC3    H1 7970   3.073   4.672  14.333  0.1642 -0.9783 -1.1313
  533TMC3    H2 7971   3.405   0.163  14.466 -1.0279  1.2591 -0.5725
  533TMC3    C7 7972   3.150   0.092  14.521 -0.4264  0.0288 -0.7757
  533TMC3    C8 7973   3.545   0.097  14.275 -0.3742 -0.4773 -0.4242
  533TMC3    O1 7974   3.050   0.029  14.545 -0.1224 -0.1434  0.0238
  533TMC3    O2 7975   3.510   0.215  14.268 -0.4782 -0.2050  0.2601
  534MPD2     C 7976   1.606   0.645   0.934  0.0649 -0.7032 -0.5592
  534MPD2    C1 7977   1.489   0.648   1.003  0.3186  0.0124 -0.2219
  534MPD2    C2 7978   1.385   0.561   0.968  0.2652 -0.3451 -0.3018
  534MPD2    C3 7979   1.395   0.467   0.871  1.2016  0.3551 -0.3407
  534MPD2    C4 7980   1.512   0.472   0.785  0.6564 -0.7366 -0.0770
  534MPD2    C5 7981   1.611   0.560   0.825 -0.2477  0.8568 -0.8025
  534MPD2     H 7982   1.296   0.557   1.030  1.1314  0.5474  1.0159
  534MPD2    H1 7983   1.522   0.403   0.703  0.2820  0.8064 -1.4144
  534MPD2    H2 7984   1.696   0.701   0.960 -0.2741 -0.3266 -0.2089
  534MPD2    H3 7985   1.703   0.560   0.768  1.8917 -0.6742  2.6463
  534MPD2     N 7986   1.298   0.377   0.840  0.0138 -0.1112 -0.6001
  534MPD2    H5 7987   1.309   0.310   0.765  0.8611 -0.0649 -0.5274
  534MPD2    N1 7988   1.456   0.739   1.102 -0.0023  0.1625 -0.2304
  534MPD2    H7 7989   1.372   0.722   1.158  1.0742 -1.9206  0.7740
  535TMC3    C1 7990   1.093   0.280   0.836  0.4798 -0.0625  0.7036
  535TMC3    C2 7991   1.019   0.182   0.897 -0.7137 -0.2787  0.0349
  535TMC3    C3 7992   0.918   0.128   0.825 -0.0187  0.6357 -1.1602
  535TMC3    C4 7993   1.051   0.332   0.715 -0.4210  0.6725  0.0769
  535TMC3    C5 7994   0.957   0.265   0.645  0.0173 -0.3396  0.0891
  535TMC3    C6 7995   0.886   0.161   0.694  0.0946  0.9264 -0.1614
  535TMC3     C 7996   1.189   0.357   0.913 -0.9681  0.6626  0.7362
  535TMC3     O 7997   1.170   0.361   1.037  0.1337 -0.2836  0.1253
  535TMC3     H 7998   1.046   0.133   0.989  1.4311  1.5185  0.3827
  535TMC3    H1 7999   1.117   0.396   0.657  0.6770  0.8801  1.5547
  535TMC3    H2 8000   0.816   0.104   0.633 -1.6396  2.8081  0.0551
  535TMC3    C7 8001   0.903   0.334   0.527  0.0693 -0.2909  0.2403
  535TMC3    C8 8002   0.798   0.085   0.899 -0.6460  0.4702 -0.3907
  535TMC3    O1 8003   0.823   0.268   0.462  0.1154 -0.4119  0.6470
  535TMC3    O2 8004   0.694   0.053   0.840  0.1944 -0.0307 -0.0947
  536MPD2     C 8005   4.628   3.703  15.676 -0.2006 -0.0006  0.3332
  536MPD2    C1 8006   4.516   3.632  15.712 -0.0412  0.2094 -1.1288
  536MPD2    C2 8007   4.394   3.651  15.649  1.1410 -0.6386 -0.4998
  536MPD2    C3 8008   4.396   3.743  15.545 -0.5830 -0.2018 -0.0155
  536MPD2    C4 8009   4.511   3.806  15.506  0.6867 -0.8219  0.1521
  536MPD2    C5 8010   4.626   3.781  15.567  0.5115 -0.7308  0.0449
  536MPD2     H 8011   4.301   3.603  15.676  0.8091  0.8849  1.0287
  536MPD2    H1 8012   4.513   3.875  15.422 -1.1391  2.8334  3.0968
  536MPD2    H2 8013   4.724   3.671  15.716  0.9666  0.8320 -1.7686
  536MPD2    H3 8014   4.712   3.825  15.519  0.2812 -1.0552 -0.6620
  536MPD2     N 8015   4.287   3.772  15.465  0.1597  0.4414 -0.3593
  536MPD2    H5 8016   4.312   3.845  15.398  0.3058  0.2852 -0.4756
  536MPD2    N1 8017   4.531   3.547  15.827 -0.0686 -0.2545  0.3795
  536MPD2    H7 8018   4.624   3.560  15.866 -0.2006 -2.3910  1.4241
  537TMC3    C1 8019   4.476   3.384  15.991 -0.7355 -0.4056 -0.1590
  537TMC3    C2 8020   4.596   3.410  16.047  0.6992 -0.1176 -0.2529
  537TMC3    C3 8021   4.632   3.323  16.146 -0.0429  0.7488  0.6755
  537TMC3    C4 8022   4.399   3.270  16.004  0.0742 -0.0477  0.3399
  537TMC3    C5 8023   4.451   3.181  16.095 -0.0211  0.0689 -0.6130
  537TMC3    C6 8024   4.563   3.206  16.172 -0.6023 -0.2981 -0.3558
  537TMC3     C 8025   4.431   3.472  15.885  0.7264 -0.0430  0.3129
  537TMC3     O 8026   4.316   3.465  15.845  0.0147  0.3045  0.2125
  537TMC3     H 8027   4.643   3.505  16.026  0.0069  0.4433  0.7711
  537TMC3    H1 8028   4.301   3.260  15.960 -0.0933 -1.8890  1.1257
  537TMC3    H2 8029   4.588   3.144  16.257 -1.1740 -0.8031 -0.5518
  537TMC3    C7 8030   4.353   3.076  16.140  0.1445  0.0540 -0.6557
  537TMC3    C8 8031   4.693   3.394  16.257 -0.7194 -0.8571 -1.2016
  537TMC3    O1 8032   4.296   3.027  16.046  0.0267  0.1560 -0.6767
  537TMC3    O2 8033   4.652   3.502  16.291 -0.0988  0.1751 -0.2836
  538TMC3    C1 8034   1.218   2.390  10.363  0.1742  0.3892  0.6811
  538TMC3    C2 8035   1.304   2.487  10.408  0.2661  0.2462  0.5765
  538TMC3    C3 8036   1.316   2.605  10.339  0.2599  0.0848 -0.0777
  538TMC3    C4 8037   1.155   2.400  10.240 -0.0381 -0.4005 -0.4431
  538TMC3    C5 8038   1.169   2.520  10.174 -0.8886  0.1642  0.3336
  538TMC3    C6 8039   1.258   2.617  10.218  0.2204  0.2440 -0.2484
  538TMC3     C 8040   1.169   2.285  10.449 -1.1277  0.1020  0.5905
  538TMC3     O 8041   1.101   2.195  10.405  0.3200 -0.2932  0.1183
  538TMC3     H 8042   1.363   2.467  10.497  0.8306 -1.2410 -0.1204
  538TMC3    H1 8043   1.070   2.336  10.221  1.5525 -2.7051  0.1544
  538TMC3    H2 8044   1.260   2.717  10.175  0.4912  1.3295  2.2243
  538TMC3    C7 8045   1.098   2.545  10.051  0.8369  0.4467  0.2806
  538TMC3    C8 8046   1.452   2.658  10.364 -0.3335 -0.0352 -0.0892
  538TMC3    O1 8047   0.992   2.488  10.030  1.0159 -0.0978 -0.8298
  538TMC3    O2 8048   1.503   2.653  10.479  0.1628  0.2480  0.4757
  539MPD2     C 8049   0.877   1.717  11.440  0.5995  0.0335  0.1759
  539MPD2    C1 8050   0.966   1.784  11.351 -0.0370 -0.9261  0.0321
  539MPD2    C2 8051   0.928   1.911  11.307 -0.3852 -0.5353  0.5576
  539MPD2    C3 8052   0.813   1.968  11.359  0.3889  0.0759 -0.1425
  539MPD2    C4 8053   0.732   1.901  11.446  0.4018  0.1904 -0.4266
  539MPD2    C5 8054   0.758   1.776  11.489  0.2772 -0.4687 -0.3283
  539MPD2     H 8055   1.006   1.959  11.249  0.2620 -2.3061 -0.0208
  539MPD2    H1 8056   0.643   1.945  11.489  0.9432  1.7951 -0.9377
  539MPD2    H2 8057   0.905   1.617  11.470  1.0471 -0.1092 -0.7324
  539MPD2    H3 8058   0.692   1.727  11.559 -0.6075  0.3365 -0.6082
  539MPD2     N 8059   0.768   2.104  11.322 -0.3357 -0.2098  0.0688
  539MPD2    H5 8060   0.676   2.136  11.353 -0.1492  1.0924 -0.7219
  539MPD2    N1 8061   1.082   1.720  11.294 -0.1949 -0.3151 -0.2030
  539MPD2    H7 8062   1.125   1.747  11.206 -0.0044 -3.5568 -1.0814
  540TMC3    C1 8063   0.764   2.300  11.184 -0.5844  0.3471 -0.4395
  540TMC3    C2 8064   0.803   2.343  11.063  0.3812 -0.1021 -0.3285
  540TMC3    C3 8065   0.744   2.458  11.019 -0.3839 -0.5031  0.0890
  540TMC3    C4 8066   0.672   2.358  11.263  0.0349 -0.8550 -0.8910
  540TMC3    C5 8067   0.626   2.483  11.221  0.7395  0.2545  0.1979
  540TMC3    C6 8068   0.658   2.531  11.096  0.2554  0.4825  0.1610
  540TMC3     C 8069   0.839   2.191  11.241 -0.1381  0.5060  0.7481
  540TMC3     O 8070   0.962   2.193  11.224 -0.2317 -0.6783 -0.4209
  540TMC3     H 8071   0.887   2.304  11.007  1.0335 -1.1944  1.4173
  540TMC3    H1 8072   0.654   2.330  11.366 -0.7325 -1.3236 -1.1554
  540TMC3    H2 8073   0.615   2.620  11.052  0.0096  0.3504  0.1374
  540TMC3    C7 8074   0.533   2.555  11.302  0.4501 -0.7353  0.9212
  540TMC3    C8 8075   0.745   2.491  10.877 -0.5064 -0.3761 -0.0638
  540TMC3    O1 8076   0.535   2.678  11.293  0.5028 -0.2895 -0.2347
  540TMC3    O2 8077   0.761   2.608  10.839  0.4285 -0.0541  0.3901
  541MPD2     C 8078   3.392   3.047  12.619 -0.3490 -0.4284  0.1530
  541MPD2    C1 8079   3.478   2.958  12.559  0.7490 -0.4593 -0.6133
  541MPD2    C2 8080   3.555   2.999  12.454 -0.1674  0.4231 -0.3754
  541MPD2    C3 8081   3.527   3.113  12.391  0.5188 -0.8004 -0.5564
  541MPD2    C4 8082   3.442   3.201  12.457  1.0018 -0.3037  0.3668
  541MPD2    C5 8083   3.374   3.166  12.562 -0.0804 -0.3975  0.4340
  541MPD2     H 8084   3.616   2.920  12.411  1.4457  1.1168  0.6204
  541MPD2    H1 8085   3.425   3.296  12.407 -0.6612 -0.9991 -0.4002
  541MPD2    H2 8086   3.339   3.031  12.712 -1.2607  2.8050  0.1822
  541MPD2    H3 8087   3.307   3.239  12.607  2.1481  2.8174 -1.4342
  541MPD2     N 8088   3.576   3.145  12.263 -0.8297 -0.2571 -0.1894
  541MPD2    H5 8089   3.513   3.210  12.216  1.2252  0.3649 -2.1097
  541MPD2    N1 8090   3.500   2.832  12.623  0.2933  0.2967  0.3287
  541MPD2    H7 8091   3.434   2.815  12.699 -0.6235  3.7803  0.3167
  542TMC3    C1 8092   3.711   3.180  12.078  0.7769 -0.0845 -0.0271
  542TMC3    C2 8093   3.779   3.108  11.985 -0.3096 -0.9529  1.0855
  542TMC3    C3 8094   3.807   3.170  11.868  0.6480 -0.5101  0.9368
  542TMC3    C4 8095   3.684   3.310  12.071  0.1035 -0.3290  0.2689
  542TMC3    C5 8096   3.717   3.376  11.954 -0.4724 -0.4133  0.1451
  542TMC3    C6 8097   3.781   3.306  11.851 -0.2818  0.2708  0.2714
  542TMC3     C 8098   3.688   3.099  12.196 -0.2416  0.3502  0.0290
  542TMC3     O 8099   3.782   3.036  12.245 -0.7094 -0.4371  0.0345
  542TMC3     H 8100   3.795   3.003  12.006 -2.1495 -1.1944  1.3162
  542TMC3    H1 8101   3.654   3.373  12.154  0.5340  0.3989 -0.1311
  542TMC3    H2 8102   3.796   3.358  11.757 -2.7507 -1.1062 -0.8874
  542TMC3    C7 8103   3.721   3.521  11.958 -0.6326  0.0641 -0.9914
  542TMC3    C8 8104   3.878   3.099  11.765  0.6278 -0.4194 -0.6164
  542TMC3    O1 8105   3.675   3.569  12.062 -0.3093  0.3754  0.5917
  542TMC3    O2 8106   3.918   3.172  11.678  0.6360 -0.6645  0.6832
  543TMC3    C1 8107   3.050   4.607  16.705  0.7578  0.7372 -0.5221
  543TMC3    C2 8108   3.002   4.495  16.758 -0.1239 -0.2056 -0.5206
  543TMC3    C3 8109   3.017   4.477  16.891 -0.6824 -0.0856  0.2650
  543TMC3    C4 8110   3.123   4.696  16.782 -0.4730 -0.0605 -0.3510
  543TMC3    C5 8111   3.120   4.681  16.916  0.9706  0.2091 -0.3493
  543TMC3    C6 8112   3.072   4.573  16.979 -0.1059  0.2536 -0.0142
  543TMC3     C 8113   3.089   4.587  16.564  0.3618 -0.0348  0.2297
  543TMC3     O 8114   3.205   4.624  16.536  0.2854  0.0628  0.3788
  543TMC3     H 8115   2.951   4.418  16.701 -0.0262 -0.8207  0.2087
  543TMC3    H1 8116   3.166   0.048  16.733  0.7573 -0.4033  0.1190
  543TMC3    H2 8117   3.082   4.566  17.087 -0.4723  0.1749  0.0144
  543TMC3    C7 8118   3.192   0.047  16.992 -0.2730  0.6230 -0.3194
  543TMC3    C8 8119   2.964   4.352  16.935 -0.2556 -0.3764 -0.3913
  543TMC3    O1 8120   3.277   0.003  17.069 -0.4295  0.0005  0.2091
  543TMC3    O2 8121   2.905   4.284  16.856  0.0426 -0.4293 -0.3921
  544MPD2     C 8122   2.801   4.018  17.293  0.2529  0.2217 -0.5085
  544MPD2    C1 8123   2.825   4.004  17.157 -0.2184 -0.3894 -0.1886
  544MPD2    C2 8124   2.885   4.103  17.079 -0.4712  0.6386  0.4110
  544MPD2    C3 8125   2.924   4.221  17.139 -0.1243 -0.5341  0.1233
  544MPD2    C4 8126   2.919   4.231  17.278 -0.0179 -0.3546  0.7717
  544MPD2    C5 8127   2.851   4.133  17.349 -0.3655  1.4476 -0.4181
  544MPD2     H 8128   2.896   4.088  16.972 -2.3164 -1.4843  0.5263
  544MPD2    H1 8129   2.948   4.323  17.328  2.1562 -0.1586 -0.8525
  544MPD2    H2 8130   2.761   3.940  17.356  1.3907  0.8806  1.0351
  544MPD2    H3 8131   2.837   4.157  17.453 -0.2063  0.7898 -0.2434
  544MPD2     N 8132   2.986   4.333  17.069  0.4030 -0.6165 -0.5978
  544MPD2    H5 8133   3.043   4.401  17.119  0.4234  0.4787 -2.0920
  544MPD2    N1 8134   2.788   3.881  17.099  0.7538  0.4211  0.1940
  544MPD2    H7 8135   2.762   3.809  17.166  0.7721  1.0120  0.8451
  545TMC3    C1 8136   2.653   3.753  16.956 -0.3992 -0.3241 -0.2754
  545TMC3    C2 8137   2.568   3.761  16.847  0.2196  0.4865 -0.4662
  545TMC3    C3 8138   2.484   3.658  16.826  0.4458  0.1685 -0.6484
  545TMC3    C4 8139   2.656   3.639  17.032  0.7636 -0.6607 -0.5922
  545TMC3    C5 8140   2.572   3.539  16.999 -0.4850  0.3064 -0.3660
  545TMC3    C6 8141   2.478   3.549  16.902 -0.0030  0.2718  0.5306
  545TMC3     C 8142   2.733   3.872  16.975 -0.6267 -0.5735  0.1562
  545TMC3     O 8143   2.713   3.966  16.898 -0.2439 -0.0239  0.0738
  545TMC3     H 8144   2.547   3.857  16.803 -0.8483  0.2311 -0.5201
  545TMC3    H1 8145   2.730   3.618  17.109 -2.8332  0.1436  3.0727
  545TMC3    H2 8146   2.431   3.455  16.878 -0.7955  1.8161 -3.9281
  545TMC3    C7 8147   2.545   3.419  17.090 -0.0354  1.1200  0.4869
  545TMC3    C8 8148   2.398   3.670  16.708  0.1755 -0.5290  0.4979
  545TMC3    O1 8149   2.430   3.396  17.122  0.0430 -0.6424  0.0070
  545TMC3    O2 8150   2.416   3.768  16.639  0.3353 -0.0800  0.3386
  546MPD2     C 8151   4.447   4.194  17.113  0.6509  0.2162  0.2705
  546MPD2    C1 8152   4.441   4.219  16.978  0.0407 -0.4232 -0.2420
  546MPD2    C2 8153   4.521   4.325  16.928 -1.2013  0.8002 -0.0199
  546MPD2    C3 8154   4.601   4.400  17.013  0.1336 -0.2661  0.0510
  546MPD2    C4 8155   4.618   4.356  17.139 -0.6973 -0.1765 -0.2266
  546MPD2    C5 8156   4.544   4.250  17.191 -0.4673 -0.1146 -0.4495
  546MPD2     H 8157   4.496   4.378  16.837 -2.8446 -2.3529 -1.4384
  546MPD2    H1 8158   4.684   4.408  17.208 -0.1512 -2.6062  1.0742
  546MPD2    H2 8159   4.391   4.110  17.154  0.2804  0.7160  0.7921
  546MPD2    H3 8160   4.574   4.211  17.287  1.7581 -1.3995 -1.6499
  546MPD2     N 8161   4.672   4.520  16.975  0.0244  0.1444 -0.7271
  546MPD2    H5 8162   4.732   4.559  17.047 -1.3926 -0.0398  0.5715
  546MPD2    N1 8163   4.344   4.151  16.903  0.4300 -0.2141  0.1778
  546MPD2    H7 8164   4.274   4.104  16.959  2.9569 -2.1038  1.7577
  547TMC3    C1 8165   4.197   4.084  16.738 -0.2827 -0.4496  0.2614
  547TMC3    C2 8166   4.147   4.099  16.612  0.0832 -0.0182 -0.6058
  547TMC3    C3 8167   4.016   4.067  16.592  0.0193 -0.6255 -0.8408
  547TMC3    C4 8168   4.123   4.016  16.838 -0.7221  0.2481  0.8511
  547TMC3    C5 8169   3.988   3.989  16.813 -0.1029  0.2066 -1.5432
  547TMC3    C6 8170   3.934   4.013  16.683  0.8043 -0.8896  0.3879
  547TMC3     C 8171   4.322   4.155  16.771  0.1851  0.6869 -0.1363
  547TMC3     O 8172   4.385   4.213  16.684 -0.2871  0.2794 -0.0933
  547TMC3     H 8173   4.216   4.138  16.539  0.0839  1.9615  0.4493
  547TMC3    H1 8174   4.150   3.983  16.938 -0.2612  0.0914  0.6774
  547TMC3    H2 8175   3.830   3.997  16.658  0.3736  2.5063  0.0355
  547TMC3    C7 8176   3.907   3.946  16.928 -0.0367 -0.8903 -0.0810
  547TMC3    C8 8177   3.966   4.085  16.463  0.2115 -0.1719  0.1557
  547TMC3    O1 8178   3.930   4.000  17.035  0.0684 -0.1372 -0.0835
  547TMC3    O2 8179   3.846   4.106  16.455 -0.1492 -0.1538 -0.1246
  548MPD2     C 8180   4.718   0.038  12.410  0.2079  0.3142 -0.3762
  548MPD2    C1 8181   4.715   4.637  12.390  0.2748 -0.1095  0.6053
  548MPD2    C2 8182   0.076   4.581  12.308 -0.4069  0.9131  0.4737
  548MPD2    C3 8183   0.182   4.653  12.255  1.0598 -0.5029  0.9114
  548MPD2    C4 8184   0.189   0.058  12.281  0.0828  0.6477  0.2432
  548MPD2    C5 8185   0.089   0.111  12.366  0.6253  0.3950 -0.7057
  548MPD2     H 8186   0.070   4.476  12.280 -0.7087  0.8438  0.8074
  548MPD2    H1 8187   0.262   0.123  12.234 -0.0849 -0.2862 -1.3315
  548MPD2    H2 8188   4.646   0.090  12.473 -0.9206 -1.1407 -0.4558
  548MPD2    H3 8189   0.095   0.217  12.386  0.9234 -0.0551  1.6239
  548MPD2     N 8190   0.276   4.582  12.174  0.6567  0.8850  0.0247
  548MPD2    H5 8191   0.258   4.486  12.144 -1.6158  1.3247  0.0058
  548MPD2    N1 8192   4.600   4.574  12.443 -0.6305  0.7008 -0.4006
  548MPD2    H7 8193   4.535   4.630  12.495 -1.0450 -1.6763  1.6600
  549TMC3    C1 8194   4.431   4.409  12.470  0.0908 -0.2210 -0.1098
  549TMC3    C2 8195   4.339   4.513  12.485  0.6544  0.3778 -0.2590
  549TMC3    C3 8196   4.206   4.467  12.510 -0.4668 -0.2215 -0.4409
  549TMC3    C4 8197   4.397   4.276  12.495  0.1233 -0.4460  0.0834
  549TMC3    C5 8198   4.264   4.244  12.525  0.2654  0.2757  0.1841
  549TMC3    C6 8199   4.166   4.336  12.514  0.6507  0.7842 -0.7509
  549TMC3     C 8200   4.565   4.443  12.426 -0.2281  0.3451  0.3580
  549TMC3     O 8201   4.619   4.356  12.360 -0.4498  0.4717 -0.0410
  549TMC3     H 8202   4.352   4.616  12.457  0.7012  0.6843  0.8698
  549TMC3    H1 8203   4.462   4.190  12.481 -1.5094 -1.3554 -2.1297
  549TMC3    H2 8204   4.066   4.315  12.550  0.5738 -1.3127 -2.1951
  549TMC3    C7 8205   4.234   4.111  12.466  0.6749 -0.0068  0.4492
  549TMC3    C8 8206   4.102   4.566  12.497 -0.4201  0.3413  0.0437
  549TMC3    O1 8207   4.310   4.062  12.383 -0.0853  0.0365 -0.3279
  549TMC3    O2 8208   3.993   4.523  12.463 -0.8475 -0.0996  0.1841
  550TMC3    C1 8209   2.974   2.631  11.995  0.9528  0.5937 -0.9670
  550TMC3    C2 8210   2.922   2.717  12.088 -0.2081  0.1868 -0.5748
  550TMC3    C3 8211   2.855   2.823  12.048  0.3494 -0.1278 -0.4513
  550TMC3    C4 8212   2.966   2.657  11.861 -0.5772 -0.1754 -0.3158
  550TMC3    C5 8213   2.895   2.766  11.825 -0.2947  0.4433  0.3893
  550TMC3    C6 8214   2.841   2.846  11.913  0.4775 -0.0846  0.0157
  550TMC3     C 8215   3.045   2.509  12.041  0.1865  0.6418 -0.1772
  550TMC3     O 8216   3.041   2.479  12.159  0.6135  0.1459 -0.4030
  550TMC3     H 8217   2.954   2.696  12.190 -0.0749  0.0347 -0.6465
  550TMC3    H1 8218   2.993   2.580  11.790  0.0758 -1.2323  1.0678
  550TMC3    H2 8219   2.810   2.946  11.883  1.1601 -0.7559 -2.8956
  550TMC3    C7 8220   2.876   2.815  11.688 -0.2114 -0.0367 -0.5991
  550TMC3    C8 8221   2.842   2.944  12.138  0.3015 -0.4089  0.0072
  550TMC3    O1 8222   2.777   2.877  11.653 -0.3252  0.0164 -0.2186
  550TMC3    O2 8223   2.785   3.043  12.093 -0.0042  0.8054  0.0632
  551TMC3    C1 8224   0.661   0.935  13.079 -0.1303 -0.0746 -0.6068
  551TMC3    C2 8225   0.766   0.938  12.987 -0.3820  0.2373  0.3265
  551TMC3    C3 8226   0.875   1.017  13.016 -0.4204 -0.6565 -0.2348
  551TMC3    C4 8227   0.673   0.996  13.197 -0.4522 -0.4432 -0.3586
  551TMC3    C5 8228   0.779   1.071  13.222  0.0426 -0.0704 -0.1314
  551TMC3    C6 8229   0.881   1.088  13.137  0.6624  0.2125  0.8621
  551TMC3     C 8230   0.524   0.896  13.045 -1.4876  0.0325 -0.4130
  551TMC3     O 8231   0.445   0.868  13.136  0.1350 -0.1281 -0.2680
  551TMC3     H 8232   0.759   0.900  12.885 -1.1080  0.2165  0.3872
  551TMC3    H1 8233   0.594   1.013  13.269  1.5875  1.0255  1.5479
  551TMC3    H2 8234   0.976   1.123  13.176  0.2493 -0.0611  2.1124
  551TMC3    C7 8235   0.782   1.128  13.355  0.3119  0.1053  0.4011
  551TMC3    C8 8236   0.977   1.029  12.923  0.7620  0.0867  1.1926
  551TMC3    O1 8237   0.731   1.072  13.451 -0.1140  0.7611 -0.1643
  551TMC3    O2 8238   0.999   0.927  12.860 -0.0071 -0.5256  0.3125
  552MPD2     C 8239   2.167   2.854  14.304  0.4707  0.0760  0.8688
  552MPD2    C1 8240   2.245   2.801  14.203  0.2556 -0.3507 -0.4560
  552MPD2    C2 8241   2.382   2.795  14.216  0.6519  0.6548 -0.2067
  552MPD2    C3 8242   2.448   2.845  14.331 -0.1003 -0.1861 -0.0449
  552MPD2    C4 8243   2.367   2.896  14.430  0.5953  0.3148  0.6584
  552MPD2    C5 8244   2.229   2.914  14.412 -0.0031  0.4528  0.0674
  552MPD2     H 8245   2.444   2.751  14.138  1.7482  1.8541 -0.0110
  552MPD2    H1 8246   2.420   2.940  14.514  0.4693  3.7608 -1.0883
  552MPD2    H2 8247   2.060   2.861  14.291  0.0937 -2.2465  2.7223
  552MPD2    H3 8248   2.178   2.954  14.498  0.0965  0.5711  0.0722
  552MPD2     N 8249   2.588   2.855  14.342 -0.7243 -0.5710  0.4334
  552MPD2    H5 8250   2.626   2.874  14.434 -0.3008  1.4402 -0.1485
  552MPD2    N1 8251   2.187   2.762  14.082 -0.5971  0.3197  0.8908
  552MPD2    H7 8252   2.246   2.712  14.016  0.5301  1.2754  1.1690
  553TMC3    C1 8253   2.052   2.754  13.895  0.1668 -0.1606  0.3027
  553TMC3    C2 8254   2.009   2.829  13.790 -0.3573 -0.3780  0.2289
  553TMC3    C3 8255   2.014   2.781  13.660 -0.0594 -0.1311 -0.1043
  553TMC3    C4 8256   2.070   2.622  13.876 -0.1498  0.4391  0.3254
  553TMC3    C5 8257   2.058   2.570  13.748  0.2687 -0.5243  0.3913
  553TMC3    C6 8258   2.024   2.647  13.641  0.6080  0.2183 -0.0458
  553TMC3     C 8259   2.062   2.793  14.040 -1.0057 -0.1484 -0.3209
  553TMC3     O 8260   1.991   2.885  14.081 -0.3343  0.1929 -0.7561
  553TMC3     H 8261   2.007   2.935  13.814 -2.5681 -0.5061  0.6143
  553TMC3    H1 8262   2.081   2.566  13.968 -0.8000  1.9821  1.3472
  553TMC3    H2 8263   2.049   2.607  13.544  0.6798  0.3608 -0.0863
  553TMC3    C7 8264   2.103   2.438  13.717 -0.5220  0.0153 -0.3828
  553TMC3    C8 8265   2.122   2.843  13.581  0.2795  0.1374 -0.4750
  553TMC3    O1 8266   2.041   2.380  13.626  0.5482 -0.4392  0.2039
  553TMC3    O2 8267   2.230   2.859  13.635  0.1898  0.3157  0.0031
  554TMC3    C1 8268   0.435   2.034  10.596 -0.1582 -0.9139  0.2246
  554TMC3    C2 8269   0.440   1.909  10.543 -0.5196 -0.3281  0.5233
  554TMC3    C3 8270   0.444   1.906  10.406  1.1130 -0.0461  0.6648
  554TMC3    C4 8271   0.447   2.151  10.524 -0.4624 -0.2640 -0.5208
  554TMC3    C5 8272   0.457   2.137  10.384  0.5156  0.4932 -0.5344
  554TMC3    C6 8273   0.466   2.010  10.327 -0.2702  0.0073 -0.1193
  554TMC3     C 8274   0.432   2.057  10.743  0.3033  0.0499 -0.0318
  554TMC3     O 8275   0.494   2.156  10.790 -0.1416 -0.1520  0.6460
  554TMC3     H 8276   0.438   1.815  10.596 -0.4003 -0.8148 -0.3290
  554TMC3    H1 8277   0.427   2.245  10.574 -0.0489  0.3263 -1.4542
  554TMC3    H2 8278   0.471   1.997  10.220 -0.5632  0.9086 -0.2413
  554TMC3    C7 8279   0.426   2.251  10.300 -0.2758  0.5580 -0.5453
  554TMC3    C8 8280   0.394   1.791  10.329  0.4932 -0.4799  0.4869
  554TMC3    O1 8281   0.383   2.210  10.197  0.5003 -0.1045 -0.6026
  554TMC3    O2 8282   0.444   1.780  10.220 -0.2808  0.5929 -0.0285
  555TMC3    C1 8283   3.622   1.493  14.946  0.8511 -0.3498  0.2441
  555TMC3    C2 8284   3.704   1.525  15.048  0.1264 -0.0334  0.2488
  555TMC3    C3 8285   3.716   1.438  15.152 -0.3341  1.0974  0.1206
  555TMC3    C4 8286   3.556   1.375  14.941 -0.2653  0.5336  0.3128
  555TMC3    C5 8287   3.572   1.292  15.045 -0.0695  0.9010  0.0951
  555TMC3    C6 8288   3.652   1.318  15.152  0.5517  0.2224 -0.3819
  555TMC3     C 8289   3.650   1.567  14.821 -0.1136  0.3138 -0.0489
  555TMC3     O 8290   3.750   1.641  14.831  0.5198  0.0200 -0.1840
  555TMC3     H 8291   3.755   1.620  15.050  0.1871 -0.0432 -1.0538
  555TMC3    H1 8292   3.509   1.340  14.850  0.4608  0.3068  0.0191
  555TMC3    H2 8293   3.668   1.252  15.236  1.1624  0.3244 -0.4216
  555TMC3    C7 8294   3.505   1.158  15.048 -0.3396 -0.0588  0.3599
  555TMC3    C8 8295   3.817   1.478  15.251 -0.0552 -0.7474 -0.7478
  555TMC3    O1 8296   3.543   1.079  15.133 -0.2719  0.3097  0.5750
  555TMC3    O2 8297   3.863   1.590  15.244 -0.4363 -0.0896  0.7501
  556MPD2     C 8298   1.858   3.709  10.050  0.2793 -0.4094 -0.0064
  556MPD2    C1 8299   1.891   3.590  10.113 -0.0162 -0.5696 -0.5483
  556MPD2    C2 8300   1.896   3.469  10.045 -0.3778 -0.4262 -0.4835
  556MPD2    C3 8301   1.882   3.457   9.912 -0.3179 -0.1504 -0.1919
  556MPD2    C4 8302   1.857   3.575   9.844  0.6998 -0.4566 -0.5541
  556MPD2    C5 8303   1.854   3.698   9.913  0.4719 -0.1077  0.5660
  556MPD2     H 8304   1.915   3.377  10.100 -2.2598 -1.2492 -1.1746
  556MPD2    H1 8305   1.849   3.585   9.736 -1.1789 -0.7084 -0.4538
  556MPD2    H2 8306   1.857   3.803  10.105  1.7073 -0.2186 -0.3097
  556MPD2    H3 8307   1.835   3.787   9.854  1.5424 -0.0791  0.2632
  556MPD2     N 8308   1.882   3.331   9.853  0.7721 -0.0500  0.0685
  556MPD2    H5 8309   1.889   3.254   9.918  0.4815  1.4238  1.8651
  556MPD2    N1 8310   1.923   3.579  10.253  0.4824 -0.3406  0.4225
  556MPD2    H7 8311   1.949   3.485  10.281 -0.7121 -0.7121  0.2593
  557TMC3    C1 8312   1.885   3.161   9.695 -0.2096  0.4387  0.5839
  557TMC3    C2 8313   1.900   3.120   9.561 -0.0103  0.3207 -0.3427
  557TMC3    C3 8314   1.880   2.989   9.523  0.5362 -0.0833  0.0707
  557TMC3    C4 8315   1.862   3.064   9.786 -0.2485  0.0719 -0.3383
  557TMC3    C5 8316   1.847   2.935   9.738 -0.1261 -0.2426  0.6208
  557TMC3    C6 8317   1.852   2.892   9.608  0.2547 -0.0721  0.5052
  557TMC3     C 8318   1.890   3.299   9.721  0.5446 -0.0837 -0.1728
  557TMC3     O 8319   1.914   3.374   9.627 -0.1248  0.2975  0.2823
  557TMC3     H 8320   1.938   3.191   9.488 -1.2126 -0.3294 -1.5953
  557TMC3    H1 8321   1.827   3.092   9.885  0.7004 -0.4485  0.1457
  557TMC3    H2 8322   1.829   2.789   9.584  1.2378  0.1563 -1.3731
  557TMC3    C7 8323   1.788   2.847   9.835  0.0059 -0.3931 -0.6325
  557TMC3    C8 8324   1.839   2.966   9.382  0.7607  0.0013 -0.6157
  557TMC3    O1 8325   1.709   2.761   9.802  0.1996  0.4491  0.0208
  557TMC3    O2 8326   1.796   3.063   9.320  0.3078 -0.8426  0.3100
  558TMC3    C1 8327   4.542   0.810   9.858 -0.7342  0.0593 -0.0360
  558TMC3    C2 8328   4.425   0.819   9.928 -0.8844  0.0158  0.0920
  558TMC3    C3 8329   4.311   0.836   9.856  0.0898 -0.5990 -0.6064
  558TMC3    C4 8330   4.546   0.815   9.724  0.1526  0.4146 -0.3088
  558TMC3    C5 8331   4.431   0.841   9.661  0.3615 -0.5468  0.2216
  558TMC3    C6 8332   4.309   0.853   9.720  0.3796  0.0549 -1.2704
  558TMC3     C 8333   4.672   0.812   9.926  0.3480  1.0841  0.2432
  558TMC3     O 8334   0.029   0.867   9.867 -0.7316 -0.0189  0.5312
  558TMC3     H 8335   4.429   0.820  10.037 -3.3041  1.1854  0.1617
  558TMC3    H1 8336   4.635   0.795   9.665  0.6620 -2.4871  1.4734
  558TMC3    H2 8337   4.217   0.861   9.662 -1.0819  2.4911  1.4300
  558TMC3    C7 8338   4.419   0.795   9.521  0.1209 -0.6465  0.1656
  558TMC3    C8 8339   4.187   0.786   9.918 -0.0570  0.3939 -0.2708
  558TMC3    O1 8340   4.441   0.870   9.429  0.2650  0.1021  0.4946
  558TMC3    O2 8341   4.087   0.785   9.851  0.4021  0.2729  0.4433
  559MPD2     C 8342   0.201   1.234   9.999 -0.3838 -0.1565 -0.1406
  559MPD2    C1 8343   0.133   1.151  10.088 -0.2711 -0.6646  0.9033
  559MPD2    C2 8344   0.206   1.087  10.188 -0.2123  0.0087  0.4247
  559MPD2    C3 8345   0.332   1.124  10.215  0.2383  0.2672  0.5573
  559MPD2    C4 8346   0.401   1.213  10.128  0.3908 -0.0391  0.5686
  559MPD2    C5 8347   0.332   1.257  10.023  0.0562 -0.3260 -0.2016
  559MPD2     H 8348   0.164   1.012  10.253  0.8608  0.2108  1.3515
  559MPD2    H1 8349   0.505   1.240  10.141  0.5722 -0.6413  0.3433
  559MPD2    H2 8350   0.152   1.287   9.918  1.6622 -0.8850 -1.8676
  559MPD2    H3 8351   0.379   1.333   9.960 -1.9530  1.9248  0.9979
  559MPD2     N 8352   0.389   1.091  10.341  0.2411 -0.7630  0.3130
  559MPD2    H5 8353   0.319   1.048  10.400 -1.9714  0.4041 -1.4786
  559MPD2    N1 8354   4.725   1.142  10.083  0.5003 -0.2618  0.8342
  559MPD2    H7 8355   4.677   1.185  10.004 -0.5838 -0.7848  1.2197
  560TMC3    C1 8356   0.516   1.105  10.538 -0.4795  0.4809  0.0449
  560TMC3    C2 8357   0.444   0.992  10.575  0.5141 -0.4732  0.5047
  560TMC3    C3 8358   0.437   0.976  10.712  0.5392 -0.1572  0.1445
  560TMC3    C4 8359   0.583   1.193  10.620  0.2021 -0.7532 -0.4361
  560TMC3    C5 8360   0.588   1.162  10.753 -0.1686 -0.4147 -0.3542
  560TMC3    C6 8361   0.508   1.057  10.795 -0.1267 -0.2787 -0.0525
  560TMC3     C 8362   0.512   1.132  10.394 -0.2676  0.2166 -0.5903
  560TMC3     O 8363   0.598   1.205  10.347 -0.1939  0.4381 -0.2803
  560TMC3     H 8364   0.423   0.910  10.507  0.2429 -0.0088  0.0335
  560TMC3    H1 8365   0.632   1.281  10.580 -0.3614 -0.5867 -0.7616
  560TMC3    H2 8366   0.501   1.030  10.900 -0.4574 -1.9545 -0.5062
  560TMC3    C7 8367   0.617   1.264  10.850 -0.1636  0.0982  0.0463
  560TMC3    C8 8368   0.392   0.847  10.755  0.0420 -0.1727 -0.0930
  560TMC3    O1 8369   0.554   1.252  10.955 -0.3194 -0.6451 -0.7294
  560TMC3    O2 8370   0.436   0.798  10.861 -0.1752  0.1250  0.2293
  561TMC3    C1 8371   2.607   0.586  10.912 -0.4221  0.0299  0.1140
  561TMC3    C2 8372   2.561   0.506  11.014 -0.4437  0.4427 -0.2993
  561TMC3    C3 8373   2.492   0.570  11.121 -0.2684 -0.1846 -0.6833
  561TMC3    C4 8374   2.621   0.720  10.916 -0.4655 -0.1425  0.0533
  561TMC3    C5 8375   2.574   0.774  11.035  0.0086  0.0958  0.7555
  561TMC3    C6 8376   2.502   0.708  11.133  0.1063  0.3844 -0.7041
  561TMC3     C 8377   2.652   0.519  10.785 -0.5780  0.0638 -0.0402
  561TMC3     O 8378   2.583   0.428  10.741  0.0793 -0.2305 -0.4891
  561TMC3     H 8379   2.565   0.400  10.992  1.5846  0.7668 -1.4837
  561TMC3    H1 8380   2.664   0.773  10.832 -0.5414  1.1347  0.8192
  561TMC3    H2 8381   2.464   0.763  11.219  1.0956 -1.0974  0.6783
  561TMC3    C7 8382   2.578   0.919  11.055 -0.3319  0.2728 -1.1455
  561TMC3    C8 8383   2.439   0.483  11.225 -0.8626  0.6037  0.6285
  561TMC3    O1 8384   2.497   0.976  11.131 -0.0679  0.0667  0.1798
  561TMC3    O2 8385   2.499   0.377  11.243 -0.5535  0.3309  0.3209
  562TMC3    C1 8386   3.138   1.672  16.074  0.5344 -0.0349  0.3034
  562TMC3    C2 8387   3.063   1.766  16.013 -0.1179 -0.5261 -0.3837
  562TMC3    C3 8388   2.929   1.744  16.007  0.7371 -0.1593  0.2617
  562TMC3    C4 8389   3.084   1.582  16.157 -0.1952  0.5951 -0.3243
  562TMC3    C5 8390   2.952   1.563  16.156 -0.5676 -0.0476 -0.3504
  562TMC3    C6 8391   2.868   1.640  16.078  1.2908 -0.1438  0.2625
  562TMC3     C 8392   3.281   1.683  16.073 -1.0246 -1.0607  0.3144
  562TMC3     O 8393   3.333   1.659  16.177 -0.2495 -0.5917 -0.3526
  562TMC3     H 8394   3.103   1.848  15.954 -1.0217  0.5499  0.5115
  562TMC3    H1 8395   3.145   1.523  16.224  0.8667  1.0110 -0.9243
  562TMC3    H2 8396   2.762   1.617  16.080  0.5139  3.4757  1.6816
  562TMC3    C7 8397   2.896   1.425  16.177  0.0226  0.7607  0.6978
  562TMC3    C8 8398   2.850   1.830  15.909  0.6017 -0.8404 -0.7998
  562TMC3    O1 8399   2.775   1.410  16.188 -0.4395  0.4687  0.1684
  562TMC3    O2 8400   2.733   1.821  15.928  0.4429  0.1363 -0.6004
  563MPD2     C 8401   1.294   3.037  15.747 -0.1192 -0.2969  0.2209
  563MPD2    C1 8402   1.287   2.947  15.847 -1.1352 -0.1059 -0.0268
  563MPD2    C2 8403   1.401   2.881  15.884 -0.5456  0.5186  0.2505
  563MPD2    C3 8404   1.521   2.898  15.823 -0.4563  0.0633 -0.7125
  563MPD2    C4 8405   1.523   2.977  15.713  0.6596  0.3458 -0.1565
  563MPD2    C5 8406   1.407   3.041  15.667  0.5423  0.1855 -0.4327
  563MPD2     H 8407   1.402   2.811  15.967 -3.0493 -0.8432 -0.8957
  563MPD2    H1 8408   1.614   2.973  15.654  0.1542  1.6320 -1.0395
  563MPD2    H2 8409   1.208   3.095  15.715  2.0960  2.0291 -1.4868
  563MPD2    H3 8410   1.414   3.098  15.575 -2.7178 -0.6388 -1.2152
  563MPD2     N 8411   1.634   2.844  15.884 -0.4562 -0.1093 -0.6781
  563MPD2    H5 8412   1.617   2.782  15.962  2.4265 -0.4208 -0.3214
  563MPD2    N1 8413   1.169   2.918  15.916  0.4527 -0.2740  0.1663
  563MPD2    H7 8414   1.187   2.848  15.987  2.0432 -0.2914 -0.2355
  564TMC3    C1 8415   0.937   2.915  15.974 -0.0107 -0.2265  0.4169
  564TMC3    C2 8416   0.835   2.859  15.902 -1.2493 -0.4597 -0.2539
  564TMC3    C3 8417   0.763   2.760  15.963 -0.1108 -0.2255  0.3109
  564TMC3    C4 8418   0.967   2.875  16.098  0.4363 -0.0881  0.6833
  564TMC3    C5 8419   0.889   2.783  16.162 -0.4130 -0.3577  0.1490
  564TMC3    C6 8420   0.787   2.727  16.090 -0.1254 -0.2900  0.7839
  564TMC3     C 8421   1.045   2.968  15.894  0.4458  0.1006  0.2465
  564TMC3     O 8422   1.013   3.051  15.810 -0.1233 -0.6900 -0.0898
  564TMC3     H 8423   0.807   2.883  15.800  2.1697 -2.0063 -1.5416
  564TMC3    H1 8424   1.039   2.934  16.153  0.6646 -0.0011  0.2852
  564TMC3    H2 8425   0.718   2.672  16.153 -0.1000  0.6449  1.6258
  564TMC3    C7 8426   0.960   2.694  16.257 -0.0097 -0.1306 -0.0570
  564TMC3    C8 8427   0.694   2.663  15.880 -0.6045 -0.0756  0.3395
  564TMC3    O1 8428   1.058   2.744  16.306 -0.4610 -0.8406  0.2806
  564TMC3    O2 8429   0.687   2.550  15.933  0.2359  0.0888 -0.2359
  565TMC3    C1 8430   1.782   4.289   9.606 -0.7790  0.4542 -0.7640
  565TMC3    C2 8431   1.754   4.170   9.665  0.0659  0.2394 -0.4459
  565TMC3    C3 8432   1.691   4.083   9.581  0.3098  0.2964  0.1024
  565TMC3    C4 8433   1.751   4.319   9.474 -0.0038  0.3965 -0.1627
  565TMC3    C5 8434   1.699   4.219   9.391  0.3267  0.0034  0.5798
  565TMC3    C6 8435   1.666   4.100   9.444  0.3668 -0.0343 -0.1659
  565TMC3     C 8436   1.861   4.389   9.679 -0.2790  0.8031  0.3993
  565TMC3     O 8437   1.902   4.485   9.618 -0.3761 -0.1280 -1.1688
  565TMC3     H 8438   1.782   4.147   9.767  0.7558 -0.9278 -0.8981
  565TMC3    H1 8439   1.770   4.418   9.433 -1.0564  1.4588  1.8917
  565TMC3    H2 8440   1.649   4.011   9.385  1.1525 -0.2021 -0.1345
  565TMC3    C7 8441   1.666   4.257   9.256 -0.4622  0.2675  1.2889
  565TMC3    C8 8442   1.662   3.957   9.654 -0.0536  0.6468 -0.1712
  565TMC3    O1 8443   1.671   4.379   9.234  0.0639  0.2280  0.5764
  565TMC3    O2 8444   1.657   3.963   9.779 -0.1061  0.2128 -0.3818
  566MPD2     C 8445   3.223   0.541  14.323 -0.6364 -0.4928 -0.1798
  566MPD2    C1 8446   3.210   0.504  14.191 -0.1461  0.2017  0.2174
  566MPD2    C2 8447   3.118   0.401  14.159 -0.4180  0.6125  0.3305
  566MPD2    C3 8448   3.041   0.346  14.260 -0.0760  0.0471 -0.1047
  566MPD2    C4 8449   3.057   0.388  14.389  0.4213  0.2029  0.2695
  566MPD2    C5 8450   3.158   0.478  14.427  0.2881 -0.2008  0.2827
  566MPD2     H 8451   3.096   0.376  14.056 -0.9850  2.3535  0.0282
  566MPD2    H1 8452   2.981   0.355  14.459 -0.0013 -2.5041 -1.4736
  566MPD2    H2 8453   3.287   0.625  14.349  0.3979 -2.1586  2.5759
  566MPD2    H3 8454   3.157   0.519  14.528  0.4725  1.7569 -0.5085
  566MPD2     N 8455   2.919   0.267  14.247 -0.3556  0.0691  0.2675
  566MPD2    H5 8456   2.891   0.223  14.334 -0.4425 -0.4384 -0.0210
  566MPD2    N1 8457   3.287   0.584  14.101  0.4978  0.1142  0.2541
  566MPD2    H7 8458   3.342   0.659  14.142 -0.0739  1.7830 -2.0145
  567TMC3    C1 8459   3.362   0.685  13.896 -0.2536  0.0453 -0.6563
  567TMC3    C2 8460   3.372   0.680  13.758 -0.8487 -0.1187  0.0604
  567TMC3    C3 8461   3.471   0.754  13.696  0.0089 -0.4689 -0.2865
  567TMC3    C4 8462   3.436   0.774  13.972  0.1565 -0.2686  0.0963
  567TMC3    C5 8463   3.527   0.844  13.905  0.8105 -0.4057  0.2973
  567TMC3    C6 8464   3.559   0.834  13.767  0.3319  0.4145  0.5423
  567TMC3     C 8465   3.277   0.578  13.960 -0.0012 -0.2280 -1.0500
  567TMC3     O 8466   3.222   0.497  13.884 -0.1565 -0.7072 -0.7663
  567TMC3     H 8467   3.323   0.610  13.691  1.9323 -0.1084 -1.9851
  567TMC3    H1 8468   3.437   0.765  14.080 -1.0658 -2.5938 -0.0828
  567TMC3    H2 8469   3.634   0.900  13.726 -0.9147  0.4413 -1.7450
  567TMC3    C7 8470   3.565   0.967  13.971  0.1404 -0.0352 -0.1237
  567TMC3    C8 8471   3.431   0.821  13.574  0.0492  0.1954 -0.2792
  567TMC3    O1 8472   3.671   1.014  13.930  0.9437 -0.5129 -0.2109
  567TMC3    O2 8473   3.309   0.822  13.556  0.2465 -0.5891 -0.4324
  568MPD2     C 8474   0.985   1.415  15.763  0.0777 -0.4490 -0.2502
  568MPD2    C1 8475   0.940   1.474  15.882 -0.0238 -0.0525 -0.1928
  568MPD2    C2 8476   0.846   1.576  15.876  1.1318 -0.5973  0.6267
  568MPD2    C3 8477   0.789   1.614  15.755 -0.4553 -0.3004  0.8234
  568MPD2    C4 8478   0.818   1.548  15.639 -0.4705 -0.0004 -0.3490
  568MPD2    C5 8479   0.924   1.459  15.648  1.0047  0.2353  0.4217
  568MPD2     H 8480   0.816   1.624  15.969 -1.4837 -1.8399  0.4376
  568MPD2    H1 8481   0.766   1.565  15.545  1.6073 -2.7974 -2.0023
  568MPD2    H2 8482   1.058   1.336  15.748 -0.0356 -0.6034  0.0127
  568MPD2    H3 8483   0.955   1.419  15.552 -0.8497  0.9915 -0.5008
  568MPD2     N 8484   0.682   1.710  15.754 -0.4363 -0.0733 -0.1489
  568MPD2    H5 8485   0.645   1.741  15.843  0.7456 -0.0829  0.3554
  568MPD2    N1 8486   1.002   1.429  16.003 -0.1155  0.4697  0.0786
  568MPD2    H7 8487   1.048   1.339  16.006  0.6032  0.8131 -0.5557
  569TMC3    C1 8488   0.512   1.847  15.674 -0.8696 -0.5731 -0.4876
  569TMC3    C2 8489   0.440   1.817  15.789  0.7008 -0.5998 -0.5554
  569TMC3    C3 8490   0.360   1.909  15.844  0.1354 -0.1841 -0.0734
  569TMC3    C4 8491   0.505   1.971  15.620  0.6237  0.6866  0.4236
  569TMC3    C5 8492   0.442   2.073  15.691 -0.4065 -0.0252  0.1315
  569TMC3    C6 8493   0.375   2.047  15.809 -0.8188  0.0241  0.0856
  569TMC3     C 8494   0.628   1.763  15.642 -1.0141  0.4176 -0.7554
  569TMC3     O 8495   0.662   1.760  15.523 -0.1343  0.5035 -0.5576
  569TMC3     H 8496   0.440   1.715  15.824  0.4309 -0.4125 -0.0014
  569TMC3    H1 8497   0.574   1.993  15.539 -0.4469  1.7433 -0.1959
  569TMC3    H2 8498   0.315   2.132  15.839 -0.7236  0.8525 -2.1022
  569TMC3    C7 8499   0.501   2.201  15.702 -0.8866 -0.3256 -0.0178
  569TMC3    C8 8500   0.322   1.904  15.984 -0.7231 -0.3242 -0.0371
  569TMC3    O1 8501   0.516   2.242  15.818 -0.4164  0.4125 -0.0691
  569TMC3    O2 8502   0.262   1.805  16.036 -1.1043  0.1183 -0.6938
  570TMC3    C1 8503   4.297   0.332  15.696 -0.2908 -0.4334  0.3144
  570TMC3    C2 8504   4.347   0.338  15.572  0.5127  0.4585  0.7660
  570TMC3    C3 8505   4.431   0.447  15.561  0.3336  0.2261 -0.6365
  570TMC3    C4 8506   4.320   0.417  15.802  0.3728 -0.1601  1.0202
  570TMC3    C5 8507   4.388   0.526  15.781 -0.6575  0.1994  0.5839
  570TMC3    C6 8508   4.452   0.540  15.660 -0.2646  0.4566 -0.0467
  570TMC3     C 8509   4.242   0.198  15.729 -0.3604  0.0746  0.5946
  570TMC3     O 8510   4.197   0.133  15.637  0.0765  0.2051  0.7346
  570TMC3     H 8511   4.326   0.268  15.492  0.7435  0.2447  0.8914
  570TMC3    H1 8512   4.266   0.406  15.896  0.1771  2.0868  1.1659
  570TMC3    H2 8513   4.534   0.609  15.644  0.5493 -0.4240  0.3354
  570TMC3    C7 8514   4.372   0.634  15.873  0.4166  0.9281  0.7397
  570TMC3    C8 8515   4.539   0.431  15.467  0.5613  0.1743  0.1350
  570TMC3    O1 8516   4.327   0.610  15.984  0.1608  0.7258 -1.1370
  570TMC3    O2 8517   4.622   0.519  15.461  0.5731  0.3153  0.0503
  571MPD2     C 8518   2.008   2.684   0.969  0.3029 -0.8108 -0.4654
  571MPD2    C1 8519   2.110   2.593   0.996 -0.3093  0.4410  0.4766
  571MPD2    C2 8520   2.237   2.622   0.950  0.2046  0.1509 -0.3492
  571MPD2    C3 8521   2.259   2.740   0.880  0.3030  0.8427 -0.1095
  571MPD2    C4 8522   2.153   2.833   0.864 -0.5295  0.1411 -0.1459
  571MPD2    C5 8523   2.033   2.812   0.919  0.8359  0.0012  1.1099
  571MPD2     H 8524   2.319   2.556   0.971  0.3237  0.0158 -1.2239
  571MPD2    H1 8525   2.154   2.921   0.801 -0.1566 -0.1307 -0.5207
  571MPD2    H2 8526   1.912   2.660   1.012 -0.8495 -0.2919 -2.7367
  571MPD2    H3 8527   1.951   2.882   0.911 -1.0127 -2.2748  0.3518
  571MPD2     N 8528   2.385   2.778   0.819 -1.0808  0.2780 -0.2491
  571MPD2    H5 8529   2.393   2.855   0.754  0.1589  0.4374  0.0823
  571MPD2    N1 8530   2.090   2.482   1.078 -0.1127  0.2466  0.2000
  571MPD2    H7 8531   1.990   2.476   1.097  0.1156 -1.0417  0.9500
  572TMC3    C1 8532   2.616   2.755   0.761  0.1662  0.0264 -0.7343
  572TMC3    C2 8533   2.727   2.696   0.803  0.0991  0.1189 -0.8834
  572TMC3    C3 8534   2.826   2.675   0.710 -0.0337 -0.5243  0.1894
  572TMC3    C4 8535   2.593   2.797   0.638 -0.5708 -0.4278 -0.1117
  572TMC3    C5 8536   2.691   2.774   0.545  0.6988 -0.2225 -0.5705
  572TMC3    C6 8537   2.809   2.714   0.579 -0.5654 -0.0374  0.6723
  572TMC3     C 8538   2.503   2.709   0.845 -0.1067 -0.7305  0.3841
  572TMC3     O 8539   2.536   2.620   0.921 -0.1115  0.4946 -0.0894
  572TMC3     H 8540   2.754   2.691   0.908  0.8486  0.4891 -1.0602
  572TMC3    H1 8541   2.503   2.842   0.597  0.0060  1.3379  0.5826
  572TMC3    H2 8542   2.869   2.660   0.507 -0.5431 -0.1807  0.7962
  572TMC3    C7 8543   2.668   2.827   0.408 -0.0707  0.4116 -0.1550
  572TMC3    C8 8544   2.912   2.570   0.729 -0.1876 -0.2031 -0.0165
  572TMC3    O1 8545   2.555   2.859   0.380  0.0439 -0.1281  0.7230
  572TMC3    O2 8546   3.007   2.557   0.657  0.4582  0.5427 -0.1598
  573MPD2     C 8547   3.807   3.087   0.064 -0.6273  0.0384 -0.6557
  573MPD2    C1 8548   3.748   2.968   0.058 -0.8582  0.6860 -0.5815
  573MPD2    C2 8549   3.646   2.949  17.715 -0.1648 -0.5579  0.4429
  573MPD2    C3 8550   3.601   3.034  17.625  0.2656 -0.0475  0.6388
  573MPD2    C4 8551   3.671   3.152  17.621  0.4211 -0.0906  0.0674
  573MPD2    C5 8552   3.771   3.177  17.712 -0.2475  0.1193 -0.2742
  573MPD2     H 8553   3.590   2.856  17.725 -1.1756 -0.0982 -0.9311
  573MPD2    H1 8554   3.649   3.223  17.543  1.6880  1.0741  0.7677
  573MPD2    H2 8555   3.885   3.102   0.138 -1.0915 -0.4738 -0.0631
  573MPD2    H3 8556   3.817   3.275  17.716  0.3655 -0.0818 -2.5127
  573MPD2     N 8557   3.512   2.995  17.513 -0.2867  0.6791  0.3808
  573MPD2    H5 8558   3.504   3.064  17.439  1.5085 -1.1208 -1.4907
  573MPD2    N1 8559   3.803   2.871   0.155 -0.0704  0.1781 -0.1630
  573MPD2    H7 8560   3.883   2.897   0.211 -0.1414 -1.4484  0.6655
  574TMC3    C1 8561   3.346   2.872  17.397 -0.4433  0.2150  0.1928
  574TMC3    C2 8562   3.208   2.868  17.409  1.0740  0.8744 -0.0661
  574TMC3    C3 8563   3.137   2.880  17.299  0.2167 -0.2498 -0.4760
  574TMC3    C4 8564   3.405   2.885  17.276  0.6198  0.0710 -0.0708
  574TMC3    C5 8565   3.329   2.892  17.167 -0.1743 -0.3602 -0.1039
  574TMC3    C6 8566   3.191   2.887  17.175 -0.0382 -0.2739 -0.8677
  574TMC3     C 8567   3.422   2.894  17.520  0.1216 -0.6576  0.1779
  574TMC3     O 8568   3.384   2.831  17.620  0.2946  0.0487  0.5368
  574TMC3     H 8569   3.162   2.851  17.506  1.0438 -0.3083 -0.2862
  574TMC3    H1 8570   3.511   2.908  17.268  0.6005  0.3743  0.5786
  574TMC3    H2 8571   3.124   2.888  17.091 -0.1170 -2.5449 -0.8319
  574TMC3    C7 8572   3.402   2.882  17.041  0.3917  0.0730  0.2247
  574TMC3    C8 8573   2.994   2.882  17.315 -0.7744 -0.4059  0.1593
  574TMC3    O1 8574   3.348   2.926  16.939  0.0448 -0.2299 -0.0566
  574TMC3    O2 8575   2.937   2.807  17.390 -0.0839  0.3069 -0.2395
  575TMC3    C1 8576   1.504   3.524  10.374  0.5046 -0.0638 -0.0779
  575TMC3    C2 8577   1.394   3.440  10.385  0.1450  0.2477 -0.2845
  575TMC3    C3 8578   1.342   3.402  10.266 -0.6495 -0.1256 -0.1007
  575TMC3    C4 8579   1.563   3.560  10.258  0.0990  0.1488  0.1012
  575TMC3    C5 8580   1.503   3.508  10.142  0.1783 -0.3301 -0.3675
  575TMC3    C6 8581   1.388   3.434  10.143 -0.7732  0.5544  0.2518
  575TMC3     C 8582   1.560   3.570  10.502 -0.0247  0.2842 -0.6085
  575TMC3     O 8583   1.541   3.507  10.611 -0.3860 -0.0642  0.0566
  575TMC3     H 8584   1.348   3.434  10.483 -0.1538 -1.7461 -0.5383
  575TMC3    H1 8585   1.638   3.639  10.251 -1.1784  1.3281 -0.3681
  575TMC3    H2 8586   1.337   3.409  10.051 -1.6904  0.5665  0.7451
  575TMC3    C7 8587   1.530   3.575  10.024  0.3720 -0.1676  0.2021
  575TMC3    C8 8588   1.212   3.345  10.285  0.2887 -0.8430  0.6901
  575TMC3    O1 8589   1.531   3.696  10.039  0.1567 -0.4460 -0.0845
  575TMC3    O2 8590   1.202   3.233  10.334 -0.0305  0.3132  0.3805
  576MPD2     C 8591   1.517   0.673  12.336  0.3346  0.3460  0.2107
  576MPD2    C1 8592   1.507   0.778  12.250 -0.1161 -0.3374 -0.0669
  576MPD2    C2 8593   1.405   0.865  12.274  0.0257 -0.5822  0.2248
  576MPD2    C3 8594   1.309   0.843  12.376  0.3809 -0.0663 -0.4992
  576MPD2    C4 8595   1.322   0.737  12.464 -0.0522 -0.3807  0.0083
  576MPD2    C5 8596   1.427   0.651  12.438 -0.1261  0.2331 -0.1937
  576MPD2     H 8597   1.395   0.949  12.206  1.1310 -1.5484 -1.1230
  576MPD2    H1 8598   1.253   0.737  12.547  0.2295  0.6971  0.2543
  576MPD2    H2 8599   1.600   0.604  12.332  1.3539  1.5904  0.1045
  576MPD2    H3 8600   1.447   0.569  12.507 -3.7986 -0.4519  0.0547
  576MPD2     N 8601   1.212   0.950  12.390 -0.2092 -0.8961 -0.5067
  576MPD2    H5 8602   1.239   1.044  12.362  0.4149 -1.0011 -0.2575
  576MPD2    N1 8603   1.599   0.800  12.146 -0.1722 -0.1289  0.5127
  576MPD2    H7 8604   1.587   0.865  12.069 -0.1169 -0.6369  0.0744
  577TMC3    C1 8605   1.790   0.761  12.024 -0.3566 -0.5721 -0.0723
  577TMC3    C2 8606   1.886   0.671  11.977  0.3284 -1.0735  1.4717
  577TMC3    C3 8607   1.954   0.702  11.859  0.0063 -0.4489  0.1666
  577TMC3    C4 8608   1.750   0.873  11.951 -0.6023 -0.0882 -0.5538
  577TMC3    C5 8609   1.817   0.897  11.833  0.3060  0.0908  0.4258
  577TMC3    C6 8610   1.911   0.810  11.784  0.0915 -0.8976 -0.0237
  577TMC3     C 8611   1.714   0.722  12.140 -1.3510 -0.0916  0.4233
  577TMC3     O 8612   1.771   0.646  12.218 -0.4775 -0.1025 -0.5273
  577TMC3     H 8613   1.926   0.597  12.045  2.0937 -1.5291 -0.0625
  577TMC3    H1 8614   1.696   0.955  11.997  1.6227  0.5583  0.9805
  577TMC3    H2 8615   1.955   0.850  11.693 -1.1897  1.4980  0.4013
  577TMC3    C7 8616   1.777   1.011  11.760  0.2001  0.3611 -0.2460
  577TMC3    C8 8617   2.026   0.594  11.801 -0.0735  0.2347 -0.0479
  577TMC3    O1 8618   1.772   0.996  11.639 -0.3145  0.2316  0.4550
  577TMC3    O2 8619   2.030   0.489  11.862  0.0214 -0.2763  0.2893
  578MPD2     C 8620   4.284   0.647   1.121 -0.0469 -0.3352 -0.1223
  578MPD2    C1 8621   4.280   0.558   1.015  0.1030 -0.2926 -0.0639
  578MPD2    C2 8622   4.353   0.441   1.014  0.6398  0.0806 -0.0625
  578MPD2    C3 8623   4.436   0.414   1.120  0.2006  0.6544  0.2698
  578MPD2    C4 8624   4.437   0.502   1.232 -0.1654  0.3159  0.6061
  578MPD2    C5 8625   4.358   0.615   1.230  0.1500 -0.0728 -0.5556
  578MPD2     H 8626   4.357   0.372   0.931 -1.2038  0.6263 -0.6009
  578MPD2    H1 8627   4.508   0.501   1.314 -0.7346 -0.4484  1.0861
  578MPD2    H2 8628   4.227   0.739   1.125  0.1475 -0.2771  1.1658
  578MPD2    H3 8629   4.372   0.676   1.318 -0.6947  1.1733 -1.2723
  578MPD2     N 8630   4.529   0.312   1.090 -0.5730 -0.1212 -0.1297
  578MPD2    H5 8631   4.543   0.278   0.996  2.1045  0.4827  0.0513
  578MPD2    N1 8632   4.180   0.587   0.914  0.3355 -0.0512 -0.0799
  578MPD2    H7 8633   4.129   0.675   0.918 -1.7434 -1.1859 -1.4626
  579TMC3    C1 8634   4.675   0.135   1.139 -0.1473 -1.2195  0.8169
  579TMC3    C2 8635   0.037   0.082   1.225  0.5865  0.4139  0.0718
  579TMC3    C3 8636   0.125   4.735   1.165  0.0435  0.8955 -0.3610
  579TMC3    C4 8637   4.650   0.083   1.017 -0.0724  0.1880 -0.5158
  579TMC3    C5 8638   4.723   4.714   0.979 -0.1042  1.1635 -1.2335
  579TMC3    C6 8639   0.101   4.683   1.044  0.6669 -0.2045 -0.0850
  579TMC3     C 8640   4.611   0.256   1.185  0.0914 -0.2098  0.2641
  579TMC3     O 8641   4.619   0.276   1.306 -0.7058 -0.0241 -0.1910
  579TMC3     H 8642   0.047   0.128   1.323  1.3898 -0.2728  0.3148
  579TMC3    H1 8643   4.574   0.115   0.946  0.3549  1.4783 -0.3766
  579TMC3    H2 8644   0.156   4.596   1.012 -0.1871 -1.7110  2.5459
  579TMC3    C7 8645   4.685   4.632   0.865  0.1408  1.0830 -0.4006
  579TMC3    C8 8646   0.248   4.710   1.232 -0.5777  0.5390  0.1461
  579TMC3    O1 8647   0.044   4.574   0.811  0.3792 -0.5488  0.1815
  579TMC3    O2 8648   0.255   4.719   1.353  0.7721 -0.1248  0.0667
  580TMC3    C1 8649   4.525   4.602  12.130  0.0226  1.0577  0.6976
  580TMC3    C2 8650   4.619   4.668  12.054 -0.3349  0.2625  0.2335
  580TMC3    C3 8651   4.689   4.595  11.962 -0.1181 -0.1466 -0.1641
  580TMC3    C4 8652   4.500   4.471  12.109  0.5273 -1.1711 -0.0542
  580TMC3    C5 8653   4.567   4.405  12.010  0.1058  0.3931 -0.1626
  580TMC3    C6 8654   4.667   4.464  11.946  0.0608  0.6612  0.3443
  580TMC3     C 8655   4.410   4.680  12.145  0.1718 -0.3040  0.5687
  580TMC3     O 8656   4.426   0.064  12.160 -0.1774 -0.1399  0.0149
  580TMC3     H 8657   4.640   0.036  12.078 -0.8890  0.9164 -2.0668
  580TMC3    H1 8658   4.423   4.415  12.160 -1.4226  0.0695 -1.6615
  580TMC3    H2 8659   4.720   4.401  11.876 -1.0042 -0.0709  0.1936
  580TMC3    C7 8660   4.503   4.290  11.959 -0.9159 -0.1221  0.3826
  580TMC3    C8 8661   0.041   4.651  11.862 -0.2806  0.0236  0.3907
  580TMC3    O1 8662   4.415   4.236  12.026 -0.3325  0.0691 -0.0010
  580TMC3    O2 8663   0.115   4.572  11.800 -0.4502  0.0826  0.1588
  581MPD2     C 8664   1.617   3.800  14.500  0.3005  0.7545  0.4420
  581MPD2    C1 8665   1.484   3.786  14.547 -0.7771  0.6231  0.4347
  581MPD2    C2 8666   1.396   3.888  14.529  0.4207  0.6314 -0.5425
  581MPD2    C3 8667   1.437   4.000  14.462  0.1107 -0.3405 -0.3312
  581MPD2    C4 8668   1.568   4.015  14.415 -0.9097  0.3945  0.1617
  581MPD2    C5 8669   1.656   3.907  14.421  0.4242  0.2575 -0.0818
  581MPD2     H 8670   1.293   3.882  14.564  0.7727 -1.2584  0.1926
  581MPD2    H1 8671   1.594   4.099  14.353 -1.2600 -0.3190 -0.9425
  581MPD2    H2 8672   1.691   3.725  14.525 -0.9071 -0.9398 -1.0291
  581MPD2    H3 8673   1.752   3.905  14.372 -1.1304 -1.5128 -3.0299
  581MPD2     N 8674   1.333   4.093  14.440  0.4045 -0.0995 -0.1928
  581MPD2    H5 8675   1.240   4.075  14.476  0.1931 -1.1943 -1.3107
  581MPD2    N1 8676   1.464   3.673  14.627 -0.2499  0.2085  0.4378
  581MPD2    H7 8677   1.534   3.600  14.617 -1.0871 -0.7016  1.0599
  582TMC3    C1 8678   1.348   3.525  14.777 -0.0440 -0.2984 -0.7950
  582TMC3    C2 8679   1.463   3.486  14.839 -0.4956  0.5495 -0.1243
  582TMC3    C3 8680   1.451   3.448  14.968  0.7460  0.0189 -0.2090
  582TMC3    C4 8681   1.224   3.507  14.834  0.1274  0.4907  0.1642
  582TMC3    C5 8682   1.220   3.462  14.962 -0.1693  1.1502 -0.0358
  582TMC3    C6 8683   1.330   3.435  15.032  0.4139  0.6503  0.1863
  582TMC3     C 8684   1.358   3.654  14.707 -0.6323 -0.0016  0.3726
  582TMC3     O 8685   1.263   3.726  14.730 -0.3874  0.2019 -0.0018
  582TMC3     H 8686   1.561   3.515  14.803 -0.1684 -0.0825  0.2597
  582TMC3    H1 8687   1.129   3.518  14.782 -0.4267 -1.8166  0.6764
  582TMC3    H2 8688   1.320   3.415  15.138 -0.7213 -2.6020 -0.5219
  582TMC3    C7 8689   1.117   3.530  15.032 -0.0766  0.3314  0.9269
  582TMC3    C8 8690   1.567   3.474  15.056  0.3638  0.5619 -0.0225
  582TMC3    O1 8691   1.085   3.502  15.147  0.5419 -0.0935  0.3717
  582TMC3    O2 8692   1.669   3.442  15.001 -0.4998 -0.4167 -0.7424
  583MPD2     C 8693   1.688   1.079  16.594  0.1421  0.1182 -0.0741
  583MPD2    C1 8694   1.706   1.214  16.566  0.0531 -0.5336 -0.2296
  583MPD2    C2 8695   1.691   1.299  16.678  0.1961 -0.4726 -0.5435
  583MPD2    C3 8696   1.681   1.249  16.808 -0.5805  0.3428  0.5105
  583MPD2    C4 8697   1.663   1.111  16.828 -0.2605 -0.2694  0.4026
  583MPD2    C5 8698   1.664   1.033  16.716 -0.9203  0.3157  1.0347
  583MPD2     H 8699   1.705   1.406  16.661 -3.1985  0.2456  1.1365
  583MPD2    H1 8700   1.629   1.066  16.921  1.8619 -0.6117  1.0268
  583MPD2    H2 8701   1.688   1.007  16.513 -1.7390 -0.3050  0.3083
  583MPD2    H3 8702   1.642   0.928  16.733  0.4395  0.0837  1.3008
  583MPD2     N 8703   1.691   1.339  16.913 -0.1107 -0.0560  0.2850
  583MPD2    H5 8704   1.682   1.438  16.891  4.7706  0.1246 -0.9528
  583MPD2    N1 8705   1.731   1.263  16.433 -0.1068  0.2396  0.3260
  583MPD2    H7 8706   1.730   1.362  16.411 -2.6769 -0.2233 -1.6698
  584TMC3    C1 8707   1.679   1.399  17.141  0.1671  0.1233  0.8931
  584TMC3    C2 8708   1.681   1.530  17.103  0.9772  0.5032  0.4746
  584TMC3    C3 8709   1.622   1.618  17.185  0.0934  0.5233  0.8421
  584TMC3    C4 8710   1.611   1.342  17.247 -0.7034  0.4885  0.4661
  584TMC3    C5 8711   1.547   1.433  17.329 -0.5520 -0.1809 -0.3075
  584TMC3    C6 8712   1.560   1.571  17.304 -0.5792  0.0162  0.5407
  584TMC3     C 8713   1.711   1.297  17.044  0.1187 -0.0732 -0.9409
  584TMC3     O 8714   1.723   1.182  17.092 -0.2586 -0.4721 -0.2443
  584TMC3     H 8715   1.744   1.566  17.022 -1.9569  2.4456 -0.9521
  584TMC3    H1 8716   1.598   1.235  17.258 -0.8163  0.3047 -1.4888
  584TMC3    H2 8717   1.481   1.632  17.346 -1.5498 -0.4055 -0.6549
  584TMC3    C7 8718   1.507   1.386  17.463  0.2011  0.1302  0.1307
  584TMC3    C8 8719   1.666   1.759  17.183  0.6260 -0.1663  0.2057
  584TMC3    O1 8720   1.515   1.264  17.470  0.8784  0.1565  0.6857
  584TMC3    O2 8721   1.637   1.822  17.283  0.3577  0.2220  0.2002
  585MPD2     C 8722   0.639   4.721   0.049 -0.2951  0.3687 -0.0265
  585MPD2    C1 8723   0.603   0.059  17.682  0.0606  0.8083  0.2169
  585MPD2    C2 8724   0.633   0.015  17.555  0.5318  0.1681 -0.3471
  585MPD2    C3 8725   0.695   4.628  17.538 -0.5398 -0.3879 -0.3001
  585MPD2    C4 8726   0.710   4.545  17.648  0.1952  0.6589 -0.3111
  585MPD2    C5 8727   0.684   4.591   0.033 -0.0780 -0.5416  0.4714
  585MPD2     H 8728   0.626   0.086  17.474 -2.1722 -1.2048 -1.3066
  585MPD2    H1 8729   0.740   4.441  17.651  2.1961  1.1610 -2.9646
  585MPD2    H2 8730   0.609   0.006   0.151 -1.3009  0.7960 -0.4078
  585MPD2    H3 8731   0.693   4.523   0.117 -1.5007 -1.9009 -0.4782
  585MPD2     N 8732   0.733   4.574  17.412 -0.3895 -0.4032  0.0941
  585MPD2    H5 8733   0.741   4.473  17.414  1.7497 -0.2567 -1.7366
  585MPD2    N1 8734   0.526   0.177  17.707 -0.4921 -0.2324 -0.4045
  585MPD2    H7 8735   0.530   0.204   0.064  0.5118 -0.5907 -0.3521
  586TMC3    C1 8736   0.706   4.554  17.170 -0.6108 -0.7324  0.4485
  586TMC3    C2 8737   0.815   4.463  17.147 -0.4151  0.3074 -0.5787
  586TMC3    C3 8738   0.830   4.405  17.023  0.1263 -0.3935 -0.6002
  586TMC3    C4 8739   0.635   4.597  17.068 -0.4168  0.2091 -0.1627
  586TMC3    C5 8740   0.647   4.541  16.943  1.1532 -0.8647  0.0765
  586TMC3    C6 8741   0.750   4.455  16.913 -0.1924  0.0123 -0.2140
  586TMC3     C 8742   0.718   4.640  17.288  0.5064  0.2712 -0.4067
  586TMC3     O 8743   0.716   0.024  17.275 -0.1748  0.2905 -0.5439
  586TMC3     H 8744   0.896   4.432  17.212 -0.3595 -2.6355 -2.0389
  586TMC3    H1 8745   0.553   4.665  17.090 -1.0183 -1.3745  2.4964
  586TMC3    H2 8746   0.743   4.398  16.821  0.9858  1.0059 -0.9188
  586TMC3    C7 8747   0.526   4.496  16.885  0.2750  0.2557 -1.1961
  586TMC3    C8 8748   0.941   4.313  16.994 -0.2767  0.4380  0.3236
  586TMC3    O1 8749   0.451   4.451  16.968  0.0499  0.6726 -0.1655
  586TMC3    O2 8750   0.944   4.267  16.884 -0.1189  0.1825  0.3530
  587TMC3    C1 8751   2.932   3.634  15.640 -0.4932 -0.0180  0.9014
  587TMC3    C2 8752   2.896   3.634  15.772 -0.0822  0.6735 -0.4045
  587TMC3    C3 8753   2.997   3.613  15.864  0.3452 -0.3812  0.4007
  587TMC3    C4 8754   3.054   3.589  15.596 -0.0496  1.0589 -0.7220
  587TMC3    C5 8755   3.148   3.559  15.691  0.0504 -0.0309 -0.2650
  587TMC3    C6 8756   3.127   3.579  15.826  0.2107 -0.3855 -0.1339
  587TMC3     C 8757   2.831   3.668  15.541 -0.3945  0.6550 -0.0928
  587TMC3     O 8758   2.860   3.681  15.422 -0.6121  0.0679 -0.1524
  587TMC3     H 8759   2.802   3.675  15.805  0.2334  2.0787 -1.2615
  587TMC3    H1 8760   3.068   3.582  15.489 -0.8876 -3.2011 -0.5478
  587TMC3    H2 8761   3.202   3.552  15.898  1.2090  0.6479 -0.7845
  587TMC3    C7 8762   3.261   3.469  15.661  0.2785  0.0075  0.1862
  587TMC3    C8 8763   2.974   3.597  16.007 -0.4285  0.1690  0.6687
  587TMC3    O1 8764   3.315   3.399  15.746 -0.9508 -0.3966 -0.3627
  587TMC3    O2 8765   3.053   3.522  16.061  0.4062  0.1389  0.1286
  588TMC3    C1 8766   1.734   1.509   9.577 -0.5095 -0.0375  0.5115
  588TMC3    C2 8767   1.754   1.383   9.602 -0.2039 -0.0814 -0.3669
  588TMC3    C3 8768   1.755   1.345   9.734  0.0164 -0.2963 -0.3249
  588TMC3    C4 8769   1.727   1.604   9.677  0.7770  0.2071 -0.6535
  588TMC3    C5 8770   1.732   1.563   9.808 -0.4377  0.3157  0.0669
  588TMC3    C6 8771   1.744   1.432   9.839  0.4593  0.5488  0.2019
  588TMC3     C 8772   1.680   1.542   9.454 -0.0844 -0.2983  0.4775
  588TMC3     O 8773   1.603   1.459   9.406 -0.4173  0.1750 -0.1361
  588TMC3     H 8774   1.759   1.307   9.524 -0.0297 -0.2850 -0.1566
  588TMC3    H1 8775   1.659   1.686   9.655  1.2004  0.3897 -1.2999
  588TMC3    H2 8776   1.749   1.395   9.941 -2.6787 -1.7328 -0.4812
  588TMC3    C7 8777   1.761   1.663   9.908 -0.3979 -0.4086 -0.2415
  588TMC3    C8 8778   1.755   1.201   9.763  0.0363 -0.3854 -0.1798
  588TMC3    O1 8779   1.782   1.631  10.023  0.0722 -0.0841  0.0824
  588TMC3    O2 8780   1.803   1.125   9.679  0.5199  0.2687  0.0294
  589TMC3    C1 8781   4.554   3.747   0.477 -0.4522  0.6765 -0.4315
  589TMC3    C2 8782   4.676   3.808   0.492  0.0349 -0.1180  0.1745
  589TMC3    C3 8783   0.046   3.766   0.411 -0.0773  0.2067  0.6082
  589TMC3    C4 8784   4.534   3.639   0.402  1.4621  0.2555  0.1772
  589TMC3    C5 8785   4.641   3.598   0.327  0.0473 -0.3209  0.3602
  589TMC3    C6 8786   0.026   3.662   0.331 -0.0172 -0.4489 -0.0867
  589TMC3     C 8787   4.444   3.787   0.558  0.5547  0.1827 -0.1913
  589TMC3     O 8788   4.330   3.763   0.524 -0.1050  0.1227  0.0824
  589TMC3     H 8789   4.679   3.909   0.530  1.7333  0.9800 -2.8868
  589TMC3    H1 8790   4.440   3.585   0.398  1.5173  0.1884 -0.2111
  589TMC3    H2 8791   0.103   3.624   0.265  3.4247  4.0281  1.3620
  589TMC3    C7 8792   4.635   3.482   0.245  1.0101 -0.6298  0.0293
  589TMC3    C8 8793   0.169   3.837   0.428 -0.1910 -0.2004 -0.1714
  589TMC3    O1 8794   4.529   3.433   0.219 -0.8688  0.3166 -0.1528
  589TMC3    O2 8795   0.164   3.933   0.498 -0.8623 -0.3663 -0.2902
  590MPD2     C 8796   4.169   1.651  16.487  0.4979 -0.5340  0.3082
  590MPD2    C1 8797   4.100   1.741  16.410  0.5185 -1.0148  0.3682
  590MPD2    C2 8798   4.163   1.789  16.302 -0.1367 -0.1925 -0.1449
  590MPD2    C3 8799   4.307   1.769  16.280  0.5717 -1.0458  0.3246
  590MPD2    C4 8800   4.374   1.681  16.359  0.0504  0.0764  0.0145
  590MPD2    C5 8801   4.304   1.623  16.467 -0.2430 -0.2182 -0.2751
  590MPD2     H 8802   4.115   1.849  16.226 -0.3304  2.1767  1.8641
  590MPD2    H1 8803   4.479   1.656  16.351  0.0454  0.3713 -1.0396
  590MPD2    H2 8804   4.121   1.614  16.577  0.5131 -0.1973  0.4573
  590MPD2    H3 8805   4.352   1.544  16.523 -0.0451  0.7601  0.9465
  590MPD2     N 8806   4.364   1.842  16.172 -0.1138 -0.0487  0.4132
  590MPD2    H5 8807   4.301   1.899  16.117  2.1861  0.2950 -1.8539
  590MPD2    N1 8808   3.968   1.781  16.444 -0.3399  0.8561 -0.0966
  590MPD2    H7 8809   3.912   1.731  16.513  0.8975  1.1722  1.1468
  591TMC3    C1 8810   4.523   1.944  16.027 -0.7965 -0.4186  0.4082
  591TMC3    C2 8811   4.638   1.925  15.960  0.5676  0.3942  0.2807
  591TMC3    C3 8812   4.666   2.015  15.860  0.1004  0.2589  0.3588
  591TMC3    C4 8813   4.435   2.043  15.998  0.1207 -0.3771  0.4734
  591TMC3    C5 8814   4.460   2.128  15.894 -0.0591  0.3411 -0.6002
  591TMC3    C6 8815   4.569   2.101  15.815  0.1969  0.5012  0.7717
  591TMC3     C 8816   4.503   1.846  16.133  0.8186  0.1947 -0.4078
  591TMC3     O 8817   4.598   1.783  16.178  0.5134 -0.4991 -0.7392
  591TMC3     H 8818   4.692   1.836  15.990  1.8142  1.2760  0.6123
  591TMC3    H1 8819   4.348   2.072  16.056 -2.3411 -2.0567 -2.4199
  591TMC3    H2 8820   4.583   2.150  15.719  0.7800  2.1932  1.7406
  591TMC3    C7 8821   4.359   2.223  15.851 -0.6250 -0.1107 -0.2023
  591TMC3    C8 8822   0.018   1.959  15.753  0.1697  0.5791  0.2680
  591TMC3    O1 8823   4.243   2.195  15.877 -0.1112 -0.2423 -0.2690
  591TMC3    O2 8824   0.056   1.845  15.776  0.7357 -0.3941 -0.1150
  592MPD2     C 8825   0.649   4.225  10.936 -0.5487  0.7182 -0.5186
  592MPD2    C1 8826   0.566   4.262  11.039  0.0748 -0.2185  0.2051
  592MPD2    C2 8827   0.467   4.176  11.084 -0.2496 -0.5657 -0.1338
  592MPD2    C3 8828   0.435   4.067  11.010 -0.2535  0.4584 -0.0754
  592MPD2    C4 8829   0.513   4.030  10.901  0.3957  0.2758  0.4109
  592MPD2    C5 8830   0.616   4.112  10.859  0.4281 -0.3811 -0.4412
  592MPD2     H 8831   0.416   4.204  11.176  1.2902  3.4928 -0.5213
  592MPD2    H1 8832   0.492   3.943  10.839  1.3154  0.7442 -0.5569
  592MPD2    H2 8833   0.733   4.288  10.911 -0.4680  0.0105 -2.0687
  592MPD2    H3 8834   0.684   4.081  10.780  1.3299  1.2747 -0.3225
  592MPD2     N 8835   0.331   3.985  11.055 -0.5520  0.2401  0.0175
  592MPD2    H5 8836   0.274   4.019  11.131  0.5363 -0.3523  1.0921
  592MPD2    N1 8837   0.609   4.377  11.108 -0.5933  0.0615  0.1302
  592MPD2    H7 8838   0.691   4.418  11.066 -1.9571  2.3314 -0.3048
  593TMC3    C1 8839   0.620   4.544  11.275 -0.0261 -0.1193  0.3164
  593TMC3    C2 8840   0.586   4.590  11.395 -0.4272 -0.5717  0.1625
  593TMC3    C3 8841   0.624   4.719  11.430 -0.3418  0.1160 -0.0263
  593TMC3    C4 8842   0.679   4.630  11.184 -0.4093  0.0447 -0.0247
  593TMC3    C5 8843   0.709   0.020  11.217 -0.8199 -0.9333 -0.0326
  593TMC3    C6 8844   0.686   0.070  11.341 -0.4557 -0.5031 -0.1682
  593TMC3     C 8845   0.557   4.427  11.224  0.1712  0.1407  0.0084
  593TMC3     O 8846   0.470   4.378  11.296 -0.4539 -0.6131  0.2840
  593TMC3     H 8847   0.550   4.521  11.471 -0.4928 -1.3955 -0.6263
  593TMC3    H1 8848   0.684   4.598  11.081  0.5477 -0.1655  0.0924
  593TMC3    H2 8849   0.715   0.170  11.371 -1.3385 -0.5531  0.8395
  593TMC3    C7 8850   0.785   0.110  11.126  0.3798 -0.3960  0.4097
  593TMC3    C8 8851   0.580   0.028  11.558 -0.0885  0.5566  0.2494
  593TMC3    O1 8852   0.808   0.227  11.160  0.4015 -0.9023 -0.1165
  593TMC3    O2 8853   0.501   4.690  11.612  0.1376 -0.3763 -0.2545
  594MPD2     C 8854   3.130   2.956  13.792 -0.4159  0.0028  1.0923
  594MPD2    C1 8855   3.176   2.973  13.921  0.8496  0.1349  0.3110
  594MPD2    C2 8856   3.279   3.060  13.951  0.3406  0.7449  0.7086
  594MPD2    C3 8857   3.336   3.129  13.844  0.7907  0.1156 -0.1446
  594MPD2    C4 8858   3.299   3.099  13.712 -0.2751  0.3242 -0.4556
  594MPD2    C5 8859   3.205   2.998  13.685  0.5979  0.1229  0.1688
  594MPD2     H 8860   3.310   3.082  14.053 -1.0152  1.5257  0.9418
  594MPD2    H1 8861   3.351   3.147  13.630  3.4381  0.1813  1.8428
  594MPD2    H2 8862   3.062   2.873  13.777  0.2887 -0.2328 -0.7105
  594MPD2    H3 8863   3.192   2.956  13.586  1.7549  1.9970 -0.7829
  594MPD2     N 8864   3.434   3.229  13.867 -0.1080  0.0676 -0.5772
  594MPD2    H5 8865   3.443   3.267  13.961 -0.1563  0.1359 -0.5999
  594MPD2    N1 8866   3.094   2.917  14.024  0.1856 -0.1329  0.2309
  594MPD2    H7 8867   3.006   2.884  13.987  0.7276  2.3965 -3.3903
  595TMC3    C1 8868   3.742   3.561  13.842  0.3487  0.6111 -0.5276
  595TMC3    C2 8869   3.685   3.456  13.772  0.3473 -0.1665 -0.1948
  595TMC3    C3 8870   3.553   3.429  13.808 -0.4457 -0.3633  0.5808
  595TMC3    C4 8871   3.680   3.608  13.952  0.0860 -0.4797 -0.1525
  595TMC3    C5 8872   3.550   3.579  13.988  0.9765 -0.0800 -0.2969
  595TMC3    C6 8873   3.482   3.482  13.917  0.4951  0.4126 -0.6606
  595TMC3     C 8874   3.884   3.540  13.884 -0.1868 -0.3776 -0.0429
  595TMC3     O 8875   3.899   3.529  14.005 -0.2335  0.3838  0.6994
  595TMC3     H 8876   3.735   3.399  13.695  2.0776  1.0625  0.0214
  595TMC3    H1 8877   3.731   3.688  14.005 -1.4487 -1.1251  2.3001
  595TMC3    H2 8878   3.375   3.470  13.927  0.6591  0.8381  1.6873
  595TMC3    C7 8879   3.493   3.612  14.116 -0.8546 -0.3907 -0.2557
  595TMC3    C8 8880   3.500   3.295  13.767  0.1532 -0.6261 -0.0489
  595TMC3    O1 8881   3.382   3.658  14.107 -1.1167  0.2767  0.7230
  595TMC3    O2 8882   3.552   3.248  13.667 -0.2052  0.0684 -0.9753
  596MPD2     C 8883   2.457   0.918  16.447 -0.7604 -0.7808 -0.3389
  596MPD2    C1 8884   2.474   1.053  16.403  0.1451  0.2288  0.1939
  596MPD2    C2 8885   2.499   1.073  16.269  0.2744 -0.9351  0.1292
  596MPD2    C3 8886   2.501   0.973  16.180  0.0284  0.1062 -0.7147
  596MPD2    C4 8887   2.494   0.844  16.227 -0.4672 -0.4133 -0.2520
  596MPD2    C5 8888   2.464   0.815  16.359 -0.2693 -0.4994  0.3291
  596MPD2     H 8889   2.501   1.177  16.238  1.0792 -0.2209  2.5754
  596MPD2    H1 8890   2.486   0.756  16.165  0.1590 -1.6626  1.4437
  596MPD2    H2 8891   2.440   0.890  16.550  1.2461 -0.1709  0.1549
  596MPD2    H3 8892   2.437   0.714  16.389  0.0936 -0.3908  1.0158
  596MPD2     N 8893   2.498   0.991  16.043  0.3672  0.1406 -0.6049
  596MPD2    H5 8894   2.488   0.904  15.991  4.1816 -0.2667 -0.6986
  596MPD2    N1 8895   2.457   1.169  16.482 -0.2949  0.1722 -0.6941
  596MPD2    H7 8896   2.457   1.261  16.439 -0.5539  1.3308  1.7575
  597TMC3    C1 8897   2.373   1.294  16.662  1.0483  0.2956 -0.5128
  597TMC3    C2 8898   2.382   1.406  16.586  0.9599 -0.5489  0.7049
  597TMC3    C3 8899   2.355   1.525  16.651  0.1585 -0.4829 -0.2730
  597TMC3    C4 8900   2.333   1.291  16.792 -0.6072 -0.5225 -1.0037
  597TMC3    C5 8901   2.313   1.415  16.853 -0.2946 -0.3234  0.5973
  597TMC3    C6 8902   2.314   1.533  16.781  0.3570 -0.2156 -0.0547
  597TMC3     C 8903   2.421   1.166  16.613 -0.5907  0.2469  0.9811
  597TMC3     O 8904   2.416   1.076  16.695 -0.1493 -0.1263  0.3970
  597TMC3     H 8905   2.391   1.399  16.478 -1.4280  0.7527  0.4117
  597TMC3    H1 8906   2.323   1.198  16.848 -4.1897  0.4763  0.0132
  597TMC3    H2 8907   2.310   1.634  16.821 -0.4420 -1.0000  1.8963
  597TMC3    C7 8908   2.216   1.418  16.962 -0.0592 -0.1089  0.2116
  597TMC3    C8 8909   2.405   1.650  16.605 -0.1525 -0.1733 -0.3840
  597TMC3    O1 8910   2.138   1.321  16.971  0.2240  0.0945  0.2058
  597TMC3    O2 8911   2.351   1.752  16.644 -0.2187 -0.4968  0.0919
  598TMC3    C1 8912   0.691   2.688  15.033 -0.2706  0.6030  0.0200
  598TMC3    C2 8913   0.617   2.580  15.074 -0.2287 -0.8376 -0.3695
  598TMC3    C3 8914   0.517   2.535  14.994  1.0362  0.1095  0.3679
  598TMC3    C4 8915   0.638   2.763  14.933  0.0551  0.1762  0.4390
  598TMC3    C5 8916   0.534   2.717  14.858 -0.0612 -0.6390  0.5525
  598TMC3    C6 8917   0.476   2.599  14.884  0.6117  0.1448  0.1385
  598TMC3     C 8918   0.791   2.752  15.123 -0.1324  0.2610 -0.8772
  598TMC3     O 8919   0.795   2.873  15.117  0.0743  0.6570 -0.1922
  598TMC3     H 8920   0.647   2.529  15.165  0.1061  1.1843  0.6707
  598TMC3    H1 8921   0.686   2.858  14.912 -0.6236  0.7891  1.6980
  598TMC3    H2 8922   0.408   2.547  14.817  2.0710 -1.8608  0.2095
  598TMC3    C7 8923   0.545   2.760  14.719  0.7981  1.0415 -0.3559
  598TMC3    C8 8924   0.441   2.412  15.023 -0.2678  0.4817  0.7058
  598TMC3    O1 8925   0.493   2.694  14.632  0.3521  0.1647  0.2723
  598TMC3    O2 8926   0.503   2.324  15.081  0.0439 -0.2357 -0.9664
  599MPD2     C 8927   0.794   0.155  15.412  0.2260  0.7376 -0.1014
  599MPD2    C1 8928   0.730   0.037  15.421  0.3796  0.6335 -0.0734
  599MPD2    C2 8929   0.599   0.035  15.461  0.6065  0.1544  0.1406
  599MPD2    C3 8930   0.535   0.152  15.505  0.2727 -0.3576  0.5442
  599MPD2    C4 8931   0.600   0.273  15.494  0.5745 -0.1489  0.1277
  599MPD2    C5 8932   0.727   0.270  15.443 -0.2784 -0.0231 -0.3477
  599MPD2     H 8933   0.544   4.677  15.466 -1.0446  1.2506  2.2357
  599MPD2    H1 8934   0.563   0.372  15.518 -0.2001 -0.7912  1.5367
  599MPD2    H2 8935   0.893   0.168  15.372  0.4728  0.0435  0.2854
  599MPD2    H3 8936   0.780   0.360  15.413 -0.0111 -1.1720 -3.3963
  599MPD2     N 8937   0.398   0.157  15.544 -0.4216  0.1156 -0.5018
  599MPD2    H5 8938   0.362   0.247  15.573 -0.6300 -0.4513  0.9654
  599MPD2    N1 8939   0.809   4.657  15.393  0.3209  0.3418  0.7911
  599MPD2    H7 8940   0.906   4.671  15.366  0.3507 -2.6266 -0.5530
  600TMC3    C1 8941   0.192   0.103  15.610 -0.2379 -0.3341  0.4978
  600TMC3    C2 8942   0.093   0.010  15.610  0.6516  0.1604 -0.0481
  600TMC3    C3 8943   4.704   0.048  15.650 -0.5342 -0.1848 -0.5873
  600TMC3    C4 8944   0.170   0.231  15.649 -0.0160 -0.4250 -0.1919
  600TMC3    C5 8945   0.045   0.259  15.700 -0.1495 -0.1208 -0.7405
  600TMC3    C6 8946   4.676   0.175  15.691 -0.0788 -0.1573 -0.3898
  600TMC3     C 8947   0.312   0.058  15.562 -0.4633 -0.2836 -0.1814
  600TMC3     O 8948   0.318   4.674  15.539 -0.6094 -0.5896 -0.6632
  600TMC3     H 8949   0.107   4.643  15.576 -0.9231 -0.1848  0.3116
  600TMC3    H1 8950   0.256   0.295  15.668 -0.4901  0.5161 -1.2056
  600TMC3    H2 8951   4.580   0.208  15.729 -0.8055 -1.2970 -1.2248
  600TMC3    C7 8952   0.033   0.383  15.773 -0.1253 -0.3614  0.2007
  600TMC3    C8 8953   4.590   4.712  15.599 -0.2092 -0.8220  1.0262
  600TMC3    O1 8954   4.690   0.378  15.866  0.1257 -0.1892  0.4661
  600TMC3    O2 8955   4.497   0.045  15.563 -0.1399  0.1661 -0.6903
  601MPD2     C 8956   2.872   2.994  17.712 -0.2356  0.2955  0.2967
  601MPD2    C1 8957   2.745   3.012   0.015 -0.3377  0.6531 -0.2367
  601MPD2    C2 8958   2.715   2.953   0.136 -0.2468 -0.1259 -0.6394
  601MPD2    C3 8959   2.810   2.885   0.218  0.1384  0.3911 -1.0116
  601MPD2    C4 8960   2.937   2.882   0.175  0.1319  0.1193  0.8032
  601MPD2    C5 8961   2.966   2.942   0.057  0.3915  0.1959 -0.3025
  601MPD2     H 8962   2.614   2.976   0.167 -0.5544 -2.0036 -0.2454
  601MPD2    H1 8963   3.015   2.834   0.234  1.3716 -0.4635 -1.3079
  601MPD2    H2 8964   2.902   3.027  17.613  0.0035  1.8254  0.8834
  601MPD2    H3 8965   3.069   2.923   0.028  0.8018 -0.6113  1.6833
  601MPD2     N 8966   2.788   2.831   0.345 -0.3357 -0.3221 -0.0016
  601MPD2    H5 8967   2.874   2.809   0.393  0.1622 -3.2653 -2.2403
  601MPD2    N1 8968   2.644   3.090  17.682  0.0500 -0.4719  0.8279
  601MPD2    H7 8969   2.547   3.090  17.712 -1.1550 -0.8239 -2.9868
  602TMC3    C1 8970   2.563   3.255  17.539 -0.2577  0.3671 -1.0061
  602TMC3    C2 8971   2.579   3.390  17.513 -0.1903  0.0661 -0.6912
  602TMC3    C3 8972   2.474   3.454  17.463  0.1970  0.0612  0.0714
  602TMC3    C4 8973   2.448   3.183  17.519  0.0430  0.5339 -0.4076
  602TMC3    C5 8974   2.348   3.251  17.457 -0.4881 -0.1956 -0.2437
  602TMC3    C6 8975   2.362   3.385  17.428 -0.1164  0.5558 -0.1458
  602TMC3     C 8976   2.677   3.184  17.585 -0.5563  0.7260 -0.7782
  602TMC3     O 8977   2.781   3.236  17.549 -0.0598 -0.6021 -0.2273
  602TMC3     H 8978   2.670   3.444  17.538  0.9421 -1.5485 -1.3695
  602TMC3    H1 8979   2.453   3.077  17.540 -1.8273  0.3217 -1.0350
  602TMC3    H2 8980   2.280   3.440  17.383 -1.7283 -0.7744  1.1439
  602TMC3    C7 8981   2.266   3.173  17.365  0.1575 -0.0640  0.0880
  602TMC3    C8 8982   2.505   3.595  17.426  0.1248  0.5135  0.3073
  602TMC3    O1 8983   2.234   3.056  17.387 -0.0318 -0.3600  0.6194
  602TMC3    O2 8984   2.572   3.676  17.491  0.0908 -0.2933 -0.0769
  603TMC3    C1 8985   1.427   3.928  10.698  0.0044 -0.2202  0.0321
  603TMC3    C2 8986   1.462   3.889  10.823 -0.4703  0.0409  0.0381
  603TMC3    C3 8987   1.523   3.978  10.908 -0.5354 -0.2567  0.4452
  603TMC3    C4 8988   1.449   4.054  10.646  0.1037 -0.3410 -0.9511
  603TMC3    C5 8989   1.513   4.140  10.740  0.4920  0.6898 -0.3138
  603TMC3    C6 8990   1.545   4.107  10.868  0.2367 -0.2648 -0.3010
  603TMC3     C 8991   1.330   3.846  10.627  0.7348 -0.3702  0.5327
  603TMC3     O 8992   1.284   3.880  10.520  0.0052 -0.0865 -0.6787
  603TMC3     H 8993   1.454   3.791  10.870 -0.9547 -1.2219 -2.6975
  603TMC3    H1 8994   1.412   4.084  10.549 -0.8278  2.8907  0.4233
  603TMC3    H2 8995   1.595   4.172  10.939 -0.7488 -1.4181  1.4472
  603TMC3    C7 8996   1.525   4.278  10.706  0.3962 -0.2144  0.4830
  603TMC3    C8 8997   1.558   3.924  11.039 -0.0712 -0.0735  0.3643
  603TMC3    O1 8998   1.548   4.360  10.793 -0.4193  0.5377 -0.1452
  603TMC3    O2 8999   1.577   3.803  11.041  0.0016 -0.2025  0.9554
  604MPD2     C 9000   1.912   2.452  16.371 -0.3751  0.0374  0.5003
  604MPD2    C1 9001   1.815   2.360  16.400  0.3623  0.4586  0.4575
  604MPD2    C2 9002   1.775   2.280  16.299  0.0311 -0.3746 -0.1177
  604MPD2    C3 9003   1.813   2.302  16.167 -0.0185  0.0632 -0.2939
  604MPD2    C4 9004   1.898   2.409  16.145  0.0837 -0.2044  0.3703
  604MPD2    C5 9005   1.966   2.465  16.246  0.0401  0.4640  0.1517
  604MPD2     H 9006   1.701   2.202  16.312 -3.0308  2.4979 -0.3511
  604MPD2    H1 9007   1.934   2.452  16.052 -0.8303  1.7366  0.9219
  604MPD2    H2 9008   1.949   2.521  16.446 -0.5660 -0.8764  1.4305
  604MPD2    H3 9009   2.033   2.546  16.222  0.5859 -0.0473 -0.0465
  604MPD2     N 9010   1.749   2.239  16.056  0.0197  0.1003 -0.0141
  604MPD2    H5 9011   1.666   2.182  16.074  0.1596  0.0720  0.5308
  604MPD2    N1 9012   1.768   2.363  16.533  0.1235 -0.5929  0.1170
  604MPD2    H7 9013   1.806   2.442  16.586 -0.6704  0.3496 -0.7228
  605TMC3    C1 9014   1.609   2.327  16.702 -0.5113 -0.2135 -1.0598
  605TMC3    C2 9015   1.672   2.441  16.742  0.0855  0.0055  0.5180
  605TMC3    C3 9016   1.612   2.564  16.758 -1.0854  0.0909  0.3110
  605TMC3    C4 9017   1.471   2.346  16.675  0.1124  0.4379 -0.1960
  605TMC3    C5 9018   1.419   2.475  16.668 -0.6425  0.7481  0.1059
  605TMC3    C6 9019   1.490   2.586  16.703 -0.2263 -0.6449  0.5343
  605TMC3     C 9020   1.676   2.275  16.585  0.1574 -0.0090  0.2866
  605TMC3     O 9021   1.623   2.181  16.527 -0.2334 -0.2054 -0.0420
  605TMC3     H 9022   1.779   2.445  16.763  0.4097 -0.2885 -1.0817
  605TMC3    H1 9023   1.424   2.266  16.619 -0.4316 -1.8585  3.6044
  605TMC3    H2 9024   1.436   2.680  16.709  1.0635  0.0322  1.3963
  605TMC3    C7 9025   1.300   2.493  16.582  0.6795 -0.0596 -0.3167
  605TMC3    C8 9026   1.705   2.676  16.790  0.4635 -0.2204  0.6365
  605TMC3    O1 9027   1.290   2.610  16.548 -0.5895 -0.6542  0.4344
  605TMC3    O2 9028   1.737   2.696  16.908  0.4144  0.2666  0.0880
  606TMC3    C1 9029   2.577   0.351  16.547 -0.6784  0.4853 -0.0523
  606TMC3    C2 9030   2.649   0.358  16.663  0.7669 -0.0227 -0.0935
  606TMC3    C3 9031   2.601   0.312  16.788  0.1521 -0.1796  0.1699
  606TMC3    C4 9032   2.459   0.289  16.545  0.7138  0.2431 -0.1037
  606TMC3    C5 9033   2.414   0.255  16.672  0.2718  0.4137 -0.7815
  606TMC3    C6 9034   2.479   0.252  16.795 -0.4290 -0.3518 -0.2716
  606TMC3     C 9035   2.657   0.377  16.424 -0.6239  0.2597  0.1413
  606TMC3     O 9036   2.778   0.388  16.439  0.3045 -0.1766 -0.1351
  606TMC3     H 9037   2.754   0.383  16.658  0.2303  2.1268 -0.5392
  606TMC3    H1 9038   2.394   0.269  16.460 -0.4567 -0.4225  0.9390
  606TMC3    H2 9039   2.436   0.230  16.892  1.3408  3.1807  1.3319
  606TMC3    C7 9040   2.312   0.147  16.662 -0.7197  0.0326  0.0246
  606TMC3    C8 9041   2.699   0.271  16.881 -0.2431  0.3652  0.0436
  606TMC3    O1 9042   2.301   0.089  16.560  0.3379 -0.6920 -0.1070
  606TMC3    O2 9043   2.796   0.344  16.900 -0.0448 -0.3169  0.2402
  607MPD2     C 9044   0.486   3.664  11.447  0.4664  0.3776  1.1120
  607MPD2    C1 9045   0.499   3.724  11.568 -0.4516 -0.6796 -0.2675
  607MPD2    C2 9046   0.506   3.640  11.676  0.1069  0.5975  0.2241
  607MPD2    C3 9047   0.495   3.504  11.666 -0.3270  0.1529 -0.2609
  607MPD2    C4 9048   0.466   3.441  11.549  0.1223 -0.2378 -1.0445
  607MPD2    C5 9049   0.465   3.526  11.435  0.2491 -0.1211  0.0381
  607MPD2     H 9050   0.535   3.683  11.771  0.9447  1.7593 -0.5515
  607MPD2    H1 9051   0.443   3.337  11.529 -0.4240 -0.4288  0.5427
  607MPD2    H2 9052   0.480   3.723  11.356  2.4422 -1.6117 -0.3392
  607MPD2    H3 9053   0.476   3.484  11.336 -2.7040  0.2023 -0.4406
  607MPD2     N 9054   0.520   3.434  11.785 -0.3767 -0.3050 -0.3247
  607MPD2    H5 9055   0.538   3.485  11.871 -0.6492  2.7304 -2.0708
  607MPD2    N1 9056   0.544   3.861  11.589  0.5449 -0.1923  0.0345
  607MPD2    H7 9057   0.581   3.871  11.683  1.6844 -0.5393 -0.3839
  608TMC3    C1 9058   0.629   4.067  11.560  0.2272 -1.0262 -0.4596
  608TMC3    C2 9059   0.652   4.059  11.690  0.0779 -0.1109 -0.8957
  608TMC3    C3 9060   0.751   4.140  11.743  1.1199 -0.1127  0.4103
  608TMC3    C4 9061   0.689   4.158  11.476 -0.5813 -0.5949 -0.1411
  608TMC3    C5 9062   0.781   4.237  11.529 -0.0915 -0.0794 -0.0666
  608TMC3    C6 9063   0.826   4.227  11.661 -0.6174  0.9354  0.0907
  608TMC3     C 9064   0.553   3.958  11.502 -0.5471 -0.5560 -0.2305
  608TMC3     O 9065   0.512   3.965  11.387  0.6807 -0.2518 -0.3498
  608TMC3     H 9066   0.576   4.023  11.759  1.9241 -2.4901 -0.0943
  608TMC3    H1 9067   0.661   4.154  11.371 -1.3881 -1.2762  0.1038
  608TMC3    H2 9068   0.898   4.292  11.709 -0.8203  1.1746  0.0725
  608TMC3    C7 9069   0.865   4.312  11.440  0.0931  0.0347 -0.1180
  608TMC3    C8 9070   0.805   4.104  11.869  0.2180 -0.1765 -0.6644
  608TMC3    O1 9071   0.880   4.263  11.331  0.4146 -0.0000  0.2013
  608TMC3    O2 9072   0.877   4.186  11.926 -0.0080 -0.0589  0.2134
  609TMC3    C1 9073   3.327   3.368   9.059 -0.3492 -0.2239 -0.5491
  609TMC3    C2 9074   3.305   3.480   8.982  0.3593 -0.0313 -0.7175
  609TMC3    C3 9075   3.374   3.478   8.860  0.2714  0.2881  0.7247
  609TMC3    C4 9076   3.390   3.259   9.006 -0.2703  0.6500  0.5574
  609TMC3    C5 9077   3.427   3.257   8.877  0.2797  0.2084 -0.3135
  609TMC3    C6 9078   3.432   3.372   8.804  0.8327 -0.3070  0.7268
  609TMC3     C 9079   3.279   3.367   9.193 -0.9368 -0.7151  0.1114
  609TMC3     O 9080   3.287   3.269   9.266 -0.5246  0.6515  0.5642
  609TMC3     H 9081   3.248   3.565   9.016  0.7609 -0.5894  1.3310
  609TMC3    H1 9082   3.386   3.171   9.068  0.1341  0.0367 -0.2930
  609TMC3    H2 9083   3.497   3.372   8.717 -0.4386  0.4918 -0.2291
  609TMC3    C7 9084   3.485   3.133   8.826  0.4384  0.2520  0.0376
  609TMC3    C8 9085   3.359   3.592   8.776 -0.2006  0.2000  0.4893
  609TMC3    O1 9086   3.547   3.074   8.909 -0.1209 -1.1049  0.0081
  609TMC3    O2 9087   3.399   3.583   8.663 -0.1616  0.5804 -0.5855
  610TMC3    C1 9088   1.257   3.609  12.303  0.1818 -0.0390 -0.2130
  610TMC3    C2 9089   1.262   3.650  12.172  0.1388  0.3460  0.9895
  610TMC3    C3 9090   1.237   3.560  12.069  0.8039 -0.7986 -0.0060
  610TMC3    C4 9091   1.231   3.474  12.332  0.3311  0.2588  0.6755
  610TMC3    C5 9092   1.214   3.384  12.226  0.1100  0.0987  0.2153
  610TMC3    C6 9093   1.208   3.429  12.100 -0.0833 -0.3833 -0.6941
  610TMC3     C 9094   1.236   3.704  12.410  0.2146 -0.1657 -0.1177
  610TMC3     O 9095   1.283   3.815  12.392  0.5858  0.2216 -0.4910
  610TMC3     H 9096   1.271   3.755  12.148 -2.2642  0.3318  0.0018
  610TMC3    H1 9097   1.231   3.435  12.434 -2.2629  0.6285  0.8181
  610TMC3    H2 9098   1.189   3.360  12.019  1.5040  0.8222 -2.1130
  610TMC3    C7 9099   1.208   3.244  12.263  0.7349  0.5267  0.8777
  610TMC3    C8 9100   1.179   3.622  11.950  0.5894 -0.1125  0.2312
  610TMC3    O1 9101   1.206   3.214  12.382 -0.1143 -0.2960  0.1161
  610TMC3    O2 9102   1.202   3.738  11.928 -0.1484  0.0050 -0.4277
  611MPD2     C 9103   0.825   3.843  10.067  0.1123  0.0669  0.0626
  611MPD2    C1 9104   0.789   3.913   9.956 -0.4960 -1.2763 -0.7706
  611MPD2    C2 9105   0.853   4.028   9.916 -0.1758  0.3096  0.2366
  611MPD2    C3 9106   0.960   4.075   9.989 -0.2013 -0.3218  0.1225
  611MPD2    C4 9107   1.007   3.993  10.088 -0.0045 -0.9098 -0.1688
  611MPD2    C5 9108   0.935   3.892  10.134 -1.3544  0.0103  0.0891
  611MPD2     H 9109   0.818   4.076   9.825 -0.9270 -0.6830 -0.0025
  611MPD2    H1 9110   1.100   4.023  10.136 -1.3220  2.7224  0.0814
  611MPD2    H2 9111   0.766   3.764  10.112 -0.2114  0.7034  0.7416
  611MPD2    H3 9112   0.961   3.850  10.231 -1.5902 -2.1604 -0.7892
  611MPD2     N 9113   1.034   4.195   9.959  0.0920 -0.7975 -0.5212
  611MPD2    H5 9114   1.106   4.219  10.026 -0.8005  2.6135 -0.7957
  611MPD2    N1 9115   0.662   3.872   9.910  0.9269 -0.3256  0.1806
  611MPD2    H7 9116   0.624   3.787   9.951  0.3552  0.2124  0.7744
  612TMC3    C1 9117   1.073   4.409   9.866  0.3802 -0.9880 -0.4780
  612TMC3    C2 9118   1.168   4.433   9.962  0.0136 -0.4846  0.5228
  612TMC3    C3 9119   1.248   4.544   9.956 -0.2678 -0.1352 -0.2245
  612TMC3    C4 9120   1.076   4.493   9.752 -0.3462 -0.7056 -0.0032
  612TMC3    C5 9121   1.169   4.599   9.738 -0.9321  0.3841  0.0644
  612TMC3    C6 9122   1.249   4.630   9.848 -0.1834  0.7655 -0.4937
  612TMC3     C 9123   0.994   4.284   9.863  0.8359  0.6584 -0.5286
  612TMC3     O 9124   0.911   4.274   9.770 -0.8637 -0.2050 -0.1790
  612TMC3     H 9125   1.153   4.391  10.061 -0.3015  0.2370  0.7783
  612TMC3    H1 9126   1.004   4.478   9.673  1.4206  2.2610 -2.2027
  612TMC3    H2 9127   1.311   4.718   9.853  4.1071 -2.3146 -0.0005
  612TMC3    C7 9128   1.181   4.687   9.622 -0.0524 -0.1314 -0.2338
  612TMC3    C8 9129   1.321   4.595  10.071  0.0532  0.6381 -0.1668
  612TMC3    O1 9130   1.247   0.054   9.640 -0.0114 -0.0410 -0.0037
  612TMC3    O2 9131   1.341   4.715  10.069  0.1692  0.7808 -0.5376
  613MPD2     C 9132   4.067   0.689  16.558 -0.0013 -0.3526  0.5249
  613MPD2    C1 9133   4.004   0.782  16.463  0.1207 -0.1919 -0.0643
  613MPD2    C2 9134   3.865   0.772  16.460  0.2525 -0.1596 -0.3375
  613MPD2    C3 9135   3.795   0.685  16.538 -0.8547 -0.0863 -0.5286
  613MPD2    C4 9136   3.862   0.608  16.626  0.3906  1.1911  0.3054
  613MPD2    C5 9137   3.996   0.598  16.637  0.1229 -0.3323  0.7784
  613MPD2     H 9138   3.816   0.820  16.377 -1.0828 -2.1222 -0.6889
  613MPD2    H1 9139   3.803   0.537  16.684  0.7333  1.6930  1.2725
  613MPD2    H2 9140   4.173   0.703  16.573 -0.5361  2.2544  1.9141
  613MPD2    H3 9141   4.050   0.539  16.710  1.7976 -0.9474 -0.9561
  613MPD2     N 9142   3.659   0.663  16.514  0.4431 -0.0902  0.4415
  613MPD2    H5 9143   3.614   0.584  16.560 -0.3654  0.4550  0.5833
  613MPD2    N1 9144   4.082   0.861  16.373  0.4404 -0.9131  0.1407
  613MPD2    H7 9145   4.182   0.841  16.375  0.8359  1.1363  1.4648
  614TMC3    C1 9146   4.100   0.952  16.156  0.4515  0.3629 -0.1469
  614TMC3    C2 9147   4.116   0.831  16.091  0.2105 -0.0846  0.5037
  614TMC3    C3 9148   4.096   0.832  15.956 -0.4387  0.7556 -0.6222
  614TMC3    C4 9149   4.071   1.064  16.088 -0.1645  0.1950 -0.1354
  614TMC3    C5 9150   4.072   1.063  15.950  0.2269  0.3424  0.2021
  614TMC3    C6 9151   4.076   0.944  15.880  0.0465  0.0893 -0.2655
  614TMC3     C 9152   4.025   0.939  16.276  0.1458  0.0715  0.1364
  614TMC3     O 9153   3.910   0.982  16.269  1.1994  0.3893 -0.2831
  614TMC3     H 9154   4.118   0.738  16.148 -1.0196 -1.7248 -2.1300
  614TMC3    H1 9155   4.054   1.162  16.131 -0.9914  0.4309 -1.0182
  614TMC3    H2 9156   4.039   0.933  15.779  1.3025  1.0134 -0.8220
  614TMC3    C7 9157   4.055   1.191  15.885  0.5030  0.4762 -0.2416
  614TMC3    C8 9158   4.001   0.730  15.912  0.3571 -0.5260  0.0466
  614TMC3    O1 9159   4.067   1.290  15.959 -0.2666 -0.4882 -0.0555
  614TMC3    O2 9160   3.895   0.765  15.864  0.1208  0.4530  0.1914
  615MPD2     C 9161   2.830   2.500  16.206  0.4108 -0.0971  0.2896
  615MPD2    C1 9162   2.935   2.576  16.157  0.6931 -1.0597 -0.5254
  615MPD2    C2 9163   2.907   2.675  16.065 -0.6519 -0.2234 -0.1239
  615MPD2    C3 9164   2.781   2.691  16.012 -0.6721  0.2687 -0.0713
  615MPD2    C4 9165   2.683   2.605  16.054  0.0783 -0.4928 -0.6783
  615MPD2    C5 9166   2.706   2.518  16.150  0.4651 -0.5559 -0.3404
  615MPD2     H 9167   2.984   2.742  16.029 -0.7837  0.4868  0.9164
  615MPD2    H1 9168   2.586   2.609  16.005 -0.5884 -0.2398  0.6855
  615MPD2    H2 9169   2.852   2.416  16.270 -0.6682  0.2368  1.0919
  615MPD2    H3 9170   2.628   2.445  16.170  1.9454 -2.8993 -3.0803
  615MPD2     N 9171   2.755   2.799  15.922 -0.4097 -1.1269 -0.1803
  615MPD2    H5 9172   2.668   2.793  15.871 -0.2071 -1.4547 -0.4880
  615MPD2    N1 9173   3.073   2.550  16.181 -0.1722  0.8120  0.1966
  615MPD2    H7 9174   3.143   2.608  16.136  0.3250 -0.1836 -0.3263
  616TMC3    C1 9175   3.257   2.411  16.227  0.3471 -0.2299  0.0162
  616TMC3    C2 9176   3.332   2.472  16.125  0.2698  0.2350  0.7906
  616TMC3    C3 9177   3.469   2.470  16.140  0.2557  0.2671  0.5754
  616TMC3    C4 9178   3.321   2.343  16.333  0.0571  0.1285 -0.4518
  616TMC3    C5 9179   3.457   2.341  16.334 -0.1095 -0.7867  0.4967
  616TMC3    C6 9180   3.532   2.405  16.243 -0.2188 -0.3495  0.3146
  616TMC3     C 9181   3.115   2.442  16.251 -0.5389  0.2523  0.9614
  616TMC3     O 9182   3.062   2.384  16.342  0.1511  0.3756  0.4526
  616TMC3     H 9183   3.292   2.517  16.034  0.6751  0.3752  0.6790
  616TMC3    H1 9184   3.262   2.302  16.414  1.3091  2.9080  1.8805
  616TMC3    H2 9185   3.639   2.403  16.256 -0.1170  1.1535 -0.2526
  616TMC3    C7 9186   3.519   2.297  16.465  1.1926  0.4665  0.2607
  616TMC3    C8 9187   3.550   2.568  16.064 -0.2680  0.0097  0.5274
  616TMC3    O1 9188   3.449   2.278  16.561 -0.4166  0.2887  0.4872
  616TMC3    O2 9189   3.487   2.643  15.993 -0.1018  0.2789 -0.4187
  617MPD2     C 9190   1.398   1.017  13.419  0.5225 -0.1953  0.3129
  617MPD2    C1 9191   1.443   0.900  13.479 -0.5826  0.0097 -0.5195
  617MPD2    C2 9192   1.349   0.835  13.563  0.8716  0.1522  0.5513
  617MPD2    C3 9193   1.220   0.874  13.566  0.5682 -0.0049  0.7626
  617MPD2    C4 9194   1.174   0.978  13.492  1.2781  0.6943 -0.0441
  617MPD2    C5 9195   1.264   1.046  13.413 -0.2349 -0.4637  0.0323
  617MPD2     H 9196   1.385   0.756  13.627  0.4383  0.4406  1.1527
  617MPD2    H1 9197   1.068   1.001  13.498  1.1474 -0.2260  1.0486
  617MPD2    H2 9198   1.467   1.080  13.363 -0.8384 -0.8991 -2.1660
  617MPD2    H3 9199   1.234   1.138  13.364 -0.9238  0.5678  2.4176
  617MPD2     N 9200   1.125   0.801  13.640 -0.1029 -0.2892  0.4572
  617MPD2    H5 9201   1.029   0.835  13.648 -0.4952 -1.3339  0.2676
  617MPD2    N1 9202   1.584   0.865  13.488 -0.4316 -0.2559 -1.2090
  617MPD2    H7 9203   1.602   0.782  13.544  3.8270  0.8745 -0.9508
  618TMC3    C1 9204   1.805   0.863  13.456  0.2194 -0.0231  0.6655
  618TMC3    C2 9205   1.798   0.729  13.452  0.0204  0.7247  1.0002
  618TMC3    C3 9206   1.919   0.672  13.436  0.1347 -0.0873  0.5324
  618TMC3    C4 9207   1.918   0.939  13.461  0.0885  0.1252 -0.3586
  618TMC3    C5 9208   2.034   0.873  13.447 -0.3291 -0.4472 -0.4103
  618TMC3    C6 9209   2.035   0.735  13.430 -0.1681 -0.9035 -0.0271
  618TMC3     C 9210   1.689   0.936  13.435  0.3375 -0.0635  0.1948
  618TMC3     O 9211   1.695   1.049  13.384 -0.6359 -0.1659  0.1905
  618TMC3     H 9212   1.708   0.671  13.435 -0.3042  0.7677  2.6065
  618TMC3    H1 9213   1.922   1.048  13.462  0.4209  0.1129 -0.2698
  618TMC3    H2 9214   2.135   0.697  13.415 -0.2883 -2.0229  2.0666
  618TMC3    C7 9215   2.146   0.960  13.441  0.6023 -0.7028 -0.9396
  618TMC3    C8 9216   1.918   0.539  13.397  0.6935 -0.0063 -0.5314
  618TMC3    O1 9217   2.151   1.039  13.537  0.2710 -0.6019  0.0303
  618TMC3    O2 9218   1.812   0.477  13.407  0.1157  0.4986  0.8189
  619MPD2     C 9219   2.775   2.205  13.221 -0.3517  0.6876  0.1631
  619MPD2    C1 9220   2.677   2.303  13.244 -0.1090 -0.5058 -0.0819
  619MPD2    C2 9221   2.548   2.263  13.269  0.2300  0.2076 -0.4278
  619MPD2    C3 9222   2.514   2.127  13.281  0.0876 -0.2468  0.2753
  619MPD2    C4 9223   2.615   2.041  13.263 -0.1705  0.0548  0.0631
  619MPD2    C5 9224   2.741   2.072  13.236 -0.0375  0.7613 -0.6568
  619MPD2     H 9225   2.472   2.340  13.272  0.4647  0.4064  0.5030
  619MPD2    H1 9226   2.592   1.935  13.273 -1.4694  0.5774  2.5038
  619MPD2    H2 9227   2.879   2.226  13.200 -0.8632 -0.9745 -4.1500
  619MPD2    H3 9228   2.824   2.007  13.212 -0.3986 -0.2597  0.9117
  619MPD2     N 9229   2.385   2.076  13.299 -0.3779  0.1609  0.1396
  619MPD2    H5 9230   2.371   1.976  13.293  0.6922 -0.1559  2.7398
  619MPD2    N1 9231   2.711   2.435  13.245 -0.3417 -0.8101 -0.2571
  619MPD2    H7 9232   2.638   2.497  13.279 -1.2121 -1.5282 -0.8498
  620TMC3    C1 9233   2.821   2.636  13.218  0.2888  0.1886  0.0163
  620TMC3    C2 9234   2.727   2.700  13.290 -0.9425  0.0380  0.9486
  620TMC3    C3 9235   2.706   2.829  13.263 -0.4008  0.0681  0.4852
  620TMC3    C4 9236   2.897   2.707  13.121  0.2020  0.1738  0.0504
  620TMC3    C5 9237   2.875   2.839  13.103  0.1273  1.0384 -0.2166
  620TMC3    C6 9238   2.777   2.907  13.171 -0.3583  0.9331  0.4861
  620TMC3     C 9239   2.830   2.492  13.202  0.5397  0.0662 -0.5432
  620TMC3     O 9240   2.919   2.444  13.140  0.6558  0.2274 -0.4133
  620TMC3     H 9241   2.662   2.644  13.356 -0.4830  1.0805  2.2791
  620TMC3    H1 9242   2.959   2.645  13.058  0.4169  1.3513 -0.8901
  620TMC3    H2 9243   2.753   3.013  13.166 -1.4283  0.5198 -2.9603
  620TMC3    C7 9244   2.954   2.907  13.004  0.1925  0.2682  0.0901
  620TMC3    C8 9245   2.591   2.900  13.325 -0.0176  0.1823 -0.1232
  620TMC3    O1 9246   3.045   2.841  12.955  0.6190 -0.3596  0.1143
  620TMC3    O2 9247   2.578   2.889  13.446 -0.2390  0.1040  0.0867
  621MPD2     C 9248   3.859   2.176   8.882  0.0785 -0.3467  0.2898
  621MPD2    C1 9249   3.956   2.157   8.974 -0.6376  0.2765  0.0143
  621MPD2    C2 9250   3.997   2.262   9.056 -0.3796 -0.6581  0.2427
  621MPD2    C3 9251   3.938   2.387   9.041  0.6703 -0.3020  1.2871
  621MPD2    C4 9252   3.837   2.399   8.951 -0.0558  0.1599 -0.2077
  621MPD2    C5 9253   3.798   2.300   8.870 -0.4907 -0.3228 -0.1424
  621MPD2     H 9254   4.068   2.253   9.138  0.1629 -3.1326 -0.5094
  621MPD2    H1 9255   3.797   2.498   8.934 -1.3341  0.0646  2.3802
  621MPD2    H2 9256   3.816   2.095   8.825  1.9006 -1.0386 -0.0848
  621MPD2    H3 9257   3.715   2.323   8.803 -0.4176 -3.2740 -1.2439
  621MPD2     N 9258   3.988   2.493   9.128  0.0092  0.5923  0.7918
  621MPD2    H5 9259   4.080   2.476   9.169  0.0295  0.1209  0.5619
  621MPD2    N1 9260   4.019   2.033   9.002 -0.4157 -0.7200 -0.2006
  621MPD2    H7 9261   4.081   2.025   9.082 -1.8092  0.6212  1.0072
  622TMC3    C1 9262   4.071   1.803   9.002 -0.2451 -0.2239 -0.6902
  622TMC3    C2 9263   4.161   1.844   9.099 -0.0476 -0.2567  0.7840
  622TMC3    C3 9264   4.158   1.777   9.213  0.2925  0.2817  0.8600
  622TMC3    C4 9265   3.984   1.699   9.025  0.1371 -0.4839 -0.3390
  622TMC3    C5 9266   3.992   1.626   9.141  1.2415  0.5906  0.0970
  622TMC3    C6 9267   4.083   1.660   9.233 -0.4583  0.3204  0.0249
  622TMC3     C 9268   4.001   1.911   8.934 -0.3572 -0.9006 -0.0284
  622TMC3     O 9269   3.943   1.889   8.829 -0.0371 -0.1719 -0.1648
  622TMC3     H 9270   4.230   1.926   9.089  0.1058 -0.7478 -2.1622
  622TMC3    H1 9271   3.902   1.695   8.953  0.0558  1.2065 -0.3433
  622TMC3    H2 9272   4.080   1.625   9.335 -0.5881 -0.0870 -0.1182
  622TMC3    C7 9273   3.882   1.539   9.184  0.1981 -0.2812 -1.0116
  622TMC3    C8 9274   4.183   1.850   9.338  0.1961  0.8353  0.5797
  622TMC3    O1 9275   3.890   1.503   9.303  0.1438 -0.5255 -0.2560
  622TMC3    O2 9276   4.277   1.925   9.342  0.0089  0.7707  0.4061
  623MPD2     C 9277   2.288   3.219  16.252 -0.3642  0.5280 -0.4769
  623MPD2    C1 9278   2.256   3.093  16.300  0.0263  0.1866 -0.3894
  623MPD2    C2 9279   2.303   3.059  16.430 -0.0768 -0.6257  0.8291
  623MPD2    C3 9280   2.379   3.148  16.505 -0.0933  0.2452  0.0758
  623MPD2    C4 9281   2.422   3.269  16.451  0.0165  0.4104 -0.0244
  623MPD2    C5 9282   2.373   3.304  16.327  0.4281  0.6562 -0.7593
  623MPD2     H 9283   2.288   2.961  16.474  2.6491 -1.2551  0.3471
  623MPD2    H1 9284   2.495   3.337  16.494 -0.7571  0.6914  0.8339
  623MPD2    H2 9285   2.254   3.259  16.157 -2.7106  0.2464  0.2377
  623MPD2    H3 9286   2.396   3.402  16.287  0.7960  0.9719  0.2297
  623MPD2     N 9287   2.431   3.100  16.632  0.4374  0.8243 -0.5183
  623MPD2    H5 9288   2.424   2.999  16.646 -2.2340  1.2215  0.9601
  623MPD2    N1 9289   2.157   3.000  16.244 -0.2698  0.5380 -0.1653
  623MPD2    H7 9290   2.138   2.910  16.287 -0.2334  0.1877 -0.8809
  624TMC3    C1 9291   2.554   2.909  16.928 -0.4345  0.0014  0.6358
  624TMC3    C2 9292   2.421   2.874  16.947  0.3067  0.2656 -0.2257
  624TMC3    C3 9293   2.322   2.965  16.921  0.2411 -0.0034  0.1728
  624TMC3    C4 9294   2.586   3.025  16.868  0.3974  0.1054 -0.0239
  624TMC3    C5 9295   2.482   3.116  16.848 -0.4492 -0.4143  0.5231
  624TMC3    C6 9296   2.353   3.088  16.876 -0.1640  0.1156 -0.0349
  624TMC3     C 9297   2.652   2.809  16.962  0.9016 -0.3342  0.5579
  624TMC3     O 9298   2.623   2.724  17.045  0.2661 -0.7975  0.7434
  624TMC3     H 9299   2.403   2.771  16.976  2.3461 -0.4276 -1.3988
  624TMC3    H1 9300   2.685   3.055  16.837  0.7144 -0.2361  0.6650
  624TMC3    H2 9301   2.284   3.163  16.839 -2.0275 -2.4435 -1.7012
  624TMC3    C7 9302   2.491   3.187  16.720 -0.1164  0.4519 -0.4531
  624TMC3    C8 9303   2.193   2.910  16.886  0.1165 -0.1390 -0.3878
  624TMC3    O1 9304   2.493   3.311  16.722 -0.2156 -0.2445 -0.1735
  624TMC3    O2 9305   2.162   2.802  16.933  0.4855  0.1307 -0.3587
  625MPD2     C 9306   2.182   3.651   0.554 -0.5802  0.4040  0.2299
  625MPD2    C1 9307   2.236   3.729   0.453  0.7620  0.3536 -0.3294
  625MPD2    C2 9308   2.372   3.718   0.427  0.0379  0.1785 -0.0513
  625MPD2    C3 9309   2.448   3.631   0.502  0.5619 -0.1465  0.7978
  625MPD2    C4 9310   2.386   3.555   0.599  0.5892  0.6483 -0.4822
  625MPD2    C5 9311   2.250   3.554   0.623  0.3279 -0.4175  0.6905
  625MPD2     H 9312   2.416   3.783   0.352  1.9082 -0.1371  0.7778
  625MPD2    H1 9313   2.446   3.491   0.663 -2.8701 -1.2294  0.8628
  625MPD2    H2 9314   2.075   3.650   0.571 -0.2395  0.0975  2.3483
  625MPD2    H3 9315   2.194   3.502   0.701 -0.4000 -0.6638  0.0032
  625MPD2     N 9316   2.589   3.629   0.471  0.3759  0.4663  0.2025
  625MPD2    H5 9317   2.628   3.693   0.403  0.4673 -0.7668 -0.9255
  625MPD2    N1 9318   2.153   3.822   0.394 -0.0013  0.0275  0.6970
  625MPD2    H7 9319   2.063   3.843   0.437 -0.1394 -1.3753  1.1127
  626TMC3    C1 9320   2.077   4.004   0.288  0.0385 -0.0202 -0.2557
  626TMC3    C2 9321   2.012   4.025   0.166  0.0690  0.2955  0.1546
  626TMC3    C3 9322   1.904   4.114   0.184 -0.5646  0.9027  0.0080
  626TMC3    C4 9323   2.063   4.078   0.402 -0.0861  0.3774  0.0661
  626TMC3    C5 9324   1.976   4.176   0.403 -0.4794  0.4106  0.6084
  626TMC3    C6 9325   1.889   4.193   0.299 -0.3886  0.1743  0.4048
  626TMC3     C 9326   2.179   3.907   0.290 -0.4758 -0.0450 -0.6070
  626TMC3     O 9327   2.260   3.901   0.199  0.3509 -0.1754  0.1041
  626TMC3     H 9328   2.019   3.960   0.079 -1.4375 -0.9066  0.9257
  626TMC3    H1 9329   2.134   4.060   0.482 -0.3434  0.0398  0.2159
  626TMC3    H2 9330   1.812   4.269   0.292  1.2761  1.9197  1.1600
  626TMC3    C7 9331   1.970   4.262   0.521  0.0378  0.3732 -0.1912
  626TMC3    C8 9332   1.808   4.131   0.073 -0.3399  0.1090  0.3884
  626TMC3    O1 9333   2.061   4.266   0.605  0.2959  0.2676 -0.2446
  626TMC3    O2 9334   1.851   4.126  17.702  0.5013  0.2049 -0.0866
  627MPD2     C 9335   0.768   4.180  13.955 -0.2288  0.1200 -0.6956
  627MPD2    C1 9336   0.817   4.119  14.066  0.9600 -0.5715 -0.7611
  627MPD2    C2 9337   0.765   3.993  14.093  0.3457  0.1171  0.1457
  627MPD2    C3 9338   0.663   3.934  14.013 -0.9353 -0.5604  0.2402
  627MPD2    C4 9339   0.624   3.999  13.897  0.8479  0.6681 -0.4448
  627MPD2    C5 9340   0.677   4.127  13.868  0.0823 -0.7185  1.1202
  627MPD2     H 9341   0.800   3.942  14.182 -2.3441  0.7732  1.5422
  627MPD2    H1 9342   0.544   3.969  13.829 -0.2098  0.2109  1.0112
  627MPD2    H2 9343   0.803   4.280  13.929 -0.3246  0.3018 -0.1261
  627MPD2    H3 9344   0.638   4.181  13.784 -2.2881  1.3543  3.5586
  627MPD2     N 9345   0.599   3.818  14.059  0.1779  0.1895  0.4828
  627MPD2    H5 9346   0.616   3.788  14.154 -0.7659 -0.0251  0.5910
  627MPD2    N1 9347   0.911   4.175  14.148  0.2993 -0.6156  0.3814
  627MPD2    H7 9348   0.952   4.111  14.216 -1.8156  0.5021  2.7114
  628TMC3    C1 9349   1.043   4.341  14.262 -0.0793 -0.2057  1.0919
  628TMC3    C2 9350   1.130   4.248  14.310 -0.2106  0.2544 -0.3972
  628TMC3    C3 9351   1.222   4.287  14.402  0.2323  0.0576 -0.0509
  628TMC3    C4 9352   1.052   4.465  14.303 -0.2219  0.1318  0.0933
  628TMC3    C5 9353   1.147   4.504  14.393 -0.3817 -0.5219 -0.4142
  628TMC3    C6 9354   1.226   4.413  14.448 -0.1656  0.4562  0.0060
  628TMC3     C 9355   0.945   4.308  14.158 -0.0017  0.0697  0.1623
  628TMC3     O 9356   0.890   4.407  14.112  0.1230 -0.3318 -0.4733
  628TMC3     H 9357   1.140   4.156  14.252 -2.5241 -0.6851  0.7030
  628TMC3    H1 9358   0.967   4.526  14.273 -1.2847  0.0054  2.8507
  628TMC3    H2 9359   1.316   4.445  14.500 -0.1810 -1.5500  1.2625
  628TMC3    C7 9360   1.168   4.649  14.430 -0.2927 -0.0519  0.0638
  628TMC3    C8 9361   1.348   4.220  14.393 -0.4759 -0.5885  0.9510
  628TMC3    O1 9362   1.256   4.658  14.515  0.3796  0.2062  0.5905
  628TMC3    O2 9363   1.447   4.284  14.359  0.3231  0.0595 -0.4655
  629MPD2     C 9364   3.964   2.676  15.812  0.3877  0.0192  0.0524
  629MPD2    C1 9365   4.005   2.604  15.920  0.4239 -0.4522 -0.2754
  629MPD2    C2 9366   3.911   2.555  16.007  0.2584 -0.2680  0.3196
  629MPD2    C3 9367   3.779   2.576  15.970  0.3928 -1.3612 -0.6063
  629MPD2    C4 9368   3.743   2.651  15.858 -0.3000 -0.2482  0.4696
  629MPD2    C5 9369   3.838   2.699  15.778 -0.1018 -0.2519  0.3419
  629MPD2     H 9370   3.936   2.511  16.103 -0.1124  0.0901  0.5808
  629MPD2    H1 9371   3.645   2.675  15.818 -0.7150  1.2217  2.3573
  629MPD2    H2 9372   4.039   2.723  15.750  0.8062  1.5099  1.6962
  629MPD2    H3 9373   3.818   2.754  15.687  0.8971  2.8695  2.0052
  629MPD2     N 9374   3.684   2.525  16.060  0.4060 -0.0591 -0.2169
  629MPD2    H5 9375   3.717   2.459  16.129  0.1962  0.7433  0.6525
  629MPD2    N1 9376   4.144   2.613  15.943 -0.0946  0.1420  0.1854
  629MPD2    H7 9377   4.211   2.663  15.886  1.7067 -1.0309  1.2666
  630TMC3    C1 9378   4.355   2.561  16.041  0.5788  0.6277 -0.5289
  630TMC3    C2 9379   4.410   2.639  15.944  0.4623 -0.2399  0.3441
  630TMC3    C3 9380   4.537   2.682  15.963  0.4489  0.1352 -0.1024
  630TMC3    C4 9381   4.424   2.523  16.150 -0.0390  0.2654 -0.8128
  630TMC3    C5 9382   4.547   2.581  16.176  0.0436 -0.4530  0.0705
  630TMC3    C6 9383   4.604   2.658  16.080  0.3784  0.0508  0.1669
  630TMC3     C 9384   4.208   2.557  16.049 -0.1882  0.2611 -0.0414
  630TMC3     O 9385   4.160   2.493  16.144 -0.1968 -0.2848  0.2093
  630TMC3     H 9386   4.358   2.663  15.852 -1.3426 -0.2196  1.3673
  630TMC3    H1 9387   4.375   2.477  16.235 -1.5739 -0.2854 -1.9969
  630TMC3    H2 9388   4.709   2.683  16.088  0.4564 -0.3766  0.4801
  630TMC3    C7 9389   4.568   2.619  16.313  0.2524 -0.1234 -0.1718
  630TMC3    C8 9390   4.603   2.792  15.878 -0.1428  0.2859  0.3778
  630TMC3    O1 9391   4.525   2.549  16.405  0.1515  0.3412  0.6319
  630TMC3    O2 9392   4.726   2.790  15.881 -0.1647 -0.3275  0.3469
  631MPD2     C 9393   2.207   2.913  15.106 -0.8688 -0.5031  0.0602
  631MPD2    C1 9394   2.306   3.006  15.093 -0.4948  0.2121 -0.2753
  631MPD2    C2 9395   2.412   3.016  15.181  0.6473  0.5767  0.2403
  631MPD2    C3 9396   2.408   2.948  15.298  1.2748  0.5295 -0.0237
  631MPD2    C4 9397   2.305   2.860  15.321 -0.0588 -0.7323 -0.4754
  631MPD2    C5 9398   2.210   2.846  15.224 -0.5116 -0.9291  0.1874
  631MPD2     H 9399   2.503   3.070  15.156 -0.2696  0.9413 -2.3462
  631MPD2    H1 9400   2.300   2.803  15.414  2.4559 -0.7250 -0.3520
  631MPD2    H2 9401   2.119   2.898  15.045  0.2616 -0.5047 -1.5622
  631MPD2    H3 9402   2.128   2.778  15.246 -0.3613 -1.7919 -1.9088
  631MPD2     N 9403   2.504   2.978  15.395 -0.1987  0.7293 -0.8432
  631MPD2    H5 9404   2.570   3.051  15.371 -1.0643  0.9850 -2.3784
  631MPD2    N1 9405   2.285   3.088  14.976 -0.1204 -0.6451  0.0920
  631MPD2    H7 9406   2.193   3.090  14.933  0.4205  1.1178 -1.0007
  632TMC3    C1 9407   2.341   3.234  14.800 -0.1320  0.1099 -0.5234
  632TMC3    C2 9408   2.216   3.286  14.794 -0.3144 -0.9466 -0.1563
  632TMC3    C3 9409   2.168   3.325  14.671  0.8316  0.2528 -0.0349
  632TMC3    C4 9410   2.416   3.220  14.690  0.3971 -0.3988  0.5587
  632TMC3    C5 9411   2.367   3.248  14.567  0.6117  0.4657  0.6367
  632TMC3    C6 9412   2.245   3.315  14.551  0.0396 -0.6104 -0.0246
  632TMC3     C 9413   2.384   3.159  14.917  0.8213 -0.0478 -0.2787
  632TMC3     O 9414   2.504   3.155  14.939  0.0388 -0.1226 -0.2752
  632TMC3     H 9415   2.144   3.296  14.874  0.3368 -0.0455  0.3160
  632TMC3    H1 9416   2.515   3.175  14.692  0.2281 -0.8846 -1.6452
  632TMC3    H2 9417   2.216   3.342  14.450 -0.4948 -3.3005 -0.6126
  632TMC3    C7 9418   2.447   3.238  14.450 -0.1647  0.0120  0.0925
  632TMC3    C8 9419   2.030   3.293  14.654 -0.4708  0.3966 -0.1384
  632TMC3    O1 9420   2.382   3.234  14.345  0.0736  0.5563  0.1145
  632TMC3    O2 9421   1.951   3.332  14.741  0.1468 -0.1516  0.1383
  633MPD2     C 9422   1.808   0.787  17.095  0.3172 -0.5270 -0.7701
  633MPD2    C1 9423   1.801   0.764  16.961  0.4171  0.4003  0.4897
  633MPD2    C2 9424   1.717   0.655  16.923  0.4788  0.7821  0.2039
  633MPD2    C3 9425   1.649   0.578  17.014 -0.2540  0.5780 -0.3187
  633MPD2    C4 9426   1.681   0.590  17.143 -0.4989 -0.2774  0.4746
  633MPD2    C5 9427   1.747   0.701  17.186 -0.7730  0.1492  0.4160
  633MPD2     H 9428   1.718   0.622  16.820  2.1593 -1.7614  1.0165
  633MPD2    H1 9429   1.633   0.525  17.215  0.4374  0.0408  1.3796
  633MPD2    H2 9430   1.876   0.863  17.132 -0.3215 -0.2223 -0.2329
  633MPD2    H3 9431   1.759   0.717  17.292  2.9361  0.9015 -0.0854
  633MPD2     N 9432   1.559   0.475  16.977  0.1841  0.0798  0.1189
  633MPD2    H5 9433   1.528   0.407  17.045  2.0955 -0.4978  0.4106
  633MPD2    N1 9434   1.889   0.826  16.867  0.2498 -0.0046 -0.3847
  633MPD2    H7 9435   1.869   0.805  16.770  0.2661 -0.3123 -0.3231
  634TMC3    C1 9436   2.013   1.001  16.757  0.3352 -0.6980  0.5151
  634TMC3    C2 9437   2.056   0.907  16.659  0.1809  0.0799  0.4463
  634TMC3    C3 9438   2.102   0.959  16.544  0.9029 -0.0138  0.7184
  634TMC3    C4 9439   2.016   1.138  16.743  0.0592 -1.1180 -0.6860
  634TMC3    C5 9440   2.061   1.182  16.617  0.4061  0.2139 -0.5065
  634TMC3    C6 9441   2.102   1.093  16.515  0.6771 -0.1599  0.0769
  634TMC3     C 9442   1.969   0.938  16.884 -0.3230 -0.3725  0.4902
  634TMC3     O 9443   1.982   1.005  16.984 -0.1710 -0.2272 -0.2656
  634TMC3     H 9444   2.047   0.800  16.675  2.4676  0.0371  1.4235
  634TMC3    H1 9445   1.992   1.196  16.831  1.7730 -1.5005  0.0342
  634TMC3    H2 9446   2.152   1.131  16.426 -1.0088 -0.2199 -0.9002
  634TMC3    C7 9447   2.029   1.317  16.572  0.3334 -0.6250  0.3621
  634TMC3    C8 9448   2.092   0.868  16.433 -0.3066  0.0411 -0.2928
  634TMC3    O1 9449   2.058   1.348  16.459 -0.1870 -0.4461 -0.1465
  634TMC3    O2 9450   2.064   0.747  16.443  0.1616  0.2942  0.3380
  635TMC3    C1 9451   2.088   2.263   1.151  0.1057 -0.5681 -0.0970
  635TMC3    C2 9452   1.955   2.282   1.194 -0.4541  0.4132 -0.7985
  635TMC3    C3 9453   1.902   2.177   1.269 -0.3650 -0.2088 -0.1089
  635TMC3    C4 9454   2.151   2.140   1.149 -0.5777 -0.2166  0.7675
  635TMC3    C5 9455   2.085   2.036   1.208  0.9817  0.4441 -0.2681
  635TMC3    C6 9456   1.963   2.058   1.264 -0.1902 -0.1161 -0.4422
  635TMC3     C 9457   2.162   2.365   1.088 -0.7059  0.2007  0.4445
  635TMC3     O 9458   2.266   2.341   1.029  0.2412 -0.5244  0.0101
  635TMC3     H 9459   1.916   2.383   1.198 -0.0821  0.5238 -0.0385
  635TMC3    H1 9460   2.250   2.128   1.106 -0.2006 -2.0695  2.1869
  635TMC3    H2 9461   1.921   1.968   1.308 -2.2785  1.7415  1.2986
  635TMC3    C7 9462   2.159   1.925   1.256 -0.0837  1.0243  0.4792
  635TMC3    C8 9463   1.779   2.198   1.346 -0.3297  0.9201  0.2343
  635TMC3    O1 9464   2.136   1.897   1.374 -0.4555  0.0582  0.1109
  635TMC3    O2 9465   1.729   2.306   1.319 -0.2189 -0.7943 -0.2635
  636MPD2     C 9466   2.834   1.122  16.176 -0.7787  0.1173  0.5477
  636MPD2    C1 9467   2.960   1.181  16.179  0.7892  0.0422  0.7411
  636MPD2    C2 9468   3.064   1.094  16.190 -0.6059  0.0064  0.4897
  636MPD2    C3 9469   3.057   0.955  16.183 -0.0710 -0.4580 -0.0449
  636MPD2    C4 9470   2.934   0.905  16.156  0.0671  0.4726  0.1100
  636MPD2    C5 9471   2.823   0.987  16.167  0.5076 -0.4719 -0.4295
  636MPD2     H 9472   3.164   1.133  16.205 -0.0272 -0.4738 -2.0794
  636MPD2    H1 9473   2.907   0.802  16.140  0.1474  0.3053  1.0267
  636MPD2    H2 9474   2.741   1.177  16.179 -0.0182  1.4918 -0.9714
  636MPD2    H3 9475   2.730   0.933  16.164 -1.4932  2.9027  1.1873
  636MPD2     N 9476   3.173   0.876  16.200 -0.0068  0.5045  0.2504
  636MPD2    H5 9477   3.250   0.929  16.239 -0.0309  1.6308 -1.2084
  636MPD2    N1 9478   2.992   1.326  16.178  0.2915  0.7183 -0.2568
  636MPD2    H7 9479   3.089   1.355  16.175  1.4823 -3.3106 -0.7378
  637TMC3    C1 9480   3.292   0.676  16.235 -1.0853 -0.1883 -0.1727
  637TMC3    C2 9481   3.370   0.734  16.332 -0.5690 -0.1672  0.4842
  637TMC3    C3 9482   3.465   0.656  16.383 -0.8415  0.0704  0.0667
  637TMC3    C4 9483   3.327   0.549  16.188 -0.4544 -0.0181  0.6302
  637TMC3    C5 9484   3.423   0.471  16.255 -0.3646 -0.1198 -0.1272
  637TMC3    C6 9485   3.496   0.525  16.356  0.2180 -0.6530  0.0674
  637TMC3     C 9486   3.174   0.741  16.181 -0.5915 -0.4341 -0.4200
  637TMC3     O 9487   3.098   0.662  16.129 -0.0139 -0.2908  0.1441
  637TMC3     H 9488   3.345   0.831  16.373  3.0466  1.3535 -0.9057
  637TMC3    H1 9489   3.270   0.506  16.107 -3.2547  2.0719  1.4747
  637TMC3    H2 9490   3.581   0.477  16.404 -0.2024  0.1900  1.6651
  637TMC3    C7 9491   3.499   0.390  16.168  0.9321 -0.8213  0.1907
  637TMC3    C8 9492   3.579   0.730  16.425 -0.4749  0.2988  0.3427
  637TMC3    O1 9493   3.509   0.272  16.193  0.0930  0.1284  0.3555
  637TMC3    O2 9494   3.584   0.842  16.376  0.2741 -0.3805 -0.4869
  638MPD2     C 9495   3.208   0.333  14.792 -0.2190 -0.1191 -0.2242
  638MPD2    C1 9496   3.172   0.219  14.736  0.3160  0.1302  0.1622
  638MPD2    C2 9497   3.106   0.118  14.814 -0.0260 -0.4164 -0.4204
  638MPD2    C3 9498   3.084   0.137  14.947  0.8955  0.1328 -0.3133
  638MPD2    C4 9499   3.125   0.255  15.002  0.0268  0.5420  0.1795
  638MPD2    C5 9500   3.186   0.357  14.925 -0.4092  0.5342 -0.1145
  638MPD2     H 9501   3.077   0.021  14.776  1.1831 -1.5069  1.4366
  638MPD2    H1 9502   3.116   0.266  15.109 -2.9997 -0.6254  0.0601
  638MPD2    H2 9503   3.257   0.408  14.731 -0.0689  0.4935  0.6581
  638MPD2    H3 9504   3.215   0.447  14.978 -1.2157 -0.8624  2.6650
  638MPD2     N 9505   3.050   0.028  15.031 -0.6343 -0.7487 -0.5298
  638MPD2    H5 9506   3.065   0.038  15.131  0.3594  0.8008 -0.8378
  638MPD2    N1 9507   3.199   0.196  14.601  0.3849 -0.2950 -0.0196
  638MPD2    H7 9508   3.265   0.254  14.549 -0.1305 -1.3413 -1.8048
  639TMC3    C1 9509   2.984   4.541  15.073  0.5694  0.4911 -0.0675
  639TMC3    C2 9510   2.870   4.473  15.065 -0.3523 -0.2014  0.2625
  639TMC3    C3 9511   2.876   4.333  15.079 -0.2892  0.4327  0.5590
  639TMC3    C4 9512   3.104   4.486  15.084 -0.1071 -0.1058  0.7801
  639TMC3    C5 9513   3.110   4.350  15.090  0.5788  0.2487 -0.0553
  639TMC3    C6 9514   2.993   4.267  15.090 -0.1780  0.5977 -0.0057
  639TMC3     C 9515   2.976   4.658  14.987  0.2322  0.0196  0.3890
  639TMC3     O 9516   2.908   4.641  14.887 -0.3485  0.2819  0.3875
  639TMC3     H 9517   2.780   4.528  15.042 -1.9244 -2.3204  1.3897
  639TMC3    H1 9518   3.191   4.550  15.069 -0.0584 -0.5902 -1.0280
  639TMC3    H2 9519   2.992   4.159  15.086  1.4892  0.6015 -0.6419
  639TMC3    C7 9520   3.225   4.272  15.061 -0.0032 -0.5274  0.0793
  639TMC3    C8 9521   2.784   4.268  15.004  0.0200  0.0204 -0.6152
  639TMC3    O1 9522   3.216   4.151  15.075  0.0667  0.4896  0.0928
  639TMC3    O2 9523   2.835   4.204  14.912  0.4397 -0.4098  0.0750
  640MPD2     C 9524   3.655   4.079   8.972  0.1361 -0.1589 -0.6546
  640MPD2    C1 9525   3.675   3.954   9.028  0.8144  0.3694 -0.8568
  640MPD2    C2 9526   3.653   3.947   9.161 -0.1797  0.4730 -0.6827
  640MPD2    C3 9527   3.631   4.060   9.242  0.7167  0.8176 -0.5259
  640MPD2    C4 9528   3.648   4.183   9.187 -0.4472  0.2138  0.1933
  640MPD2    C5 9529   3.652   4.189   9.048  0.4377  0.3154 -0.3957
  640MPD2     H 9530   3.664   3.849   9.206 -2.9199  0.6009  0.2851
  640MPD2    H1 9531   3.648   4.277   9.242 -1.0541  0.4032 -0.1300
  640MPD2    H2 9532   3.632   4.091   8.867  2.9307  0.0459 -1.2413
  640MPD2    H3 9533   3.648   4.288   9.003 -2.3663  0.7442  0.7409
  640MPD2     N 9534   3.617   4.052   9.384 -0.1091 -0.0754  0.0890
  640MPD2    H5 9535   3.658   4.129   9.437  0.4017  0.4825 -1.1336
  640MPD2    N1 9536   3.695   3.846   8.945  0.6666 -0.7395  0.9385
  640MPD2    H7 9537   3.707   3.855   8.845 -1.8876 -1.3009  0.5710
  641TMC3    C1 9538   3.752   3.628   8.883  0.6185  0.4209  0.1879
  641TMC3    C2 9539   3.841   3.530   8.925  0.7136 -0.5352  0.0626
  641TMC3    C3 9540   3.905   3.460   8.831  0.5051 -0.6086 -0.1797
  641TMC3    C4 9541   3.718   3.659   8.757  0.7865 -0.4841  0.6586
  641TMC3    C5 9542   3.786   3.582   8.661  0.1929  0.2086  0.5455
  641TMC3    C6 9543   3.867   3.482   8.699  0.1129 -0.4637  0.4181
  641TMC3     C 9544   3.699   3.711   8.983 -0.0980  0.6187  0.0135
  641TMC3     O 9545   3.678   3.662   9.092 -0.3645  0.4730  0.2625
  641TMC3     H 9546   3.862   3.513   9.030  2.2712 -1.3520 -0.3814
  641TMC3    H1 9547   3.624   3.710   8.735  0.2643 -0.4762  2.8409
  641TMC3    H2 9548   3.904   3.410   8.627 -0.2411  0.1179 -0.3483
  641TMC3    C7 9549   3.738   3.589   8.526 -0.5206  0.5217 -0.1111
  641TMC3    C8 9550   3.965   3.332   8.858  0.8263  0.1893  0.1065
  641TMC3    O1 9551   3.752   3.497   8.443 -0.1021 -0.2648  0.3407
  641TMC3    O2 9552   3.944   3.246   8.774  0.1750  0.0985 -0.0408
  642TMC3    C1 9553   0.456   4.551  12.031 -0.1403  0.9437 -0.5312
  642TMC3    C2 9554   0.574   4.597  11.983  0.3375  0.0376  0.4205
  642TMC3    C3 9555   0.624   4.553  11.865 -0.0466  0.4604  0.6052
  642TMC3    C4 9556   0.380   4.476  11.948  0.1571 -0.5346 -0.1789
  642TMC3    C5 9557   0.433   4.431  11.824 -0.1333  0.1228  0.3104
  642TMC3    C6 9558   0.558   4.461  11.789  0.2434 -0.3816 -0.3036
  642TMC3     C 9559   0.387   4.640  12.124 -0.3438 -0.9539  0.3820
  642TMC3     O 9560   0.453   4.734  12.168 -0.2093  0.5005 -0.1762
  642TMC3     H 9561   0.607   4.686  12.036  2.5846  0.7874 -2.2355
  642TMC3    H1 9562   0.273   4.466  11.957  0.2714  0.4681  2.4230
  642TMC3    H2 9563   0.593   4.437  11.690  1.7299  2.7710 -0.5433
  642TMC3    C7 9564   0.376   4.318  11.752  0.0673  0.0975 -0.0068
  642TMC3    C8 9565   0.764   4.584  11.828 -0.3790  0.8142 -0.1105
  642TMC3    O1 9566   0.433   4.292  11.648 -0.7886  0.4738  1.1560
  642TMC3    O2 9567   0.811   4.525  11.733  0.5523 -0.3262  0.1380
  643TMC3    C1 9568   3.395   3.997  17.681 -0.1531  0.7451  0.4788
  643TMC3    C2 9569   3.417   4.126  17.724 -0.1326  0.1693 -0.2794
  643TMC3    C3 9570   3.487   4.220  17.645  0.3388  0.1533  0.2843
  643TMC3    C4 9571   3.441   3.951  17.562  0.1208 -0.4411  0.8362
  643TMC3    C5 9572   3.522   4.037  17.497  0.1133 -0.4818 -0.1984
  643TMC3    C6 9573   3.536   4.166  17.526  0.0226  0.2334  0.3201
  643TMC3     C 9574   3.392   3.892   0.041 -0.0575  0.2099 -0.4903
  643TMC3     O 9575   3.296   3.824   0.044  0.0723  0.2342 -0.7281
  643TMC3     H 9576   3.376   4.162   0.077  0.4351  1.2125 -0.4284
  643TMC3    H1 9577   3.413   3.853  17.525  1.2322  0.1510 -1.5525
  643TMC3    H2 9578   3.602   4.224  17.463 -2.1280  0.5395 -1.6731
  643TMC3    C7 9579   3.576   3.994  17.363 -0.0237 -0.2629  0.5119
  643TMC3    C8 9580   3.472   4.364  17.665  0.5737 -0.8889 -0.3720
  643TMC3    O1 9581   3.616   4.083  17.291 -0.2136  0.0565  0.2292
  643TMC3    O2 9582   3.442   4.404   0.036 -0.2659  0.5476  0.5787
  644MPD2     C 9583   4.136   3.614   8.496 -0.2365  0.0187 -0.1982
  644MPD2    C1 9584   4.195   3.592   8.614 -0.0757 -0.4794  0.5023
  644MPD2    C2 9585   4.172   3.680   8.721  0.0788 -0.2997 -0.1764
  644MPD2    C3 9586   4.106   3.801   8.710  0.1306  0.3161 -0.4267
  644MPD2    C4 9587   4.050   3.826   8.587 -0.2061 -0.2273  0.6331
  644MPD2    C5 9588   4.056   3.726   8.485 -0.7155 -0.3202  0.3932
  644MPD2     H 9589   4.221   3.667   8.816  0.4674  1.6755 -0.1122
  644MPD2    H1 9590   3.993   3.916   8.567 -1.0086 -0.5116  1.6790
  644MPD2    H2 9591   4.147   3.545   8.413 -0.6723 -1.1718  0.7452
  644MPD2    H3 9592   3.999   3.753   8.396  2.0009  2.7681 -0.3969
  644MPD2     N 9593   4.103   3.879   8.826  0.0274 -0.5854  0.9374
  644MPD2    H5 9594   4.150   3.845   8.909 -0.4013 -0.4828  1.2263
  644MPD2    N1 9595   4.265   3.468   8.620 -0.3075 -0.0604  0.0321
  644MPD2    H7 9596   4.245   3.403   8.545 -0.4885 -0.2689  0.2627
  645TMC3    C1 9597   4.044   4.060   8.962 -0.8657  0.0025 -0.5177
  645TMC3    C2 9598   4.031   4.192   8.969  0.1034  0.0366 -0.1842
  645TMC3    C3 9599   4.000   4.244   9.092 -0.8080 -0.3758  0.2926
  645TMC3    C4 9600   4.015   3.982   9.069  0.4993 -0.0586  0.1183
  645TMC3    C5 9601   3.989   4.037   9.193  0.2384  0.1291  0.1215
  645TMC3    C6 9602   3.970   4.167   9.207  0.0776  0.2320 -0.3306
  645TMC3     C 9603   4.036   4.001   8.831  0.2327 -0.4712 -0.3190
  645TMC3     O 9604   3.971   4.062   8.748 -0.7558 -0.0190  0.0965
  645TMC3     H 9605   4.049   4.262   8.888 -0.1307  0.6953  0.3291
  645TMC3    H1 9606   4.001   3.877   9.046  0.7271 -0.4267  1.6758
  645TMC3    H2 9607   3.914   4.205   9.292 -1.3756  0.1045 -1.2288
  645TMC3    C7 9608   3.984   3.952   9.303 -0.0635 -0.5442  1.2841
  645TMC3    C8 9609   4.001   4.387   9.098 -0.4145 -0.7814 -0.7446
  645TMC3    O1 9610   3.958   3.834   9.275 -0.0126 -0.1270 -0.3814
  645TMC3    O2 9611   4.016   4.445   8.986  0.7029  0.5495  0.4609
  646MPD2     C 9612   3.119   3.537  14.366  0.3184 -0.4080 -0.1787
  646MPD2    C1 9613   3.048   3.529  14.483  0.3012 -0.1084  1.3092
  646MPD2    C2 9614   2.920   3.589  14.501  0.2533 -0.3943 -0.3523
  646MPD2    C3 9615   2.872   3.657  14.397 -0.2394 -0.1065 -0.9961
  646MPD2    C4 9616   2.948   3.660  14.279  0.7062 -0.0782  0.0540
  646MPD2    C5 9617   3.074   3.610  14.266  0.2402 -0.0604 -0.5269
  646MPD2     H 9618   2.862   3.578  14.592  0.5022 -0.3885 -0.1924
  646MPD2    H1 9619   2.902   3.688  14.185  2.3221 -0.6203 -0.8774
  646MPD2    H2 9620   3.220   3.501  14.375 -0.1753 -1.4907  1.1203
  646MPD2    H3 9621   3.125   3.622  14.171 -1.7241 -1.2861 -1.7457
  646MPD2     N 9622   2.745   3.721  14.401 -0.0941  0.2772  0.0448
  646MPD2    H5 9623   2.679   3.709  14.477 -0.7382 -1.8484 -0.8387
  646MPD2    N1 9624   3.112   3.448  14.583  0.2899  0.0072 -0.4429
  646MPD2    H7 9625   3.198   3.400  14.557  0.9986  1.5225 -0.8998
  647TMC3    C1 9626   3.150   3.334  14.795  0.1188 -0.1874 -0.3859
  647TMC3    C2 9627   3.086   3.275  14.903  0.0787 -0.1256 -0.1729
  647TMC3    C3 9628   3.155   3.179  14.975 -1.0721  0.2922 -0.0165
  647TMC3    C4 9629   3.270   3.283  14.742  0.6875  0.4564  0.4170
  647TMC3    C5 9630   3.335   3.191  14.821  0.3271  0.2637  0.1876
  647TMC3    C6 9631   3.278   3.130  14.926  0.2852 -0.3253 -0.1237
  647TMC3     C 9632   3.061   3.419  14.711  0.4637  0.5121  0.2276
  647TMC3     O 9633   2.954   3.464  14.751  0.7167 -1.0964  0.5393
  647TMC3     H 9634   2.989   3.307  14.939  1.6706 -0.0392  4.1309
  647TMC3    H1 9635   3.316   3.335  14.659  0.1070 -1.7605 -1.2923
  647TMC3    H2 9636   3.325   3.052  14.984  0.5619 -0.0091  0.0758
  647TMC3    C7 9637   3.470   3.151  14.789  0.0912  0.1893 -0.4567
  647TMC3    C8 9638   3.098   3.114  15.088 -0.1217 -0.4602 -0.0403
  647TMC3    O1 9639   3.524   3.110  14.887  0.1828  0.6527 -0.6482
  647TMC3    O2 9640   3.185   3.057  15.150  0.4611 -0.4504 -0.2737
  648TMC3    C1 9641   2.471   1.080  15.830 -0.1061 -0.1704  0.5112
  648TMC3    C2 9642   2.485   0.952  15.783 -0.6084 -0.7094 -0.8896
  648TMC3    C3 9643   2.409   0.932  15.664  0.5380 -0.1238 -0.4861
  648TMC3    C4 9644   2.389   1.181  15.774  0.3768 -0.1065  0.5234
  648TMC3    C5 9645   2.315   1.143  15.663  0.3642 -0.0735 -0.6665
  648TMC3    C6 9646   2.331   1.022  15.606  0.0013 -0.4632  0.2618
  648TMC3     C 9647   2.502   1.109  15.969  0.0413  0.9293 -0.1197
  648TMC3     O 9648   2.515   1.227  16.002  0.0987  0.5367 -0.2512
  648TMC3     H 9649   2.536   0.875  15.840 -3.1883 -1.2083  0.7256
  648TMC3    H1 9650   2.390   1.278  15.822  0.2197 -0.2262  0.7729
  648TMC3    H2 9651   2.289   0.999  15.509 -0.3589  0.4472  0.1989
  648TMC3    C7 9652   2.237   1.246  15.593  0.0428  0.2538  0.1597
  648TMC3    C8 9653   2.448   0.806  15.592 -0.0215  0.3149 -0.8375
  648TMC3    O1 9654   2.174   1.215  15.495 -0.4123  0.3706 -0.9048
  648TMC3    O2 9655   2.365   0.774  15.509  0.5811 -0.1134 -0.4549
  649TMC3    C1 9656   1.535   2.169  12.851  0.4832  0.2554 -0.1802
  649TMC3    C2 9657   1.673   2.172  12.863  0.3489  0.4237  0.5473
  649TMC3    C3 9658   1.726   2.134  12.985 -0.0316  0.7757  0.0651
  649TMC3    C4 9659   1.456   2.119  12.952  0.1065  0.1201  0.4056
  649TMC3    C5 9660   1.517   2.069  13.062  0.3729  0.5077 -0.4119
  649TMC3    C6 9661   1.649   2.078  13.083  0.0678  0.4650 -0.2022
  649TMC3     C 9662   1.470   2.215  12.728  0.3951 -0.0453 -0.2072
  649TMC3     O 9663   1.355   2.249  12.739 -0.2151  0.0926 -0.4432
  649TMC3     H 9664   1.721   2.216  12.776 -1.1258  0.9222 -0.0112
  649TMC3    H1 9665   1.348   2.118  12.941  0.1036  1.5480  0.2481
  649TMC3    H2 9666   1.701   2.033  13.167  0.1815  0.5371 -0.2337
  649TMC3    C7 9667   1.416   2.025  13.159  0.1079  0.2147 -0.1906
  649TMC3    C8 9668   1.865   2.117  13.002 -1.0472  0.5371 -0.2184
  649TMC3    O1 9669   1.304   2.000  13.117 -0.2828 -0.2552  0.3813
  649TMC3    O2 9670   1.915   2.024  13.062  0.5381 -0.3094  0.6377
  650TMC3    C1 9671   4.183   3.392  11.885 -0.0069  0.0939  0.8793
  650TMC3    C2 9672   4.099   3.425  11.991 -0.1748  0.2046 -0.8225
  650TMC3    C3 9673   4.100   3.555  12.027 -0.3290 -0.3159  0.1462
  650TMC3    C4 9674   4.257   3.483  11.814 -0.7230 -0.1948  0.4037
  650TMC3    C5 9675   4.236   3.616  11.851 -0.3855 -0.4479  0.1022
  650TMC3    C6 9676   4.165   3.656  11.962 -0.1299 -0.2986  0.2394
  650TMC3     C 9677   4.186   3.248  11.853 -0.0655  0.4602  0.4291
  650TMC3     O 9678   4.231   3.224  11.742  0.0026 -0.5178 -0.3563
  650TMC3     H 9679   4.051   3.345  12.046  1.6602  0.5315  1.2427
  650TMC3    H1 9680   4.315   3.448  11.729  0.7913  0.4881  1.1618
  650TMC3    H2 9681   4.143   3.761  11.975  2.2741  0.0127  1.7521
  650TMC3    C7 9682   4.285   3.710  11.756 -0.7107  0.1380  0.4158
  650TMC3    C8 9683   4.026   3.585  12.153 -0.1681  0.0169  0.5504
  650TMC3    O1 9684   4.284   3.671  11.642 -0.8937  0.3233 -0.1857
  650TMC3    O2 9685   3.943   3.505  12.189 -0.3061  0.3243 -0.6912
  651MPD2     C 9686   3.782   0.964  10.620 -0.0149  0.0677 -0.4298
  651MPD2    C1 9687   3.761   1.076  10.533  0.5754  0.5048 -0.3582
  651MPD2    C2 9688   3.861   1.105  10.445  0.0793 -0.5455  0.1846
  651MPD2    C3 9689   3.985   1.047  10.452 -0.2711 -0.1033  0.0162
  651MPD2    C4 9690   4.003   0.938  10.539  0.4470  0.4064 -1.0246
  651MPD2    C5 9691   3.897   0.893  10.619  0.0723 -0.4314  0.2411
  651MPD2     H 9692   3.850   1.190  10.379 -1.8790 -0.6453  0.3903
  651MPD2    H1 9693   4.098   0.886  10.542  0.7092  1.0076  0.9169
  651MPD2    H2 9694   3.704   0.927  10.684 -1.2582  0.2239 -1.8563
  651MPD2    H3 9695   3.902   0.800  10.675 -0.6789  0.1000  1.2026
  651MPD2     N 9696   4.087   1.085  10.367  0.1408  0.0581 -0.1342
  651MPD2    H5 9697   4.061   1.157  10.300  2.2303 -0.9373 -1.9978
  651MPD2    N1 9698   3.648   1.161  10.520 -0.0915  0.6801 -0.2337
  651MPD2    H7 9699   3.653   1.234  10.450 -1.2932  0.6555 -0.3539
  652TMC3    C1 9700   4.501   1.102  10.152  0.5729  0.0850 -0.4968
  652TMC3    C2 9701   4.424   1.051  10.250  0.3567  0.0640  0.7858
  652TMC3    C3 9702   4.291   1.074  10.240  0.1191  0.3309  0.1725
  652TMC3    C4 9703   4.445   1.163  10.043  0.2613 -0.2014  0.5457
  652TMC3    C5 9704   4.306   1.168  10.028 -0.5503  0.0566  0.6394
  652TMC3    C6 9705   4.228   1.130  10.130 -0.5622 -0.3991 -0.2166
  652TMC3     C 9706   4.645   1.087  10.176  0.2890  0.3486  0.0379
  652TMC3     O 9707   4.681   1.023  10.276 -0.1617  0.1331 -0.5066
  652TMC3     H 9708   4.478   1.011  10.335 -0.1787 -2.4543 -0.0376
  652TMC3    H1 9709   4.505   1.209   9.966 -1.0043  0.4177 -0.0606
  652TMC3    H2 9710   4.121   1.140  10.122 -0.8883 -2.8781  0.8431
  652TMC3    C7 9711   4.255   1.280   9.953  0.2200  0.2866  0.2422
  652TMC3    C8 9712   4.218   1.023  10.354  0.0524  0.0831 -0.5053
  652TMC3    O1 9713   4.153   1.263   9.891 -0.6455  0.2967 -0.0034
  652TMC3    O2 9714   4.278   0.940  10.430 -0.2131  0.3068  0.2558
  653MPD2     C 9715   1.675   0.819  17.647 -0.0959 -0.2982  0.5017
  653MPD2    C1 9716   1.628   0.922  17.571 -0.4996  0.3178 -0.2185
  653MPD2    C2 9717   1.528   0.902  17.473 -0.0852 -0.1658 -0.5942
  653MPD2    C3 9718   1.490   0.775  17.444  0.0587  0.4171 -0.1744
  653MPD2    C4 9719   1.534   0.666  17.519 -0.3744  0.0227  0.2659
  653MPD2    C5 9720   1.626   0.693  17.618  0.2615  0.2571 -0.7299
  653MPD2     H 9721   1.483   0.987  17.423  2.2488 -0.0015 -2.4154
  653MPD2    H1 9722   1.507   0.562  17.504  0.9954 -0.4365  0.9840
  653MPD2    H2 9723   1.752   0.820  17.723 -1.7568 -0.6474  2.1876
  653MPD2    H3 9724   1.665   0.617  17.684 -2.5978 -0.9302 -0.4028
  653MPD2     N 9725   1.410   0.766  17.326 -0.1755 -0.1509  0.1738
  653MPD2    H5 9726   1.380   0.853  17.283  1.5833 -0.4872 -1.7499
  653MPD2    N1 9727   1.668   1.056  17.601  0.1077 -0.6205 -0.2661
  653MPD2    H7 9728   1.615   1.130  17.557 -1.8228 -0.5309  2.2681
  654TMC3    C1 9729   1.304   0.667  17.135  0.0129  0.3383  0.3548
  654TMC3    C2 9730   1.320   0.776  17.055 -0.4131 -1.0967  0.4053
  654TMC3    C3 9731   1.275   0.767  16.928  0.4437 -0.0076  0.0594
  654TMC3    C4 9732   1.240   0.553  17.097 -0.5537  0.2546 -0.7345
  654TMC3    C5 9733   1.200   0.547  16.970  0.2039 -0.1982 -1.0914
  654TMC3    C6 9734   1.218   0.653  16.882  0.2150  0.0468 -0.0326
  654TMC3     C 9735   1.356   0.652  17.276 -0.4600 -0.3591 -0.4049
  654TMC3     O 9736   1.371   0.539  17.318 -0.2129 -0.1473 -0.5292
  654TMC3     H 9737   1.374   0.864  17.088 -3.0516  0.4887  0.4926
  654TMC3    H1 9738   1.221   0.478  17.174  1.1011  0.8546  0.2664
  654TMC3    H2 9739   1.177   0.665  16.782 -2.3394 -1.6009  0.8397
  654TMC3    C7 9740   1.129   0.433  16.918  0.4091 -0.5070  1.0181
  654TMC3    C8 9741   1.332   0.855  16.826 -0.2913  0.7363  0.3111
  654TMC3    O1 9742   1.072   0.443  16.811 -0.2456 -0.4489 -0.5335
  654TMC3    O2 9743   1.320   0.972  16.838 -0.6887 -0.5731 -0.2316
  655MPD2     C 9744   3.106   1.597  15.366 -0.5425 -0.5804 -0.2395
  655MPD2    C1 9745   2.983   1.601  15.304 -0.5569  0.4931 -0.6928
  655MPD2    C2 9746   2.988   1.577  15.165  0.5843  0.7605  1.1294
  655MPD2    C3 9747   3.103   1.546  15.095 -0.6205  1.0361  0.5467
  655MPD2    C4 9748   3.222   1.537  15.160 -0.5660  0.4811 -0.6254
  655MPD2    C5 9749   3.223   1.564  15.294  0.2369 -0.4714  0.4645
  655MPD2     H 9750   2.895   1.582  15.109  1.5711 -0.4776 -0.6225
  655MPD2    H1 9751   3.314   1.510  15.110  0.7867  1.8052  1.1189
  655MPD2    H2 9752   3.116   1.608  15.473  0.4444  1.5527 -0.5534
  655MPD2    H3 9753   3.314   1.541  15.348  0.5393  0.9514  0.5701
  655MPD2     N 9754   3.081   1.509  14.954 -0.5414  0.3656  0.0147
  655MPD2    H5 9755   2.986   1.519  14.918 -1.7363 -0.0170  3.0898
  655MPD2    N1 9756   2.867   1.636  15.377  0.0096 -0.0306  0.4756
  655MPD2    H7 9757   2.782   1.655  15.326 -1.1180 -2.0464  1.6435
  656TMC3    C1 9758   2.731   1.689  15.555 -0.8430 -0.5298 -0.4801
  656TMC3    C2 9759   2.677   1.637  15.669 -0.9899 -0.3151  0.2603
  656TMC3    C3 9760   2.553   1.674  15.705  0.7908 -0.1385 -0.0044
  656TMC3    C4 9761   2.662   1.781  15.474 -0.6232  0.3293  1.2908
  656TMC3    C5 9762   2.535   1.810  15.515  0.1899 -0.6218 -0.1391
  656TMC3    C6 9763   2.480   1.754  15.627  0.6519  0.1903 -0.6721
  656TMC3     C 9764   2.854   1.638  15.512  0.4241 -0.0248 -0.1495
  656TMC3     O 9765   2.929   1.614  15.601 -0.3537 -0.1185 -0.2561
  656TMC3     H 9766   2.734   1.561  15.720 -0.0074  0.2812  0.0614
  656TMC3    H1 9767   2.713   1.820  15.386 -0.9623 -1.2348  0.3911
  656TMC3    H2 9768   2.374   1.765  15.649  0.9640  3.1287 -0.6259
  656TMC3    C7 9769   2.455   1.887  15.419 -0.1577  0.2942  0.5480
  656TMC3    C8 9770   2.479   1.602  15.811  0.3089 -0.1155  0.5653
  656TMC3    O1 9771   2.498   1.896  15.305  0.2527  0.8162  0.5902
  656TMC3    O2 9772   2.415   1.506  15.775  0.6671  0.0031 -0.2924
  657TMC3    C1 9773   2.136   0.640  14.242  0.1399 -0.1190  0.1878
  657TMC3    C2 9774   2.243   0.727  14.254  0.3848 -0.3409  0.1744
  657TMC3    C3 9775   2.220   0.852  14.208 -0.4398 -0.8107  0.2548
  657TMC3    C4 9776   2.018   0.669  14.180  0.0902  0.3179  0.2831
  657TMC3    C5 9777   2.005   0.799  14.128  0.0726 -0.5841 -0.2337
  657TMC3    C6 9778   2.099   0.894  14.159  0.0324  0.5421  0.2278
  657TMC3     C 9779   2.160   0.507  14.277 -0.4354  0.0086 -0.1104
  657TMC3     O 9780   2.121   0.422  14.201 -0.8295  0.2662 -0.6044
  657TMC3     H 9781   2.341   0.690  14.284  0.4391 -1.3740 -1.3024
  657TMC3    H1 9782   1.940   0.597  14.154 -1.2123  1.5607  0.7400
  657TMC3    H2 9783   2.087   1.000  14.138  0.7485  0.4482 -0.6520
  657TMC3    C7 9784   1.880   0.837  14.073 -0.0715  0.8703 -0.3225
  657TMC3    C8 9785   2.325   0.940  14.229 -0.7857  0.6049 -0.0940
  657TMC3    O1 9786   1.787   0.767  14.094 -0.3901 -0.1732 -0.2829
  657TMC3    O2 9787   2.350   1.018  14.138  0.8213  0.2955  0.1367
  658MPD2     C 9788   3.532   1.314  14.331  0.3375  0.5050  0.0006
  658MPD2    C1 9789   3.412   1.246  14.331 -0.6483 -0.2223  0.1651
  658MPD2    C2 9790   3.394   1.142  14.235  0.2490  0.0348 -0.6137
  658MPD2    C3 9791   3.494   1.123  14.140  0.0050  0.6754  1.6808
  658MPD2    C4 9792   3.602   1.201  14.136 -0.2486  0.1444 -0.7611
  658MPD2    C5 9793   3.618   1.292  14.231  0.2191  0.1144  0.0345
  658MPD2     H 9794   3.310   1.074  14.242 -0.0960  0.3353 -1.7852
  658MPD2    H1 9795   3.682   1.197  14.063 -0.0573  2.2827 -0.6749
  658MPD2    H2 9796   3.554   1.384  14.411 -0.7835  0.6033  0.2190
  658MPD2    H3 9797   3.708   1.353  14.225  0.2099 -0.0526 -2.0741
  658MPD2     N 9798   3.480   1.009  14.066 -0.0490  0.4610 -0.1537
  658MPD2    H5 9799   3.399   0.952  14.088  1.7436 -0.9998  2.5239
  658MPD2    N1 9800   3.322   1.274  14.437 -0.2217 -0.0434  0.7267
  658MPD2    H7 9801   3.367   1.328  14.511 -0.4618  1.3570 -0.1396
  659TMC3    C1 9802   3.122   1.307  14.553 -0.0885  0.4598  0.3815
  659TMC3    C2 9803   3.200   1.374  14.646 -0.0554  0.4773 -0.1903
  659TMC3    C3 9804   3.137   1.466  14.728  0.6493  0.2387 -0.5650
  659TMC3    C4 9805   2.985   1.336  14.538 -0.3557 -0.6021  0.2583
  659TMC3    C5 9806   2.934   1.440  14.609 -0.3207  0.0184  0.1899
  659TMC3    C6 9807   3.007   1.499  14.707  0.4078 -0.3909  1.3220
  659TMC3     C 9808   3.190   1.243  14.441 -0.4603  0.1021  0.5595
  659TMC3     O 9809   3.124   1.177  14.357  0.5487 -0.4101  0.0932
  659TMC3     H 9810   3.295   1.332  14.677 -1.7138 -1.8154  1.7777
  659TMC3    H1 9811   2.938   1.305  14.446 -0.0079  2.5824 -0.9918
  659TMC3    H2 9812   2.965   1.593  14.742  1.7774  0.6396  0.2045
  659TMC3    C7 9813   2.801   1.419  14.652 -0.1328  0.5784  0.3117
  659TMC3    C8 9814   3.177   1.462  14.869  0.2191  0.7885 -0.0472
  659TMC3    O1 9815   2.783   1.437  14.774  0.2277  0.7135  0.1953
  659TMC3    O2 9816   3.273   1.387  14.897 -0.3953  1.2299 -0.5006
  660MPD2     C 9817   0.849   0.615  12.720  0.2545  0.1481 -0.1904
  660MPD2    C1 9818   0.907   0.525  12.636  0.3745 -0.2602 -0.4363
  660MPD2    C2 9819   0.888   0.392  12.664  0.1820  0.6168  0.5017
  660MPD2    C3 9820   0.812   0.350  12.771 -0.1189  0.5582 -0.2153
  660MPD2    C4 9821   0.760   0.443  12.858  0.2989  0.0363  0.0070
  660MPD2    C5 9822   0.771   0.577  12.830 -0.6629  0.3926  0.3193
  660MPD2     H 9823   0.928   0.323  12.590  0.9551  2.6511 -0.9982
  660MPD2    H1 9824   0.694   0.398  12.932  0.5436  0.3877  0.4406
  660MPD2    H2 9825   0.848   0.720  12.691  1.3959  0.4153  0.7332
  660MPD2    H3 9826   0.725   0.648  12.897  0.4337  1.1139  0.3018
  660MPD2     N 9827   0.768   0.220  12.782 -0.2591 -0.0881 -0.3731
  660MPD2    H5 9828   0.684   0.211  12.838  0.8175  1.4555  1.4807
  660MPD2    N1 9829   0.967   0.569  12.519 -0.2653 -0.6753  0.0962
  660MPD2    H7 9830   0.951   0.666  12.494  0.0486 -0.4792  0.6668
  661TMC3    C1 9831   1.046   0.575  12.301 -0.3822 -0.8530  0.6828
  661TMC3    C2 9832   1.146   0.532  12.219  0.4159  0.4317  0.1967
  661TMC3    C3 9833   1.126   0.509  12.084  0.5662 -0.0443 -0.5948
  661TMC3    C4 9834   0.916   0.587  12.245 -0.0616 -0.2226 -0.0919
  661TMC3    C5 9835   0.896   0.554  12.112 -0.1580  0.2502  0.7770
  661TMC3    C6 9836   0.998   0.525  12.028 -0.7283 -0.4759  0.7460
  661TMC3     C 9837   1.041   0.496  12.428  0.0749  0.6572  0.0003
  661TMC3     O 9838   1.074   0.376  12.435 -0.0927  0.2260  0.3763
  661TMC3     H 9839   1.242   0.534  12.269  0.7026 -1.0881 -0.2895
  661TMC3    H1 9840   0.836   0.600  12.317 -0.1372 -0.0156 -0.2158
  661TMC3    H2 9841   0.984   0.507  11.923  0.7318 -0.9174  0.6223
  661TMC3    C7 9842   0.760   0.504  12.091  0.0186  0.0103  1.0880
  661TMC3    C8 9843   1.243   0.508  12.003  0.3041 -0.1365 -0.1554
  661TMC3    O1 9844   0.685   0.496  12.184  0.1262 -0.2240 -0.4074
  661TMC3    O2 9845   1.228   0.560  11.893  0.2649 -0.7598 -0.0643
  662MPD2     C 9846   1.293   3.947  17.053 -0.2075  0.3356 -0.0513
  662MPD2    C1 9847   1.273   4.029  16.949  0.3322 -0.7183 -0.7027
  662MPD2    C2 9848   1.186   4.142  16.970  0.5779 -1.0571  0.3891
  662MPD2    C3 9849   1.112   4.158  17.081  0.1367 -0.7096  0.4024
  662MPD2    C4 9850   1.138   4.064  17.182 -0.2471 -0.0707 -0.3573
  662MPD2    C5 9851   1.234   3.968  17.177  0.0741 -0.3350 -1.0111
  662MPD2     H 9852   1.181   4.217  16.892  0.0358 -0.1916  1.2491
  662MPD2    H1 9853   1.095   4.081  17.280 -2.4406  1.0366 -1.5007
  662MPD2    H2 9854   1.366   3.869  17.037 -0.0648  0.1513  1.4913
  662MPD2    H3 9855   1.254   3.902  17.261 -0.1087  0.1326 -0.5935
  662MPD2     N 9856   1.009   4.256  17.105  0.0069 -1.0167  0.7476
  662MPD2    H5 9857   0.977   4.264  17.201  2.1720  1.7662  1.2177
  662MPD2    N1 9858   1.337   4.019  16.820 -0.2780  0.1876  0.4222
  662MPD2    H7 9859   1.315   4.083  16.745  0.2947  0.0036  0.0891
  663TMC3    C1 9860   1.476   3.935  16.655  0.1243 -0.1012  0.5511
  663TMC3    C2 9861   1.456   4.052  16.597 -0.8011  0.5353 -0.4802
  663TMC3    C3 9862   1.386   4.060  16.479  0.1388 -0.1143 -0.7352
  663TMC3    C4 9863   1.451   3.816  16.588  0.1918 -0.2091 -1.0505
  663TMC3    C5 9864   1.388   3.827  16.465  0.2364 -0.0540 -0.2652
  663TMC3    C6 9865   1.367   3.947  16.403  0.1444  0.0348  0.4799
  663TMC3     C 9866   1.438   3.927  16.793 -0.1612  0.9229  0.0417
  663TMC3     O 9867   1.468   3.824  16.850  0.3462 -0.4078  0.3534
  663TMC3     H 9868   1.472   4.136  16.663 -2.1942 -1.7552  2.7808
  663TMC3    H1 9869   1.465   3.723  16.641  0.0927  1.2124  1.4439
  663TMC3    H2 9870   1.304   3.954  16.315  2.0649 -0.7406 -0.9666
  663TMC3    C7 9871   1.298   3.724  16.424 -0.3612  0.0845 -0.6558
  663TMC3    C8 9872   1.260   4.136  16.502  0.4721 -0.3187 -0.0044
  663TMC3    O1 9873   1.219   3.758  16.335  0.1855 -0.3985  0.0543
  663TMC3    O2 9874   1.246   4.181  16.618  0.0175 -0.0330 -0.4001
  664MPD2     C 9875   4.143   2.174  17.037  0.2656 -0.7039 -0.0855
  664MPD2    C1 9876   4.108   2.308  17.048 -0.0722 -0.2296  0.6365
  664MPD2    C2 9877   3.995   2.343  17.122 -0.0269 -0.6047 -0.3120
  664MPD2    C3 9878   3.924   2.250  17.188 -0.7430 -0.1592  0.0523
  664MPD2    C4 9879   3.951   2.113  17.155 -0.2147  0.4889  0.4860
  664MPD2    C5 9880   4.057   2.076  17.077  0.2433 -0.3106  0.5535
  664MPD2     H 9881   3.972   2.448  17.138  1.3834 -0.1935 -0.9720
  664MPD2    H1 9882   3.885   2.037  17.195  2.1810 -1.7617  0.1606
  664MPD2    H2 9883   4.224   2.144  16.972  0.4596  0.4816 -0.3789
  664MPD2    H3 9884   4.088   1.972  17.068  1.6813  0.0671  1.1345
  664MPD2     N 9885   3.821   2.294  17.273  0.3583 -0.3074 -0.4884
  664MPD2    H5 9886   3.797   2.392  17.285  1.2237 -0.2429  0.7424
  664MPD2    N1 9887   4.190   2.412  16.986  0.1194 -0.3999 -0.4629
  664MPD2    H7 9888   4.167   2.504  17.024 -0.4297 -0.2067 -1.2523
  665TMC3    C1 9889   3.638   2.291  17.400 -0.3879  0.8597  1.1446
  665TMC3    C2 9890   3.604   2.260  17.530 -0.2286  0.2395  0.1014
  665TMC3    C3 9891   3.578   2.357  17.620 -0.2174  0.6226  0.9726
  665TMC3    C4 9892   3.630   2.423  17.358  0.8116  0.5583  0.3931
  665TMC3    C5 9893   3.602   2.521  17.449 -0.7735 -0.0620 -0.1474
  665TMC3    C6 9894   3.570   2.490  17.578 -0.2013  0.5939  0.1403
  665TMC3     C 9895   3.743   2.208  17.340  0.0669 -0.2460  0.0254
  665TMC3     O 9896   3.751   2.088  17.360  0.2988 -0.0446  0.2367
  665TMC3     H 9897   3.607   2.157  17.562  3.9394  0.5482  0.6745
  665TMC3    H1 9898   3.639   2.458  17.256  0.8077 -1.2698 -0.2463
  665TMC3    H2 9899   3.564   2.578  17.641 -2.0452  1.3105 -1.0475
  665TMC3    C7 9900   3.671   2.641  17.407  0.8590  0.7121 -0.0460
  665TMC3    C8 9901   3.611   2.325   0.018  0.6331  0.6037 -0.5523
  665TMC3    O1 9902   3.651   2.680  17.292 -0.2887 -0.3056  0.2838
  665TMC3    O2 9903   3.671   2.216   0.029  0.1164  0.1214 -0.0735
  666TMC3    C1 9904   3.988   2.695   9.247 -0.2570 -0.1695 -0.2574
  666TMC3    C2 9905   4.114   2.649   9.292 -0.3999 -0.1752  0.5093
  666TMC3    C3 9906   4.186   2.740   9.363 -0.6378  0.2633  0.0195
  666TMC3    C4 9907   3.941   2.821   9.267 -0.2228 -0.1337  0.1254
  666TMC3    C5 9908   4.016   2.901   9.343  0.0409  0.5369 -0.2535
  666TMC3    C6 9909   4.139   2.866   9.391  0.0097  0.0183 -0.1308
  666TMC3     C 9910   3.924   2.610   9.147 -0.2890 -0.1609 -0.4057
  666TMC3     O 9911   3.818   2.647   9.094  0.2683  0.1709  0.1223
  666TMC3     H 9912   4.152   2.548   9.283 -1.2097 -0.5179  0.9102
  666TMC3    H1 9913   3.837   2.839   9.242 -0.4277 -2.5721 -0.8246
  666TMC3    H2 9914   4.192   2.928   9.462  0.8485 -1.2208  0.3384
  666TMC3    C7 9915   3.975   3.033   9.385 -0.9552  0.0902  0.7867
  666TMC3    C8 9916   4.309   2.686   9.428 -0.5704  0.4631 -0.9879
  666TMC3    O1 9917   4.048   3.086   9.467  0.5685 -0.4568 -0.0072
  666TMC3    O2 9918   4.318   2.562   9.426 -0.9907 -0.5996  0.3574
  667MPD2     C 9919   0.063   2.601  14.124 -0.6169 -0.3013 -0.0262
  667MPD2    C1 9920   0.027   2.610  14.251  0.3897  0.2799 -0.1938
  667MPD2    C2 9921   4.674   2.521  14.303 -0.3189  0.5840 -0.6807
  667MPD2    C3 9922   4.627   2.411  14.219 -0.2230  0.9457  0.1978
  667MPD2    C4 9923   4.648   2.415  14.087 -0.3293  0.3014 -0.0948
  667MPD2    C5 9924   0.002   2.509  14.041 -0.3997 -0.2955 -0.7847
  667MPD2     H 9925   4.644   2.524  14.407 -0.1399 -2.4199 -0.5412
  667MPD2    H1 9926   4.608   2.344  14.015 -1.5970 -1.0424  1.9488
  667MPD2    H2 9927   0.125   2.675  14.074  0.0847 -1.8155 -1.3971
  667MPD2    H3 9928   0.023   2.521  13.935 -0.3179 -0.1099 -0.7485
  667MPD2     N 9929   4.548   2.308  14.271 -0.2136 -0.1824  0.5623
  667MPD2    H5 9930   4.500   2.244  14.209  1.1174 -1.8512  1.2365
  667MPD2    N1 9931   0.058   2.712  14.342 -0.0375 -0.6343  0.7208
  667MPD2    H7 9932   0.005   2.705  14.429 -0.3747  0.4955  0.6092
  668TMC3    C1 9933   0.169   2.891  14.453  0.7273  0.9336 -0.0396
  668TMC3    C2 9934   0.247   3.007  14.439 -0.0655 -0.1293  0.0113
  668TMC3    C3 9935   0.287   3.057  14.555 -0.4040 -0.7186 -0.2576
  668TMC3    C4 9936   0.152   2.824  14.572  1.0111 -0.4054 -0.2153
  668TMC3    C5 9937   0.199   2.880  14.683 -0.1723 -0.4779 -0.2028
  668TMC3    C6 9938   0.266   3.000  14.681  0.3685 -0.5983 -0.4773
  668TMC3     C 9939   0.158   2.808  14.327 -0.4058 -0.4950  0.3309
  668TMC3     O 9940   0.231   2.840  14.233 -0.3800 -0.3006 -0.5568
  668TMC3     H 9941   0.256   3.057  14.343  0.4307 -1.1957 -0.4871
  668TMC3    H1 9942   0.119   2.721  14.579 -1.1137  0.5289  3.1265
  668TMC3    H2 9943   0.312   3.042  14.770 -1.8645 -2.7302  1.6811
  668TMC3    C7 9944   0.187   2.799  14.808  0.0312  0.9873 -0.6042
  668TMC3    C8 9945   0.347   3.186  14.562 -0.3515  0.0412 -0.4451
  668TMC3    O1 9946   0.121   2.696  14.799 -0.0178  0.6107  0.2294
  668TMC3    O2 9947   0.341   3.233  14.674 -0.0420 -0.4462 -0.0276
  669TMC3    C1 9948   2.960   2.717  14.409 -0.2175 -0.2074 -0.5184
  669TMC3    C2 9949   2.826   2.747  14.380  0.4637 -0.6295 -0.1114
  669TMC3    C3 9950   2.804   2.829  14.272  0.3499 -0.1984 -0.5192
  669TMC3    C4 9951   3.071   2.765  14.344  0.3020  0.0359  0.6110
  669TMC3    C5 9952   3.031   2.842  14.232 -0.7826  0.3895  0.3414
  669TMC3    C6 9953   2.904   2.871  14.191  0.1816 -0.9757 -0.6851
  669TMC3     C 9954   2.991   2.635  14.532 -0.2685 -0.6073 -0.3056
  669TMC3     O 9955   3.096   2.642  14.589  0.1939 -0.6998 -0.3442
  669TMC3     H 9956   2.745   2.697  14.433  0.0717  0.7121  0.5457
  669TMC3    H1 9957   3.171   2.739  14.379  0.0692 -0.9555  0.5259
  669TMC3    H2 9958   2.887   2.943  14.112  0.3896  0.7144  0.7933
  669TMC3    C7 9959   3.136   2.904  14.153  0.7510  0.1824  0.7498
  669TMC3    C8 9960   2.672   2.851  14.232  0.5438  0.0201 -0.4841
  669TMC3    O1 9961   3.246   2.892  14.197 -0.0676  0.3202 -0.5461
  669TMC3    O2 9962   2.653   2.869  14.112  0.0701 -0.0146 -0.6424
  670MPD2     C 9963   1.187   0.810  13.143  0.3754 -0.3624  0.1157
  670MPD2    C1 9964   1.302   0.736  13.167 -0.6010  0.6481 -0.4623
  670MPD2    C2 9965   1.291   0.648  13.271 -0.0178  0.4149 -0.3615
  670MPD2    C3 9966   1.169   0.614  13.336  0.4020  0.0810  0.1501
  670MPD2    C4 9967   1.057   0.683  13.307  0.2057  0.8158  0.2937
  670MPD2    C5 9968   1.070   0.788  13.213 -0.5729  0.1052  0.1149
  670MPD2     H 9969   1.375   0.586  13.302 -0.9253 -1.8928 -2.4493
  670MPD2    H1 9970   0.967   0.672  13.366  0.4289  1.1100  0.6874
  670MPD2    H2 9971   1.185   0.890  13.070  2.3485 -0.5838 -0.1775
  670MPD2    H3 9972   0.983   0.848  13.189  0.4536  1.4004 -0.3654
  670MPD2     N 9973   1.168   0.507  13.426  0.8688 -0.0184  0.2993
  670MPD2    H5 9974   1.256   0.463  13.453  2.0685  2.4278  0.3106
  670MPD2    N1 9975   1.420   0.746  13.098 -0.9551  0.2762  0.1552
  670MPD2    H7 9976   1.501   0.696  13.133 -0.8784  0.3536  0.0868
  671TMC3    C1 9977   1.076   0.332  13.549 -0.7095 -0.5172  0.6240
  671TMC3    C2 9978   1.159   0.337  13.659 -0.4328 -0.3113 -0.2461
  671TMC3    C3 9979   1.136   0.235  13.753 -0.7079 -0.4680  0.0987
  671TMC3    C4 9980   0.998   0.223  13.525 -0.1832  0.4126 -0.4648
  671TMC3    C5 9981   0.981   0.125  13.614 -0.5366  0.0872  0.2160
  671TMC3    C6 9982   1.050   0.128  13.730  0.1146  0.0759  0.5306
  671TMC3     C 9983   1.053   0.438  13.448 -0.6372 -0.1924  0.8034
  671TMC3     O 9984   0.946   0.446  13.386 -0.0209  0.3552 -0.5950
  671TMC3     H 9985   1.214   0.425  13.688 -1.6334 -0.1117  1.4906
  671TMC3    H1 9986   0.942   0.219  13.432 -2.5757  2.6020  0.8925
  671TMC3    H2 9987   1.019   0.071  13.817  0.5231 -1.1427 -0.1124
  671TMC3    C7 9988   0.905   0.006  13.573 -0.2177 -0.2920  0.2415
  671TMC3    C8 9989   1.229   0.226  13.864 -0.2226  0.3007 -0.2220
  671TMC3    O1 9990   0.816   0.028  13.488  0.7406  0.5405 -0.5616
  671TMC3    O2 9991   1.266   0.323  13.928 -0.1209  0.0116  0.3707
  672MPD2     C 9992   1.499   0.141   0.928  0.1313  0.5599 -0.1029
  672MPD2    C1 9993   1.597   0.147   0.832  0.2224  0.2085 -0.7333
  672MPD2    C2 9994   1.715   0.206   0.853  0.4838 -0.5607  0.0940
  672MPD2    C3 9995   1.744   0.265   0.976  0.8866  1.0418 -0.0102
  672MPD2    C4 9996   1.641   0.274   1.065 -0.4088  0.5843 -0.4848
  672MPD2    C5 9997   1.516   0.210   1.049  0.0611  1.1455  0.2826
  672MPD2     H 9998   1.785   0.217   0.772 -0.4359 -3.0644 -1.0232
  672MPD2    H1 9999   1.657   0.337   1.153 -1.3654 -2.4769  1.8714
  672MPD2    H210000   1.407   0.088   0.902  0.6398 -0.2028 -0.3439
  672MPD2    H310001   1.440   0.232   1.122  0.1624  2.8308 -0.1182
  672MPD2     N10002   1.857   0.339   1.009  0.0198 -0.3867  0.8709
  672MPD2    H510003   1.862   0.378   1.102 -1.1447 -0.5879  1.0185
  672MPD2    N110004   1.565   0.102   0.697 -0.0349 -0.2246  0.0203
  672MPD2    H710005   1.644   0.078   0.639  0.4604  0.2675  0.4979
  673TMC3    C110006   1.436   0.051   0.512  0.1674 -0.0425 -0.6554
  673TMC3    C210007   1.540   4.702   0.467 -0.2763 -0.7991 -0.0385
  673TMC3    C310008   1.528   4.656   0.339  0.4955 -0.7482  0.3044
  673TMC3    C410009   1.331   0.094   0.432 -0.2488  0.0169  0.6353
  673TMC3    C510010   1.325   0.038   0.309 -0.0567  0.0459  0.1761
  673TMC3    C610011   1.424   4.690   0.259  0.5126 -0.1048  0.1700
  673TMC3     C10012   1.436   0.086   0.651  0.6767  0.3888  0.0347
  673TMC3     O10013   1.333   0.135   0.693 -0.2280 -0.2949  0.0613
  673TMC3     H10014   1.618   4.667   0.535  1.3374 -0.2379 -1.6073
  673TMC3    H110015   1.254   0.157   0.474 -1.0746 -0.8466  0.4134
  673TMC3    H210016   1.410   4.650   0.159 -0.5332 -0.1561  0.3397
  673TMC3    C710017   1.218   0.065   0.214  0.0851 -0.9286 -0.3162
  673TMC3    C810018   1.624   4.569   0.274  0.4466  0.5592 -0.1770
  673TMC3    O110019   1.199   4.727   0.121  0.1993  0.5177 -0.8604
  673TMC3    O210020   1.590   4.524   0.165  0.7534  0.0671 -0.6470
  674MPD2     C10021   0.913   0.505  17.317 -0.4867 -0.3667  0.1782
  674MPD2    C110022   0.852   0.378  17.331  0.8316 -0.1974  0.1217
  674MPD2    C210023   0.711   0.386  17.360 -0.9070 -0.8055 -0.0434
  674MPD2    C310024   0.636   0.507  17.363  0.7790  0.1241  0.1275
  674MPD2    C410025   0.703   0.625  17.348  0.4599 -0.4484 -0.1948
  674MPD2    C510026   0.834   0.622  17.319  0.2529 -0.5080  0.4803
  674MPD2     H10027   0.656   0.295  17.385 -1.6386 -0.8653 -1.8824
  674MPD2    H110028   0.657   0.723  17.348  1.8367  0.1986 -0.4146
  674MPD2    H210029   1.016   0.515  17.285 -1.1188 -0.7172 -1.9633
  674MPD2    H310030   0.888   0.715  17.308  0.6023 -0.8583 -0.7906
  674MPD2     N10031   0.497   0.497  17.403  0.5280 -0.0736 -0.3098
  674MPD2    H510032   0.473   0.402  17.430 -0.9690 -0.0076 -1.4292
  674MPD2    N110033   0.919   0.249  17.331  0.2425  0.0268 -0.9524
  674MPD2    H710034   0.858   0.168  17.334  1.0352 -0.5618 -0.5985
  675TMC3    C110035   1.107   0.105  17.372  0.4529 -0.6186  0.4590
  675TMC3    C210036   1.037   0.031  17.459  0.5253 -0.0965  0.0570
  675TMC3    C310037   1.109   4.667  17.521  0.0767 -0.6312 -0.0904
  675TMC3    C410038   1.236   0.081  17.336 -0.5689  0.2654  0.1965
  675TMC3    C510039   1.304   4.715  17.403  0.3557 -0.2963  0.1338
  675TMC3    C610040   1.237   4.635  17.494  0.1794  0.6008  0.2855
  675TMC3     C10041   1.055   0.236  17.346 -0.2464  0.5663 -0.0777
  675TMC3     O10042   1.142   0.322  17.334  0.5120 -0.2284 -0.2561
  675TMC3     H10043   0.931   0.028  17.480  0.9635 -1.6008  2.0597
  675TMC3    H110044   1.282   0.148  17.265  1.5774 -0.0857  1.2650
  675TMC3    H210045   1.282   4.541  17.527 -0.1694  1.4157  3.1168
  675TMC3    C710046   1.431   4.681  17.341 -0.6262 -0.4371  0.2908
  675TMC3    C810047   1.043   4.549  17.574 -0.1658 -0.4496  0.4403
  675TMC3    O110048   1.440   4.724  17.226  0.7834 -0.7266 -0.1061
  675TMC3    O210049   0.997   4.472  17.495 -0.0641  0.4323 -0.8506
  676MPD2     C10050   0.263   3.561  10.506  0.0199 -0.9423  0.0220
  676MPD2    C110051   0.141   3.509  10.550  0.8658 -0.4156 -0.4630
  676MPD2    C210052   0.121   3.374  10.544 -0.5905 -0.2063 -0.2089
  676MPD2    C310053   0.211   3.293  10.478 -0.3662 -0.0545  0.1905
  676MPD2    C410054   0.339   3.340  10.448  0.0687  0.4950 -0.4142
  676MPD2    C510055   0.360   3.473  10.452 -0.0456  1.1643 -1.0663
  676MPD2     H10056   0.022   3.332  10.560  0.1325 -1.7189  0.2856
  676MPD2    H110057   0.414   3.279  10.398 -0.0974 -0.7208  0.8122
  676MPD2    H210058   0.300   3.661  10.527 -1.8831 -0.1061 -0.6037
  676MPD2    H310059   0.454   3.513  10.416 -0.8994  3.2885 -0.9837
  676MPD2     N10060   0.181   3.161  10.449  0.2159  0.9187  0.2089
  676MPD2    H510061   0.252   3.112  10.394 -0.3587 -0.0019  0.2868
  676MPD2    N110062   0.032   3.582  10.611  0.1014 -0.6272  0.6944
  676MPD2    H710063   4.693   3.524  10.647 -0.7917 -0.2637 -0.5716
  677TMC3    C110064   4.658   3.755  10.715 -0.6071  0.0251 -0.2580
  677TMC3    C210065   4.540   3.691  10.695 -0.1111  0.5355 -0.1483
  677TMC3    C310066   4.439   3.722  10.778 -0.1047  0.0864  0.0701
  677TMC3    C410067   4.679   3.848  10.816 -1.3410  0.0268 -0.1137
  677TMC3    C510068   4.576   3.868  10.901 -0.0930 -0.2845 -0.0982
  677TMC3    C610069   4.455   3.810  10.881 -1.0369 -0.6267  0.6693
  677TMC3     C10070   0.038   3.718  10.640 -0.1501  0.1331 -0.5539
  677TMC3     O10071   0.135   3.795  10.632 -0.4776  0.2418 -0.0312
  677TMC3     H10072   4.522   3.623  10.613 -0.2873 -1.5339  1.6057
  677TMC3    H110073   0.041   3.894  10.825 -1.2796 -0.2615  0.7023
  677TMC3    H210074   4.376   3.833  10.951 -3.1394 -1.0855 -1.5502
  677TMC3    C710075   4.599   3.940  11.029  0.9909 -0.2730 -0.0663
  677TMC3    C810076   4.309   3.660  10.762  0.1415 -0.4136 -0.3948
  677TMC3    O110077   4.518   3.917  11.120  0.7447 -0.1586  0.2465
  677TMC3    O210078   4.281   3.637  10.645 -0.0591 -0.0016 -0.1353
  678MPD2     C10079   0.686   3.828   0.495 -0.6274  0.2583  0.5463
  678MPD2    C110080   0.642   3.710   0.433 -0.1643  0.3392  0.0615
  678MPD2    C210081   0.515   3.699   0.383  0.8620  0.0931  0.6407
  678MPD2    C310082   0.417   3.792   0.424 -0.0134 -0.1849  0.1351
  678MPD2    C410083   0.459   3.904   0.489  0.1493  0.4254 -0.3030
  678MPD2    C510084   0.591   3.925   0.525  0.7477  0.5379  0.2307
  678MPD2     H10085   0.496   3.616   0.316 -1.8652  0.7390  0.6015
  678MPD2    H110086   0.394   3.985   0.520 -1.1076 -0.4341 -0.6796
  678MPD2    H210087   0.790   3.844   0.524 -0.1824 -2.6916  0.5055
  678MPD2    H310088   0.616   4.012   0.584  0.1524  0.3457  0.7631
  678MPD2     N10089   0.277   3.762   0.393 -0.2917 -0.5393  0.1277
  678MPD2    H510090   0.263   3.676   0.341  0.5611  0.5358 -1.8465
  678MPD2    N110091   0.742   3.618   0.388  0.2525  0.3734  0.0677
  678MPD2    H710092   0.714   3.566   0.305 -1.7911 -1.1896  1.7466
  679TMC3    C110093   1.121   3.349   0.324  1.1125 -0.5612  0.0998
  679TMC3    C210094   1.026   3.410   0.413  0.0672  0.0928 -0.4997
  679TMC3    C310095   0.940   3.504   0.360  0.4135  0.2394  0.3075
  679TMC3    C410096   1.141   3.395   0.201 -0.6827  0.1444  0.1979
  679TMC3    C510097   1.059   3.495   0.152 -0.4139 -0.4178  0.3986
  679TMC3    C610098   0.959   3.549   0.229  0.3145  0.1195  0.4714
  679TMC3     C10099   1.201   3.229   0.364  0.3513 -0.3645 -0.0404
  679TMC3     O10100   1.294   3.194   0.292  0.1521 -0.3031 -0.2425
  679TMC3     H10101   1.019   3.381   0.517 -2.2131 -2.3162 -1.3326
  679TMC3    H110102   1.218   3.357   0.135 -0.0665  0.4264  0.7593
  679TMC3    H210103   0.885   3.612   0.182  0.8942  0.3924 -0.0861
  679TMC3    C710104   1.069   3.524   0.007 -0.0580  0.1971 -0.1672
  679TMC3    C810105   0.864   3.591   0.447 -0.7815 -0.0650  0.8070
  679TMC3    O110106   1.005   3.625  17.717  0.3431  0.0099 -0.2539
  679TMC3    O210107   0.892   3.604   0.566 -0.0730 -0.2252 -0.4305
  680MPD2     C10108   0.519   2.213  13.386  0.2004 -0.8931 -0.5120
  680MPD2    C110109   0.642   2.174  13.441  0.1820  0.4235 -0.3019
  680MPD2    C210110   0.726   2.262  13.496  0.5790  0.3392 -0.0603
  680MPD2    C310111   0.697   2.398  13.514  0.5312  0.2737  0.4597
  680MPD2    C410112   0.572   2.439  13.475  0.1763 -0.0701  0.6889
  680MPD2    C510113   0.492   2.346  13.416  0.3232 -0.0444 -0.1950
  680MPD2     H10114   0.821   2.221  13.529 -1.6861 -1.6522  4.0743
  680MPD2    H110115   0.538   2.542  13.484 -0.2605 -0.1594  0.0493
  680MPD2    H210116   0.452   2.142  13.339 -0.1368 -0.7869 -0.1945
  680MPD2    H310117   0.402   2.383  13.367  1.3467 -1.4747 -3.1265
  680MPD2     N10118   0.777   2.482  13.590  0.7570  0.1302 -0.7230
  680MPD2    H510119   0.749   2.580  13.583  4.6897  1.1473 -1.8521
  680MPD2    N110120   0.689   2.038  13.444  0.9895  0.6838  0.5290
  680MPD2    H710121   0.788   2.025  13.465  1.3013  0.9340 -0.8143
  681TMC3    C110122   0.683   1.802  13.439  0.7243  0.3901 -0.2203
  681TMC3    C210123   0.603   1.718  13.506 -0.5336 -0.0168  0.2328
  681TMC3    C310124   0.663   1.640  13.598 -0.1104 -0.0140  0.2328
  681TMC3    C410125   0.824   1.801  13.443 -0.1089  0.1637  0.7336
  681TMC3    C510126   0.879   1.713  13.531  0.1668  0.1426  0.2838
  681TMC3    C610127   0.796   1.629  13.604 -0.3663 -0.3726 -0.3462
  681TMC3     C10128   0.612   1.928  13.409  0.5206 -0.2089 -0.4807
  681TMC3     O10129   0.493   1.915  13.398 -0.0122 -0.1179 -0.0070
  681TMC3     H10130   0.498   1.735  13.528 -0.3164 -0.3648  1.5228
  681TMC3    H110131   0.884   1.862  13.377 -2.0098  0.8583 -0.3357
  681TMC3    H210132   0.838   1.543  13.655 -0.3487  0.7526  1.5421
  681TMC3    C710133   1.010   1.732  13.579 -0.2415 -0.7841 -0.5717
  681TMC3    C810134   0.614   1.680  13.732  0.1011 -0.2019 -0.3861
  681TMC3    O110135   1.037   1.685  13.688  0.8971  0.1629 -0.6135
  681TMC3    O210136   0.492   1.691  13.745  0.0983  0.0467 -0.0433
  682MPD2     C10137   3.736   3.865  10.426  0.9892 -0.8160 -0.2583
  682MPD2    C110138   3.696   3.730  10.428  0.3204 -0.1573  0.3895
  682MPD2    C210139   3.679   3.660  10.541  0.0218 -0.6174  0.2233
  682MPD2    C310140   3.695   3.725  10.660 -0.0448  0.3734 -0.5987
  682MPD2    C410141   3.722   3.856  10.659 -0.2578  0.1516 -0.4838
  682MPD2    C510142   3.739   3.930  10.545  0.0479  0.1530 -0.0682
  682MPD2     H10143   3.638   3.560  10.531  0.9676 -0.9375 -0.4044
  682MPD2    H110144   3.718   3.913  10.751 -0.4202 -0.2381 -0.2474
  682MPD2    H210145   3.753   3.922  10.335 -1.2926 -0.6282 -0.5922
  682MPD2    H310146   3.733   4.038  10.545  1.4379  0.2290  1.3240
  682MPD2     N10147   3.666   3.668  10.785  0.3660 -0.4021  0.0654
  682MPD2    H510148   3.653   3.726  10.866 -1.1600  1.1572 -1.3081
  682MPD2    N110149   3.692   3.649  10.315 -0.6558  0.1869 -0.2064
  682MPD2    H710150   3.654   3.555  10.327  2.6600 -1.2807 -1.3504
  683TMC3    C110151   3.534   3.472  11.142  0.1307  0.2014  0.1391
  683TMC3    C210152   3.491   3.337  11.140 -0.1779  0.3764  0.3112
  683TMC3    C310153   3.521   3.270  11.025  0.2318  0.0347  0.1429
  683TMC3    C410154   3.587   3.539  11.037 -0.6295 -0.3281  0.3661
  683TMC3    C510155   3.613   3.467  10.925 -0.1251  0.2885 -0.1345
  683TMC3    C610156   3.562   3.336  10.910  0.2521 -0.5667  1.2090
  683TMC3     C10157   3.535   3.554  11.265 -0.0293  0.0186 -0.2430
  683TMC3     O10158   3.584   3.664  11.257 -0.0877 -0.6071  0.4533
  683TMC3     H10159   3.433   3.297  11.222  2.4316  0.6734  2.3225
  683TMC3    H110160   3.634   3.636  11.048  0.8556 -1.2506  2.1693
  683TMC3    H210161   3.575   3.284  10.816  0.4075  0.3876  0.6969
  683TMC3    C710162   3.660   3.528  10.803  0.3591  0.5796 -0.2301
  683TMC3    C810163   3.458   3.142  10.991 -0.3290 -0.2185 -0.2483
  683TMC3    O110164   3.695   3.452  10.712 -0.3679  0.0981 -0.1994
  683TMC3    O210165   3.413   3.131  10.881  0.5565 -0.4707 -0.0237
  684MPD2     C10166   1.416   2.876  16.342 -0.4011  0.0899  0.2555
  684MPD2    C110167   1.492   2.942  16.250 -0.1079  0.0040 -0.5514
  684MPD2    C210168   1.445   3.061  16.202  0.1279 -0.5090 -0.3964
  684MPD2    C310169   1.314   3.107  16.222 -0.5193  0.0206  0.3443
  684MPD2    C410170   1.229   3.035  16.301 -0.3639  0.3126 -0.1286
  684MPD2    C510171   1.284   2.924  16.368 -0.7381  0.5638  0.2423
  684MPD2     H10172   1.515   3.114  16.138 -0.6171  0.6215 -0.2817
  684MPD2    H110173   1.129   3.070  16.324  0.9072  1.4609  3.6893
  684MPD2    H210174   1.449   2.786  16.394 -0.0919 -0.6192 -1.1683
  684MPD2    H310175   1.222   2.881  16.447  0.8681  0.4065  1.4072
  684MPD2     N10176   1.280   3.228  16.155 -0.8274  0.3120  0.0854
  684MPD2    H510177   1.350   3.284  16.109 -1.6680  0.8803 -0.5039
  684MPD2    N110178   1.628   2.906  16.218 -0.9427  0.1373 -0.0777
  684MPD2    H710179   1.681   2.968  16.159 -1.8928 -0.0446 -1.1208
  685TMC3    C110180   1.815   2.778  16.195  0.0975 -0.8982  0.2084
  685TMC3    C210181   1.787   2.742  16.065  0.6509  0.6114  0.2689
  685TMC3    C310182   1.850   2.803  15.959  0.2682  0.3944 -0.5991
  685TMC3    C410183   1.910   2.874  16.218  0.7907  0.2382  0.4495
  685TMC3    C510184   1.980   2.934  16.111 -0.2876 -0.0344  0.4175
  685TMC3    C610185   1.945   2.897  15.987  0.2541  0.7602 -0.1917
  685TMC3     C10186   1.699   2.802  16.278 -0.5394 -0.2279 -0.2695
  685TMC3     O10187   1.661   2.719  16.359 -0.2622 -0.7585  0.7282
  685TMC3     H10188   1.716   2.662  16.046  2.1066 -0.6962  0.3195
  685TMC3    H110189   1.938   2.899  16.319 -1.2350 -0.3889  1.1541
  685TMC3    H210190   1.988   2.962  15.911  1.4247 -1.8695 -1.7877
  685TMC3    C710191   2.078   3.031  16.137  0.5957  0.5020 -0.5465
  685TMC3    C810192   1.770   2.854  15.849  0.5585 -0.1303  0.2527
  685TMC3    O110193   2.072   3.130  16.068  0.1040  0.6260 -0.0230
  685TMC3    O210194   1.820   2.931  15.766  0.4810 -0.4824  0.1391
  686MPD2     C10195   2.495   3.315  15.283  0.5307  0.2891  0.8141
  686MPD2    C110196   2.501   3.295  15.419  0.3608  0.6322  0.0411
  686MPD2    C210197   2.623   3.315  15.476  0.3878 -0.0974 -0.1939
  686MPD2    C310198   2.740   3.322  15.388  0.0510  0.3448  0.6600
  686MPD2    C410199   2.729   3.339  15.256  0.0722 -0.0819  0.2035
  686MPD2    C510200   2.602   3.343  15.204 -0.1893 -0.7008  0.0613
  686MPD2     H10201   2.636   3.321  15.583  3.6709 -0.7002 -0.5641
  686MPD2    H110202   2.814   3.339  15.189  0.4738 -1.1682  0.7141
  686MPD2    H210203   2.403   3.305  15.227  1.2088 -0.4202 -0.1838
  686MPD2    H310204   2.591   3.352  15.097 -1.4687 -2.0316  0.0747
  686MPD2     N10205   2.872   3.291  15.433 -0.7904 -0.7319 -0.3374
  686MPD2    H510206   2.950   3.315  15.372 -1.0224  0.8170 -0.0152
  686MPD2    N110207   2.395   3.246  15.498 -0.0173 -0.2905  0.3620
  686MPD2    H710208   2.301   3.239  15.459 -0.0222  1.2845  0.1052
  687TMC3    C110209   2.819   3.124  15.604 -1.3740  0.3281 -0.1059
  687TMC3    C210210   2.738   3.051  15.529  0.1983  0.1461 -0.1088
  687TMC3    C310211   2.650   2.961  15.589  0.3428 -0.5435  0.5016
  687TMC3    C410212   2.843   3.091  15.733 -0.4196 -0.2636  0.3480
  687TMC3    C510213   2.767   2.993  15.787 -0.5972  0.2601 -0.3472
  687TMC3    C610214   2.670   2.928  15.718 -0.2104  1.1211 -0.1939
  687TMC3     C10215   2.903   3.234  15.553  0.1976  0.2872 -0.2296
  687TMC3     O10216   3.019   3.230  15.597  0.0333  0.0984  0.5417
  687TMC3     H10217   2.734   3.067  15.422 -0.8447  0.2094 -0.0576
  687TMC3    H110218   2.914   3.146  15.795  1.8711 -0.5767 -1.9986
  687TMC3    H210219   2.594   2.862  15.758  0.7729  0.4315  0.5175
  687TMC3    C710220   2.827   2.910  15.888 -0.5502 -0.5817  0.3587
  687TMC3    C810221   2.532   2.912  15.514  0.4822 -0.3096 -1.4325
  687TMC3    O110222   2.936   2.948  15.929  0.5048 -0.1818  0.4959
  687TMC3    O210223   2.466   2.824  15.565 -0.0874  0.5405 -0.7896
  688MPD2     C10224   1.980   1.689  17.330 -0.1886  0.7574 -0.4320
  688MPD2    C110225   1.995   1.551  17.320 -0.0383  0.1126 -0.1031
  688MPD2    C210226   2.068   1.504  17.217 -0.2225  0.3270  0.1357
  688MPD2    C310227   2.127   1.584  17.126 -0.2412  0.7274  0.6219
  688MPD2    C410228   2.108   1.717  17.133  0.2441  0.2103  0.0183
  688MPD2    C510229   2.043   1.769  17.238  0.0364 -0.5158 -0.1964
  688MPD2     H10230   2.092   1.399  17.218  0.0330  0.4003  1.7216
  688MPD2    H110231   2.144   1.783  17.055  0.4277  1.0444  0.8112
  688MPD2    H210232   1.928   1.751  17.402 -1.1071  0.6372 -0.9822
  688MPD2    H310233   2.031   1.876  17.254 -2.7002 -0.6097 -1.7828
  688MPD2     N10234   2.200   1.545  17.013  0.0787 -0.0739  0.1683
  688MPD2    H510235   2.261   1.615  16.974 -2.0984  0.3450 -2.5024
  688MPD2    N110236   1.929   1.470  17.416  0.0385  0.3922  0.6905
  688MPD2    H710237   1.966   1.375  17.417 -0.3458  0.2227 -0.5400
  689TMC3    C110238   1.853   1.417  17.632  0.0789  0.6793 -0.6349
  689TMC3    C210239   1.852   1.470   0.016  0.3028 -0.1498 -0.3239
  689TMC3    C310240   1.826   1.390   0.123 -0.0199 -0.3674 -0.6348
  689TMC3    C410241   1.801   1.295  17.605 -0.2057  0.3247  0.0546
  689TMC3    C510242   1.774   1.220  17.717  0.1176  0.4377  0.4318
  689TMC3    C610243   1.795   1.261   0.101  0.3140 -0.0823 -0.0665
  689TMC3     C10244   1.848   1.509  17.526  0.1258  0.0491  0.5939
  689TMC3     O10245   1.785   1.610  17.555 -0.2172 -0.3279 -0.0557
  689TMC3     H10246   1.883   1.574   0.024  0.8139 -0.1006 -2.7887
  689TMC3    H110247   1.789   1.270  17.500  1.1520 -0.8516  0.1669
  689TMC3    H210248   1.772   1.190   0.180 -4.0018  2.2645  0.7926
  689TMC3    C710249   1.761   1.083  17.698  0.3327 -0.3090 -0.4889
  689TMC3    C810250   1.810   1.429   0.260 -0.3602 -0.4968  0.6100
  689TMC3    O110251   1.823   1.014   0.034 -0.1381 -0.2485  0.2362
  689TMC3    O210252   1.776   1.338   0.331  0.4605  0.2071 -0.2688
  690MPD2     C10253   4.452   3.443  15.349  0.1879 -1.2194 -0.0097
  690MPD2    C110254   4.376   3.441  15.237 -0.0375 -0.3972 -0.0868
  690MPD2    C210255   4.437   3.479  15.118 -0.1158  0.2480 -0.6878
  690MPD2    C310256   4.571   3.510  15.110  0.0912 -0.1777 -0.0399
  690MPD2    C410257   4.640   3.516  15.224 -0.5924 -0.3340 -0.8404
  690MPD2    C510258   4.581   3.492  15.342  0.4972 -0.0329 -0.5159
  690MPD2     H10259   4.382   3.486  15.025  1.9534 -0.5012 -1.9525
  690MPD2    H110260   0.007   3.550  15.230 -0.5048 -0.4196 -1.9017
  690MPD2    H210261   4.418   3.424  15.450 -1.5013  0.3754 -0.2864
  690MPD2    H310262   4.647   3.505  15.426  1.7268  0.5387 -1.5746
  690MPD2     N10263   4.623   3.541  14.981  0.2398 -0.5351  0.1713
  690MPD2    H510264   4.563   3.522  14.901  0.3180 -1.0461  0.2343
  690MPD2    N110265   4.233   3.425  15.228  0.5996 -0.4171 -0.2946
  690MPD2    H710266   4.184   3.449  15.143 -0.0398 -3.1692 -0.6722
  691TMC3    C110267   4.028   3.351  15.300  0.0952  0.3332  0.4074
  691TMC3    C210268   3.961   3.437  15.215 -0.3804  0.2304  0.2733
  691TMC3    C310269   3.838   3.410  15.166 -0.5335 -0.6698  0.4105
  691TMC3    C410270   3.962   3.239  15.335 -0.2065  0.2142  0.0845
  691TMC3    C510271   3.841   3.214  15.289  0.1205 -0.3205  0.3693
  691TMC3    C610272   3.777   3.297  15.205  0.3077  0.5528 -0.9468
  691TMC3     C10273   4.166   3.370  15.331 -0.4961 -1.1067 -0.1305
  691TMC3     O10274   4.199   3.324  15.440 -0.0337 -0.3063 -0.1568
  691TMC3     H10275   4.014   3.528  15.189 -1.8407  0.5706 -1.4792
  691TMC3    H110276   4.005   3.159  15.393  1.2649  0.6450 -0.4052
  691TMC3    H210277   3.686   3.263  15.156  2.2136  0.3700 -4.3436
  691TMC3    C710278   3.795   3.077  15.280 -0.0437  0.6135  0.8196
  691TMC3    C810279   3.779   3.509  15.089  0.2361 -0.2669 -0.4135
  691TMC3    O110280   3.783   3.035  15.166  0.6484 -0.1183 -0.0956
  691TMC3    O210281   3.851   3.555  14.997 -0.6417  0.3447  0.6977
  692TMC3    C110282   0.862   4.422  15.376 -0.2091 -0.0086 -0.4063
  692TMC3    C210283   0.968   4.452  15.455 -0.3111 -0.4543  0.7559
  692TMC3    C310284   1.037   4.343  15.514 -0.3608  0.9377 -0.8373
  692TMC3    C410285   0.807   4.298  15.371 -0.7599  0.4924  0.2768
  692TMC3    C510286   0.869   4.194  15.441  0.3952  0.2760 -0.3138
  692TMC3    C610287   0.981   4.218  15.514  0.2414  0.3961  0.1972
  692TMC3     C10288   0.759   4.536  15.367  0.1226  0.1739  0.8937
  692TMC3     O10289   0.652   4.506  15.321  0.1728 -0.2975 -0.7389
  692TMC3     H10290   1.034   4.529  15.417 -0.0295 -0.8974  0.3309
  692TMC3    H110291   0.707   4.280  15.333 -1.3377  2.5324  0.8222
  692TMC3    H210292   1.043   4.138  15.552  0.4790 -0.6858 -2.4546
  692TMC3    C710293   0.791   4.071  15.451  0.0857  0.4179 -0.1719
  692TMC3    C810294   1.110   4.372  15.634  0.0884 -0.1571 -0.2840
  692TMC3    O110295   0.676   4.071  15.417  0.3355 -0.5205 -0.1368
  692TMC3    O210296   1.127   4.283  15.719 -0.1883 -0.0590  0.0114
  693MPD2     C10297   0.995   2.815   9.615 -0.3044  0.2895  0.4220
  693MPD2    C110298   0.926   2.708   9.674  0.0752 -1.2251 -0.1387
  693MPD2    C210299   0.977   2.652   9.792  0.4286  0.1942 -0.0596
  693MPD2    C310300   1.097   2.691   9.847  1.0831  0.0221  0.3764
  693MPD2    C410301   1.161   2.798   9.784 -0.2762  0.4643  0.2538
  693MPD2    C510302   1.112   2.859   9.674  0.5305  0.1632  0.2383
  693MPD2     H10303   0.923   2.566   9.833 -0.1609  1.2332  1.3688
  693MPD2    H110304   1.258   2.830   9.822 -0.6674  1.8025  0.1362
  693MPD2    H210305   0.942   2.866   9.535 -0.5274  0.3576  0.6127
  693MPD2    H310306   1.166   2.940   9.627 -0.2847  0.1544 -0.7215
  693MPD2     N10307   1.152   2.646   9.970  0.3984 -0.0208 -0.3476
  693MPD2    H510308   1.251   2.662   9.986 -0.2703  2.0729  1.6142
  693MPD2    N110309   0.799   2.680   9.625  0.1544 -0.6432  0.0608
  693MPD2    H710310   0.760   2.755   9.569  0.2512  0.5629  1.6405
  694TMC3    C110311   0.587   2.580   9.634 -0.4053  0.2621 -0.6547
  694TMC3    C210312   0.524   2.464   9.600 -0.1290  0.2385 -0.6096
  694TMC3    C310313   0.395   2.452   9.645 -0.1504  0.9300  0.6814
  694TMC3    C410314   0.533   2.686   9.699  0.2498  0.0457  0.6392
  694TMC3    C510315   0.400   2.670   9.722  0.4535  0.3695 -0.2923
  694TMC3    C610316   0.328   2.560   9.694 -0.7017 -0.8251  0.8399
  694TMC3     C10317   0.727   2.567   9.656  0.3305 -0.0190  0.7810
  694TMC3     O10318   0.754   2.468   9.724 -0.1957  0.1208  0.2869
  694TMC3     H10319   0.589   2.385   9.566 -1.8173 -1.0559 -0.8067
  694TMC3    H110320   0.582   2.779   9.726  0.3100 -0.1021  1.0382
  694TMC3    H210321   0.228   2.546   9.733 -0.8230 -1.2878  0.3608
  694TMC3    C710322   0.358   2.718   9.857 -0.1730 -0.3184  0.5571
  694TMC3    C810323   0.317   2.334   9.599  0.2213 -0.3552  1.0278
  694TMC3    O110324   0.285   2.815   9.855  0.1447  0.4509  0.5927
  694TMC3    O210325   0.386   2.235   9.566 -0.6407 -0.2908  0.0863
  695MPD2     C10326   1.417   4.371  13.322 -0.0440  0.4522 -0.4301
  695MPD2    C110327   1.329   4.368  13.429  0.6112 -0.0759 -0.6038
  695MPD2    C210328   1.199   4.415  13.405 -0.4813  0.3826 -0.3260
  695MPD2    C310329   1.166   4.477  13.281  0.0003 -0.1952 -0.3743
  695MPD2    C410330   1.259   4.486  13.178  0.4544  0.5033  0.0134
  695MPD2    C510331   1.384   4.431  13.201 -0.4427 -0.2427 -0.2000
  695MPD2     H10332   1.120   4.398  13.477  2.6963 -0.8734  2.8734
  695MPD2    H110333   1.223   4.509  13.078  0.5321 -0.7224 -0.2946
  695MPD2    H210334   1.519   4.335  13.331  0.0383  0.3870 -1.6243
  695MPD2    H310335   1.452   4.419  13.118 -0.9406 -1.5913 -0.4109
  695MPD2     N10336   1.028   4.512  13.265 -0.1358 -0.4746  0.3160
  695MPD2    H510337   0.957   4.491  13.335 -0.9357  0.5697 -0.1791
  695MPD2    N110338   1.358   4.307  13.554  0.1363 -0.2875  1.0039
  695MPD2    H710339   1.288   4.326  13.625 -1.1411  2.9687 -1.1234
  696TMC3    C110340   0.833   4.575  13.170 -1.2842 -0.4694  0.4133
  696TMC3    C210341   0.773   4.476  13.242 -0.3763  0.8338 -0.3204
  696TMC3    C310342   0.647   4.499  13.290  1.0984 -0.1638 -0.0885
  696TMC3    C410343   0.768   4.689  13.138 -0.0619 -0.0034 -0.3363
  696TMC3    C510344   0.640   4.704  13.171  0.2422 -0.1111 -0.2361
  696TMC3    C610345   0.582   4.611  13.252  0.1162 -0.3345  0.2367
  696TMC3     C10346   0.970   4.571  13.152  0.6964  0.2815  0.3474
  696TMC3     O10347   1.016   4.637  13.059 -0.1508 -0.0242 -0.5551
  696TMC3     H10348   0.817   4.378  13.261  0.7461  1.2813 -0.6326
  696TMC3    H110349   0.827   0.036  13.101  1.4818 -1.4536 -1.1094
  696TMC3    H210350   0.480   4.630  13.281  0.2871  1.7016 -0.5220
  696TMC3    C710351   0.594   0.106  13.156  0.1812  0.2683  0.1508
  696TMC3    C810352   0.566   4.398  13.363 -0.4689  0.2964  0.1770
  696TMC3    O110353   0.607   0.156  13.047 -0.7187  0.5231 -0.5590
  696TMC3    O210354   0.447   4.406  13.335  0.4499  0.6021 -0.0853
  697MPD2     C10355   0.564   1.133  15.441  0.0156 -0.5031  0.0969
  697MPD2    C110356   0.569   1.086  15.311 -0.6023 -0.0602 -1.1685
  697MPD2    C210357   0.596   1.177  15.214 -0.4174  0.1489 -0.3553
  697MPD2    C310358   0.629   1.310  15.237 -0.0760  1.0124  0.1905
  697MPD2    C410359   0.636   1.352  15.370 -0.0623  0.0068 -0.1436
  697MPD2    C510360   0.594   1.267  15.470 -0.3908 -0.2885 -1.1487
  697MPD2     H10361   0.604   1.138  15.113  1.1066 -2.5151  0.7915
  697MPD2    H110362   0.671   1.451  15.395  2.8009 -1.0400  0.0039
  697MPD2    H210363   0.542   1.076  15.531  1.3220  0.9153  1.3254
  697MPD2    H310364   0.600   1.298  15.574 -2.8428  0.9959 -1.3841
  697MPD2     N10365   0.671   1.394  15.138 -0.0449  1.0951  0.1613
  697MPD2    H510366   0.723   1.476  15.170  2.3947 -0.2172 -0.4601
  697MPD2    N110367   0.532   0.953  15.279  0.2984  0.1023  0.3381
  697MPD2    H710368   0.493   0.938  15.187  1.4516  0.4538 -0.2022
  698TMC3    C110369   0.743   1.458  14.918 -0.2457 -0.4240 -0.1692
  698TMC3    C210370   0.834   1.533  14.983 -0.2898 -0.7640  0.3666
  698TMC3    C310371   0.923   1.600  14.904  0.1100  0.2751 -0.2233
  698TMC3    C410372   0.739   1.429  14.787 -0.2863  0.4565  0.0959
  698TMC3    C510373   0.838   1.495  14.710 -0.3792 -0.0143  0.5710
  698TMC3    C610374   0.927   1.588  14.766  0.4480 -0.2351 -0.4770
  698TMC3     C10375   0.663   1.373  15.002  0.5435  0.2867 -0.7706
  698TMC3     O10376   0.592   1.287  14.948  0.4153  0.1135 -1.2671
  698TMC3     H10377   0.839   1.553  15.089  0.0969 -0.1320  0.2300
  698TMC3    H110378   0.671   1.356  14.745  1.6129 -1.7601  0.9034
  698TMC3    H210379   1.002   1.640  14.708 -0.2749  0.5644 -0.7053
  698TMC3    C710380   0.804   1.489  14.567  0.8006 -0.9587  0.0723
  698TMC3    C810381   1.046   1.649  14.969  0.1042  0.2373  0.7718
  698TMC3    O110382   0.694   1.441  14.540  0.3764  0.1175  0.5241
  698TMC3    O210383   1.087   1.587  15.064 -0.3381  0.2572  0.0178
  699TMC3    C110384   0.720   0.002  12.722 -0.3876 -0.6520 -0.0071
  699TMC3    C210385   0.772   4.617  12.752 -0.5307  0.2359  0.6682
  699TMC3    C310386   0.697   4.526  12.821  0.4509 -0.5644 -0.2238
  699TMC3    C410387   0.587   0.035  12.741  0.1119 -0.6254  0.5702
  699TMC3    C510388   0.518   4.677  12.812  0.3102 -0.6432  0.7936
  699TMC3    C610389   0.561   4.554  12.851  0.4272 -0.0717 -0.3293
  699TMC3     C10390   0.812   0.114  12.706  0.0370 -0.7311 -0.4805
  699TMC3     O10391   0.920   0.098  12.649  0.3350  0.3753  0.0875
  699TMC3     H10392   0.880   4.608  12.744 -0.6427  0.2743 -0.9587
  699TMC3    H110393   0.555   0.137  12.720  2.2571  0.0623  0.5613
  699TMC3    H210394   0.497   4.485  12.903 -0.3179 -0.3296 -1.5825
  699TMC3    C710395   0.387   4.720  12.841  0.1664  0.1934 -0.7676
  699TMC3    C810396   0.751   4.408  12.874 -0.0165 -0.1882  0.5360
  699TMC3    O110397   0.324   4.660  12.925 -0.7402  0.1456 -0.0140
  699TMC3    O210398   0.666   4.358  12.952 -0.0407 -0.2913  0.6115
  700TMC3    C110399   0.222   1.538  16.902 -0.4150  0.2837  1.0010
  700TMC3    C210400   0.350   1.520  16.856  0.7386  0.1714 -0.3994
  700TMC3    C310401   0.453   1.577  16.923 -1.2320  0.3558 -0.1617
  700TMC3    C410402   0.193   1.630  16.997  0.0210 -0.4327  0.5165
  700TMC3    C510403   0.293   1.691  17.058  0.0068 -0.4756 -0.4286
  700TMC3    C610404   0.424   1.661  17.027 -0.3631  0.6691 -0.5268
  700TMC3     C10405   0.128   1.564  16.794 -0.2124  0.2725  0.5235
  700TMC3     O10406   0.020   1.504  16.803  0.4113 -0.0802 -0.0208
  700TMC3     H10407   0.370   1.450  16.776  1.2813 -2.0406  1.6516
  700TMC3    H110408   0.093   1.642  17.036 -0.8627  0.6103 -2.0968
  700TMC3    H210409   0.493   1.718  17.088  0.2179  1.8554 -2.2849
  700TMC3    C710410   0.261   1.832  17.078  0.0517 -0.2311 -0.0059
  700TMC3    C810411   0.588   1.538  16.894  0.0411  0.9518  0.6140
  700TMC3    O110412   0.351   1.900  17.118  0.5054  0.1061 -0.0700
  700TMC3    O210413   0.602   1.439  16.821  0.1157  0.9383  0.8815
  701TMC3    C110414   4.596   0.434  15.042 -0.6709  0.2734  0.4871
  701TMC3    C210415   4.658   0.390  14.925  0.5382 -0.3251  0.3152
  701TMC3    C310416   0.045   0.443  14.892 -0.8767 -0.0586  0.1433
  701TMC3    C410417   4.653   0.529  15.127 -0.2798  0.0406 -0.8057
  701TMC3    C510418   0.045   0.570  15.092  0.4324  0.6756  0.4823
  701TMC3    C610419   0.112   0.524  14.982  0.6122 -0.0879 -0.4540
  701TMC3     C10420   4.450   0.437  15.044 -0.3413 -0.6133 -0.2630
  701TMC3     O10421   4.407   0.531  15.107 -0.2773 -0.0558 -0.1361
  701TMC3     H10422   4.599   0.345  14.845 -0.2750 -1.2023  1.4175
  701TMC3    H110423   4.612   0.557  15.224  1.4421 -0.5929  0.1005
  701TMC3    H210424   0.209   0.568  14.963 -0.1184  1.4145 -0.7322
  701TMC3    C710425   0.114   0.665  15.179 -0.2645  0.4759  0.0019
  701TMC3    C810426   0.058   0.517  14.766 -0.5161  0.7178  0.1564
  701TMC3    O110427   0.193   0.731  15.119 -0.2230 -0.2374 -0.2533
  701TMC3    O210428   0.171   0.570  14.745 -0.2348 -0.2245  0.1988
  702MPD2     C10429   4.698   3.153   9.739 -0.3900 -0.2539  0.4616
  702MPD2    C110430   0.037   3.186   9.851 -1.1173  0.1440 -0.2963
  702MPD2    C210431   0.116   3.300   9.845  0.5561  0.4120 -0.1157
  702MPD2    C310432   0.110   3.393   9.742 -0.1349 -0.0002 -0.5896
  702MPD2    C410433   0.022   3.365   9.639  0.0590  0.5659  0.3474
  702MPD2    C510434   4.693   3.244   9.638 -0.5274  0.9675 -0.1039
  702MPD2     H10435   0.173   3.317   9.935 -0.2729  0.6132  0.3679
  702MPD2    H110436   0.002   3.430   9.555  1.0482 -0.1614 -0.4454
  702MPD2    H210437   4.632   3.067   9.740  0.2646 -0.7867 -1.4216
  702MPD2    H310438   4.635   3.217   9.551 -3.2470  0.3881  1.8930
  702MPD2     N10439   0.169   3.522   9.746  0.0198 -0.5208 -0.4497
  702MPD2    H510440   0.151   3.592   9.674  1.3484 -0.7034 -0.9692
  702MPD2    N110441   0.036   3.107   9.970  0.5933  0.0116 -0.3041
  702MPD2    H710442   0.110   3.117  10.039  0.1291  0.4898  0.1232
  703TMC3    C110443   0.310   3.696   9.793 -0.0315  0.5539  0.0303
  703TMC3    C210444   0.201   3.780   9.792 -0.4963  0.3716  0.5871
  703TMC3    C310445   0.218   3.914   9.797  0.6436  0.0756  0.1467
  703TMC3    C410446   0.441   3.742   9.820  0.1119 -0.1761  0.8066
  703TMC3    C510447   0.450   3.878   9.804  0.0402 -0.3441 -1.0802
  703TMC3    C610448   0.342   3.961   9.787 -0.8782  0.1795  0.5176
  703TMC3     C10449   0.274   3.560   9.821  0.2762 -0.2059  0.2733
  703TMC3     O10450   0.326   3.504   9.920  0.0055 -0.5714 -0.7496
  703TMC3     H10451   0.102   3.736   9.791 -0.6674  0.8215 -1.4275
  703TMC3    H110452   0.522   3.671   9.834 -0.3693 -1.1336 -1.3201
  703TMC3    H210453   0.353   4.068   9.780 -1.2510  0.0841 -1.6594
  703TMC3    C710454   0.578   3.944   9.828  0.5068  0.8173  0.1767
  703TMC3    C810455   0.106   4.006   9.813  0.5676  0.1799 -0.7703
  703TMC3    O110456   0.592   4.060   9.791  0.2291 -0.1261 -0.0694
  703TMC3    O210457   0.140   4.117   9.842  0.8049  0.4620 -0.2233
  704TMC3    C110458   2.061   1.630  12.127  1.0244  0.4871 -0.3502
  704TMC3    C210459   2.195   1.656  12.093 -0.6751 -0.6520 -0.3280
  704TMC3    C310460   2.298   1.576  12.141 -0.1509  0.6205  0.8550
  704TMC3    C410461   2.027   1.523  12.198  0.4795 -0.1688 -0.3138
  704TMC3    C510462   2.134   1.446  12.239  0.6395  0.1124 -0.3041
  704TMC3    C610463   2.269   1.472  12.221  0.4686 -0.4521  0.4010
  704TMC3     C10464   1.954   1.695  12.063  0.3535  0.2810 -0.5756
  704TMC3     O10465   1.857   1.720  12.132  0.3536  0.6339 -0.4811
  704TMC3     H10466   2.213   1.728  12.015 -0.7815 -0.4223 -0.1393
  704TMC3    H110467   1.924   1.496  12.222  0.4586 -1.6632 -2.0605
  704TMC3    H210468   2.332   1.385  12.237  0.4700 -0.7311 -1.0813
  704TMC3    C710469   2.090   1.344  12.330 -0.2162 -0.3209  0.4478
  704TMC3    C810470   2.405   1.563  12.045  0.0281 -0.8773  0.2252
  704TMC3    O110471   1.986   1.282  12.312  0.1173 -0.4004 -0.6694
  704TMC3    O210472   2.366   1.575  11.929  0.0373 -0.2438 -0.2547
  705MPD2     C10473   1.022   3.883  15.978 -0.3445 -0.2411  0.2529
  705MPD2    C110474   1.042   4.009  15.936 -0.0556  0.3454  0.1582
  705MPD2    C210475   0.936   4.095  15.945 -0.1782 -0.1012 -0.1813
  705MPD2    C310476   0.805   4.052  15.979  0.1253  0.2530  0.4954
  705MPD2    C410477   0.791   3.925  16.024  0.0981 -0.1017 -0.2939
  705MPD2    C510478   0.901   3.841  16.026  0.5065  0.7161 -0.2663
  705MPD2     H10479   0.954   4.195  15.908  1.1093 -1.0194 -2.0565
  705MPD2    H110480   0.693   3.893  16.056 -0.0348  1.9496  1.3245
  705MPD2    H210481   1.095   3.804  15.968 -0.8356 -0.8349  1.3499
  705MPD2    H310482   0.877   3.737  16.042  0.1316  0.8614  0.1155
  705MPD2     N10483   0.693   4.145  15.961  0.4249 -0.8543  0.4798
  705MPD2    H510484   0.716   4.243  15.957 -0.3798 -0.7248 -1.0267
  705MPD2    N110485   1.171   4.054  15.887 -0.0680  0.0104  0.5411
  705MPD2    H710486   1.178   4.146  15.844  3.9458  0.1390  1.4422
  706TMC3    C110487   1.596   4.027  15.689 -0.0606 -0.5932 -0.1412
  706TMC3    C210488   1.624   4.157  15.710 -0.2183  0.2139 -0.2346
  706TMC3    C310489   1.541   4.229  15.790  0.8483  0.6146  0.3919
  706TMC3    C410490   1.501   3.963  15.762 -0.0170 -0.3170  0.6908
  706TMC3    C510491   1.404   4.042  15.826  0.3421  0.1825  0.6987
  706TMC3    C610492   1.427   4.177  15.842  0.2256  0.2688  0.3678
  706TMC3     C10493   1.660   3.968  15.572 -0.5666  0.3278 -0.4304
  706TMC3     O10494   1.754   4.033  15.523 -0.6290 -0.1959 -0.4403
  706TMC3     H10495   1.720   4.196  15.677 -0.1390  1.7871  1.8017
  706TMC3    H110496   1.481   3.857  15.749  0.1961 -0.3415  0.5572
  706TMC3    H210497   1.360   4.236  15.903 -2.4281 -2.4392  0.0624
  706TMC3    C710498   1.295   3.983  15.898  0.0842  0.3249  0.0012
  706TMC3    C810499   1.556   4.371  15.766 -0.6761  0.6747 -0.7998
  706TMC3    O110500   1.317   3.885  15.962  0.0552  0.5794 -0.5749
  706TMC3    O210501   1.593   4.403  15.657 -0.1842  0.1182  0.1172
  707TMC3    C110502   4.682   2.862   0.925  0.0423 -0.4446 -0.5960
  707TMC3    C210503   4.663   2.727   0.914  0.6359 -0.4105  0.3313
  707TMC3    C310504   0.044   2.658   0.919  0.4048  0.3621  0.3662
  707TMC3    C410505   0.065   2.922   0.956  0.0174  0.6818 -0.7216
  707TMC3    C510506   0.180   2.843   0.951 -0.5282  0.1681  1.0503
  707TMC3    C610507   0.167   2.711   0.927  0.7259  0.5172  0.2443
  707TMC3     C10508   4.561   2.942   0.884  0.0039  0.0961 -0.1936
  707TMC3     O10509   4.577   3.062   0.904 -0.0773  0.6417  0.0894
  707TMC3     H10510   4.564   2.686   0.925 -0.1111  0.9454 -1.3618
  707TMC3    H110511   0.071   3.029   0.969  0.5691  0.7087 -1.1841
  707TMC3    H210512   0.258   2.653   0.916  0.9327  1.0244 -0.6729
  707TMC3    C710513   0.308   2.913   0.932  0.1748  0.7032 -0.0609
  707TMC3    C810514   0.038   2.514   0.951  0.3680 -0.3568  0.5793
  707TMC3    O110515   0.400   2.842   0.898  0.1295  0.3565 -0.0630
  707TMC3    O210516   0.146   2.464   0.986  0.2026  0.0374 -0.1626
  708MPD2     C10517   3.899   2.349  13.594 -0.8079  0.0496 -0.4238
  708MPD2    C110518   3.844   2.455  13.668  0.3524  0.6829  0.6300
  708MPD2    C210519   3.903   2.481  13.792 -0.0109 -0.8659 -0.4523
  708MPD2    C310520   4.017   2.421  13.840 -0.1129  0.3138  0.6020
  708MPD2    C410521   4.084   2.338  13.752 -0.1542 -0.3746 -0.2077
  708MPD2    C510522   4.029   2.306  13.632 -0.2713  0.2303  0.2888
  708MPD2     H10523   3.852   2.560  13.847 -2.1107  0.2159 -3.9757
  708MPD2    H110524   4.174   2.286  13.785  0.0531  0.3637  0.3916
  708MPD2    H210525   3.869   2.322  13.493 -1.2604  1.6074 -0.7163
  708MPD2    H310526   4.077   2.232  13.569  0.0283 -0.5322  1.4119
  708MPD2     N10527   4.060   2.450  13.973 -0.2380  0.2255 -0.0975
  708MPD2    H510528   4.013   2.520  14.030 -2.2467 -2.4182  1.5110
  708MPD2    N110529   3.726   2.526  13.636 -0.5762  0.5011 -0.3563
  708MPD2    H710530   3.690   2.594  13.702  0.2158 -0.5215  1.1176
  709TMC3    C110531   3.540   2.597  13.533  0.3451  0.3427 -0.6603
  709TMC3    C210532   3.546   2.675  13.420  0.4711 -0.3479  0.0877
  709TMC3    C310533   3.559   2.811  13.434 -0.2386  0.3751  0.7420
  709TMC3    C410534   3.540   2.655  13.655  0.1428 -0.0595 -0.0271
  709TMC3    C510535   3.551   2.794  13.666  0.3363 -0.0300  0.5088
  709TMC3    C610536   3.571   2.878  13.554 -0.1989 -0.4783 -0.1034
  709TMC3     C10537   3.644   2.499  13.531 -0.2411  0.3649 -0.2991
  709TMC3     O10538   3.657   2.427  13.433  0.3868  0.4028 -0.0580
  709TMC3     H10539   3.551   2.618  13.328 -1.2963  0.7253 -0.6779
  709TMC3    H110540   3.521   2.594  13.742 -3.2583  0.6729 -0.2675
  709TMC3    H210541   3.585   2.984  13.566 -2.6320  0.1467 -2.6759
  709TMC3    C710542   3.606   2.829  13.799  0.4290 -0.3066  0.5243
  709TMC3    C810543   3.588   2.889  13.317  0.2086 -0.4275  0.1998
  709TMC3    O110544   3.597   2.752  13.894 -0.5781 -0.1155 -0.4141
  709TMC3    O210545   3.541   3.002  13.306 -0.1451 -0.3090  0.3197
  710TMC3    C110546   0.715   3.981  17.128 -0.5582 -0.0962 -0.9862
  710TMC3    C210547   0.738   3.974  16.996  0.4075  0.3831  0.3141
  710TMC3    C310548   0.838   3.892  16.955  0.0167  0.0843  0.1999
  710TMC3    C410549   0.767   3.899  17.222 -0.0427 -0.5280 -0.5954
  710TMC3    C510550   0.868   3.819  17.182 -0.1030  0.3821 -0.4513
  710TMC3    C610551   0.910   3.821  17.050 -0.6845 -0.8466  0.0111
  710TMC3     C10552   0.604   4.063  17.171  1.0295 -0.3079 -0.6766
  710TMC3     O10553   0.513   4.077  17.090 -0.3840 -0.5022 -0.0779
  710TMC3     H10554   0.682   4.033  16.925 -0.6761 -0.0846  0.7855
  710TMC3    H110555   0.736   3.889  17.326  1.0812 -1.5672 -0.3589
  710TMC3    H210556   0.992   3.760  17.014 -0.1619 -0.3898  0.4365
  710TMC3    C710557   0.934   3.740  17.275 -0.4826 -0.4196 -0.3447
  710TMC3    C810558   0.904   3.917  16.829 -0.4569  0.2826  0.0642
  710TMC3    O110559   0.906   3.759  17.392 -0.3968 -0.0849  0.0739
  710TMC3    O210560   1.019   3.886  16.834 -0.3070 -0.7025  0.4443
  711TMC3    C110561   0.391   0.304  14.493 -0.8777  0.0037 -0.0003
  711TMC3    C210562   0.397   0.294  14.627 -0.5828 -0.4847 -0.6879
  711TMC3    C310563   0.511   0.326  14.692 -0.4469 -0.0937 -0.3038
  711TMC3    C410564   0.495   0.346  14.424 -0.3591 -0.0594  0.4778
  711TMC3    C510565   0.615   0.373  14.479  0.5241 -0.0049 -0.3424
  711TMC3    C610566   0.615   0.369  14.612  0.4873 -0.5902 -0.9753
  711TMC3     C10567   0.330   0.190  14.430 -0.6647 -0.0834 -0.3434
  711TMC3     O10568   0.327   0.190  14.307 -0.5543  0.4870 -0.3415
  711TMC3     H10569   0.299   0.262  14.663 -2.0232  3.3778 -1.0836
  711TMC3    H110570   0.481   0.362  14.317 -0.9524 -1.6090  0.3210
  711TMC3    H210571   0.711   0.381  14.660  0.0052  2.0713 -0.6854
  711TMC3    C710572   0.727   0.312  14.410 -0.3665  0.0511 -0.3383
  711TMC3    C810573   0.551   0.214  14.777  0.3869  0.6315 -0.4528
  711TMC3    O110574   0.836   0.336  14.460  0.0746 -0.7118 -0.0720
  711TMC3    O210575   0.477   0.118  14.785 -0.0150 -0.8457  0.3311
  712MPD2     C10576   2.199   1.281  13.292 -0.1248 -0.0191  0.8477
  712MPD2    C110577   2.086   1.342  13.250 -0.8517  0.6126  0.4094
  712MPD2    C210578   2.050   1.470  13.291  0.4168 -0.2650  0.2101
  712MPD2    C310579   2.136   1.539  13.377 -0.3705  0.0374  0.4050
  712MPD2    C410580   2.239   1.468  13.426 -0.5661  0.6905  0.3708
  712MPD2    C510581   2.266   1.339  13.391 -0.0056 -0.0896  0.6959
  712MPD2     H10582   1.962   1.512  13.245 -0.1342 -1.5878  0.0720
  712MPD2    H110583   2.292   1.521  13.505 -0.0571 -1.0913  1.2295
  712MPD2    H210584   2.242   1.192  13.247 -0.1432 -0.0397  0.8713
  712MPD2    H310585   2.347   1.286  13.439  0.8234  0.5609 -0.0008
  712MPD2     N10586   2.119   1.670  13.404 -0.1863  0.2015 -0.5167
  712MPD2    H510587   2.196   1.723  13.443  1.1694 -1.2986 -1.1565
  712MPD2    N110588   2.002   1.275  13.167  0.4737  0.0208 -0.1728
  712MPD2    H710589   1.907   1.308  13.151 -0.5065 -1.6852  2.0583
  713TMC3    C110590   2.038   1.881  13.391  0.5358  0.5339  1.0530
  713TMC3    C210591   2.161   1.949  13.372  0.2038  0.4479 -0.3002
  713TMC3    C310592   2.162   2.086  13.378 -0.8965  0.5012  0.1501
  713TMC3    C410593   1.919   1.950  13.407 -0.1797 -0.4441 -0.0127
  713TMC3    C510594   1.931   2.087  13.421  0.0545  0.1955  0.8866
  713TMC3    C610595   2.049   2.157  13.408 -0.3673 -0.0937 -0.0110
  713TMC3     C10596   2.018   1.744  13.361  0.3770  0.7168 -0.1282
  713TMC3     O10597   1.904   1.713  13.336  0.3927 -0.0455 -0.1415
  713TMC3     H10598   2.252   1.890  13.379 -0.2304 -0.2119 -0.1940
  713TMC3    H110599   1.823   1.902  13.422 -0.6484  0.8684  1.2356
  713TMC3    H210600   2.047   2.265  13.410 -0.0086 -0.1109  1.9977
  713TMC3    C710601   1.807   2.157  13.439 -0.6807 -0.5407  0.0216
  713TMC3    C810602   2.275   2.153  13.325 -0.1179 -0.1571 -0.1396
  713TMC3    O110603   1.713   2.099  13.380 -0.1372 -0.2210 -0.3094
  713TMC3    O210604   2.259   2.274  13.300  0.2517  0.5132  0.2799
  714MPD2     C10605   3.872   4.654   0.939 -0.2025  0.6774  0.4731
  714MPD2    C110606   3.878   4.530   0.885  0.1334 -0.6973 -0.1017
  714MPD2    C210607   3.763   4.471   0.841 -0.0716 -0.5014  0.3030
  714MPD2    C310608   3.640   4.535   0.842 -0.3920 -0.3369  0.2898
  714MPD2    C410609   3.639   4.659   0.900 -0.4845 -0.6358 -0.7494
  714MPD2    C510610   3.748   4.718   0.950  0.7471  0.2772 -0.8135
  714MPD2     H10611   3.771   4.373   0.795  0.8502 -0.8531  1.2117
  714MPD2    H110612   3.544   4.706   0.920 -0.9746 -1.8534 -0.2506
  714MPD2    H210613   3.963   4.700   0.977 -0.2442  0.7898  0.4393
  714MPD2    H310614   3.734   0.073   1.008 -1.0040  0.1810 -1.0959
  714MPD2     N10615   3.527   4.480   0.785 -0.2518 -0.8160  0.3133
  714MPD2    H510616   3.537   4.385   0.751 -0.9208 -0.0928 -1.9337
  714MPD2    N110617   4.000   4.468   0.872 -0.3440 -0.4332 -0.3161
  714MPD2    H710618   4.075   4.495   0.935 -1.8085  1.0838  0.7764
  715TMC3    C110619   4.169   4.323   0.772 -0.1211 -0.1698  0.0227
  715TMC3    C210620   4.197   4.264   0.653 -0.6078 -1.0246  0.1858
  715TMC3    C310621   4.327   4.223   0.635  0.7579  0.3000  0.0637
  715TMC3    C410622   4.249   4.330   0.881 -0.8575 -0.3190 -0.1391
  715TMC3    C510623   4.379   4.281   0.858  0.2772  0.2592 -0.0710
  715TMC3    C610624   4.421   4.221   0.741  0.1090 -0.0113  0.6469
  715TMC3     C10625   4.031   4.356   0.790 -0.2459  0.0591  0.3069
  715TMC3     O10626   3.959   4.302   0.708  0.1587  0.2791  0.1129
  715TMC3     H10627   4.123   4.276   0.575 -0.1405 -0.6237 -0.1943
  715TMC3    H110628   4.212   4.362   0.978  0.1368  1.3046 -0.3027
  715TMC3    H210629   4.518   4.173   0.736  0.9713  1.8147 -0.3731
  715TMC3    C710630   4.486   4.312   0.953 -0.1317 -0.1440 -0.2219
  715TMC3    C810631   4.354   4.173   0.504  0.1840  0.0767  0.2472
  715TMC3    O110632   4.582   4.239   0.952  0.6915 -0.1320  0.4874
  715TMC3    O210633   4.256   4.134   0.440  0.4849 -0.2043  0.3482
  716MPD2     C10634   4.218   3.222   9.103 -0.2695 -0.1814 -0.2392
  716MPD2    C110635   4.111   3.208   9.015  0.3623  0.5392 -0.4249
  716MPD2    C210636   4.086   3.083   8.963 -0.2130 -0.0007  0.7804
  716MPD2    C310637   4.152   2.965   9.001  0.4165  0.0937 -0.0279
  716MPD2    C410638   4.252   2.977   9.090  0.4086  0.2965  0.1559
  716MPD2    C510639   4.279   3.101   9.142 -0.4329 -0.3745 -0.3230
  716MPD2     H10640   3.998   3.066   8.902  0.2588 -1.5272  0.5338
  716MPD2    H110641   4.307   2.891   9.126  3.2243  2.1040  0.1968
  716MPD2    H210642   4.249   3.317   9.146  0.7945 -0.5034 -0.2954
  716MPD2    H310643   4.365   3.109   9.208 -2.4029  0.1486  2.1723
  716MPD2     N10644   4.114   2.848   8.936 -0.0326 -0.3688  0.1286
  716MPD2    H510645   4.025   2.853   8.887 -0.7313  1.0734  1.5703
  716MPD2    N110646   4.040   3.325   8.970 -0.4217 -0.5011 -0.3688
  716MPD2    H710647   4.060   3.404   9.030 -1.9293  1.1719 -2.0671
  717TMC3    C110648   4.104   2.644   8.843 -0.3751  0.4096  0.0345
  717TMC3    C210649   4.005   2.690   8.757  0.4200 -0.4122  0.0688
  717TMC3    C310650   3.957   2.595   8.673  0.1451  0.2411  0.4174
  717TMC3    C410651   4.156   2.515   8.831 -0.3168 -0.2136  0.2473
  717TMC3    C510652   4.102   2.425   8.744 -0.4990  0.7623 -0.1442
  717TMC3    C610653   3.997   2.464   8.664 -0.7513 -0.3210 -0.2334
  717TMC3     C10654   4.183   2.734   8.928  0.4560  0.3533  0.8060
  717TMC3     O10655   4.290   2.699   8.982  0.0724  0.4473  0.1232
  717TMC3     H10656   3.977   2.793   8.738  1.2326 -0.4755 -1.4255
  717TMC3    H110657   4.258   2.497   8.864 -0.1815 -1.5781 -0.9341
  717TMC3    H210658   3.954   2.398   8.590 -1.4484  0.6482 -0.6932
  717TMC3    C710659   4.170   2.294   8.726  0.7148 -0.7576  0.1088
  717TMC3    C810660   3.839   2.626   8.591  0.4394  0.2485 -0.0548
  717TMC3    O110661   4.146   2.239   8.621 -0.1699  0.1918  0.6356
  717TMC3    O210662   3.815   2.562   8.490  0.1654  0.4353 -0.9809
  718MPD2     C10663   3.682   1.926  12.064 -0.6305 -0.0123  0.4873
  718MPD2    C110664   3.579   1.849  12.011 -0.3523 -0.1089  0.2850
  718MPD2    C210665   3.516   1.760  12.094 -0.0289 -0.3676  0.9476
  718MPD2    C310666   3.558   1.728  12.226 -0.2139  0.1049  0.5124
  718MPD2    C410667   3.662   1.805  12.271  0.0593 -0.6445  0.7575
  718MPD2    C510668   3.723   1.889  12.191  0.7956  0.2324 -0.4877
  718MPD2     H10669   3.439   1.699  12.046 -1.4069  0.8636  1.6022
  718MPD2    H110670   3.696   1.801  12.374 -0.5924  0.6134  1.0227
  718MPD2    H210671   3.745   1.985  11.999 -1.6084 -0.6982 -1.0911
  718MPD2    H310672   3.812   1.935  12.233  0.8787  1.0922 -1.6058
  718MPD2     N10673   3.495   1.634  12.308  0.3316 -0.1796  0.0705
  718MPD2    H510674   3.419   1.589  12.258  1.0586 -1.5482  0.2125
  718MPD2    N110675   3.548   1.855  11.874  0.2726  0.6167  0.4168
  718MPD2    H710676   3.605   1.921  11.822  1.7395 -1.8413 -1.0721
  719TMC3    C110677   3.464   1.755  11.668 -0.1777 -0.5240 -0.3778
  719TMC3    C210678   3.412   1.628  11.653 -0.0024 -0.0774  0.2501
  719TMC3    C310679   3.501   1.528  11.637  0.3856  0.5588 -0.3429
  719TMC3    C410680   3.586   1.783  11.627 -0.3390  0.6381 -0.1703
  719TMC3    C510681   3.679   1.682  11.602  0.0721  0.1525 -0.0869
  719TMC3    C610682   3.632   1.554  11.620  0.0020 -0.8585 -0.3752
  719TMC3     C10683   3.437   1.802  11.805  0.1107 -0.6827 -0.3110
  719TMC3     O10684   3.326   1.772  11.848 -0.3871  0.3452 -0.4866
  719TMC3     H10685   3.318   1.609  11.703  0.6842 -1.1098  1.1617
  719TMC3    H110686   3.626   1.882  11.641 -0.4709  0.8706 -1.4216
  719TMC3    H210687   3.697   1.468  11.626  0.5333 -0.4615 -0.4704
  719TMC3    C710688   3.815   1.713  11.625 -0.1966 -0.2383  0.0486
  719TMC3    C810689   3.477   1.409  11.719 -0.0310  0.0059  0.2164
  719TMC3    O110690   3.867   1.784  11.535  0.4453 -0.5736  0.3503
  719TMC3    O210691   3.564   1.390  11.803 -0.3192 -0.3126  0.2316
  720MPD2     C10692   2.053   3.273  13.324 -0.0965 -0.2993 -0.2103
  720MPD2    C110693   2.169   3.319  13.264  0.1798 -0.0767  0.2150
  720MPD2    C210694   2.284   3.334  13.331 -0.2289 -0.4173 -0.8842
  720MPD2    C310695   2.288   3.285  13.454 -0.3230 -0.2674 -0.2123
  720MPD2    C410696   2.181   3.218  13.512 -0.3682 -0.2092  0.0431
  720MPD2    C510697   2.061   3.210  13.445  0.2789  0.8654 -0.0628
  720MPD2     H10698   2.368   3.384  13.284 -0.5301  0.9711  0.0441
  720MPD2    H110699   2.189   3.162  13.604  1.1333 -1.8731 -1.1083
  720MPD2    H210700   1.955   3.265  13.277  0.6085  0.0842 -1.7544
  720MPD2    H310701   1.981   3.151  13.489  2.4028 -1.7764  0.1977
  720MPD2     N10702   2.413   3.309  13.516 -0.5910  0.4775  0.0922
  720MPD2    H510703   2.482   3.360  13.461 -0.2956 -1.0939 -0.9975
  720MPD2    N110704   2.173   3.368  13.132  0.3192  0.4381  0.0421
  720MPD2    H710705   2.253   3.428  13.111  0.2982  0.2232 -0.6384
  721TMC3    C110706   2.593   3.259  13.655 -0.2560  0.8023 -0.8149
  721TMC3    C210707   2.643   3.256  13.780 -0.1660 -0.0924 -0.2565
  721TMC3    C310708   2.773   3.227  13.788 -0.2876  0.4014  0.2973
  721TMC3    C410709   2.668   3.236  13.543 -0.7819  0.1591  0.0890
  721TMC3    C510710   2.798   3.205  13.556  0.1474 -0.4623  0.0208
  721TMC3    C610711   2.857   3.196  13.681 -0.4986  0.1687  0.0675
  721TMC3     C10712   2.451   3.269  13.644 -0.1344 -0.8289  0.2373
  721TMC3     O10713   2.380   3.231  13.736 -0.2101 -0.4982  0.4797
  721TMC3     H10714   2.587   3.311  13.855  0.9597 -1.2409  1.4126
  721TMC3    H110715   2.619   3.226  13.446  0.5454 -1.4563 -0.4151
  721TMC3    H210716   2.965   3.198  13.692 -0.8073  0.7361  2.7535
  721TMC3    C710717   2.894   3.240  13.458  0.0701 -0.1464 -0.1092
  721TMC3    C810718   2.832   3.241  13.920  0.1149 -0.0830  0.0522
  721TMC3    O110719   3.009   3.204  13.470  0.4081  0.5721  0.0318
  721TMC3    O210720   2.950   3.267  13.918 -0.7217  0.1815 -0.1450
  722MPD2     C10721   0.829   1.911  13.085  0.4159 -0.4581 -1.0805
  722MPD2    C110722   0.778   2.035  13.072  0.2219  0.1238  0.2618
  722MPD2    C210723   0.661   2.059  13.010 -0.5440 -0.9949  1.0923
  722MPD2    C310724   0.584   1.948  12.966  0.2703 -0.0988 -0.3875
  722MPD2    C410725   0.630   1.820  12.989  0.4078 -0.0537 -0.0498
  722MPD2    C510726   0.749   1.802  13.056 -0.3199 -1.0140 -0.4476
  722MPD2     H10727   0.637   2.163  12.991  0.3061 -1.1816 -1.1112
  722MPD2    H110728   0.579   1.734  12.948  0.9252  0.3795 -1.6032
  722MPD2    H210729   0.929   1.888  13.119  0.2791  0.4891 -0.0520
  722MPD2    H310730   0.780   1.702  13.086 -0.9486 -1.4947 -1.4096
  722MPD2     N10731   0.467   1.976  12.896 -0.5480 -0.4208  0.4006
  722MPD2    H510732   0.448   2.072  12.868 -2.4396 -0.9129 -0.0136
  722MPD2    N110733   0.844   2.147  13.121 -0.6100  0.3982  0.3895
  722MPD2    H710734   0.804   2.235  13.091  0.0997  0.9253  0.9905
  723TMC3    C110735   0.256   1.940  12.792  0.0290  0.0581 -0.2305
  723TMC3    C210736   0.199   1.881  12.678  0.1710  0.5706 -0.4044
  723TMC3    C310737   0.077   1.934  12.646 -0.9031 -0.4449  0.0342
  723TMC3    C410738   0.202   2.042  12.864  0.5000  0.2287 -0.7471
  723TMC3    C510739   0.085   2.096  12.824  0.6019 -0.0344 -0.6291
  723TMC3    C610740   0.023   2.042  12.711  0.3552  0.1400 -0.0267
  723TMC3     C10741   0.384   1.885  12.832 -0.1279 -0.4289  0.0287
  723TMC3     O10742   0.396   1.766  12.805  1.0253 -0.3120 -0.4276
  723TMC3     H10743   0.258   1.802  12.632 -0.5854  1.0609 -2.1685
  723TMC3    H110744   0.257   2.065  12.954  0.4959 -0.0459 -0.6746
  723TMC3    H210745   4.682   2.100  12.661 -0.7900 -1.5818 -0.2784
  723TMC3    C710746   0.036   2.215  12.894 -0.1312 -0.3276  0.4981
  723TMC3    C810747   0.003   1.888  12.529 -0.0381 -0.7047 -0.4108
  723TMC3    O110748   0.119   2.295  12.937  0.3410  0.6696 -0.0138
  723TMC3    O210749   4.622   1.918  12.521  0.1929  0.2731  0.6004
  724TMC3    C110750   1.648   0.510  10.958 -0.1833 -0.7817 -0.2148
  724TMC3    C210751   1.632   0.405  10.867  0.3493  0.1631 -0.8679
  724TMC3    C310752   1.716   0.401  10.766  0.1538  0.1439 -0.6248
  724TMC3    C410753   1.745   0.606  10.958 -0.0599  0.0583 -0.2869
  724TMC3    C510754   1.831   0.595  10.852 -0.1029 -0.3614  0.0605
  724TMC3    C610755   1.819   0.489  10.760  0.0461 -0.5179 -0.3306
  724TMC3     C10756   1.588   0.482  11.089 -0.0479  0.2948 -0.3240
  724TMC3     O10757   1.574   0.586  11.156  0.0347  0.8262  0.6953
  724TMC3     H10758   1.540   0.350  10.851  0.6821 -0.2644 -1.3089
  724TMC3    H110759   1.746   0.694  11.021  0.1415  1.7527 -2.6439
  724TMC3    H210760   1.901   0.466  10.693  1.4140  0.6774  0.9346
  724TMC3    C710761   1.906   0.714  10.811  0.8491  0.1637 -0.1367
  724TMC3    C810762   1.674   0.352  10.636 -0.4849  1.0563 -0.5759
  724TMC3    O110763   1.949   0.696  10.700  0.1077 -0.1547  0.0704
  724TMC3    O210764   1.613   0.248  10.626 -0.1131  0.3076  0.1601
  725TMC3    C110765   3.187   3.830  12.209  0.6711 -0.4389  0.0286
  725TMC3    C210766   3.175   3.815  12.073  0.4994  0.1755 -0.7916
  725TMC3    C310767   3.125   3.694  12.032  0.3142 -0.2773  0.3892
  725TMC3    C410768   3.136   3.743  12.301  0.2127 -0.6705 -0.5465
  725TMC3    C510769   3.078   3.630  12.247 -0.0901 -0.4647 -1.0361
  725TMC3    C610770   3.076   3.601  12.117  0.9794 -0.1228  0.1721
  725TMC3     C10771   3.267   3.942  12.264 -0.1838 -0.1761 -0.3761
  725TMC3     O10772   3.230   3.994  12.368 -0.0365 -0.1159  0.1307
  725TMC3     H10773   3.208   3.890  12.002  1.0147  1.3967  0.7176
  725TMC3    H110774   3.155   3.750  12.407  0.5755 -2.4927 -0.4936
  725TMC3    H210775   3.041   3.503  12.090 -0.2639  0.7874 -1.5294
  725TMC3    C710776   3.064   3.526  12.355  0.4095  0.3944  0.3516
  725TMC3    C810777   3.121   3.648  11.892 -0.2777 -0.1456  0.0658
  725TMC3    O110778   3.108   3.548  12.468  0.1781  0.0636 -0.4801
  725TMC3    O210779   3.071   3.537  11.883  0.2505 -0.4376  0.2351
  726MPD2     C10780   1.072   0.612   9.824  1.4391 -0.2373  0.1981
  726MPD2    C110781   0.950   0.667   9.778  0.5002 -0.3994  0.0251
  726MPD2    C210782   0.832   0.612   9.829  0.9106 -0.0076  0.5065
  726MPD2    C310783   0.826   0.509   9.927 -0.0648 -0.2042  0.8839
  726MPD2    C410784   0.947   0.466   9.976 -0.2820 -0.3524  0.0983
  726MPD2    C510785   1.065   0.519   9.926  0.7532  0.1625 -0.8328
  726MPD2     H10786   0.737   0.648   9.792  0.9957 -0.8848 -0.5869
  726MPD2    H110787   0.956   0.399  10.060  0.4022 -0.2896  0.0740
  726MPD2    H210788   1.162   0.645   9.775  1.3048 -0.4507 -0.1903
  726MPD2    H310789   1.161   0.486   9.964  1.3740 -0.3036 -2.7697
  726MPD2     N10790   0.713   0.458   9.994 -0.3447 -0.2203  0.0799
  726MPD2    H510791   0.728   0.391  10.069  4.6439  0.4588 -0.2957
  726MPD2    N110792   0.947   0.786   9.708 -0.2729  0.4534 -0.8570
  726MPD2    H710793   0.862   0.826   9.668 -0.9064  1.1483  1.1777
  727TMC3    C110794   1.029   0.991   9.613 -1.0839  0.6612 -0.5284
  727TMC3    C210795   1.091   1.086   9.692  0.0873  0.2967 -0.3191
  727TMC3    C310796   1.034   1.213   9.686  0.2512 -0.7876 -0.2931
  727TMC3    C410797   0.914   1.017   9.543  0.0730  0.5814  1.0342
  727TMC3    C510798   0.867   1.144   9.538  0.8365 -0.8113  0.3767
  727TMC3    C610799   0.928   1.250   9.603  0.3424 -0.7739  0.3349
  727TMC3     C10800   1.058   0.859   9.666  0.2971 -0.2502 -0.1517
  727TMC3     O10801   1.177   0.841   9.690 -0.0140 -0.4588  0.3609
  727TMC3     H10802   1.185   1.059   9.739  0.4967  0.7517 -0.8668
  727TMC3    H110803   0.876   0.937   9.481 -3.0917  2.3453  0.7145
  727TMC3    H210804   0.887   1.351   9.603 -0.1335 -0.9725 -0.6362
  727TMC3    C710805   0.763   1.183   9.452  0.0214  0.4155  0.1112
  727TMC3    C810806   1.094   1.314   9.774  0.2404  0.4272  0.5358
  727TMC3    O110807   0.746   1.302   9.441  0.2290 -0.4071 -0.1784
  727TMC3    O210808   1.190   1.279   9.846 -0.9319  0.2260 -0.4499
  728TMC3    C110809   0.025   3.634  14.820 -0.0651 -0.2093 -0.9837
  728TMC3    C210810   0.151   3.682  14.784  0.2278 -0.0832 -0.4977
  728TMC3    C310811   0.159   3.746  14.661 -1.0484  0.1562  0.0821
  728TMC3    C410812   4.650   3.649  14.740  0.8039  0.9389  0.6473
  728TMC3    C510813   4.664   3.717  14.624 -0.7079 -0.3000 -0.4225
  728TMC3    C610814   0.050   3.767  14.584 -0.1472  0.1754  0.1396
  728TMC3     C10815   0.015   3.580  14.951 -0.2664  0.3795  0.9230
  728TMC3     O10816   0.123   3.566  15.007 -0.3779  0.0963 -0.6027
  728TMC3     H10817   0.233   3.681  14.855  1.3273  0.4714 -1.7622
  728TMC3    H110818   4.553   3.610  14.770  0.1017  1.6617 -0.7014
  728TMC3    H210819   0.057   3.834  14.498 -0.1956  0.8128  0.6272
  728TMC3    C710820   4.541   3.728  14.544  0.0025  0.2048  0.5623
  728TMC3    C810821   0.290   3.815  14.643  0.3450  0.2651 -0.4619
  728TMC3    O110822   4.436   3.715  14.606 -0.4196  0.5831 -0.0480
  728TMC3    O210823   0.368   3.801  14.736  0.0670  0.3917 -0.1242
  729MPD2     C10824   1.445   0.430  16.094 -0.4540  0.1827 -0.2166
  729MPD2    C110825   1.527   0.330  16.145  0.6819 -0.7718 -0.4120
  729MPD2    C210826   1.495   0.269  16.263  0.0916  1.0624 -0.2823
  729MPD2    C310827   1.374   0.305  16.323  0.2714  0.4587  0.2320
  729MPD2    C410828   1.283   0.394  16.257 -0.1441  0.0898 -0.5107
  729MPD2    C510829   1.316   0.454  16.140 -0.1836  0.8800 -0.0669
  729MPD2     H10830   1.569   0.209  16.315 -0.4553  1.3464  0.8079
  729MPD2    H110831   1.187   0.428  16.295 -0.1251 -0.7455  0.2908
  729MPD2    H210832   1.472   0.489  16.007 -1.3496 -0.8544 -1.2020
  729MPD2    H310833   1.247   0.513  16.081  1.4684  1.0252 -1.8821
  729MPD2     N10834   1.338   0.249  16.446  0.0874 -0.1295 -0.8942
  729MPD2    H510835   1.265   0.296  16.498  1.5929 -0.9258  1.9363
  729MPD2    N110836   1.642   0.313  16.072 -0.1366 -0.6759 -0.3002
  729MPD2    H710837   1.656   0.364  15.986  2.0650 -0.8173 -0.0255
  730TMC3    C110838   1.420   0.167  16.654 -0.4676  0.1318  0.8362
  730TMC3    C210839   1.465   0.061  16.729 -0.2066 -0.3279 -0.5947
  730TMC3    C310840   1.532   0.081  16.845 -0.4989  0.6450 -0.4893
  730TMC3    C410841   1.426   0.293  16.701  0.6656 -0.7187 -0.3698
  730TMC3    C510842   1.480   0.312  16.824  0.0904  0.5855  0.4046
  730TMC3    C610843   1.539   0.208  16.899  0.0031 -0.0921  0.2119
  730TMC3     C10844   1.394   0.144  16.512  0.0065  0.6140 -0.4494
  730TMC3     O10845   1.456   0.051  16.461  0.2229  0.7822 -0.1401
  730TMC3     H10846   1.452   4.694  16.697 -3.3483 -0.1982  0.2450
  730TMC3    H110847   1.411   0.379  16.638  1.2030 -0.9905 -0.8661
  730TMC3    H210848   1.611   0.233  16.975 -1.9405  1.8308  1.4253
  730TMC3    C710849   1.523   0.446  16.847  0.1543  0.7228  0.4098
  730TMC3    C810850   1.645   4.723  16.866 -1.0833  0.2588  0.6430
  730TMC3    O110851   1.515   0.527  16.754  0.0734  0.4959  0.0992
  730TMC3    O210852   1.635   4.604  16.829 -0.7279 -0.6482 -0.4341
  731MPD2     C10853   2.223   3.385  11.290  0.2548  0.4276 -0.4213
  731MPD2    C110854   2.356   3.352  11.304 -0.2685 -0.1120  0.4474
  731MPD2    C210855   2.422   3.379  11.423 -0.1915 -0.0560 -0.5576
  731MPD2    C310856   2.343   3.415  11.539  0.4201  0.3852  0.2366
  731MPD2    C410857   2.212   3.438  11.523 -0.5708  0.1064 -0.2199
  731MPD2    C510858   2.155   3.426  11.405 -0.1761 -0.6018  0.0734
  731MPD2     H10859   2.523   3.343  11.439 -0.2547  0.5038  1.0864
  731MPD2    H110860   2.153   3.462  11.611 -1.7053 -2.0220 -0.4049
  731MPD2    H210861   2.170   3.370  11.197 -0.0755  1.5477 -0.4110
  731MPD2    H310862   2.052   3.450  11.381  0.1010  1.6460  1.1319
  731MPD2     N10863   2.408   3.402  11.664  0.5453 -0.1264  0.2456
  731MPD2    H510864   2.509   3.410  11.655  0.6569 -0.2826  1.3712
  731MPD2    N110865   2.418   3.292  11.193 -0.5140  0.2565 -0.3036
  731MPD2    H710866   2.352   3.282  11.117 -0.7246  0.0599 -0.0921
  732TMC3    C110867   2.574   3.164  11.077 -0.2497  0.5378 -0.4119
  732TMC3    C210868   2.480   3.074  11.050  0.0432 -0.4277 -0.2013
  732TMC3    C310869   2.512   2.962  10.977 -0.0127 -0.3913  0.7811
  732TMC3    C410870   2.706   3.135  11.052  0.2844  0.8009 -0.0407
  732TMC3    C510871   2.732   3.013  11.003 -0.0713 -0.1583 -0.5558
  732TMC3    C610872   2.639   2.930  10.950  0.3173 -0.0646  0.2124
  732TMC3     C10873   2.555   3.254  11.189  0.7185  0.6449  0.8012
  732TMC3     O10874   2.652   3.289  11.255 -0.1104 -0.1252  0.4595
  732TMC3     H10875   2.376   3.087  11.076 -0.1399 -2.1796 -0.0879
  732TMC3    H110876   2.779   3.212  11.077 -0.3708  1.1937  0.6499
  732TMC3    H210877   2.659   2.827  10.923  0.2653 -0.1222  0.3926
  732TMC3    C710878   2.848   2.937  11.055  0.5364  0.3973  0.1361
  732TMC3    C810879   2.448   2.844  11.007 -0.3118 -0.3241  0.0786
  732TMC3    O110880   2.886   2.843  10.985 -0.6694 -0.3615 -0.0527
  732TMC3    O210881   2.444   2.760  10.919 -0.1963  0.1439  0.1141
  733TMC3    C110882   3.230   1.475  12.567  0.4683  0.7939 -0.0843
  733TMC3    C210883   3.348   1.539  12.565  0.8215  0.9566  0.2351
  733TMC3    C310884   3.445   1.497  12.479 -0.2703  0.8614  0.5464
  733TMC3    C410885   3.207   1.363  12.496  0.3355  0.2310  0.8874
  733TMC3    C510886   3.302   1.327  12.405  0.7137  0.4660  0.2412
  733TMC3    C610887   3.419   1.395  12.388 -0.7919  0.2488  0.3393
  733TMC3     C10888   3.132   1.524  12.662  0.2180 -1.0848 -0.2160
  733TMC3     O10889   3.147   1.636  12.709 -0.6437 -0.1585 -0.1901
  733TMC3     H10890   3.365   1.631  12.620 -0.2712  0.6740  1.0459
  733TMC3    H110891   3.113   1.310  12.495  0.2204  0.4516 -1.8872
  733TMC3    H210892   3.499   1.372  12.319  0.4922  0.2812  1.8061
  733TMC3    C710893   3.252   1.244  12.288 -0.0109  0.0513  0.9339
  733TMC3    C810894   3.520   1.610  12.439 -0.1490 -0.0196  0.6492
  733TMC3    O110895   3.137   1.203  12.304 -0.5198 -0.0067  0.6184
  733TMC3    O210896   3.582   1.678  12.519 -0.7952 -0.2594 -0.2321
  734MPD2     C10897   0.916   3.757  12.244  0.2614 -0.2159  0.0748
  734MPD2    C110898   0.825   3.701  12.153 -0.0116  0.3601 -0.5985
  734MPD2    C210899   0.793   3.780  12.047  0.6029 -0.0815 -0.6599
  734MPD2    C310900   0.837   3.908  12.021  0.3553 -0.3554  0.0472
  734MPD2    C410901   0.934   3.956  12.102 -0.2970 -0.9800  0.7242
  734MPD2    C510902   0.972   3.877  12.210  0.1030  0.1825  0.9711
  734MPD2     H10903   0.726   3.734  11.976  0.8396 -2.0364  0.3938
  734MPD2    H110904   0.991   4.045  12.079 -0.3878 -0.9296  0.6905
  734MPD2    H210905   0.953   3.704  12.332  2.1598  3.4775  1.4951
  734MPD2    H310906   1.057   3.910  12.269  1.0481  1.5197 -1.1425
  734MPD2     N10907   0.783   3.973  11.908 -0.2425  0.1907  0.3505
  734MPD2    H510908   0.724   3.919  11.845  0.4404  0.5188 -0.5826
  734MPD2    N110909   0.779   3.567  12.170 -0.8464 -0.0707  0.2563
  734MPD2    H710910   0.823   3.506  12.238 -0.3462 -1.1732 -1.0600
  735TMC3    C110911   0.638   3.377  12.114 -0.3668 -0.5252 -0.0983
  735TMC3    C210912   0.530   3.348  12.026 -0.0229 -0.2074 -0.2569
  735TMC3    C310913   0.534   3.250  11.940  0.7133  0.2937  0.3107
  735TMC3    C410914   0.736   3.283  12.124 -0.1153 -0.2310  0.2867
  735TMC3    C510915   0.742   3.181  12.034  0.3029  0.2833 -0.1389
  735TMC3    C610916   0.636   3.162  11.951  0.7780  0.9118 -0.4866
  735TMC3     C10917   0.672   3.519  12.101 -0.4781  0.5040  0.6691
  735TMC3     O10918   0.581   3.591  12.053 -0.2905  0.5131  0.5708
  735TMC3     H10919   0.439   3.406  12.027 -2.2033 -3.6432  0.3195
  735TMC3    H110920   0.827   3.302  12.179 -1.0227 -1.5558  2.2808
  735TMC3    H210921   0.640   3.088  11.871 -1.6796 -1.5496  1.6849
  735TMC3    C710922   0.870   3.154  11.984 -0.1496 -0.0071 -0.2473
  735TMC3    C810923   0.518   3.295  11.800 -0.0751 -0.4813  0.2857
  735TMC3    O110924   0.962   3.231  11.999 -0.0883 -1.3602 -0.1729
  735TMC3    O210925   0.542   3.212  11.712  0.7388  0.2359 -0.1589
  736MPD2     C10926   0.958   2.883  11.746 -0.0731 -0.2242 -1.2124
  736MPD2    C110927   0.975   3.001  11.821 -0.3896 -0.9248  0.3273
  736MPD2    C210928   1.100   3.068  11.804  0.1789 -0.1272 -0.4349
  736MPD2    C310929   1.195   3.024  11.710 -1.0778 -0.4006  1.0237
  736MPD2    C410930   1.169   2.911  11.634 -0.1677 -0.5004 -0.0460
  736MPD2    C510931   1.053   2.847  11.652 -0.6160 -0.1363 -1.0589
  736MPD2     H10932   1.105   3.165  11.851 -0.7676 -1.2767  2.0299
  736MPD2    H110933   1.237   2.879  11.555  1.2103  0.1812  0.8709
  736MPD2    H210934   0.863   2.835  11.763 -0.0973 -0.6226 -2.4503
  736MPD2    H310935   1.029   2.759  11.593 -1.2343  0.6445 -1.9628
  736MPD2     N10936   1.313   3.094  11.671  0.1010 -0.2355 -0.5077
  736MPD2    H510937   1.361   3.064  11.587  0.9855 -1.9131  0.6102
  736MPD2    N110938   0.868   3.047  11.897  0.0648 -0.1527 -0.1390
  736MPD2    H710939   0.786   2.987  11.896 -2.0668  2.7413  0.0900
  737TMC3    C110940   1.458   3.274  11.644 -0.2555  0.1885 -0.1164
  737TMC3    C210941   1.462   3.412  11.654  0.4851 -0.1881  0.5581
  737TMC3    C310942   1.557   3.478  11.578 -0.1277 -0.2266  0.1370
  737TMC3    C410943   1.537   3.211  11.552 -0.2638 -0.8146 -0.7270
  737TMC3    C510944   1.627   3.281  11.485  0.1481  0.4636 -0.2818
  737TMC3    C610945   1.645   3.414  11.494  0.2986  0.5384  0.2652
  737TMC3     C10946   1.348   3.217  11.717  0.6521 -0.2163 -0.2501
  737TMC3     O10947   1.296   3.275  11.810 -0.1809 -0.2823 -0.1674
  737TMC3     H10948   1.408   3.464  11.732 -0.3106  2.1346 -1.5493
  737TMC3    H110949   1.528   3.104  11.536 -0.5298 -1.1967  2.1156
  737TMC3    H210950   1.732   3.464  11.452 -1.2324  0.9881 -2.3012
  737TMC3    C710951   1.702   3.207  11.385  0.6275  0.7316 -0.0517
  737TMC3    C810952   1.571   3.627  11.600 -0.1692 -0.1620 -0.0253
  737TMC3    O110953   1.684   3.087  11.379  0.2541 -0.0173  0.2119
  737TMC3    O210954   1.533   3.673  11.705  0.5408 -0.0027 -0.0566
  738MPD2     C10955   1.312   1.757  15.056  0.0963 -0.5890  0.7849
  738MPD2    C110956   1.248   1.792  14.938  0.9117  0.0482 -0.2222
  738MPD2    C210957   1.303   1.892  14.864 -0.5884 -0.0636 -0.6688
  738MPD2    C310958   1.417   1.963  14.896  0.0520 -0.2550  0.3196
  738MPD2    C410959   1.485   1.917  15.009  0.2883 -0.2145  0.4954
  738MPD2    C510960   1.433   1.815  15.086  0.9860 -0.4064 -0.1806
  738MPD2     H10961   1.252   1.905  14.769  1.6493  1.7787 -1.6164
  738MPD2    H110962   1.580   1.961  15.038  0.7791 -0.0035 -1.4291
  738MPD2    H210963   1.282   1.685  15.131 -0.2966 -0.4667  0.7488
  738MPD2    H310964   1.484   1.780  15.174 -0.9837  2.4806  2.1006
  738MPD2     N10965   1.476   2.064  14.822 -0.0474 -0.0221  0.6068
  738MPD2    H510966   1.568   2.088  14.859  2.2441  0.0397 -5.0829
  738MPD2    N110967   1.116   1.749  14.907  0.4513  0.2044 -0.1493
  738MPD2    H710968   1.069   1.797  14.831  1.3391  1.3335  0.0013
  739TMC3    C110969   1.494   2.251  14.680  0.5152 -0.4037  0.3395
  739TMC3    C210970   1.489   2.288  14.547 -0.5305  0.1065  0.3280
  739TMC3    C310971   1.555   2.399  14.512 -0.1583 -0.0571  0.5091
  739TMC3    C410972   1.563   2.321  14.782  0.7028  0.0521  0.0041
  739TMC3    C510973   1.621   2.431  14.741  0.1012 -0.3596  0.5733
  739TMC3    C610974   1.619   2.474  14.608 -0.0315 -0.4098  0.8289
  739TMC3     C10975   1.415   2.136  14.717  0.0601 -0.2668 -0.9728
  739TMC3     O10976   1.311   2.119  14.658  0.5315  0.5227  0.6694
  739TMC3     H10977   1.432   2.234  14.473  1.1546  1.8040 -2.1959
  739TMC3    H110978   1.559   2.290  14.886  0.6850  2.1671  0.6302
  739TMC3    H210979   1.673   2.560  14.571  2.5667 -2.8880 -1.1096
  739TMC3    C710980   1.708   2.507  14.834  0.6263 -0.1584 -0.0392
  739TMC3    C810981   1.512   2.455  14.389  0.5055 -0.1837 -0.0278
  739TMC3    O110982   1.731   2.627  14.807  0.1421 -0.1909  0.0445
  739TMC3    O210983   1.411   2.409  14.340  0.3150  0.1445  0.6007
  740TMC3    C110984   1.709   3.751  13.901 -0.2262  0.2115 -0.1033
  740TMC3    C210985   1.793   3.711  14.003 -0.0935  0.1563 -0.1207
  740TMC3    C310986   1.920   3.666  13.966 -0.0067 -0.1490  0.0245
  740TMC3    C410987   1.743   3.732  13.770  0.1457 -0.3448  0.4275
  740TMC3    C510988   1.866   3.684  13.742 -0.3892  0.8648  0.4004
  740TMC3    C610989   1.958   3.650  13.837  0.2403  0.2031  0.4872
  740TMC3     C10990   1.577   3.809  13.931  0.2050 -0.1073 -0.4371
  740TMC3     O10991   1.536   3.883  13.842  0.8746 -0.2770  0.0683
  740TMC3     H10992   1.759   3.724  14.105 -0.6082 -0.6488 -0.1920
  740TMC3    H110993   1.663   3.751  13.699 -0.2960 -0.6151  0.8521
  740TMC3    H210994   2.054   3.606  13.812 -1.1002 -1.0956 -2.3176
  740TMC3    C710995   1.906   3.669  13.609  0.3485  0.1808  0.4928
  740TMC3    C810996   2.004   3.653  14.085 -0.2801  0.2713 -0.2619
  740TMC3    O110997   1.967   3.565  13.580 -0.0149 -0.1028  0.3939
  740TMC3    O210998   1.963   3.681  14.199  0.2834  0.0619 -0.5688
  741TMC3    C110999   1.238   2.889  14.248  0.1569 -0.0002 -0.0929
  741TMC3    C211000   1.124   2.824  14.204  0.4712 -0.6681  0.1125
  741TMC3    C311001   1.071   2.725  14.284 -0.2323 -0.4017  0.2229
  741TMC3    C411002   1.303   2.851  14.363  0.0582  0.2220  0.1601
  741TMC3    C511003   1.237   2.756  14.442  0.0356  0.5453 -0.7033
  741TMC3    C611004   1.121   2.696  14.404 -0.1070 -0.1637  0.1112
  741TMC3     C11005   1.322   2.971  14.158  0.4526  0.4717  0.5029
  741TMC3     O11006   1.441   2.978  14.191  0.1746  0.1058  0.5305
  741TMC3     H11007   1.088   2.847  14.104  0.7525 -2.2575 -0.3553
  741TMC3    H111008   1.398   2.895  14.392 -0.1975 -0.2988  1.8182
  741TMC3    H211009   1.070   2.624  14.468  1.7940 -1.1926  0.4816
  741TMC3    C711010   1.313   2.701  14.549 -0.0643 -0.1322 -0.1607
  741TMC3    C811011   0.973   2.633  14.220  0.0233 -0.4325  0.5151
  741TMC3    O111012   1.410   2.769  14.587 -0.1944 -0.2400 -0.2704
  741TMC3    O211013   0.931   2.673  14.112  0.0024  0.3586 -0.5679
  742TMC3    C111014   1.056   1.146  15.276 -0.0659 -0.0834  0.1895
  742TMC3    C211015   0.992   1.188  15.163  0.1512  0.4907 -0.3211
  742TMC3    C311016   1.076   1.245  15.068 -0.7602  0.1043 -0.0441
  742TMC3    C411017   1.188   1.163  15.301 -0.0748 -0.7357 -0.0872
  742TMC3    C511018   1.263   1.238  15.215  0.3823 -0.8544  0.1273
  742TMC3    C611019   1.205   1.280  15.096 -0.2880 -0.2961 -0.3526
  742TMC3     C11020   0.987   1.045  15.357  0.2918 -0.3626  0.2458
  742TMC3     O11021   0.869   1.034  15.337 -0.2853 -0.1338 -0.4420
  742TMC3     H11022   0.890   1.155  15.146  0.4378  0.6605 -2.3696
  742TMC3    H111023   1.231   1.126  15.394  0.4075  0.9238  0.3589
  742TMC3    H211024   1.268   1.324  15.020 -0.4428 -0.8628 -0.8131
  742TMC3    C711025   1.406   1.247  15.233  0.4656 -0.0288 -0.2848
  742TMC3    C811026   1.038   1.249  14.933 -0.3686 -0.5562 -0.4584
  742TMC3    O111027   1.466   1.284  15.135  0.7236 -0.3706  0.4627
  742TMC3    O211028   1.088   1.327  14.859  0.3842 -0.0682 -0.1653
  743MPD2     C11029   4.497   1.703   0.720 -1.0864 -0.1477 -0.1748
  743MPD2    C111030   4.430   1.784   0.637 -0.1991  0.0406  0.2105
  743MPD2    C211031   4.502   1.845   0.541 -0.4364 -0.2295 -0.4031
  743MPD2    C311032   4.641   1.834   0.529 -0.1500  0.1866  0.5544
  743MPD2    C411033   4.707   1.747   0.609 -0.0680 -0.3792 -0.5927
  743MPD2    C511034   4.636   1.682   0.707  0.1707 -0.2182  0.0534
  743MPD2     H11035   4.459   1.922   0.477 -1.3347 -0.4988 -0.1202
  743MPD2    H111036   0.077   1.721   0.607 -0.0250 -0.1322 -1.3920
  743MPD2    H211037   4.449   1.643   0.797 -1.5314  0.1922 -0.1870
  743MPD2    H311038   4.671   1.607   0.778 -2.1778 -1.9768 -0.6566
  743MPD2     N11039   4.706   1.914   0.431 -0.5396 -0.4333  0.3852
  743MPD2    H511040   4.653   1.963   0.360 -0.5619 -1.4229 -0.2869
  743MPD2    N111041   4.293   1.788   0.653 -0.1073  0.5025 -0.3404
  743MPD2    H711042   4.247   1.747   0.733  0.8090 -1.2992 -0.7408
  744TMC3    C111043   4.090   1.902   0.630 -0.7115  0.1758  0.3661
  744TMC3    C211044   4.130   1.973   0.731  0.4038  0.3853  0.1167
  744TMC3    C311045   4.122   2.110   0.733 -0.3889 -0.2029 -0.4714
  744TMC3    C411046   4.014   1.957   0.533 -0.1782 -0.1035  0.0426
  744TMC3    C511047   3.989   2.094   0.546 -0.9748 -0.3700  0.4974
  744TMC3    C611048   4.047   2.173   0.636 -0.3316  0.7147 -0.1205
  744TMC3     C11049   4.213   1.851   0.564  1.0001  0.1518 -0.3832
  744TMC3     O11050   4.234   1.905   0.457 -0.0925  0.1462 -0.0537
  744TMC3     H11051   4.152   1.924   0.826 -2.8945  0.4123  0.8899
  744TMC3    H111052   3.965   1.900   0.454  0.9663  0.2221 -0.9092
  744TMC3    H211053   4.047   2.281   0.625 -0.9585  0.6526 -0.7639
  744TMC3    C711054   3.882   2.148   0.458 -0.6524  0.5943  0.6997
  744TMC3    C811055   4.223   2.189   0.798 -0.4398  0.2656  0.0513
  744TMC3    O111056   3.847   2.077   0.363  0.5048 -0.0196  0.1107
  744TMC3    O211057   4.216   2.312   0.788 -0.1613 -0.2554  0.4406
  745TMC3    C111058   1.932   1.132  13.013 -0.0202  0.5496  0.3430
  745TMC3    C211059   1.813   1.129  13.079  0.8408 -0.2430 -0.6130
  745TMC3    C311060   1.690   1.139  13.012  0.8809  0.2319  0.0588
  745TMC3    C411061   1.936   1.148  12.878 -0.5501  0.6651 -0.7405
  745TMC3    C511062   1.816   1.170  12.814  0.0474  0.4109  0.5377
  745TMC3    C611063   1.692   1.177  12.879 -0.2667  0.3449  0.9016
  745TMC3     C11064   2.051   1.186  13.074 -0.7147 -0.1357  0.0038
  745TMC3     O11065   2.161   1.145  13.036  0.3053  0.3032 -0.2871
  745TMC3     H11066   1.821   1.093  13.181 -0.9515  1.8883  0.2790
  745TMC3    H111067   2.030   1.156  12.825  1.0002  1.2124  2.1038
  745TMC3    H211068   1.605   1.204  12.820 -0.2616 -3.0327 -0.6666
  745TMC3    C711069   1.819   1.267  12.702  0.1808  0.4968  0.2932
  745TMC3    C811070   1.587   1.224  13.078 -0.4008 -0.7337  0.4338
  745TMC3    O111071   1.721   1.270  12.625 -0.4800 -0.0104  0.1980
  745TMC3    O211072   1.514   1.283  13.000  0.1242  0.2638  0.2435
  746TMC3    C111073   0.039   2.993  10.367 -0.0201 -0.1358 -0.1114
  746TMC3    C211074   0.043   3.030  10.235  0.2293 -0.2800  0.7166
  746TMC3    C311075   4.698   2.967  10.146 -0.0229 -0.3017  0.3800
  746TMC3    C411076   4.695   2.898  10.415  0.7817  0.0201 -0.9783
  746TMC3    C511077   4.614   2.831  10.320  0.3811 -0.2423  0.9910
  746TMC3    C611078   4.609   2.873  10.190  0.1181  0.3019  0.1928
  746TMC3     C11079   0.060   3.101  10.460 -0.4964  0.1465 -1.1612
  746TMC3     O11080   4.707   3.104  10.552 -0.4662 -0.1040 -0.3201
  746TMC3     H11081   0.086   3.127  10.211 -0.1566  0.1255  1.6770
  746TMC3    H111082   4.685   2.882  10.522 -2.3243  1.9543 -0.9846
  746TMC3    H211083   4.536   2.825  10.125  2.1183 -0.9961 -1.0714
  746TMC3    C711084   4.499   2.748  10.362  0.1090  0.5784  1.0549
  746TMC3    C811085   4.668   3.028  10.014 -0.5703  0.3608 -0.0350
  746TMC3    O111086   4.400   2.750  10.290 -0.3733  0.1094 -0.1888
  746TMC3    O211087   4.565   2.991   9.964 -0.3895 -0.2055  0.2774
  747TMC3    C111088   2.010   3.639  10.463  0.6048  0.0066 -0.1738
  747TMC3    C211089   1.968   3.523  10.520  0.3562 -0.3049 -0.4857
  747TMC3    C311090   2.004   3.508  10.651  0.2418 -0.0410 -0.1405
  747TMC3    C411091   2.103   3.720  10.524  0.2229 -0.6538 -0.1169
  747TMC3    C511092   2.143   3.695  10.659 -0.0998  0.3096 -0.3599
  747TMC3    C611093   2.089   3.587  10.722  0.2291 -0.0408 -0.0223
  747TMC3     C11094   1.946   3.684  10.340 -0.1319 -0.0215 -0.0399
  747TMC3     O11095   1.942   3.804  10.310 -0.1116  0.8761  0.4477
  747TMC3     H11096   1.898   3.452  10.477 -0.0577 -1.7832  2.6035
  747TMC3    H111097   2.132   3.806  10.464 -1.2158 -0.3031 -0.3058
  747TMC3    H211098   2.119   3.565  10.824  1.7546  1.1412 -0.2149
  747TMC3    C711099   2.184   3.807  10.737 -0.5770 -0.3343 -0.4171
  747TMC3    C811100   1.935   3.393  10.712 -0.4588  0.2056  0.0862
  747TMC3    O111101   2.151   3.813  10.854  0.2811 -0.0128 -0.0566
  747TMC3    O211102   1.894   3.301  10.639  0.6416 -0.1022  0.6886
  748MPD2     C11103   3.386   3.274   1.186 -0.0858  0.1757  0.6321
  748MPD2    C111104   3.379   3.312   1.049  0.0705 -0.3221 -0.4697
  748MPD2    C211105   3.473   3.405   1.002 -0.3681  0.4847  0.1828
  748MPD2    C311106   3.587   3.443   1.072 -0.3464 -0.0149  0.3970
  748MPD2    C411107   3.589   3.418   1.206  0.3791 -0.0643 -0.0470
  748MPD2    C511108   3.487   3.337   1.256  0.0272 -0.5490  0.0638
  748MPD2     H11109   3.466   3.440   0.900  2.9573  1.0880  0.1589
  748MPD2    H111110   3.664   3.457   1.275 -1.7902  1.0749  1.6526
  748MPD2    H211111   3.315   3.214   1.241  0.5248 -0.9107  0.2373
  748MPD2    H311112   3.493   3.308   1.360 -1.1905 -0.4925  0.1535
  748MPD2     N11113   3.689   3.520   1.010  0.4111  0.5252  0.0590
  748MPD2    H511114   3.674   3.532   0.910  2.1989  2.7207  0.0693
  748MPD2    N111115   3.277   3.255   0.971 -0.6621  0.0526 -0.5068
  748MPD2    H711116   3.221   3.185   1.018  1.3802 -1.2908 -0.0831
  749TMC3    C111117   3.889   3.635   0.984 -0.0105  0.6170  0.1220
  749TMC3    C211118   4.022   3.601   0.977 -0.5510 -0.5775 -0.0259
  749TMC3    C311119   4.080   3.635   0.857  0.2112  0.0430 -0.0648
  749TMC3    C411120   3.823   3.702   0.882  0.2017 -0.3004  0.0293
  749TMC3    C511121   3.891   3.736   0.769  0.9016 -0.4557  0.4521
  749TMC3    C611122   4.018   3.701   0.755  0.3843  0.4121 -0.4410
  749TMC3     C11123   3.811   3.550   1.069  0.2471  0.3151  0.7500
  749TMC3     O11124   3.863   3.513   1.175  0.3141 -0.0545 -0.6621
  749TMC3     H11125   4.069   3.543   1.056 -0.4989  0.8636  0.9775
  749TMC3    H111126   3.721   3.733   0.900 -0.2379 -1.5516 -0.2616
  749TMC3    H211127   4.066   3.736   0.664 -0.2726  2.9685  0.2145
  749TMC3    C711128   3.841   3.859   0.705  0.8873 -0.3492 -0.5106
  749TMC3    C811129   4.218   3.590   0.841 -0.5305 -0.6924 -0.0109
  749TMC3    O111130   3.769   3.936   0.768 -0.3843 -0.1166 -0.2440
  749TMC3    O211131   4.288   3.589   0.943 -0.5898  0.3693  0.4057
  750MPD2     C11132   0.085   0.307  11.169  0.0562  0.3217 -0.2657
  750MPD2    C111133   0.006   0.226  11.245 -0.4743 -1.1205  0.2265
  750MPD2    C211134   4.710   0.103  11.180  0.5161 -0.5965 -0.4768
  750MPD2    C311135   0.031   0.067  11.056 -0.4387 -0.1080 -0.1100
  750MPD2    C411136   0.089   0.164  10.986 -0.3160  0.2487 -0.4611
  750MPD2    C511137   0.120   0.283  11.044 -0.8135  0.3258 -0.2800
  750MPD2     H11138   4.634   0.037  11.220  1.0312 -2.0609 -1.8909
  750MPD2    H111139   0.111   0.147  10.881 -0.0189 -2.5895  0.0612
  750MPD2    H211140   0.108   0.411  11.192  1.3357 -0.2263  0.8848
  750MPD2    H311141   0.164   0.360  10.981 -1.7152  2.6586  1.9462
  750MPD2     N11142   4.720   4.685  10.982 -0.0419  0.0390 -0.1192
  750MPD2    H511143   4.729   4.688  10.881 -2.8103 -1.2215 -0.3998
  750MPD2    N111144   4.663   0.278  11.343 -0.0905 -0.0408  0.3111
  750MPD2    H711145   4.657   0.379  11.347 -1.1722 -0.0505 -1.1408
  751TMC3    C111146   4.596   4.492  10.945 -0.1304 -0.5215 -0.5652
  751TMC3    C211147   4.463   4.464  10.968 -0.1861 -0.0767  0.2060
  751TMC3    C311148   4.385   4.441  10.858 -0.1594  0.3942  0.0980
  751TMC3    C411149   4.651   4.487  10.813 -0.1050 -0.8521 -0.3727
  751TMC3    C511150   4.565   4.453  10.708 -0.9629 -0.8603  0.2015
  751TMC3    C611151   4.435   4.420  10.726  0.0652 -0.1749 -0.3566
  751TMC3     C11152   4.659   4.578  11.045 -0.6419  0.0936 -0.9613
  751TMC3     O11153   4.639   4.552  11.161  0.5612  0.2949  0.3107
  751TMC3     H11154   4.419   4.486  11.065  0.8580 -1.6799  1.0566
  751TMC3    H111155   0.019   4.518  10.803 -0.0015 -0.0251  3.1147
  751TMC3    H211156   4.366   4.398  10.645  0.9908 -0.0930 -1.1724
  751TMC3    C711157   4.640   4.361  10.627  0.1875 -0.0249 -0.7415
  751TMC3    C811158   4.259   4.370  10.867 -0.6563 -0.7102  0.5667
  751TMC3    O111159   0.024   4.362  10.624 -0.4031  0.1891 -0.7109
  751TMC3    O211160   4.182   4.399  10.775 -0.0772  0.0191  0.6010
  752TMC3    C111161   2.602   4.282  16.398  0.1985  0.3769 -0.3077
  752TMC3    C211162   2.708   4.199  16.412  0.0738  0.1262  0.1024
  752TMC3    C311163   2.735   4.157  16.539 -0.0648  0.1278  0.0590
  752TMC3    C411164   2.523   4.326  16.502 -0.2512 -0.1479  0.4035
  752TMC3    C511165   2.556   4.282  16.631 -0.2254 -0.0174  0.6738
  752TMC3    C611166   2.650   4.188  16.646 -0.2568  0.1983 -0.8843
  752TMC3     C11167   2.571   4.312  16.259  0.2843 -0.9139 -0.2215
  752TMC3     O11168   2.627   4.240  16.178 -0.5816  0.2006 -0.1953
  752TMC3     H11169   2.761   4.171  16.322  0.6684  0.4121  0.3588
  752TMC3    H111170   2.440   4.386  16.469  1.3271  1.6095 -0.3539
  752TMC3    H211171   2.681   4.153  16.744 -1.5372  2.3044  0.2789
  752TMC3    C711172   2.488   4.348  16.740 -0.1914  0.4096  0.1960
  752TMC3    C811173   2.843   4.065  16.555 -0.0285  0.1831 -0.0372
  752TMC3    O111174   2.414   4.441  16.706 -0.2482  0.3590 -0.2500
  752TMC3    O211175   2.879   4.012  16.450 -0.0437 -0.3809  0.6510
  753TMC3    C111176   0.057   0.869  12.963  0.0836  0.5257 -0.4560
  753TMC3    C211177   0.098   0.843  13.085  0.4824 -0.4521 -0.7810
  753TMC3    C311178   0.062   0.722  13.134  0.0565  0.0727  0.6798
  753TMC3    C411179   4.696   0.795  12.907  0.1154 -0.4331  0.2406
  753TMC3    C511180   4.652   0.677  12.963  0.2505 -0.0352  0.0582
  753TMC3    C611181   4.709   0.633  13.077  0.0297 -0.3506 -0.1622
  753TMC3     C11182   0.093   0.997  12.894  0.5821 -0.1389  0.1392
  753TMC3     O11183   0.108   0.985  12.770  0.0515  0.4926 -0.0054
  753TMC3     H11184   0.193   0.879  13.122  0.4901  0.5358 -1.7650
  753TMC3    H111185   4.648   0.821  12.813 -0.0112  1.5909  0.8678
  753TMC3    H211186   4.685   0.535  13.117  0.7511  0.7585  2.9293
  753TMC3    C711187   4.515   0.636  12.933 -0.4562 -0.5888 -0.6835
  753TMC3    C811188   0.115   0.669  13.258  0.1240 -0.2278  0.3489
  753TMC3    O111189   4.477   0.647  12.818  0.2976 -0.4823  0.2035
  753TMC3    O211190   0.111   0.550  13.290  0.1228 -0.2772  0.4790
  754MPD2     C11191   4.293   0.023  13.000  0.3307  0.0024  0.0278
  754MPD2    C111192   4.279   4.640  12.935  0.3662 -0.1462 -0.2313
  754MPD2    C211193   4.152   4.608  12.886 -0.7668  1.2630 -0.4830
  754MPD2    C311194   4.042   4.684  12.919  0.3754 -0.1034  0.3068
  754MPD2    C411195   4.057   0.062  12.994  0.0889  0.6179  0.0896
  754MPD2    C511196   4.183   0.102  13.037 -0.2564  0.1462 -0.8769
  754MPD2     H11197   4.146   4.513  12.835  1.8523  0.5016  0.6362
  754MPD2    H111198   3.970   0.125  13.014  0.2909  0.0186  2.7305
  754MPD2    H211199   4.392   0.060  13.026 -0.1780 -0.7693  3.1040
  754MPD2    H311200   4.196   0.202  13.078  2.9590 -1.2816  1.5894
  754MPD2     N11201   3.910   4.655  12.875  0.5860 -0.1319  0.2064
  754MPD2    H511202   3.836   4.715  12.909  0.2607  0.9080 -2.3406
  754MPD2    N111203   4.390   4.566  12.891 -0.0504 -0.9467 -0.4022
  754MPD2    H711204   4.479   4.614  12.889 -1.6896  2.1760  0.9491
  755MPD2     C11205   3.185   0.406  12.893 -0.4678  0.3292  0.0490
  755MPD2    C111206   3.130   0.295  12.833  0.1046  0.7950  0.4111
  755MPD2    C211207   3.215   0.199  12.785 -0.0640 -0.3052  0.1549
  755MPD2    C311208   3.353   0.204  12.809  0.1922 -1.1603  0.1908
  755MPD2    C411209   3.409   0.320  12.860 -0.3892 -0.2767  0.4562
  755MPD2    C511210   3.324   0.425  12.883  0.6989  0.7318 -1.2185
  755MPD2     H11211   3.175   0.108  12.742 -1.5617  0.5811 -0.3198
  755MPD2    H111212   3.516   0.336  12.860 -0.8575  2.7963 -0.4363
  755MPD2    H211213   3.126   0.489  12.932 -1.6430 -1.1493  1.3865
  755MPD2    H311214   3.359   0.522  12.914  1.0231  0.0913  0.4441
  755MPD2     N11215   3.445   0.097  12.786 -0.1082 -0.5141 -0.3058
  755MPD2    H511216   3.541   0.127  12.772  0.2125 -1.2167  0.3935
  755MPD2    N111217   2.996   0.266  12.815 -0.0261 -0.2068  0.1590
  755MPD2    H711218   2.978   0.180  12.764 -1.8584 -1.0829  2.2675
  756MPD2     C11219   4.360   0.633   9.291 -0.2970  0.0491  0.8255
  756MPD2    C111220   4.393   0.577   9.411 -0.3872  0.1820 -0.2724
  756MPD2    C211221   4.395   0.440   9.423 -0.5345  0.2467  0.1887
  756MPD2    C311222   4.369   0.355   9.322 -0.2773 -0.3249 -0.2167
  756MPD2    C411223   4.332   0.409   9.195 -0.0475 -0.9141 -0.1966
  756MPD2    C511224   4.332   0.547   9.183  0.5075  0.1693 -0.4377
  756MPD2     H11225   4.425   0.407   9.522 -1.4437 -1.7879 -0.2127
  756MPD2    H111226   4.312   0.345   9.110  0.8620 -1.4149 -0.0306
  756MPD2    H211227   4.346   0.739   9.273 -0.4063  0.0431  0.8768
  756MPD2    H311228   4.291   0.584   9.090 -0.9561 -0.2188  0.0471
  756MPD2     N11229   4.378   0.219   9.338  0.1714  0.5195  0.1217
  756MPD2    H511230   4.408   0.184   9.429 -1.4046 -1.0257  0.0450
  756MPD2    N111231   4.419   0.657   9.518  0.5489  0.6139  0.7216
  756MPD2    H711232   4.411   0.607   9.606 -0.1075 -1.3162 -0.4368
  757MPD2     C11233   4.213   4.627  10.102 -0.0632 -0.5790  0.1002
  757MPD2    C111234   4.133   4.686  10.008 -0.5063 -0.3752  0.0877
  757MPD2    C211235   4.177   4.696   9.883  0.5306  0.1006 -0.8352
  757MPD2    C311236   4.291   4.635   9.834  0.0727  0.0775  0.0578
  757MPD2    C411237   4.364   4.565   9.925 -0.1748  0.0668  1.2182
  757MPD2    C511238   4.326   4.562  10.060 -0.5346  0.3444 -0.3432
  757MPD2     H11239   4.117   0.013   9.810 -0.5563 -1.9521 -1.4129
  757MPD2    H111240   4.458   4.518   9.899  0.1916  0.9561  0.9153
  757MPD2    H211241   4.179   4.620  10.204 -0.7452  2.2397  0.0486
  757MPD2    H311242   4.389   4.501  10.124 -1.9095 -0.5758  0.1405
  757MPD2     N11243   4.324   4.643   9.695  0.0895  1.2662  0.1699
  757MPD2    H511244   4.266   4.704   9.638  0.2212 -0.4233 -1.7760
  757MPD2    N111245   4.007   4.724  10.052  0.0906 -0.4624  0.3071
  757MPD2    H711246   3.981   4.700  10.147  0.1535  3.4266  1.3028
  758MPD2     C11247   3.511   3.750  15.617 -0.2234  0.7953  0.4728
  758MPD2    C111248   3.581   3.837  15.533 -0.9193  0.1945 -0.4368
  758MPD2    C211249   3.560   3.970  15.552  0.4250  0.6563  0.0715
  758MPD2    C311250   3.463   4.017  15.641  0.1330  0.3144  0.0733
  758MPD2    C411251   3.399   3.928  15.725  0.0802  0.3187  0.4505
  758MPD2    C511252   3.422   3.794  15.712 -0.5529 -0.0014  0.7994
  758MPD2     H11253   3.622   4.041  15.498 -0.7252  0.7344 -1.1429
  758MPD2    H111254   3.329   3.965  15.799  0.8178  1.6237  0.5118
  758MPD2    H211255   3.534   3.644  15.618 -0.5022  0.7246 -2.4270
  758MPD2    H311256   3.371   3.724  15.776 -0.2342 -1.4845 -0.5740
  758MPD2     N11257   3.445   4.159  15.676  0.3685 -0.0049  0.1141
  758MPD2    H511258   3.372   4.177  15.743 -0.6412  3.1225 -1.8390
  758MPD2    N111259   3.678   3.785  15.441 -0.0947 -0.3576 -0.0993
  758MPD2    H711260   3.722   3.695  15.453  0.9489  0.6592  3.6829
  759MPD2     C11261   3.406   2.613  10.064 -0.3936 -0.3849  0.6130
  759MPD2    C111262   3.317   2.567   9.968 -0.1862  0.1689 -0.6381
  759MPD2    C211263   3.207   2.646   9.948 -0.2718  0.2566  0.1366
  759MPD2    C311264   3.182   2.763  10.006 -0.1760  0.2661 -0.0908
  759MPD2    C411265   3.267   2.795  10.108  0.2228  0.6489  0.6258
  759MPD2    C511266   3.376   2.719  10.140 -0.0298  1.0739  0.0580
  759MPD2     H11267   3.145   2.618   9.864 -1.0374  1.1323  0.4095
  759MPD2    H111268   3.247   2.884  10.168 -0.3071  1.1674 -0.3109
  759MPD2    H211269   3.492   2.555  10.094  0.7880  1.3305  0.5560
  759MPD2    H311270   3.437   2.752  10.222  0.9000 -3.3111  1.0995
  759MPD2     N11271   3.073   2.842   9.955 -0.0156 -0.3445 -0.5910
  759MPD2    H511272   3.024   2.808   9.873  0.2986  1.7109 -1.6450
  759MPD2    N111273   3.335   2.443   9.903  0.6571 -0.2726  0.2528
  759MPD2    H711274   3.258   2.406   9.848  0.6987  0.1112 -0.0577
  760MPD2     C11275   2.766   4.604  11.013 -0.0152 -0.0434 -0.0506
  760MPD2    C111276   2.881   4.642  11.083  0.2228  0.2333  0.1200
  760MPD2    C211277   2.982   4.559  11.105  0.2503  0.1946 -0.3626
  760MPD2    C311278   2.972   4.433  11.051 -0.3754 -0.5812  0.3099
  760MPD2    C411279   2.865   4.387  10.988 -0.1609 -0.0431  0.1680
  760MPD2    C511280   2.764   4.476  10.960  0.4158 -0.0846  0.2207
  760MPD2     H11281   3.064   4.591  11.168 -0.8885 -0.3010  1.3826
  760MPD2    H111282   2.861   4.285  10.951  0.8865 -0.2956  0.7351
  760MPD2    H211283   2.680   4.670  11.006  0.3703  0.2474 -1.9083
  760MPD2    H311284   2.681   4.432  10.906 -0.1741  2.8983 -1.3316
  760MPD2     N11285   3.083   4.344  11.060 -0.1249 -0.8595 -0.2101
  760MPD2    H511286   3.069   4.244  11.051  2.6236 -1.1339 -1.4516
  760MPD2    N111287   2.887   0.030  11.152 -0.0454  0.4141 -0.4282
  760MPD2    H711288   2.963   0.049  11.217 -0.8399 -0.3296  0.7327
  761MPD2     C11289   4.061   3.904  10.913 -0.2549  0.2090  0.1039
  761MPD2    C111290   4.070   3.991  10.807 -0.0494  0.3026 -0.1321
  761MPD2    C211291   4.129   4.116  10.822 -0.1477 -0.0023  0.4307
  761MPD2    C311292   4.182   4.153  10.945  0.2812 -0.7706 -0.0786
  761MPD2    C411293   4.154   4.073  11.060  0.9933 -0.3324  0.2589
  761MPD2    C511294   4.100   3.947  11.034  0.0902 -0.0576  0.4998
  761MPD2     H11295   4.142   4.175  10.732  0.6326 -1.6698 -0.5375
  761MPD2    H111296   4.202   4.089  11.156  1.9952 -3.6635  0.3172
  761MPD2    H211297   4.007   3.812  10.895 -0.8861  0.7772 -0.9257
  761MPD2    H311298   4.081   3.878  11.116  2.9287 -1.5079 -0.0837
  761MPD2     N11299   4.257   4.274  10.958 -0.4703  0.6939  0.1180
  761MPD2    H511300   4.308   4.274  11.046 -0.4720 -2.2185  0.1227
  761MPD2    N111301   4.056   3.929  10.683  0.8001  0.1532 -0.5941
  761MPD2    H711302   4.013   3.837  10.690  0.3512  0.4214  0.2469
  762MPD2     C11303   4.380   4.140   9.999 -0.6324  0.3058  0.2630
  762MPD2    C111304   4.392   4.007  10.018 -0.9496 -0.0700  0.2018
  762MPD2    C211305   4.508   3.938   9.963  0.3247  0.1386 -0.4290
  762MPD2    C311306   4.605   4.012   9.896  0.3345  0.5288  0.2589
  762MPD2    C411307   4.587   4.148   9.878  0.1587  0.3323  0.0137
  762MPD2    C511308   4.483   4.211   9.935  0.1370 -0.0122  0.2539
  762MPD2     H11309   4.525   3.833   9.986 -3.8420 -0.2716  0.6676
  762MPD2    H111310   4.659   4.210   9.826  1.2899  0.2304  1.4535
  762MPD2    H211311   4.298   4.191  10.049  0.2133  0.7587  1.1924
  762MPD2    H311312   4.481   4.319   9.933 -2.9367 -0.0960 -1.1674
  762MPD2     N11313   4.719   3.944   9.838 -0.7846 -0.3702 -0.0588
  762MPD2    H511314   4.708   3.844   9.841  0.0867 -0.5057 -1.0939
  762MPD2    N111315   4.293   3.950  10.101  0.6780  0.1076  0.8760
  762MPD2    H711316   4.225   4.015  10.140 -0.9579 -0.3056 -1.2407
  763MPD2     C11317   0.699   4.436  15.738  0.0822 -0.2749 -0.2776
  763MPD2    C111318   0.586   4.515  15.708 -0.4858 -0.2494 -0.5358
  763MPD2    C211319   0.577   4.643  15.758 -0.2260 -0.2485  0.1003
  763MPD2    C311320   0.675   4.688  15.845  0.1179 -0.1310  0.3184
  763MPD2    C411321   0.779   4.602  15.877 -0.1497 -0.3194  0.8082
  763MPD2    C511322   0.790   4.479  15.827  0.5280 -1.4806 -0.2004
  763MPD2     H11323   0.505   4.714  15.719 -0.2812 -0.0192  0.6274
  763MPD2    H111324   0.849   4.637  15.952  1.4337  0.6028 -1.1170
  763MPD2    H211325   0.714   4.340  15.691  1.1649 -0.9422  1.4389
  763MPD2    H311326   0.885   4.427  15.824  2.1837  1.4645  0.6930
  763MPD2     N11327   0.684   0.086  15.888 -0.3766  0.3197 -0.9565
  763MPD2    H511328   0.775   0.115  15.921 -0.3512 -0.5222 -0.2792
  763MPD2    N111329   0.491   4.470  15.620 -0.1836 -0.0085  0.3691
  763MPD2    H711330   0.427   4.543  15.588 -1.0710 -1.6112 -1.5069
  764MPD2     C11331   3.525   0.978  17.346  0.3983 -0.4395  0.0020
  764MPD2    C111332   3.420   0.923  17.272  0.1485  0.9440 -0.2643
  764MPD2    C211333   3.379   0.788  17.290 -0.0869 -0.0419 -0.1899
  764MPD2    C311334   3.435   0.721  17.395  0.2165  1.2282 -0.1577
  764MPD2    C411335   3.533   0.777  17.471 -0.2154  0.6993 -0.2790
  764MPD2    C511336   3.588   0.902  17.440  0.4438 -0.4519 -0.5399
  764MPD2     H11337   3.300   0.749  17.227 -1.2064 -0.4597  1.4731
  764MPD2    H111338   3.581   0.719  17.548 -0.5696  0.4352 -0.2595
  764MPD2    H211339   3.567   1.078  17.337  0.1521 -0.1498  2.2220
  764MPD2    H311340   3.673   0.941  17.495 -0.5533  0.2324  0.5350
  764MPD2     N11341   3.379   0.589  17.423  0.3014 -0.3642  0.2820
  764MPD2    H511342   3.300   0.560  17.365  2.0596  2.7768 -3.6603
  764MPD2    N111343   3.352   0.995  17.171 -0.2643 -0.1107  0.1329
  764MPD2    H711344   3.277   0.953  17.117  0.8207 -0.4014 -1.1438
  765MPD2     C11345   3.429   3.880  15.006  0.3944  0.6325  0.4224
  765MPD2    C111346   3.400   3.820  15.130  0.2243 -0.1097  0.6291
  765MPD2    C211347   3.483   3.716  15.179 -0.0626  0.0716 -0.0393
  765MPD2    C311348   3.583   3.667  15.100 -0.5961 -0.1881 -0.3643
  765MPD2    C411349   3.614   3.726  14.984 -0.0202  0.1360  0.9929
  765MPD2    C511350   3.545   3.835  14.941 -0.2175 -0.1443 -0.1392
  765MPD2     H11351   3.467   3.673  15.278  2.7652 -0.0348  0.3741
  765MPD2    H111352   3.689   3.683  14.918 -0.1668  1.4398 -0.0276
  765MPD2    H211353   3.377   3.962  14.959  0.3375 -0.3220 -1.1742
  765MPD2    H311354   3.562   3.870  14.839 -1.0003 -1.7475 -0.8213
  765MPD2     N11355   3.660   3.559  15.148  0.2018  0.5633  0.3438
  765MPD2    H511356   3.634   3.520  15.238 -1.9676  1.4500  0.0859
  765MPD2    N111357   3.311   3.888  15.214  0.1436  0.2808  0.3641
  765MPD2    H711358   3.275   3.979  15.187 -0.0282  0.4047  1.0245
  766MPD2     C11359   2.560   4.002  15.403 -0.3214 -1.0316  0.7268
  766MPD2    C111360   2.704   4.004  15.408  0.2256 -0.3630  0.6430
  766MPD2    C211361   2.773   3.985  15.291  0.2649  0.0313 -0.0614
  766MPD2    C311362   2.710   3.962  15.170 -0.5763  0.3296 -0.4195
  766MPD2    C411363   2.571   3.974  15.163  0.4575  0.2515  0.0191
  766MPD2    C511364   2.498   3.986  15.280 -0.3215 -0.4394  0.2690
  766MPD2     H11365   2.880   3.968  15.294  0.3913  0.9684  0.9757
  766MPD2    H111366   2.515   3.970  15.070 -0.5941 -0.9561  0.7120
  766MPD2    H211367   2.504   4.001  15.496  1.9431 -1.6297  2.0828
  766MPD2    H311368   2.391   3.982  15.268 -0.6964  2.8353  2.6674
  766MPD2     N11369   2.769   3.932  15.045 -0.4422  0.2273 -0.4509
  766MPD2    H511370   2.704   3.934  14.966  0.3114 -1.5530 -1.0991
  766MPD2    N111371   2.756   4.013  15.542  0.5150 -0.0055 -0.2094
  766MPD2    H711372   2.687   4.027  15.615  2.0681 -0.5351  1.3808
  767MPD2     C11373   2.415   4.263  15.032  0.2049  0.2640  0.2548
  767MPD2    C111374   2.543   4.246  14.973  0.5857  0.7837  0.0650
  767MPD2    C211375   2.557   4.176  14.856 -0.0662 -0.3546 -0.4897
  767MPD2    C311376   2.443   4.128  14.799 -0.5223  0.7622 -0.0136
  767MPD2    C411377   2.319   4.153  14.847  0.6278 -0.1527 -0.3917
  767MPD2    C511378   2.303   4.225  14.968  0.5595  0.7421  0.2313
  767MPD2     H11379   2.648   4.152  14.803  0.6693  2.0579 -0.2764
  767MPD2    H111380   2.236   4.088  14.820  1.6483 -1.2606 -0.8806
  767MPD2    H211381   2.406   4.314  15.128  0.7799  2.5758 -0.9243
  767MPD2    H311382   2.205   4.235  15.013 -0.4112 -0.8592 -1.5097
  767MPD2     N11383   2.464   4.052  14.682  0.2433  0.2465  0.4974
  767MPD2    H511384   2.561   4.048  14.652  0.4793  2.7438  0.9172
  767MPD2    N111385   2.655   4.293  15.040 -0.2638 -0.4331 -0.0364
  767MPD2    H711386   2.638   4.340  15.128 -1.8806  0.3165 -0.7467
  768MPD2     C11387   4.262   2.473  10.020 -0.3912  0.2866  0.3859
  768MPD2    C111388   4.241   2.398  10.135 -0.3270  0.4440  0.3789
  768MPD2    C211389   4.344   2.359  10.219 -0.0564 -0.0335 -0.7056
  768MPD2    C311390   4.475   2.402  10.195  0.2603 -0.2200  0.3230
  768MPD2    C411391   4.490   2.486  10.087 -0.0265  0.1737  1.0170
  768MPD2    C511392   4.392   2.506   9.990  0.2669 -0.1546 -0.1804
  768MPD2     H11393   4.317   2.310  10.312 -2.4056 -1.3252 -2.0693
  768MPD2    H111394   4.588   2.531  10.079  0.1602 -0.5459 -0.9332
  768MPD2    H211395   4.182   2.496   9.950 -2.2125 -2.1794  1.6507
  768MPD2    H311396   4.415   2.563   9.901  1.4558  1.3761  1.1020
  768MPD2     N11397   4.577   2.375  10.281  0.1007  0.3946 -0.3122
  768MPD2    H511398   4.666   2.417  10.253 -1.1301  1.6451 -2.3832
  768MPD2    N111399   4.110   2.351  10.170 -0.3804  0.1828 -0.6843
  768MPD2    H711400   4.103   2.286  10.248 -2.4679  0.6086 -0.5029
  769MPD2     C11401   4.605   0.812  14.392 -0.0972  0.1719  0.4423
  769MPD2    C111402   4.502   0.742  14.446 -1.0068  0.5773 -0.8368
  769MPD2    C211403   4.533   0.644  14.541 -0.1086 -0.1224  0.0182
  769MPD2    C311404   4.668   0.621  14.584 -0.6784  0.1405 -0.2079
  769MPD2    C411405   0.031   0.704  14.533 -0.0955  0.2099  0.9835
  769MPD2    C511406   4.734   0.798  14.443 -0.2429  0.0429  0.2673
  769MPD2     H11407   4.467   0.577  14.594  0.6684 -0.7894  0.1425
  769MPD2    H111408   0.134   0.696  14.565 -0.2436 -2.1025  0.8915
  769MPD2    H211409   4.597   0.887  14.315  1.4321 -1.5869 -1.4475
  769MPD2    H311410   0.080   0.858  14.406 -0.3873  0.0879  0.0234
  769MPD2     N11411   4.682   0.526  14.692 -0.0483 -0.1581 -0.3182
  769MPD2    H511412   4.597   0.481  14.725 -1.0732  0.9039 -1.5241
  769MPD2    N111413   4.374   0.760  14.383  0.4541 -0.2627  0.0773
  769MPD2    H711414   4.360   0.823  14.304  4.3762  0.6384  0.0873
  770MPD2     C11415   3.630   0.263  14.672  0.3985 -0.0726 -0.4191
  770MPD2    C111416   3.748   0.233  14.601 -0.1131 -0.0350 -0.4593
  770MPD2    C211417   3.816   0.334  14.532 -0.4330  0.3407  0.1361
  770MPD2    C311418   3.763   0.462  14.532 -0.3736  0.3933 -0.2494
  770MPD2    C411419   3.644   0.486  14.592 -0.2892  0.4471  0.6501
  770MPD2    C511420   3.581   0.390  14.665  0.4681  0.1988 -0.8501
  770MPD2     H11421   3.901   0.309  14.470  1.4518 -0.5641  3.0618
  770MPD2    H111422   3.591   0.579  14.574  1.9620  1.5772 -0.1736
  770MPD2    H211423   3.581   0.186  14.731 -0.2013  0.7162  0.1089
  770MPD2    H311424   3.492   0.418  14.721  0.0097 -0.9216 -1.0154
  770MPD2     N11425   3.842   0.562  14.454  0.3824  0.6034 -0.3104
  770MPD2    H511426   3.929   0.540  14.406 -0.5695  0.9803 -2.2041
  770MPD2    N111427   3.802   0.104  14.617  0.2709  0.2208 -0.4605
  770MPD2    H711428   3.754   0.039  14.678  0.2858  2.3441  1.8317
  771MPD2     C11429   0.654   3.233  13.241  0.3838 -0.3661 -0.4804
  771MPD2    C111430   0.571   3.339  13.234 -0.5359 -0.1872  0.8037
  771MPD2    C211431   0.435   3.308  13.191  0.6468 -0.3798 -0.2584
  771MPD2    C311432   0.392   3.182  13.145  0.7278 -0.0760 -0.7033
  771MPD2    C411433   0.486   3.090  13.135  0.0456  0.1414  0.6990
  771MPD2    C511434   0.614   3.111  13.192 -0.3047  0.5000 -0.2921
  771MPD2     H11435   0.363   3.388  13.181  1.9111  0.3870 -3.3544
  771MPD2    H111436   0.467   2.991  13.095 -1.9543  0.2132  1.4446
  771MPD2    H211437   0.756   3.240  13.276  0.3971 -2.4024 -0.1145
  771MPD2    H311438   0.690   3.034  13.196 -0.3383  0.5326  0.9605
  771MPD2     N11439   0.257   3.151  13.113 -0.1471  0.2938 -0.5414
  771MPD2    H511440   0.192   3.227  13.126  0.5804  0.8996 -0.4679
  771MPD2    N111441   0.601   3.470  13.294  0.0973  0.0531  0.0340
  771MPD2    H711442   0.526   3.539  13.298  0.7712  0.9091 -2.3404
  772MPD2     C11443   0.294   4.054  13.617 -0.2398 -0.2868  0.2282
  772MPD2    C111444   0.292   3.936  13.545  0.1099  0.5577 -0.6014
  772MPD2    C211445   0.172   3.860  13.546  0.1323 -0.2504 -0.4182
  772MPD2    C311446   0.060   3.906  13.612 -0.1558  0.5043 -0.6153
  772MPD2    C411447   0.067   4.016  13.691  0.0618 -0.5933  0.7458
  772MPD2    C511448   0.183   4.085  13.685  0.0171 -0.4758 -0.2278
  772MPD2     H11449   0.169   3.773  13.481 -0.3747 -0.7762  0.3090
  772MPD2    H111450   4.720   4.050  13.753  0.8211  3.1962 -0.2915
  772MPD2    H211451   0.379   4.122  13.618 -1.3531  1.1212  0.5214
  772MPD2    H311452   0.191   4.168  13.754  1.9812 -1.6468  0.9343
  772MPD2     N11453   4.675   3.843  13.611  0.2574 -0.2834 -0.7168
  772MPD2    H511454   4.591   3.883  13.653 -0.2337 -1.9759 -0.1129
  772MPD2    N111455   0.407   3.888  13.472 -0.1059 -0.2765  0.2227
  772MPD2    H711456   0.398   3.801  13.419 -3.1579  1.6557 -2.4550
  773MPD2     C11457   3.847   4.494  17.624  0.0339  0.0662  0.3127
  773MPD2    C111458   3.883   4.460  17.491 -0.2441  0.6985 -0.6571
  773MPD2    C211459   3.894   4.328  17.467  0.5695  0.1777  0.0489
  773MPD2    C311460   3.877   4.233  17.569  0.4185 -0.3386 -0.9295
  773MPD2    C411461   3.823   4.271  17.696  0.1639  0.1744  0.3039
  773MPD2    C511462   3.807   4.405  17.722  0.1500 -0.3636  0.3783
  773MPD2     H11463   3.935   4.292  17.374 -0.1625 -1.8268  0.5105
  773MPD2    H111464   3.809   4.203   0.039 -0.2701  0.3288  0.3552
  773MPD2    H211465   3.823   4.597  17.647  2.1599  0.4788  0.7105
  773MPD2    H311466   3.763   4.435   0.076  0.9035 -0.8418  0.8912
  773MPD2     N11467   3.915   4.102  17.534 -0.0843 -0.5412  0.1355
  773MPD2    H511468   3.976   4.087  17.454 -0.4266  0.9793 -0.3976
  773MPD2    N111469   3.913   4.557  17.392  0.0961 -0.0756 -0.1638
  773MPD2    H711470   3.922   4.525  17.297  1.6548  0.3595 -0.1677
  774MPD2     C11471   4.036   3.568  12.697  0.0440  0.0686 -0.1245
  774MPD2    C111472   3.963   3.628  12.794  0.6530  0.3298  0.6730
  774MPD2    C211473   4.021   3.742  12.840  0.1665 -0.2614 -0.1839
  774MPD2    C311474   4.141   3.792  12.803  0.8008  0.4837  0.9647
  774MPD2    C411475   4.210   3.729  12.705  0.1936 -0.4094 -0.1950
  774MPD2    C511476   4.152   3.618  12.648  0.0968  0.3608 -0.0672
  774MPD2     H11477   3.973   3.786  12.927 -0.6731 -3.0767  0.7906
  774MPD2    H111478   4.307   3.764  12.672  0.5421 -1.0724  0.1306
  774MPD2    H211479   3.993   3.482  12.647  2.3084 -1.1109 -0.0511
  774MPD2    H311480   4.201   3.566  12.566  1.2737 -0.2783  1.0465
  774MPD2     N11481   4.174   3.915  12.871 -0.0157 -0.6565  0.0177
  774MPD2    H511482   4.110   3.948  12.942 -0.1247 -2.8830  0.9472
  774MPD2    N111483   3.853   3.561  12.851  0.5097  0.0659 -0.5490
  774MPD2    H711484   3.818   3.472  12.816 -0.8367 -0.0338  1.0426
  775MPD2     C11485   4.631   0.147  15.253 -0.3823 -0.1386  0.2237
  775MPD2    C111486   4.650   0.259  15.334 -0.1455 -0.5387  0.0523
  775MPD2    C211487   0.044   0.311  15.341 -0.1992 -0.4838  0.0701
  775MPD2    C311488   0.153   0.258  15.275  0.1876 -0.2175  0.0422
  775MPD2    C411489   0.129   0.142  15.201 -0.0447  0.5821  0.5831
  775MPD2    C511490   0.006   0.090  15.194  0.5425  0.5203 -0.1614
  775MPD2     H11491   0.062   0.395  15.408  0.0540  0.1275 -0.7611
  775MPD2    H111492   0.220   0.099  15.160 -0.7071 -0.0057 -0.2703
  775MPD2    H211493   4.538   0.098  15.225 -1.0859  0.5272  1.3541
  775MPD2    H311494   4.727   0.007  15.125  0.3122  0.8065 -0.4537
  775MPD2     N11495   0.271   0.338  15.256 -0.6351 -0.8014 -0.4383
  775MPD2    H511496   0.327   0.312  15.175 -2.0159  1.7025 -2.2247
  775MPD2    N111497   4.537   0.311  15.399  0.5140  0.4873 -0.2674
  775MPD2    H711498   4.455   0.250  15.405  1.5780 -0.8832  0.5058
  776MPD2     C11499   3.908   0.524  11.086  0.3995  0.0470 -0.1682
  776MPD2    C111500   4.039   0.570  11.111 -0.2213 -0.0329  0.0504
  776MPD2    C211501   4.096   0.685  11.052  0.6571  0.2127 -0.5548
  776MPD2    C311502   4.007   0.761  10.968 -0.5236 -0.0599 -0.2112
  776MPD2    C411503   3.878   0.715  10.950 -0.0389 -0.1802 -0.5798
  776MPD2    C511504   3.828   0.593  11.003 -0.1415 -0.3726  0.6208
  776MPD2     H11505   4.192   0.732  11.070  0.6283 -0.3708  1.0860
  776MPD2    H111506   3.807   0.776  10.895  0.6087  1.6877  0.6531
  776MPD2    H211507   3.868   0.435  11.134 -3.6053  2.2370  0.5439
  776MPD2    H311508   3.728   0.552  10.990 -0.7426  0.7850  1.5170
  776MPD2     N11509   4.033   0.891  10.913 -0.2586  0.9485  0.4386
  776MPD2    H511510   3.950   0.934  10.873  0.8082  2.5379 -0.0859
  776MPD2    N111511   4.112   0.491  11.204 -0.2701 -0.1618 -0.0823
  776MPD2    H711512   4.067   0.409  11.243 -0.2882  0.9281  2.1762
  777MPD2     C11513   4.006   3.016  17.472 -0.4321 -0.1550  0.5928
  777MPD2    C111514   4.019   2.919  17.571  0.6498  0.3919 -0.1784
  777MPD2    C211515   3.926   2.823  17.582 -0.6813 -0.5796  0.1631
  777MPD2    C311516   3.824   2.807  17.489 -0.2103  0.3037  0.5152
  777MPD2    C411517   3.821   2.899  17.382  0.2701  0.5639  0.9180
  777MPD2    C511518   3.903   3.006  17.372  0.4654  0.3191  0.1671
  777MPD2     H11519   3.920   2.756  17.666  0.0307 -0.5375  0.2490
  777MPD2    H111520   3.755   2.880  17.298  2.4528  1.5067 -1.0480
  777MPD2    H211521   4.070   3.104  17.479  1.7507 -1.5766 -1.4848
  777MPD2    H311522   3.874   3.083  17.302  1.6962 -1.6981 -2.5513
  777MPD2     N11523   3.749   2.692  17.502 -0.1877  0.2401  0.6072
  777MPD2    H511524   3.765   2.642  17.589 -1.4207 -3.1024 -1.0948
  777MPD2    N111525   4.112   2.940  17.673  0.4811  0.1358 -0.5901
  777MPD2    H711526   4.158   3.030  17.684  1.2515 -0.4371  0.9108
  778MPD2     C11527   0.449   3.450  14.519  0.6522 -0.2036  0.5163
  778MPD2    C111528   0.477   3.349  14.429  0.3478 -0.4593 -1.1032
  778MPD2    C211529   0.574   3.364  14.332 -0.4870  0.8368 -0.3615
  778MPD2    C311530   0.636   3.488  14.312 -0.5320  0.2811 -0.1203
  778MPD2    C411531   0.614   3.582  14.412 -0.3622 -0.1228 -0.0626
  778MPD2    C511532   0.513   3.569  14.501 -0.1175 -0.0466 -0.3948
  778MPD2     H11533   0.591   3.285  14.260  0.2213  0.2587  0.4403
  778MPD2    H111534   0.666   3.677  14.400 -2.3080  0.7506 -1.5400
  778MPD2    H211535   0.369   3.447  14.592 -0.7756  4.9127 -0.8598
  778MPD2    H311536   0.497   3.646  14.576  0.5632 -1.2649  1.0079
  778MPD2     N11537   0.743   3.488  14.212  0.6440  0.3536 -0.2171
  778MPD2    H511538   0.756   3.409  14.150  1.4782 -1.8807  2.7631
  778MPD2    N111539   0.412   3.224  14.444  0.6993 -0.0955 -0.0860
  778MPD2    H711540   0.431   3.152  14.375  2.9808  1.1685 -0.7968
  779MPD2     C11541   0.038   1.763  13.893  0.6749 -0.2954  0.5027
  779MPD2    C111542   0.170   1.767  13.869 -0.3677 -0.6233 -0.2436
  779MPD2    C211543   0.230   1.883  13.826 -0.1367  0.3850 -0.2252
  779MPD2    C311544   0.157   1.996  13.810 -0.2266 -0.0605 -0.4856
  779MPD2    C411545   0.020   1.994  13.827 -0.0525 -0.3316  0.0252
  779MPD2    C511546   4.697   1.875  13.859 -0.5362  0.0455  0.3677
  779MPD2     H11547   0.333   1.889  13.793 -0.6954  2.2357 -1.6513
  779MPD2    H111548   4.687   2.072  13.795 -1.0136 -0.3508  2.0326
  779MPD2    H211549   4.720   1.675  13.927 -1.4395  0.1803 -1.6102
  779MPD2    H311550   4.589   1.871  13.863 -0.4118 -3.0327  0.7945
  779MPD2     N11551   0.226   2.117  13.788  0.2765 -0.4327 -0.4570
  779MPD2    H511552   0.324   2.092  13.787  0.3284 -0.3413  2.1408
  779MPD2    N111553   0.255   1.654  13.882  0.6378  0.0351 -0.1769
  779MPD2    H711554   0.351   1.667  13.853  0.7952  0.5125  0.5470
  780MPD2     C11555   0.243   1.721   0.094  0.1431  0.3985  0.1153
  780MPD2    C111556   0.105   1.720   0.094 -0.1336 -0.1144  0.5778
  780MPD2    C211557   0.033   1.808   0.011  0.2031 -0.3327  0.3509
  780MPD2    C311558   0.090   1.907  17.677 -0.0283 -0.4189  0.4079
  780MPD2    C411559   0.234   1.909  17.683  0.2384 -0.1352 -0.0937
  780MPD2    C511560   0.310   1.819   0.014  0.0718 -0.0908  0.0602
  780MPD2     H11561   4.661   1.801   0.014  0.1229  0.9760  0.3830
  780MPD2    H111562   0.275   1.974  17.607  0.3420 -2.1141 -1.7168
  780MPD2    H211563   0.293   1.647   0.154 -2.5891 -0.4357  1.3412
  780MPD2    H311564   0.417   1.820  17.737 -0.1035 -2.0043 -1.0979
  780MPD2     N11565   0.018   1.984  17.581 -0.4026 -0.7174 -0.2890
  780MPD2    H511566   4.659   1.950  17.566  0.5419 -2.0309 -3.3494
  780MPD2    N111567   0.036   1.626   0.178 -0.3948 -0.4278  0.1766
  780MPD2    H711568   0.094   1.555   0.222 -0.8739  2.1064  4.8439
  781MPD2     C11569   2.490   3.816  11.636 -0.2596  0.4876  0.6901
  781MPD2    C111570   2.406   3.913  11.688 -0.9838 -0.3861 -0.3950
  781MPD2    C211571   2.373   4.030  11.626  0.4858 -0.7013 -0.0785
  781MPD2    C311572   2.437   4.068  11.509 -0.3587  0.2489 -0.0506
  781MPD2    C411573   2.532   3.980  11.469 -0.1500 -0.0049 -0.4960
  781MPD2    C511574   2.568   3.861  11.529 -0.0361  0.2179 -0.1515
  781MPD2     H11575   2.290   4.088  11.665  1.4421 -0.2770  1.3577
  781MPD2    H111576   2.575   3.994  11.371  0.2739  1.0616 -0.1661
  781MPD2    H211577   2.509   3.720  11.683 -0.5450 -0.2418 -0.6763
  781MPD2    H311578   2.625   3.785  11.476  1.0142  0.0286  1.2433
  781MPD2     N11579   2.401   4.172  11.427  0.1002 -0.5670  0.1540
  781MPD2    H511580   2.442   4.180  11.334  0.6096 -0.4933  0.3863
  781MPD2    N111581   2.337   3.888  11.800  0.0965  0.3598 -0.5256
  781MPD2    H711582   2.266   3.958  11.818  2.7920  2.3453  2.3851
  782MPD2     C11583   0.089   4.456   9.885 -1.2276 -0.5584  0.0911
  782MPD2    C111584   0.215   4.462   9.937  0.0419  0.0980 -0.3222
  782MPD2    C211585   0.264   4.588   9.979 -0.1640  0.5415  0.2503
  782MPD2    C311586   0.204   4.703   9.948 -0.5886  0.0732 -0.0291
  782MPD2    C411587   0.089   4.688   9.875  0.0592  0.8611  0.1744
  782MPD2    C511588   0.026   4.567   9.849 -0.3211  0.4343  0.7134
  782MPD2     H11589   0.358   4.592  10.034 -0.6254  2.5662  0.8959
  782MPD2    H111590   0.032   0.039   9.843  0.0069  2.1271  3.7210
  782MPD2    H211591   0.051   4.361   9.850  0.1578 -1.2524  0.4598
  782MPD2    H311592   4.668   4.570   9.793  1.4544  2.2165 -2.1437
  782MPD2     N11593   0.259   0.096   9.988  0.0717  0.1453  0.0687
  782MPD2    H511594   0.347   0.094  10.039  1.6915  1.4263 -2.6856
  782MPD2    N111595   0.282   4.334   9.951 -0.4425  0.0454  0.5647
  782MPD2    H711596   0.223   4.253   9.936 -1.4567  0.7200  0.9027
  783MPD2     C11597   4.522   4.047  10.490  0.5735  0.2394  0.4602
  783MPD2    C111598   4.612   4.153  10.510 -0.6350 -0.2200  0.0775
  783MPD2    C211599   4.732   4.158  10.448 -0.1324  0.5436 -0.1031
  783MPD2    C311600   0.028   4.056  10.359 -0.5515 -0.2979  1.0536
  783MPD2    C411601   4.677   3.950  10.334 -0.8576 -0.5642 -0.2608
  783MPD2    C511602   4.562   3.943  10.407 -0.1728  0.2051 -0.3399
  783MPD2     H11603   0.077   4.228  10.466 -0.3088  0.3691  1.3433
  783MPD2    H111604   4.709   3.871  10.267 -0.3770  0.9557 -1.8491
  783MPD2    H211605   4.421   4.041  10.527  0.4560  1.5017  0.3479
  783MPD2    H311606   4.492   3.861  10.391 -1.1890  0.3815  3.0679
  783MPD2     N11607   0.161   4.057  10.304 -0.4560 -0.7043  0.2748
  783MPD2    H511608   0.228   4.131  10.320  1.0797 -3.5684  6.7875
  783MPD2    N111609   4.565   4.249  10.601  0.0210 -0.4171 -0.0550
  783MPD2    H711610   4.476   4.235  10.648  1.1523 -1.6322  1.6986
  784MPD2     C11611   2.103   4.434   0.155 -0.3676 -0.1259 -0.3593
  784MPD2    C111612   2.105   4.487   0.277 -0.1178 -0.0671 -0.5310
  784MPD2    C211613   1.988   4.536   0.334  0.5200 -0.6656 -0.4178
  784MPD2    C311614   1.867   4.532   0.269 -0.0900  0.0517  0.6178
  784MPD2    C411615   1.876   4.504   0.134 -0.0371  0.0014 -0.2683
  784MPD2    C511616   1.992   4.457   0.083 -0.1829 -0.0012 -0.1761
  784MPD2     H11617   1.978   4.559   0.440  0.4400  0.1148 -0.5919
  784MPD2    H111618   1.787   4.508   0.073  2.3204 -0.4504 -3.7759
  784MPD2    H211619   2.188   4.394   0.100  0.9516 -0.0874  1.6593
  784MPD2    H311620   1.998   4.425  17.720  1.9981 -1.2139  0.3403
  784MPD2     N11621   1.748   4.571   0.330 -0.5318  0.3013  0.0390
  784MPD2    H511622   1.745   4.607   0.425  1.5225 -2.0751  1.0223
  784MPD2    N111623   2.218   4.468   0.356  0.4865 -0.2450 -0.2945
  784MPD2    H711624   2.214   4.493   0.454  0.9104  0.0894 -0.3630
  785MPD2     C11625   3.201   2.963  10.591 -1.1218  0.3922 -0.1416
  785MPD2    C111626   3.109   3.021  10.687  0.0793  0.1334  0.1862
  785MPD2    C211627   2.972   2.988  10.670 -0.6044  0.0673  0.1596
  785MPD2    C311628   2.932   2.906  10.567 -1.0320  0.1842  0.2843
  785MPD2    C411629   3.021   2.850  10.483 -0.3094  0.0051  0.4087
  785MPD2    C511630   3.155   2.878  10.497  0.1147 -0.2621  0.6049
  785MPD2     H11631   2.896   3.046  10.721  1.6419  2.0302  1.3028
  785MPD2    H111632   3.010   2.771  10.410 -0.8973  0.6296 -0.1799
  785MPD2    H211633   3.305   2.990  10.608 -1.3335  0.6375  0.7750
  785MPD2    H311634   3.226   2.827  10.433 -0.9313 -1.3599  0.3356
  785MPD2     N11635   2.795   2.901  10.538 -0.7453  0.4625  0.0238
  785MPD2    H511636   2.735   2.955  10.600  0.9013  0.3226  1.7475
  785MPD2    N111637   3.151   3.119  10.781  0.4168 -0.0968  0.1765
  785MPD2    H711638   3.251   3.137  10.786 -0.1221  2.5645  1.4560
  786MPD2     C11639   0.759   1.039  14.547  0.7284  0.4778 -0.0468
  786MPD2    C111640   0.868   1.132  14.542  0.3426 -0.2287 -0.6223
  786MPD2    C211641   0.928   1.170  14.659  0.1505 -0.1822 -0.2797
  786MPD2    C311642   0.880   1.124  14.785 -0.2656 -0.1456  0.3397
  786MPD2    C411643   0.776   1.035  14.782  0.2474 -0.6829 -0.1679
  786MPD2    C511644   0.720   0.994  14.665 -0.1607  0.1346  0.1511
  786MPD2     H11645   1.019   1.229  14.653 -0.0794  0.2622  0.4800
  786MPD2    H111646   0.747   0.974  14.867  0.1498 -2.5911 -1.5697
  786MPD2    H211647   0.705   1.004  14.459  1.2123 -0.9326  0.2290
  786MPD2    H311648   0.639   0.923  14.676  0.3266 -0.6622 -1.3922
  786MPD2     N11649   0.949   1.148  14.907 -0.7077 -0.3213 -0.9634
  786MPD2    H511650   0.905   1.101  14.986 -0.8675  0.3441 -0.6521
  786MPD2    N111651   0.944   1.148  14.424 -0.5092  0.1908  0.2116
  786MPD2    H711652   1.033   1.197  14.434  0.3968 -1.4933  0.4586
  787MPD2     C11653   1.372   0.689  14.474  0.4145  0.3278 -0.0981
  787MPD2    C111654   1.348   0.703  14.339 -0.4571  0.2577  0.5346
  787MPD2    C211655   1.414   0.610  14.256  0.1387  0.3332 -0.1955
  787MPD2    C311656   1.500   0.515  14.305  0.1165 -0.6022  0.2641
  787MPD2    C411657   1.533   0.517  14.441  0.1886 -0.1108 -0.5885
  787MPD2    C511658   1.465   0.602  14.525 -0.2000  0.3733  0.8077
  787MPD2     H11659   1.403   0.628  14.149 -1.2150  0.4256 -0.0476
  787MPD2    H111660   1.590   0.438  14.489  0.4169  0.8290  0.6605
  787MPD2    H211661   1.339   0.760  14.550  0.6380 -0.5069  0.7765
  787MPD2    H311662   1.491   0.607  14.630  0.6546 -1.1666  0.6731
  787MPD2     N11663   1.556   0.424  14.209 -0.1656 -0.0398  0.2409
  787MPD2    H511664   1.522   0.436  14.114  0.5770  1.0715  0.1222
  787MPD2    N111665   1.271   0.818  14.299 -0.2788  0.1408 -0.3770
  787MPD2    H711666   1.244   0.884  14.371 -0.8303 -1.1504  0.6117
  788MPD2     C11667   3.354   4.048   0.408  0.8587  0.3375  0.5255
  788MPD2    C111668   3.215   4.033   0.380 -0.2482  0.3397  0.3912
  788MPD2    C211669   3.145   4.132   0.323 -0.6180 -0.0649  0.6465
  788MPD2    C311670   3.213   4.248   0.285 -0.0184  0.1179  0.2826
  788MPD2    C411671   3.346   4.267   0.319  0.1355 -0.3340 -0.0455
  788MPD2    C511672   3.414   4.171   0.393  0.0222  0.4290 -0.2201
  788MPD2     H11673   3.045   4.113   0.286 -0.7177 -2.1990  2.0209
  788MPD2    H111674   3.396   4.361   0.299  1.0878 -1.0909 -1.2641
  788MPD2    H211675   3.412   3.965   0.447  1.0707  0.5465  0.6539
  788MPD2    H311676   3.515   4.175   0.433  0.1209 -1.0487 -0.3220
  788MPD2     N11677   3.158   4.349   0.211 -0.7366 -0.1376  0.0663
  788MPD2    H511678   3.208   4.435   0.191  0.4235 -0.6166  0.9052
  788MPD2    N111679   3.152   3.907   0.414  0.2749  0.0715  0.1539
  788MPD2    H711680   3.223   3.838   0.436 -1.4753 -1.8341 -0.1460
  789MPD2     C11681   2.877   3.603  16.300 -0.1633  0.7266  0.0982
  789MPD2    C111682   2.816   3.670  16.194  0.4388 -0.6175 -1.1503
  789MPD2    C211683   2.703   3.740  16.215  0.1886  0.8878 -0.0630
  789MPD2    C311684   2.655   3.760  16.344 -0.1450 -1.1148 -0.9597
  789MPD2    C411685   2.723   3.699  16.447  0.3812  0.3388 -0.2408
  789MPD2    C511686   2.839   3.620  16.427  0.3674 -0.6958 -0.2871
  789MPD2     H11687   2.676   3.794  16.125  2.6105  1.5196 -0.4125
  789MPD2    H111688   2.700   3.703  16.553  0.6611  1.3115 -0.2153
  789MPD2    H211689   2.949   3.524  16.287 -0.7879 -0.2405  2.5527
  789MPD2    H311690   2.878   3.567  16.513 -0.4179  0.1446  0.5978
  789MPD2     N11691   2.541   3.841  16.376  0.2206  0.1113  0.1558
  789MPD2    H511692   2.516   3.861  16.472  3.4099 -0.1801  1.0527
  789MPD2    N111693   2.859   3.663  16.059 -0.4341 -0.4612  0.2414
  789MPD2    H711694   2.827   3.739  15.999 -2.0146 -1.8757 -0.7141
  790MPD2     C11695   4.491   1.198  13.186  0.1595 -0.0520 -0.0578
  790MPD2    C111696   4.468   1.062  13.198 -0.0975 -0.3283 -0.8075
  790MPD2    C211697   4.437   0.986  13.089 -0.2142  0.1785  0.0374
  790MPD2    C311698   4.447   1.044  12.958 -0.0333 -0.5030 -0.6737
  790MPD2    C411699   4.467   1.183  12.954  0.1785  0.3259  0.0787
  790MPD2    C511700   4.501   1.257  13.060 -0.4809 -0.0334 -0.7240
  790MPD2     H11701   4.407   0.883  13.104 -1.7803  0.6990  0.4335
  790MPD2    H111702   4.470   1.233  12.858  0.5710  0.2258  0.0385
  790MPD2    H211703   4.514   1.266  13.267 -2.4128 -0.9847  1.4652
  790MPD2    H311704   4.530   1.362  13.065  1.7820 -0.7802  1.5635
  790MPD2     N11705   4.399   0.961  12.852  0.0770 -0.8341  0.3308
  790MPD2    H511706   4.371   0.867  12.877  1.8768 -1.4860 -0.0514
  790MPD2    N111707   4.466   1.008  13.332  0.2407  0.0258  0.0404
  790MPD2    H711708   4.471   1.069  13.413 -1.6171 -1.1346  1.0407
  791MPD2     C11709   3.781   0.932  12.782  0.6931 -0.0469  0.0699
  791MPD2    C111710   3.821   0.834  12.696  0.7260  0.4877 -0.2077
  791MPD2    C211711   3.729   0.732  12.655  0.7779  0.8737 -0.0550
  791MPD2    C311712   3.595   0.741  12.689  0.7351  0.0416  0.0473
  791MPD2    C411713   3.554   0.848  12.770 -0.3047  0.4572  0.9987
  791MPD2    C511714   3.650   0.938  12.818  0.5868  0.1268  0.4874
  791MPD2     H11715   3.758   0.665  12.575 -2.4470 -0.2828 -0.2526
  791MPD2    H111716   3.452   0.860  12.804 -0.2772  1.1508  0.8441
  791MPD2    H211717   3.847   1.012  12.813 -0.2853  0.4915  0.7627
  791MPD2    H311718   3.621   1.029  12.869 -0.5898  0.0799 -0.0930
  791MPD2     N11719   3.503   0.652  12.626  0.1933 -0.3961  0.1910
  791MPD2    H511720   3.537   0.594  12.550  1.1793  1.9438 -1.1417
  791MPD2    N111721   3.962   0.826  12.679 -0.1334 -0.1350 -0.2749
  791MPD2    H711722   4.018   0.908  12.701  0.9019 -1.2844  1.3800
  792MPD2     C11723   0.291   0.572  10.732  0.2579 -0.4126  0.2402
  792MPD2    C111724   0.216   0.685  10.708  0.0307  0.8004  0.2350
  792MPD2    C211725   0.083   0.663  10.675  0.0547  0.6997 -0.3094
  792MPD2    C311726   0.021   0.539  10.691  0.1845  0.4445  0.2553
  792MPD2    C411727   0.104   0.425  10.711 -0.4463  0.2822  0.4132
  792MPD2    C511728   0.232   0.445  10.729  0.1329  0.2548 -0.7220
  792MPD2     H11729   0.018   0.744  10.644 -2.6470 -1.1842  0.3870
  792MPD2    H111730   0.075   0.322  10.728  3.0773 -0.3354  2.5609
  792MPD2    H211731   0.399   0.570  10.744  0.3606 -2.9978 -1.1372
  792MPD2    H311732   0.296   0.358  10.730  0.4405  0.5004  0.4146
  792MPD2     N11733   4.611   0.532  10.683 -0.4482  0.4856  0.1288
  792MPD2    H511734   4.565   0.620  10.662 -0.2722  0.9744  1.8219
  792MPD2    N111735   0.274   0.811  10.693 -0.4205 -0.5420  0.4134
  792MPD2    H711736   0.233   0.874  10.625 -2.5328  0.7729  2.9137
  793MPD2     C11737   3.973   0.722  10.136  0.2795  0.5588  0.8115
  793MPD2    C111738   4.107   0.711  10.153 -0.7478  0.4323  0.0410
  793MPD2    C211739   4.155   0.670  10.270  0.1885  0.6861  0.0201
  793MPD2    C311740   4.075   0.636  10.382  0.0723  0.2902  0.3355
  793MPD2    C411741   3.941   0.658  10.370 -0.2836  0.3382 -0.4556
  793MPD2    C511742   3.893   0.695  10.244  0.1386  0.0690  0.3197
  793MPD2     H11743   4.260   0.646  10.278 -0.1823 -1.0881 -0.2963
  793MPD2    H111744   3.870   0.662  10.453  0.3825  0.9177  0.0848
  793MPD2    H211745   3.933   0.745  10.038 -0.9093  0.2666  1.2174
  793MPD2    H311746   3.785   0.707  10.234 -0.2898 -3.5973  0.7031
  793MPD2     N11747   4.136   0.583  10.498 -0.2235  0.1108  0.0343
  793MPD2    H511748   4.237   0.575  10.487 -0.4278 -2.3515  0.0482
  793MPD2    N111749   4.208   0.751  10.055 -0.0803  0.7861  0.4579
  793MPD2    H711750   4.305   0.736  10.079 -0.4528  0.6324  1.8278
  794MPD2     C11751   3.912   0.035  16.633  0.0067  1.0281  0.3595
  794MPD2    C111752   3.796   0.031  16.713  0.3262  0.1813 -0.0075
  794MPD2    C211753   3.668   0.030  16.656  0.5401  0.3474  0.7802
  794MPD2    C311754   3.656   0.042  16.522  0.3869  0.6455  0.6892
  794MPD2    C411755   3.763   0.044  16.445 -0.2288 -0.1075 -0.6760
  794MPD2    C511756   3.892   0.049  16.498  0.2277  0.9266  0.1077
  794MPD2     H11757   3.583   0.011  16.721  0.5019 -0.4672  0.4974
  794MPD2    H111758   3.757   0.053  16.337 -0.5775 -3.0438 -0.9052
  794MPD2    H211759   4.010   0.033  16.677  0.4725  0.3227 -0.7088
  794MPD2    H311760   3.975   0.068  16.431 -1.2459  2.8756 -1.1766
  794MPD2     N11761   3.531   0.077  16.465 -0.4725 -0.0268 -0.3014
  794MPD2    H511762   3.532   0.107  16.367 -0.4909  1.2968  0.0965
  794MPD2    N111763   3.796   0.022  16.856  0.1484  0.0566 -0.0256
  794MPD2    H711764   3.705   0.023  16.900  0.8735  0.0748  1.4995
  795MPD2     C11765   1.475   2.517  13.590 -0.3614  0.1039 -1.2127
  795MPD2    C111766   1.465   2.409  13.513 -0.5287 -0.7555  0.5893
  795MPD2    C211767   1.571   2.331  13.485  0.2707 -0.4026  0.4824
  795MPD2    C311768   1.701   2.354  13.539  0.1811  0.2520  0.2741
  795MPD2    C411769   1.713   2.466  13.619 -0.3894 -0.4276  0.1854
  795MPD2    C511770   1.601   2.538  13.639 -0.4996 -0.5977  0.1983
  795MPD2     H11771   1.551   2.250  13.415  1.7551  1.0640 -1.6390
  795MPD2    H111772   1.801   2.494  13.677  0.1081 -1.0472 -0.2768
  795MPD2    H211773   1.400   2.587  13.623 -0.3634 -0.9784  1.0725
  795MPD2    H311774   1.611   2.622  13.707  1.4966 -0.3359 -0.4250
  795MPD2     N11775   1.816   2.275  13.508  0.3522 -0.5489 -0.1761
  795MPD2    H511776   1.901   2.308  13.553  0.0947 -0.5692  0.3157
  795MPD2    N111777   1.343   2.374  13.447 -0.1116 -0.1733  0.6191
  795MPD2    H711778   1.340   2.290  13.391 -0.9944  1.4499 -1.7560
  796MPD2     C11779   0.808   3.566  15.578 -0.7815  0.0493 -0.0236
  796MPD2    C111780   0.918   3.627  15.628 -0.3543 -0.6266  0.0570
  796MPD2    C211781   0.930   3.766  15.607 -0.0414 -0.0742 -0.0718
  796MPD2    C311782   0.836   3.833  15.535 -0.2091  0.1257  0.2956
  796MPD2    C411783   0.722   3.770  15.494  0.7035 -0.0454 -0.2238
  796MPD2    C511784   0.714   3.635  15.507  0.2299 -0.3580  1.0485
  796MPD2     H11785   1.016   3.823  15.642  1.1777 -0.7070 -2.0040
  796MPD2    H111786   0.646   3.814  15.431 -2.0191  0.6750  3.6237
  796MPD2    H211787   0.792   3.461  15.599 -2.2229  0.5753  1.4652
  796MPD2    H311788   0.636   3.579  15.456 -0.3019  0.5722  0.8452
  796MPD2     N11789   0.868   3.974  15.512 -0.0299  0.1517 -0.0900
  796MPD2    H511790   0.962   4.005  15.536  0.1961 -1.0909  0.6576
  796MPD2    N111791   1.000   3.560  15.726  0.7029 -0.3428  0.3495
  796MPD2    H711792   0.981   3.462  15.739 -3.4718  0.3985 -0.2307
  797MPD2     C11793   2.068   3.089  17.147  0.9800  0.2092  0.0675
  797MPD2    C111794   2.130   3.213  17.161  0.1346  0.3307  0.0839
  797MPD2    C211795   2.105   3.309  17.069 -0.2655  0.8234  0.3471
  797MPD2    C311796   2.004   3.289  16.971 -0.7687 -0.0036  0.0687
  797MPD2    C411797   1.935   3.171  16.968 -0.0624 -0.3250 -0.2308
  797MPD2    C511798   1.966   3.072  17.052 -0.2684 -0.6876 -0.3974
  797MPD2     H11799   2.158   3.404  17.072 -1.3181  1.4217 -0.0034
  797MPD2    H111800   1.859   3.140  16.897  0.2157  3.8538 -2.4008
  797MPD2    H211801   2.096   3.009  17.214  1.4362 -0.3702 -0.8183
  797MPD2    H311802   1.919   2.976  17.032  0.7790 -1.1719 -0.5370
  797MPD2     N11803   1.972   3.401  16.892  0.2941 -0.3359 -0.7577
  797MPD2    H511804   2.041   3.474  16.901 -0.3225 -0.0107  1.1652
  797MPD2    N111805   2.224   3.247  17.257  0.3225 -0.8056  0.4085
  797MPD2    H711806   2.277   3.331  17.235 -1.9863  0.1899 -1.3543
  798MPD2     C11807   2.342   3.963  17.126  0.0360 -0.5118 -0.4668
  798MPD2    C111808   2.279   3.848  17.087 -0.5356  0.5575 -0.6293
  798MPD2    C211809   2.327   3.730  17.146 -0.2580  0.1083 -0.0241
  798MPD2    C311810   2.421   3.737  17.245  0.1342 -0.8854  0.2649
  798MPD2    C411811   2.475   3.854  17.293 -0.0636  0.1857  0.2643
  798MPD2    C511812   2.443   3.962  17.218  0.1929  0.4469  0.2215
  798MPD2     H11813   2.285   3.636  17.114  0.9259 -0.6944  0.7715
  798MPD2    H111814   2.564   3.863  17.354  1.2189  0.4516 -1.6652
  798MPD2    H211815   2.303   4.059  17.094  0.0692  0.2301  1.6869
  798MPD2    H311816   2.481   4.058  17.252  2.4289  0.0127 -1.0977
  798MPD2     N11817   2.438   3.616  17.307  0.6102 -0.9203  0.1719
  798MPD2    H511818   2.390   3.537  17.265 -1.5969  0.9405 -0.8362
  798MPD2    N111819   2.176   3.849  16.998  0.4395  0.3041  0.4653
  798MPD2    H711820   2.146   3.937  16.958  0.7123  0.7527  1.2511
  799MPD2     C11821   1.197   0.204  14.458 -1.2986  0.0156 -0.4259
  799MPD2    C111822   1.120   0.142  14.360 -0.4690 -0.3678  0.6173
  799MPD2    C211823   1.062   0.221  14.262  0.5894 -0.1563 -0.4269
  799MPD2    C311824   1.080   0.361  14.259  0.3271  0.2640  0.1356
  799MPD2    C411825   1.154   0.419  14.358 -0.1188  0.4266 -0.2346
  799MPD2    C511826   1.203   0.344  14.456 -0.3841 -0.4862  0.4507
  799MPD2     H11827   1.020   0.173  14.175  2.5650  0.1801 -1.5609
  799MPD2    H111828   1.169   0.526  14.366 -2.5669  0.9179 -2.0579
  799MPD2    H211829   1.244   0.154  14.542 -0.5157  0.2670 -0.7104
  799MPD2    H311830   1.269   0.393  14.526  1.2819  1.3476 -2.3877
  799MPD2     N11831   1.033   0.442  14.156 -0.0516  0.7156 -0.3370
  799MPD2    H511832   1.052   0.541  14.166 -0.9436  0.8257  0.2104
  799MPD2    N111833   1.109   0.000  14.351  0.3017  0.0624 -0.3149
  799MPD2    H711834   1.042   4.701  14.283  1.3653 -1.3765 -0.6387
  800MPD2     C11835   1.514   1.587  13.435 -0.2971 -0.5692  0.2077
  800MPD2    C111836   1.631   1.516  13.469 -0.0257  0.4611  0.6340
  800MPD2    C211837   1.656   1.403  13.394 -0.4061  0.4506  0.1811
  800MPD2    C311838   1.583   1.367  13.283 -0.4169 -0.2802  0.1041
  800MPD2    C411839   1.465   1.436  13.255  0.2710  0.3466 -0.2567
  800MPD2    C511840   1.427   1.534  13.345 -0.1284  0.0201 -0.4077
  800MPD2     H11841   1.722   1.325  13.431  0.7892  1.5860  0.4505
  800MPD2    H111842   1.393   1.401  13.183  2.4622 -1.0741 -1.7442
  800MPD2    H211843   1.489   1.682  13.480  1.4373 -0.0633  0.1108
  800MPD2    H311844   1.344   1.595  13.311  1.0320  1.1278 -1.2396
  800MPD2     N11845   1.616   1.250  13.212 -0.2247  0.0577  1.3946
  800MPD2    H511846   1.686   1.195  13.261  1.3149  0.2049 -0.6536
  800MPD2    N111847   1.710   1.560  13.581  0.7093 -0.2729  0.1166
  800MPD2    H711848   1.686   1.641  13.638  0.7824 -0.6793  0.7159
  801MPD2     C11849   1.659   2.188  13.844  0.6073 -0.0495  0.8265
  801MPD2    C111850   1.647   2.057  13.882  0.0813  0.0543 -0.3726
  801MPD2    C211851   1.540   2.019  13.962  0.2382 -0.4202  0.3552
  801MPD2    C311852   1.464   2.111  14.027  0.1931 -0.5077  0.0222
  801MPD2    C411853   1.461   2.239  13.982  0.2123  1.1006  0.0180
  801MPD2    C511854   1.560   2.277  13.897 -0.2779 -0.0690 -0.0520
  801MPD2     H11855   1.515   1.916  13.982 -0.4596 -0.2634  0.3019
  801MPD2    H111856   1.388   2.308  14.021 -2.1865 -0.9515 -0.8551
  801MPD2    H211857   1.744   2.215  13.782  1.2537 -0.6095  1.4709
  801MPD2    H311858   1.571   2.377  13.858 -0.9244 -0.7822 -2.1227
  801MPD2     N11859   1.378   2.067  14.131  0.1929  0.6719  0.5541
  801MPD2    H511860   1.298   2.123  14.158 -0.7156 -0.2327 -0.2414
  801MPD2    N111861   1.738   1.949  13.859 -0.4658 -0.2167  1.0870
  801MPD2    H711862   1.705   1.855  13.880 -2.0719 -0.0708 -0.7984
  802MPD2     C11863   0.775   2.901   0.196 -0.0031  0.9423 -0.7322
  802MPD2    C111864   0.718   2.862   0.078 -0.2599  0.2027 -0.5118
  802MPD2    C211865   0.784   2.771  17.735 -0.1604 -0.1270 -0.2935
  802MPD2    C311866   0.887   2.702   0.049 -0.2341  0.1658 -0.3370
  802MPD2    C411867   0.948   2.739   0.172 -0.3377  0.2388 -0.1642
  802MPD2    C511868   0.893   2.846   0.235  0.2723  0.2683  0.1750
  802MPD2     H11869   0.745   2.749  17.636  0.2283  2.2328 -0.9587
  802MPD2    H111870   1.039   2.693   0.207  0.2573  1.9658  0.5477
  802MPD2    H211871   0.745   2.990   0.250 -0.8432  0.5048 -0.4808
  802MPD2    H311872   0.941   2.891   0.321 -2.8815  3.3733  0.3580
  802MPD2     N11873   0.936   2.597  17.711 -0.4553 -0.5256  0.5968
  802MPD2    H511874   0.897   2.579  17.619 -2.6435 -1.9504  1.8033
  802MPD2    N111875   0.602   2.914   0.030 -0.0697 -0.2053  0.1997
  802MPD2    H711876   0.575   2.888  17.676 -0.5411  1.7407 -0.2000
  803MPD2     C11877   2.123   1.208  11.896  0.7058  0.0842 -0.5260
  803MPD2    C111878   2.191   1.098  11.847  0.2404 -0.5845  0.2358
  803MPD2    C211879   2.195   0.975  11.913 -0.0816 -0.7461  0.1927
  803MPD2    C311880   2.145   0.977  12.048  0.4129 -0.7019  0.1964
  803MPD2    C411881   2.092   1.091  12.102 -0.3929 -0.4932 -0.5152
  803MPD2    C511882   2.074   1.197  12.018 -0.2617  0.3291 -0.5522
  803MPD2     H11883   2.250   0.888  11.880  0.8552  0.8444 -2.4308
  803MPD2    H111884   2.045   1.087  12.200 -0.0798 -0.9435 -0.3843
  803MPD2    H211885   2.113   1.302  11.843 -2.3010  0.4656  0.7401
  803MPD2    H311886   2.018   1.279  12.061  0.9960  1.0028 -0.1826
  803MPD2     N11887   2.137   0.869  12.136 -0.4158  0.2768  0.5926
  803MPD2    H511888   2.101   0.896  12.227 -0.5511  2.7102 -0.1834
  803MPD2    N111889   2.265   1.103  11.728 -0.3129 -0.2271  0.1718
  803MPD2    H711890   2.329   1.025  11.713 -0.9918 -0.7243 -0.1155
  804MPD2     C11891   1.793   1.977  16.919  0.3285  0.4711 -0.1728
  804MPD2    C111892   1.767   1.936  17.050  0.7017  0.4796  0.0296
  804MPD2    C211893   1.788   2.033  17.153 -0.2563 -0.8015  0.0715
  804MPD2    C311894   1.841   2.160  17.120 -0.8407  0.3300  0.4566
  804MPD2    C411895   1.869   2.190  16.987 -0.9150 -0.3421 -0.3806
  804MPD2    C511896   1.849   2.100  16.889  1.0076 -0.4623  0.7093
  804MPD2     H11897   1.771   2.006  17.257  0.8502 -2.8390 -0.2819
  804MPD2    H111898   1.911   2.287  16.966 -1.2813 -0.0034  0.4491
  804MPD2    H211899   1.780   1.912  16.833 -1.6174 -0.5102  0.8792
  804MPD2    H311900   1.887   2.118  16.789  0.7561 -2.9669  0.1724
  804MPD2     N11901   1.858   2.251  17.227  0.7310  0.7053  0.0306
  804MPD2    H511902   1.847   2.211  17.319 -0.0845  0.8529 -0.0037
  804MPD2    N111903   1.717   1.801  17.066 -0.4960 -0.0787  0.2189
  804MPD2    H711904   1.717   1.732  16.991  0.5517  0.5983 -0.4051
  805MPD2     C11905   0.724   0.024  14.929  1.1802  0.3618  0.6055
  805MPD2    C111906   0.744   0.160  14.921  0.2014  0.7669  0.1397
  805MPD2    C211907   0.855   0.207  14.994  0.2408 -0.2809  0.0463
  805MPD2    C311908   0.934   0.123  15.073  0.4082 -0.1270 -0.0610
  805MPD2    C411909   0.901   4.729  15.080 -0.5083  0.3305 -0.3365
  805MPD2    C511910   0.790   4.686  15.020  0.5868  0.2343  0.7595
  805MPD2     H11911   0.879   0.312  14.984 -0.9987  0.2479  2.5964
  805MPD2    H111912   0.949   4.652  15.140  0.7495  0.9775 -0.5123
  805MPD2    H211913   0.650   4.704  14.873  0.9749  2.0227 -0.7546
  805MPD2    H311914   0.758   4.584  15.033 -0.2072  0.2148 -1.3822
  805MPD2     N11915   1.035   0.178  15.150 -0.0996 -0.6541 -0.1097
  805MPD2    H511916   1.036   0.280  15.146  2.2720 -0.7170 -1.2952
  805MPD2    N111917   0.661   0.243  14.849 -0.3924  0.1918  1.0107
  805MPD2    H711918   0.687   0.341  14.847 -0.3726  0.1090 -2.0855
  806MPD2     C11919   0.923   4.233   0.231 -0.2344  0.0773  0.2233
  806MPD2    C111920   0.972   4.353   0.286 -0.4287 -1.0897  0.4505
  806MPD2    C211921   1.019   4.451   0.199 -0.1473 -0.5144  0.0460
  806MPD2    C311922   1.019   4.431   0.062 -0.6440  0.7417  0.0749
  806MPD2    C411923   0.975   4.311   0.011 -0.3602 -0.3319 -0.7115
  806MPD2    C511924   0.931   4.214   0.097 -1.0568 -0.3439  0.3427
  806MPD2     H11925   1.056   4.549   0.226  0.5546 -0.8128  0.1602
  806MPD2    H111926   0.975   4.289  17.645 -1.4374  0.5594 -0.8964
  806MPD2    H211927   0.897   4.145   0.287  0.3320  0.2028  0.6836
  806MPD2    H311928   0.904   4.116   0.058 -2.8881  0.2852  0.0711
  806MPD2     N11929   1.059   4.532  17.713 -0.3764  0.2545 -0.2615
  806MPD2    H511930   1.114   4.604   0.019  0.5774  0.3846 -1.6000
  806MPD2    N111931   0.970   4.360   0.432 -0.6429 -0.2207  0.2367
  806MPD2    H711932   0.960   4.270   0.478  1.4405 -0.8193 -0.4598
  807MPD2     C11933   0.750   4.036   1.038  0.4253  0.0240  0.0058
  807MPD2    C111934   0.803   4.025   0.911 -0.0080  0.3500  0.4033
  807MPD2    C211935   0.752   3.923   0.837 -0.5550 -0.0313  0.3762
  807MPD2    C311936   0.660   3.830   0.888  0.6198  0.3678  0.3181
  807MPD2    C411937   0.607   3.855   1.013 -0.2964  0.0998  0.1594
  807MPD2    C511938   0.649   3.962   1.084  0.1154 -0.2947  0.2946
  807MPD2     H11939   0.794   3.915   0.738  0.9408  1.0996  0.9113
  807MPD2    H111940   0.540   3.782   1.057  2.4280 -0.5211  3.3005
  807MPD2    H211941   0.785   4.119   1.099 -0.1873  1.8677 -2.1277
  807MPD2    H311942   0.602   3.983   1.179 -0.0448  0.1502  0.1190
  807MPD2     N11943   0.625   3.714   0.813 -0.1355 -0.4034  0.5467
  807MPD2    H511944   0.670   3.709   0.722 -1.8905 -0.4089 -0.3266
  807MPD2    N111945   0.895   4.117   0.850  0.5149 -0.0126  0.6215
  807MPD2    H711946   0.900   4.129   0.749 -2.6823  1.6257  0.6277
  808MPD2     C11947   2.082   1.362   9.830 -0.2161  0.3941  0.0077
  808MPD2    C111948   2.171   1.269   9.791  0.3088  0.5280 -0.3719
  808MPD2    C211949   2.268   1.298   9.696 -0.1865  0.1111 -0.3284
  808MPD2    C311950   2.285   1.427   9.659  0.7035  0.1710 -0.2588
  808MPD2    C411951   2.208   1.525   9.717 -0.3487 -0.6191 -0.2381
  808MPD2    C511952   2.094   1.491   9.783 -0.5548 -0.1007  0.3980
  808MPD2     H11953   2.337   1.223   9.659 -0.0080 -0.3621  0.9723
  808MPD2    H111954   2.223   1.629   9.688 -0.2375 -0.5460  0.0713
  808MPD2    H211955   2.000   1.350   9.901 -0.1676 -2.9021 -0.5336
  808MPD2    H311956   2.024   1.562   9.826  0.2657 -0.1133  1.7364
  808MPD2     N11957   2.389   1.458   9.569  0.4415 -0.4289  0.0236
  808MPD2    H511958   2.394   1.557   9.548 -2.3998 -0.1239  0.7793
  808MPD2    N111959   2.157   1.132   9.828  0.7937  0.2540 -0.1109
  808MPD2    H711960   2.228   1.076   9.782  0.3324  0.6840 -1.3474
  809MPD2     C11961   2.766   1.057   8.724  0.0306 -0.0787  0.3581
  809MPD2    C111962   2.872   1.109   8.790 -0.3164 -0.2383  0.5701
  809MPD2    C211963   2.842   1.180   8.909 -0.1884 -0.3248  0.6334
  809MPD2    C311964   2.717   1.200   8.959 -0.6979 -0.3802 -0.0920
  809MPD2    C411965   2.615   1.167   8.877  0.5702 -0.1458  0.9014
  809MPD2    C511966   2.637   1.081   8.773 -0.4774 -0.0862  0.1540
  809MPD2     H11967   2.932   1.211   8.960  0.9257 -0.5056 -1.2227
  809MPD2    H111968   2.513   1.197   8.899  1.0070  0.8112  1.6287
  809MPD2    H211969   2.765   0.987   8.642  0.0383  1.9265 -1.3473
  809MPD2    H311970   2.555   1.032   8.721 -1.9660  1.6813  0.8433
  809MPD2     N11971   2.693   1.259   9.081  0.6276 -0.0634 -0.0500
  809MPD2    H511972   2.597   1.254   9.114  0.2845  1.5842 -0.7813
  809MPD2    N111973   3.007   1.096   8.760 -0.1419  0.3750  0.3343
  809MPD2    H711974   3.065   1.125   8.838  1.7085 -2.1862 -0.0826
  810MPD2     C11975   1.578   1.145  10.913  0.6223 -0.7451  0.0094
  810MPD2    C111976   1.562   1.136  10.775 -0.3781 -0.6018  0.2914
  810MPD2    C211977   1.552   1.247  10.692 -0.6749  0.0299  0.1101
  810MPD2    C311978   1.566   1.371  10.748 -0.0677  0.0488  0.9045
  810MPD2    C411979   1.585   1.386  10.884  0.5905 -0.1135  0.0341
  810MPD2    C511980   1.592   1.272  10.962  0.8702  0.4953  0.3254
  810MPD2     H11981   1.540   1.234  10.585 -0.2186  0.3062  0.0262
  810MPD2    H111982   1.615   1.482  10.926 -0.8687 -0.4142  1.7750
  810MPD2    H211983   1.596   1.055  10.971 -0.0609 -0.3049  0.8967
  810MPD2    H311984   1.626   1.278  11.064  0.8940  3.3903  0.1359
  810MPD2     N11985   1.549   1.484  10.664  0.2849 -0.0620 -0.4444
  810MPD2    H511986   1.584   1.574  10.694 -1.7569 -0.2130  2.4435
  810MPD2    N111987   1.563   1.014  10.705  0.0560  0.4660  0.3322
  810MPD2    H711988   1.570   1.023  10.604  1.9249  0.4035  0.4435
  811MPD2     C11989   1.592   0.778   9.979  0.0609  0.0266 -0.5231
  811MPD2    C111990   1.594   0.874  10.073  0.2184  0.0990 -0.9332
  811MPD2    C211991   1.618   1.009  10.039 -1.0838 -0.6609  0.2483
  811MPD2    C311992   1.654   1.040   9.907  0.7033  0.3676 -0.3536
  811MPD2    C411993   1.651   0.940   9.816 -0.4179 -0.1961  0.2363
  811MPD2    C511994   1.615   0.813   9.848  0.7429  0.5409  0.1632
  811MPD2     H11995   1.618   1.088  10.114  2.4632  0.9332 -1.4302
  811MPD2    H111996   1.663   0.962   9.710  1.3812  0.6134  0.6222
  811MPD2    H211997   1.572   0.674   9.999  0.8776  0.4545  2.5605
  811MPD2    H311998   1.622   0.729   9.780  0.1530  0.8138 -0.2466
  811MPD2     N11999   1.677   1.175   9.870 -0.4725 -0.0656 -0.2524
  811MPD2    H512000   1.654   1.250   9.934 -1.5288 -1.3158  0.8519
  811MPD2    N112001   1.581   0.823  10.200 -0.0909  0.5243  0.3216
  811MPD2    H712002   1.538   0.731  10.200 -2.3960  1.5585  2.6526
  812MPD2     C12003   0.742   1.042  11.554  0.2555 -0.2597  0.3748
  812MPD2    C112004   0.616   0.987  11.517 -0.3417  0.0313 -0.0669
  812MPD2    C212005   0.556   0.895  11.605 -0.1189  0.7915 -0.5133
  812MPD2    C312006   0.612   0.857  11.721  0.8891  0.4840  0.4012
  812MPD2    C412007   0.739   0.902  11.744  0.7549  0.0616  0.0991
  812MPD2    C512008   0.799   0.996  11.666  0.2191  0.0145  0.0273
  812MPD2     H12009   0.463   0.851  11.571  0.2437 -2.2695  2.5579
  812MPD2    H112010   0.798   0.887  11.834 -0.2064  0.0706  0.7282
  812MPD2    H212011   0.785   1.126  11.499  0.9782 -0.6723  0.3114
  812MPD2    H312012   0.894   1.037  11.700  2.2527 -2.6774 -2.4934
  812MPD2     N12013   0.541   0.781  11.818 -0.2685 -0.2800 -0.0099
  812MPD2    H512014   0.451   0.748  11.785  0.3817  1.4008 -3.5413
  812MPD2    N112015   0.550   1.044  11.410 -0.6589  0.1725 -0.0905
  812MPD2    H712016   0.597   1.105  11.345  1.5999 -1.4882 -0.0056
  813MPD2     C12017   4.168   2.144  12.729  0.8232 -0.7931  0.6354
  813MPD2    C112018   4.168   2.260  12.656 -1.3820  0.0512 -0.2567
  813MPD2    C212019   4.046   2.318  12.633  0.0187 -0.2991 -0.9824
  813MPD2    C312020   3.932   2.258  12.683 -0.5997 -0.1257  0.7637
  813MPD2    C412021   3.945   2.155  12.773 -0.2332 -0.4400 -0.5819
  813MPD2    C512022   4.067   2.097  12.797 -0.3974  0.1666 -0.1360
  813MPD2     H12023   4.031   2.403  12.567 -1.3006 -0.1059 -0.4341
  813MPD2    H112024   3.856   2.102  12.807 -0.9543  0.8251 -0.4900
  813MPD2    H212025   4.267   2.103  12.749  0.7621 -1.0313  0.4495
  813MPD2    H312026   4.069   2.007  12.857 -0.0307  0.5313  0.3998
  813MPD2     N12027   3.816   2.340  12.685 -0.4531 -0.3334  0.3345
  813MPD2    H512028   3.820   2.430  12.639 -0.9409 -0.9854 -0.9533
  813MPD2    N112029   4.296   2.306  12.622 -0.5811 -0.0518  0.1868
  813MPD2    H712030   4.378   2.250  12.642  0.6975  1.6875 -0.1160
  814MPD2     C12031   0.078   3.893  11.717  0.0465 -0.0008 -0.6946
  814MPD2    C112032   0.181   3.936  11.634 -0.3960  0.7873  0.3970
  814MPD2    C212033   0.251   4.053  11.665  0.0308 -0.3369 -0.0333
  814MPD2    C312034   0.209   4.129  11.771  0.7417 -0.4819 -1.1583
  814MPD2    C412035   0.104   4.090  11.849 -0.1260 -0.4434 -0.5714
  814MPD2    C512036   0.040   3.974  11.815 -0.1397  0.2068 -0.8425
  814MPD2     H12037   0.329   4.095  11.602 -1.4414  1.1542 -0.8757
  814MPD2    H112038   0.073   4.141  11.940 -0.2017  0.0344 -0.8610
  814MPD2    H212039   0.011   3.810  11.697 -0.0657  0.0758 -0.6384
  814MPD2    H312040   4.696   3.939  11.880  0.1499  2.9226  1.0035
  814MPD2     N12041   0.268   4.250  11.812 -0.3683 -0.6290  0.4295
  814MPD2    H512042   0.234   4.301  11.893 -0.4719 -0.3794  0.2302
  814MPD2    N112043   0.219   3.873  11.511  0.1174  0.2924  0.0339
  814MPD2    H712044   0.270   3.926  11.441  1.4905 -1.8464 -0.5813
  815MPD2     C12045   0.281   2.645  11.437 -0.2304  0.6446  0.2285
  815MPD2    C112046   0.319   2.515  11.404 -0.4931  0.7909 -0.1239
  815MPD2    C212047   0.223   2.413  11.417 -0.6094 -0.9298 -0.3005
  815MPD2    C312048   0.102   2.441  11.474  0.5458 -0.0371 -0.5039
  815MPD2    C412049   0.067   2.573  11.508 -0.2930 -0.3373  0.4973
  815MPD2    C512050   0.153   2.671  11.480  0.5735  0.1746 -0.0284
  815MPD2     H12051   0.245   2.309  11.396 -0.7910 -0.7248 -1.4700
  815MPD2    H112052   4.703   2.598  11.545 -0.6362  0.1767 -0.7643
  815MPD2    H212053   0.344   2.728  11.409  0.4994  0.4508  1.3073
  815MPD2    H312054   0.121   2.774  11.491 -1.9921 -0.6339  0.0299
  815MPD2     N12055   0.017   2.331  11.501 -0.1647 -0.6079  0.4777
  815MPD2    H512056   0.050   2.242  11.464 -0.4940 -0.6699  0.3349
  815MPD2    N112057   0.439   2.472  11.346  0.2779 -0.0652  0.8790
  815MPD2    H712058   0.455   2.373  11.331 -2.3857 -0.1705 -1.3461
  816MPD2     C12059   0.878   1.729  16.985 -0.1621 -0.1758  0.3962
  816MPD2    C112060   0.798   1.645  16.915  1.0731  0.4215  0.3965
  816MPD2    C212061   0.845   1.595  16.795  1.1717  0.0192 -0.0132
  816MPD2    C312062   0.977   1.612  16.750 -0.4640 -0.2321  0.6816
  816MPD2    C412063   1.061   1.677  16.838 -0.1209  0.2476 -0.0982
  816MPD2    C512064   1.012   1.740  16.949  0.4844 -0.0495 -0.9263
  816MPD2     H12065   0.780   1.546  16.724 -0.2319  1.4398  0.2782
  816MPD2    H112066   1.162   1.695  16.802 -0.1927  1.1524  0.1719
  816MPD2    H212067   0.839   1.781  17.071 -1.5446  1.2594 -1.1178
  816MPD2    H312068   1.074   1.810  17.004  0.2592  0.1136 -0.8803
  816MPD2     N12069   1.012   1.554  16.629 -0.3031 -0.8212  0.1017
  816MPD2    H512070   0.935   1.512  16.578 -0.1266 -0.0340 -0.8116
  816MPD2    N112071   0.668   1.620  16.963  0.2723  0.1394 -0.0930
  816MPD2    H712072   0.641   1.672  17.047  2.6576  1.2769 -0.0248
  817MPD2     C12073   0.056   2.752   9.305 -0.3408 -0.7729 -0.3446
  817MPD2    C112074   0.074   2.698   9.182  0.0169 -0.6848  0.2762
  817MPD2    C212075   0.031   2.774   9.067  0.1006 -0.7367 -0.1939
  817MPD2    C312076   4.697   2.900   9.081 -0.2369 -0.2057 -0.1469
  817MPD2    C412077   4.684   2.949   9.205 -0.0865  0.4016 -0.1374
  817MPD2    C512078   0.002   2.871   9.313  0.4128  0.2813  0.1630
  817MPD2     H12079   0.048   2.731   8.969  2.0783  0.9732 -0.5952
  817MPD2    H112080   4.631   3.041   9.225  1.2287  1.1640 -0.1953
  817MPD2    H212081   0.094   2.707   9.397  1.7973  1.5832 -0.0644
  817MPD2    H312082   4.727   2.908   9.414  0.8371 -1.5740  0.8812
  817MPD2     N12083   4.630   2.959   8.972 -0.4207 -0.6065 -0.4591
  817MPD2    H512084   4.624   2.899   8.890  1.4112  1.9744 -2.4701
  817MPD2    N112085   0.150   2.576   9.167 -0.2011 -0.0556 -0.0687
  817MPD2    H712086   0.148   2.529   9.077 -1.2913  0.4415 -0.3098
  818MPD2     C12087   3.663   3.426   9.468  0.3094  0.2446 -0.2116
  818MPD2    C112088   3.743   3.355   9.554 -0.3644  0.1105 -0.1959
  818MPD2    C212089   3.804   3.240   9.502  0.4529 -0.2660 -0.7300
  818MPD2    C312090   3.792   3.196   9.370  0.7813 -0.2255  0.6349
  818MPD2    C412091   3.710   3.263   9.285  0.8807 -0.1822  0.1319
  818MPD2    C512092   3.643   3.380   9.336  0.3201 -0.2328  0.0963
  818MPD2     H12093   3.855   3.179   9.575  0.5934 -0.8639 -1.3305
  818MPD2    H112094   3.710   3.231   9.181  3.2750 -0.2109  0.1507
  818MPD2    H212095   3.605   3.512   9.498 -0.2366 -0.4142  0.6065
  818MPD2    H312096   3.581   3.442   9.272  0.6280 -1.1020 -1.0496
  818MPD2     N12097   3.864   3.090   9.319 -0.1704 -0.4927 -0.2013
  818MPD2    H512098   3.831   3.044   9.235 -0.6093  2.0434 -1.4344
  818MPD2    N112099   3.758   3.383   9.689 -0.4632 -0.2342 -0.4584
  818MPD2    H712100   3.816   3.314   9.736  1.2191  2.1326  0.9811
  819MPD2     C12101   1.415   0.121  15.032 -0.4519  0.5141  0.1112
  819MPD2    C112102   1.404   4.720  15.035 -0.1088  0.0988 -0.2160
  819MPD2    C212103   1.489   4.658  15.125  0.2462  0.1005 -0.3550
  819MPD2    C312104   1.574   4.727  15.212  0.4142 -0.7388 -0.7730
  819MPD2    C412105   1.574   0.126  15.211 -0.2415 -0.3984 -0.3492
  819MPD2    C512106   1.497   0.187  15.114 -0.4803  0.2195  0.7834
  819MPD2     H12107   1.489   4.552  15.148  0.9558  0.2122  0.1317
  819MPD2    H112108   1.646   0.190  15.263 -0.6206 -0.8664  0.7453
  819MPD2    H212109   1.349   0.173  14.964 -0.2699 -1.3406 -1.4677
  819MPD2    H312110   1.494   0.295  15.103  0.8314 -0.0505 -2.1911
  819MPD2     N12111   1.662   4.651  15.290  0.0951 -0.3406 -0.1520
  819MPD2    H512112   1.680   4.556  15.259  1.7969  0.4577 -1.6285
  819MPD2    N112113   1.307   4.660  14.954  0.1018  0.2325 -0.6819
  819MPD2    H712114   1.247   4.721  14.898 -3.9031 -2.0427  1.1466
  820MPD2     C12115   0.638   4.730  14.247 -0.3119 -0.0035  0.4416
  820MPD2    C112116   0.696   0.080  14.340  0.7225  0.6010 -0.1936
  820MPD2    C212117   0.768   0.028  14.446 -0.4713 -0.1170 -0.2255
  820MPD2    C312118   0.775   4.627  14.473 -0.4053  0.5885 -0.3085
  820MPD2    C412119   0.716   4.539  14.377  0.1854 -0.1151  1.2796
  820MPD2    C512120   0.653   4.595  14.269 -0.3195 -0.3803 -0.6908
  820MPD2     H12121   0.803   0.100  14.519 -1.9383  3.3301 -2.9697
  820MPD2    H112122   0.710   4.431  14.386  0.6532 -0.2103  0.4767
  820MPD2    H212123   0.569   0.031  14.171  2.4941  0.0691 -2.0860
  820MPD2    H312124   0.602   4.525  14.204  0.7187 -0.0489 -1.8578
  820MPD2     N12125   0.846   4.568  14.573 -0.1496  0.0345  0.1671
  820MPD2    H512126   0.838   4.466  14.575 -0.1540  0.0203 -0.6575
  820MPD2    N112127   0.675   0.218  14.326 -0.1980  0.3212 -0.0439
  820MPD2    H712128   0.606   0.253  14.260  0.3341 -0.9503 -1.2808
  821MPD2     C12129   1.879   1.518  12.539  0.1342  0.8126 -0.2142
  821MPD2    C112130   1.948   1.476  12.647  0.2454 -0.3150 -0.2045
  821MPD2    C212131   2.062   1.539  12.697  0.3213  0.0183 -0.2396
  821MPD2    C312132   2.107   1.645  12.624 -0.4413 -0.3321 -0.1321
  821MPD2    C412133   2.042   1.686  12.512 -0.3571  0.5872  0.3816
  821MPD2    C512134   1.928   1.627  12.474  0.7810  0.3568 -0.2200
  821MPD2     H12135   2.118   1.508  12.785  2.9992  0.0466 -1.9284
  821MPD2    H112136   2.067   1.781  12.467 -1.0019 -0.0976 -1.4122
  821MPD2    H212137   1.794   1.464  12.498 -0.1045 -1.4710  3.2650
  821MPD2    H312138   1.868   1.670  12.395 -2.1374  0.2928  1.9489
  821MPD2     N12139   2.237   1.703  12.654  0.3600 -0.6724 -0.2081
  821MPD2    H512140   2.262   1.779  12.592 -0.5957 -0.6431 -0.5567
  821MPD2    N112141   1.919   1.359  12.720  0.2814  0.0114  0.7222
  821MPD2    H712142   1.993   1.341  12.788  1.2520 -1.8776 -0.8522
  822MPD2     C12143   2.074   1.499  15.525 -0.0540  0.1657  0.5118
  822MPD2    C112144   2.140   1.471  15.640  0.5108 -0.7719  0.2323
  822MPD2    C212145   2.122   1.554  15.743 -0.4470 -1.3687  0.3886
  822MPD2    C312146   2.050   1.672  15.729 -0.1333 -0.7045  0.8040
  822MPD2    C412147   1.990   1.699  15.607  0.0107  0.1502 -0.6504
  822MPD2    C512148   2.004   1.611  15.508  0.2398  1.0131 -0.1731
  822MPD2     H12149   2.171   1.547  15.839  0.1220 -1.2448  0.1092
  822MPD2    H112150   1.924   1.783  15.586  0.3936  0.8217  0.7800
  822MPD2    H212151   2.076   1.430  15.442 -1.8335 -1.5542  1.8967
  822MPD2    H312152   1.962   1.631  15.410  1.4779 -2.4281 -1.4098
  822MPD2     N12153   2.041   1.752  15.843 -0.1575 -0.0844 -0.6757
  822MPD2    H512154   2.084   1.707  15.923  1.4181  1.6285 -0.5663
  822MPD2    N112155   2.224   1.361  15.666  0.0373 -0.3145  0.1257
  822MPD2    H712156   2.269   1.377  15.756 -1.5976  1.1223  0.6785
  823MPD2     C12157   1.993   1.809  16.674  0.0196 -0.0020  0.3457
  823MPD2    C112158   1.992   1.737  16.558  0.0593 -0.7200  0.0723
  823MPD2    C212159   1.990   1.603  16.555  0.5719  0.4900 -0.5626
  823MPD2    C312160   1.987   1.535  16.672 -0.1282  0.1471  0.5149
  823MPD2    C412161   1.971   1.607  16.789 -0.4509  0.0970  0.7183
  823MPD2    C512162   1.975   1.742  16.791 -0.1529 -0.7234  0.6303
  823MPD2     H12163   1.992   1.541  16.467  0.7131  0.4155 -0.5071
  823MPD2    H112164   1.943   1.561  16.883 -0.2764  0.0134  0.7279
  823MPD2    H212165   1.989   1.917  16.672  2.6053  0.0600 -0.8393
  823MPD2    H312166   1.965   1.796  16.885  1.3318  0.3336  0.1813
  823MPD2     N12167   2.002   1.397  16.676 -0.0471 -0.1145  0.2436
  823MPD2    H512168   2.013   1.354  16.767 -1.9205 -1.4901 -0.1659
  823MPD2    N112169   1.989   1.815  16.443 -0.3384  0.1151 -0.2611
  823MPD2    H712170   1.984   1.916  16.443  0.5343  0.1559  0.7943
  824MPD2     C12171   2.540   0.552  15.493 -0.0290  0.6156  0.3339
  824MPD2    C112172   2.622   0.648  15.556  0.3088 -0.3826  0.0589
  824MPD2    C212173   2.755   0.630  15.558  0.0243 -0.2391  0.3117
  824MPD2    C312174   2.805   0.515  15.496 -0.5357 -0.3004 -0.2667
  824MPD2    C412175   2.729   0.428  15.425  0.2093 -0.5890 -0.7071
  824MPD2    C512176   2.595   0.450  15.422  0.3558  0.1027 -0.1902
  824MPD2     H12177   2.819   0.693  15.618 -0.9105  0.4693  0.5667
  824MPD2    H112178   2.772   0.355  15.359 -0.4847 -1.4761 -0.1817
  824MPD2    H212179   2.433   0.568  15.487 -0.3624 -1.7452  0.0445
  824MPD2    H312180   2.531   0.380  15.370  0.4852 -0.0884 -0.0943
  824MPD2     N12181   2.944   0.498  15.490 -0.3324  0.5950 -0.5215
  824MPD2    H512182   3.005   0.576  15.511 -0.6894  0.7110  0.0624
  824MPD2    N112183   2.573   0.759  15.626  0.1492  0.4747 -0.6345
  824MPD2    H712184   2.631   0.821  15.681  0.2537 -0.1739 -0.0196
  825MPD2     C12185   3.075   0.869  15.011 -0.4321 -0.1932 -0.4470
  825MPD2    C112186   3.199   0.839  15.070  0.2391  0.3051  0.2803
  825MPD2    C212187   3.306   0.922  15.049  0.2369 -0.6135  0.8854
  825MPD2    C312188   3.289   1.048  14.990  0.2060 -0.3151 -0.2302
  825MPD2    C412189   3.164   1.073  14.933  0.4325 -0.0476 -1.0146
  825MPD2    C512190   3.056   0.989  14.948  0.1072  0.1726 -0.1393
  825MPD2     H12191   3.407   0.900  15.084  0.3762 -0.7455  0.3994
  825MPD2    H112192   3.146   1.163  14.876  0.0030  1.0946  0.9047
  825MPD2    H212193   2.998   0.793  15.008 -1.3521  0.7299 -0.1236
  825MPD2    H312194   2.961   1.011  14.902 -0.0701 -0.1409  0.0797
  825MPD2     N12195   3.385   1.154  14.975 -0.2308 -0.4193 -0.1379
  825MPD2    H512196   3.345   1.236  14.931 -0.4767  0.2378  1.3049
  825MPD2    N112197   3.206   0.713  15.142 -0.2832  0.1183  0.4839
  825MPD2    H712198   3.119   0.664  15.159 -1.5312  2.2673  0.3573
  826MPD2     C12199   2.992   4.711  13.298 -0.2494  0.5437 -0.3382
  826MPD2    C112200   3.055   0.092  13.329 -0.4378 -0.0303  0.5919
  826MPD2    C212201   3.018   0.162  13.442  0.3095  0.0914 -0.1385
  826MPD2    C312202   2.915   0.111  13.519  0.5984 -0.5014 -0.2877
  826MPD2    C412203   2.850   4.735  13.477 -0.1621  0.5406  0.6825
  826MPD2    C512204   2.898   4.659  13.372 -0.8559  0.1489  0.3029
  826MPD2     H12205   3.070   0.254  13.467 -0.3463  0.3802  0.1467
  826MPD2    H112206   2.781   4.689  13.546  0.2003  3.6396  3.0820
  826MPD2    H212207   3.023   4.648  13.215 -2.9265 -0.5218 -0.5386
  826MPD2    H312208   2.863   4.559  13.348  3.6849 -1.2479 -0.6012
  826MPD2     N12209   2.868   0.183  13.632 -0.6612  0.0500  0.2338
  826MPD2    H512210   2.791   0.138  13.681 -0.4979 -1.2408 -0.7118
  826MPD2    N112211   3.168   0.135  13.252 -0.7653 -0.1352 -0.4489
  826MPD2    H712212   3.203   0.071  13.182 -1.0013 -0.3613 -0.3564
  827MPD2     C12213   4.399   1.551   9.134  0.2004  0.1747  0.3784
  827MPD2    C112214   4.396   1.474   9.248  0.2009  0.0367 -0.5969
  827MPD2    C212215   4.306   1.364   9.248  0.2127 -0.0726 -0.3329
  827MPD2    C312216   4.238   1.330   9.130  0.1630  0.0775  0.2153
  827MPD2    C412217   4.248   1.409   9.019 -0.3020 -0.0226 -0.5241
  827MPD2    C512218   4.321   1.522   9.022 -0.4147 -0.0411 -0.1742
  827MPD2     H12219   4.300   1.298   9.334  1.2080 -1.4758 -1.3347
  827MPD2    H112220   4.183   1.402   8.933 -0.7940 -1.7916 -0.0090
  827MPD2    H212221   4.455   1.644   9.136  0.7047 -0.1507  1.3941
  827MPD2    H312222   4.316   1.584   8.933  2.2621 -1.7942 -1.5690
  827MPD2     N12223   4.134   1.236   9.149  0.1083 -0.0757 -0.2809
  827MPD2    H512224   4.120   1.199   9.243 -1.7046  1.3515  0.0252
  827MPD2    N112225   4.484   1.513   9.348  0.2730  0.0317  0.4785
  827MPD2    H712226   4.538   1.598   9.331  2.7535 -2.0032 -1.7447
  828MPD2     C12227   2.688   1.853  12.009 -0.3535  0.1354 -0.2132
  828MPD2    C112228   2.592   1.848  11.909  0.4864 -0.4288 -0.0838
  828MPD2    C212229   2.629   1.787  11.793 -0.4496  0.1016 -0.2980
  828MPD2    C312230   2.759   1.749  11.767 -0.2964 -0.2402 -0.5416
  828MPD2    C412231   2.851   1.753  11.867 -0.2304  0.5374  0.1006
  828MPD2    C512232   2.807   1.800  11.991  0.2312  0.1246 -0.2284
  828MPD2     H12233   2.556   1.767  11.715 -2.3436  1.3415  1.1681
  828MPD2    H112234   2.953   1.717  11.856 -0.2616  0.1592  1.0431
  828MPD2    H212235   2.668   1.881  12.112 -0.9978 -0.4202 -0.1861
  828MPD2    H312236   2.883   1.810  12.067 -1.5236 -2.0687  1.7999
  828MPD2     N12237   2.804   1.704  11.650 -0.2578 -0.1521 -0.7797
  828MPD2    H512238   2.905   1.693  11.645 -0.0397  1.0501  0.9079
  828MPD2    N112239   2.465   1.905  11.910  0.1098  0.1500  0.1748
  828MPD2    H712240   2.417   1.917  11.822  0.7012 -0.5562 -0.2415
  829MPD2     C12241   2.007   2.262  11.274  0.2076  0.3970 -0.5779
  829MPD2    C112242   1.908   2.281  11.377 -0.4745 -0.2113 -0.0185
  829MPD2    C212243   1.938   2.223  11.499 -0.0012  0.4864  0.1385
  829MPD2    C312244   2.064   2.171  11.527 -0.3213 -0.0012 -0.0059
  829MPD2    C412245   2.158   2.159  11.427 -0.2941 -1.0460  0.1334
  829MPD2    C512246   2.121   2.206  11.308 -0.6683 -0.1635 -0.4828
  829MPD2     H12247   1.863   2.209  11.576 -1.7164 -2.9577 -2.1420
  829MPD2    H112248   2.259   2.126  11.445  0.6747  3.1510  2.2766
  829MPD2    H212249   1.995   2.276  11.167 -0.5496  1.5003 -0.3495
  829MPD2    H312250   2.192   2.209  11.226  0.9432 -1.6004  0.8883
  829MPD2     N12251   2.115   2.133  11.649 -0.0911 -0.3501 -0.2816
  829MPD2    H512252   2.209   2.096  11.652  0.8409  2.0063 -0.6165
  829MPD2    N112253   1.782   2.335  11.342  0.4429 -0.4125 -0.4116
  829MPD2    H712254   1.756   2.355  11.246 -2.7069 -2.2802  0.0353
  830MPD2     C12255   2.495   4.406  15.359 -0.2516  0.0261  1.0711
  830MPD2    C112256   2.396   4.492  15.315  0.4932 -0.2407 -0.3123
  830MPD2    C212257   2.431   4.601  15.245  0.5282 -0.2798 -0.6231
  830MPD2    C312258   2.565   4.637  15.235  0.5695 -1.0157 -0.2885
  830MPD2    C412259   2.664   4.560  15.287  0.9709 -0.7347 -0.3327
  830MPD2    C512260   2.629   4.437  15.348 -0.0442  0.4345 -0.0403
  830MPD2     H12261   2.352   4.668  15.212  0.1429  0.2603  1.3626
  830MPD2    H112262   2.767   4.589  15.303  0.4559  1.1149 -0.4169
  830MPD2    H212263   2.467   4.317  15.414 -0.8833 -1.0556 -0.9854
  830MPD2    H312264   2.710   4.382  15.396  0.4898  0.8989 -0.4073
  830MPD2     N12265   2.591   0.020  15.162 -0.0813  0.0931  0.7953
  830MPD2    H512266   2.505   0.056  15.121 -1.0134 -3.6086 -0.5366
  830MPD2    N112267   2.257   4.458  15.344  0.4622 -0.3538  0.3711
  830MPD2    H712268   2.237   4.373  15.394 -1.2034 -1.0904 -1.5368
  831MPD2     C12269   2.410   1.711  16.152 -0.3728  0.3475  0.5514
  831MPD2    C112270   2.394   1.630  16.044  0.1014  0.7122 -0.0181
  831MPD2    C212271   2.318   1.521  16.048  0.0192  0.4326 -0.2585
  831MPD2    C312272   2.240   1.498  16.163  0.2724 -0.3125 -0.1676
  831MPD2    C412273   2.253   1.572  16.273  0.5213  0.6622 -0.2583
  831MPD2    C512274   2.336   1.681  16.261  0.2044  0.7251 -0.0286
  831MPD2     H12275   2.304   1.451  15.967 -1.5264 -0.6022  0.9044
  831MPD2    H112276   2.191   1.559  16.360  0.7647  0.3997 -0.1244
  831MPD2    H212277   2.470   1.801  16.149  0.2990 -0.1084  0.4791
  831MPD2    H312278   2.324   1.746  16.347 -1.4939 -0.6262  0.7707
  831MPD2     N12279   2.138   1.401  16.169 -0.4693 -0.5918 -0.5782
  831MPD2    H512280   2.094   1.382  16.259 -2.8548 -1.2294 -1.8769
  831MPD2    N112281   2.478   1.661  15.930  0.1858 -0.5695  0.2648
  831MPD2    H712282   2.539   1.742  15.941 -1.4361  0.5651  0.8031
  832MPD2     C12283   0.760   2.598  17.135 -0.2604 -0.3918 -0.3880
  832MPD2    C112284   0.742   2.692  17.039 -0.3618 -0.1508  0.8721
  832MPD2    C212285   0.633   2.689  16.951 -0.2607  0.0140  0.3750
  832MPD2    C312286   0.548   2.579  16.972 -0.2438 -0.2414 -0.4213
  832MPD2    C412287   0.572   2.480  17.061  0.4125 -0.2582  0.0691
  832MPD2    C512288   0.676   2.494  17.142 -0.6886 -0.5337  0.2077
  832MPD2     H12289   0.627   2.747  16.860 -2.9897  2.0089  1.8487
  832MPD2    H112290   0.502   2.398  17.075 -0.0986  0.1681  0.0532
  832MPD2    H212291   0.843   2.613  17.202  0.4530 -2.6085 -0.7550
  832MPD2    H312292   0.707   2.424  17.218 -0.6053 -0.8481 -0.1134
  832MPD2     N12293   0.446   2.541  16.881 -0.0487 -0.0583  0.2714
  832MPD2    H512294   0.409   2.448  16.899  0.5302 -0.3489 -0.0045
  832MPD2    N112295   0.846   2.784  17.044 -0.6884 -0.4502  0.4394
  832MPD2    H712296   0.917   2.763  17.114  1.2614  1.8676 -0.8474
  833MPD2     C12297   3.222   4.599  12.363 -0.0780  0.0562  0.1426
  833MPD2    C112298   3.193   4.617  12.232 -0.6858  0.0565  0.2227
  833MPD2    C212299   3.270   4.540  12.140  0.2976  0.6204 -0.2818
  833MPD2    C312300   3.363   4.446  12.179 -0.2260  0.3012 -0.2284
  833MPD2    C412301   3.396   4.435  12.316  0.1454 -0.0220  0.1345
  833MPD2    C512302   3.327   4.519  12.401  0.5217  0.0546 -0.5381
  833MPD2     H12303   3.248   4.554  12.035 -1.3339 -2.0148 -0.2847
  833MPD2    H112304   3.475   4.370  12.352 -0.5677 -0.9692 -0.0174
  833MPD2    H212305   3.174   4.648  12.447  1.6613 -0.6463  1.5378
  833MPD2    H312306   3.361   4.523  12.503 -1.9898  0.1203  0.3126
  833MPD2     N12307   3.423   4.355  12.085  0.0684  0.4546  0.0625
  833MPD2    H512308   3.495   4.287  12.109 -0.9422 -0.5155  0.3352
  833MPD2    N112309   3.095   4.696  12.169 -0.0509 -0.2122 -0.5497
  833MPD2    H712310   3.102   4.715  12.070 -0.5542 -0.9159 -0.7127
  834MPD2     C12311   3.470   3.441  11.611 -0.4034 -0.2711  0.4799
  834MPD2    C112312   3.509   3.527  11.516 -0.1428 -0.5232  0.2920
  834MPD2    C212313   3.518   3.661  11.550  0.0539 -0.3841  0.2205
  834MPD2    C312314   3.497   3.702  11.684 -0.5046 -0.3221  0.4026
  834MPD2    C412315   3.465   3.607  11.776  0.5419 -0.1212  0.2033
  834MPD2    C512316   3.448   3.482  11.739 -0.0022  0.3941  0.0374
  834MPD2     H12317   3.549   3.733  11.476  1.4363 -1.7310 -0.5152
  834MPD2    H112318   3.460   3.626  11.883 -0.5144 -1.5028  0.3889
  834MPD2    H212319   3.469   3.335  11.591 -2.0451  0.3853 -2.9850
  834MPD2    H312320   3.421   3.405  11.810  3.8701 -1.2416 -0.2746
  834MPD2     N12321   3.517   3.836  11.715  0.1506 -0.1915 -0.2749
  834MPD2    H512322   3.555   3.894  11.641 -0.5134  0.7415  0.1217
  834MPD2    N112323   3.510   3.481  11.379  0.1023  0.7333 -0.5326
  834MPD2    H712324   3.496   3.381  11.371  0.0756  0.9172 -2.8653
  835MPD2     C12325   3.839   2.010  10.509 -0.2511 -0.1743  0.2491
  835MPD2    C112326   3.730   2.071  10.569 -0.4402 -0.6656  0.3032
  835MPD2    C212327   3.675   2.026  10.685  0.6992 -0.7967  0.3268
  835MPD2    C312328   3.725   1.909  10.745 -0.2284  0.8742 -0.0299
  835MPD2    C412329   3.827   1.847  10.681 -0.1795  0.8991  0.1386
  835MPD2    C512330   3.890   1.903  10.573 -0.2307  0.0446 -0.2642
  835MPD2     H12331   3.590   2.079  10.726  0.2697 -1.8809  0.8424
  835MPD2    H112332   3.862   1.750  10.713  0.2763  0.4720 -1.6145
  835MPD2    H212333   3.883   2.029  10.412  0.3289 -1.7211  0.2062
  835MPD2    H312334   3.977   1.853  10.533 -2.1181 -2.7701 -0.9042
  835MPD2     N12335   3.673   1.855  10.866  0.4378 -0.5248 -0.6702
  835MPD2    H512336   3.726   1.783  10.914 -0.8496 -0.6207  0.6119
  835MPD2    N112337   3.650   2.171  10.502 -0.7912 -0.1451  0.4756
  835MPD2    H712338   3.577   2.215  10.557  0.5240 -0.8433  2.7730
  836MPD2     C12339   2.983   1.959  11.148 -0.4512 -0.0542 -0.0068
  836MPD2    C112340   3.063   1.940  11.260  0.2135  0.4760  0.5494
  836MPD2    C212341   3.031   1.992  11.384 -0.0114 -0.0667 -0.0894
  836MPD2    C312342   2.906   2.044  11.401  0.4305  0.3288 -0.8413
  836MPD2    C412343   2.817   2.050  11.290 -0.2944  0.2896 -0.1580
  836MPD2    C512344   2.857   2.010  11.168  0.9502  0.2734 -0.3391
  836MPD2     H12345   3.105   1.976  11.461 -1.2317  0.9717  1.2978
  836MPD2    H112346   2.722   2.102  11.299  0.0379  0.4680  2.3700
  836MPD2    H212347   3.008   1.916  11.052  0.2929 -1.4824  0.8310
  836MPD2    H312348   2.787   2.011  11.086 -0.1696  1.7358  0.6355
  836MPD2     N12349   2.857   2.088  11.526  0.0335  0.5226  0.4694
  836MPD2    H512350   2.757   2.108  11.523 -0.1723 -0.4164  1.0174
  836MPD2    N112351   3.184   1.885  11.223 -0.5496  0.3785  0.1941
  836MPD2    H712352   3.200   1.863  11.125 -0.3752  0.9497  0.0959
  837MPD2     C12353   1.796   1.943  10.025  0.0296 -0.8939 -0.0681
  837MPD2    C112354   1.803   1.911   9.895 -0.4485  0.0713  0.0744
  837MPD2    C212355   1.814   2.014   9.799 -0.2368 -0.5745 -0.4929
  837MPD2    C312356   1.801   2.147   9.836  0.3850  0.1933 -0.0847
  837MPD2    C412357   1.801   2.178   9.968 -0.6676 -0.0537 -0.4799
  837MPD2    C512358   1.793   2.079  10.061  0.0858 -0.2802 -0.0487
  837MPD2     H12359   1.817   1.980   9.696 -3.8583 -2.6511  0.0623
  837MPD2    H112360   1.787   2.282   9.996 -0.6613 -0.1104 -0.2719
  837MPD2    H212361   1.790   1.869  10.103 -0.7900 -1.4642 -0.6729
  837MPD2    H312362   1.786   2.110  10.165 -1.7601  0.4780 -0.4087
  837MPD2     N12363   1.778   2.242   9.731 -0.1019  0.4108 -0.7500
  837MPD2    H512364   1.788   2.208   9.636  1.8263  1.0386 -0.7783
  837MPD2    N112365   1.798   1.782   9.842  0.0973  0.0088  0.0338
  837MPD2    H712366   1.793   1.779   9.741 -0.8660 -3.1254  0.1780
  838MPD2     C12367   0.232   0.303  11.565 -0.0468  0.7159  0.0828
  838MPD2    C112368   0.224   0.168  11.540  0.4069  0.0728 -0.2787
  838MPD2    C212369   0.171   0.083  11.637  0.5051 -0.2401  0.5654
  838MPD2    C312370   0.113   0.127  11.757  0.7462  0.4239 -0.5976
  838MPD2    C412371   0.102   0.264  11.769  0.2731  0.0158  0.0069
  838MPD2    C512372   0.171   0.349  11.683 -0.6037  0.0044 -0.0987
  838MPD2     H12373   0.157   4.712  11.620  0.7067 -0.1214 -0.3523
  838MPD2    H112374   0.058   0.316  11.854 -1.4279 -0.4258 -0.6011
  838MPD2    H212375   0.286   0.367  11.496  0.1398 -2.1287 -2.4105
  838MPD2    H312376   0.164   0.455  11.703 -1.1808  0.4770 -2.8524
  838MPD2     N12377   0.049   0.057  11.855  0.3179 -0.0549  0.6369
  838MPD2    H512378   4.719   0.109  11.912  0.8640  1.1417  0.1731
  838MPD2    N112379   0.278   0.095  11.429 -0.0968  0.2815  0.4142
  838MPD2    H712380   0.263   4.731  11.428 -3.1548  0.7519  1.7941
  839MPD2     C12381   4.719   4.075  11.269 -0.8768 -0.6521  0.0679
  839MPD2    C112382   0.015   4.101  11.139  0.1913 -0.6849  0.0699
  839MPD2    C212383   0.086   4.219  11.116 -0.1279 -0.1979 -0.7029
  839MPD2    C312384   0.132   4.300  11.214 -0.2974 -0.1164 -0.7839
  839MPD2    C412385   0.114   4.267  11.346  0.1732 -0.0412 -0.2713
  839MPD2    C512386   0.026   4.161  11.367  0.7575 -0.1878 -0.0379
  839MPD2     H12387   0.099   4.260  11.016  0.2840  0.4647 -0.3738
  839MPD2    H112388   0.142   4.336  11.424  1.9765  0.1795 -1.1094
  839MPD2    H212389   4.667   3.983  11.292  0.7755 -2.1522 -2.0606
  839MPD2    H312390   0.011   4.139  11.472  0.8360 -0.3983 -0.0707
  839MPD2     N12391   0.208   4.419  11.186 -0.0626  0.4724  0.0936
  839MPD2    H512392   0.240   4.471  11.267 -0.8382  0.4098  0.4406
  839MPD2    N112393   4.704   4.028  11.026  0.6352 -0.5790 -0.1227
  839MPD2    H712394   0.019   4.045  10.939 -0.2672  2.3963 -0.0672
  840MPD2     C12395   4.632   2.132   9.403 -0.5557  0.3443  0.1782
  840MPD2    C112396   4.730   2.066   9.475  0.1440 -0.6935  0.7834
  840MPD2    C212397   0.097   2.145   9.520  0.0388  0.3032 -0.1467
  840MPD2    C312398   0.095   2.284   9.507 -0.5914  0.4066 -0.5459
  840MPD2    C412399   4.719   2.343   9.450 -0.2998  0.3978 -0.2873
  840MPD2    C512400   4.623   2.268   9.394  0.3829  0.2190  0.3234
  840MPD2     H12401   0.185   2.101   9.568  0.0763  1.5055  0.8752
  840MPD2    H112402   4.716   2.449   9.429 -0.9404  0.5618  0.6359
  840MPD2    H212403   4.550   2.081   9.354 -1.6034  3.5071 -1.3569
  840MPD2    H312404   4.548   2.314   9.331 -0.1377 -3.3343 -1.7172
  840MPD2     N12405   0.198   2.373   9.551 -0.2802  0.4484  0.0497
  840MPD2    H512406   0.187   2.474   9.541  1.1927  0.5033 -1.0502
  840MPD2    N112407   4.709   1.923   9.501 -0.1714  0.5325 -0.1817
  840MPD2    H712408   4.633   1.877   9.451  0.3684 -0.3351 -0.1963
  841MPD2     C12409   3.818   1.729  14.025 -0.1741 -0.4034 -0.1195
  841MPD2    C112410   3.919   1.642  14.038 -0.0756 -0.7157 -0.1233
  841MPD2    C212411   4.032   1.693  14.108 -0.5875 -0.2947  0.9077
  841MPD2    C312412   4.041   1.826  14.149  0.2262 -0.2968  0.6110
  841MPD2    C412413   3.946   1.915  14.103  0.3305 -0.0150  0.3349
  841MPD2    C512414   3.830   1.860  14.060  0.2412  0.3519 -0.0415
  841MPD2     H12415   4.119   1.630  14.118  0.3717  0.7365 -1.0270
  841MPD2    H112416   3.934   2.021  14.123 -0.6612 -0.0813  0.1220
  841MPD2    H212417   3.721   1.703  13.984 -1.1106 -1.0058  2.5201
  841MPD2    H312418   3.738   1.916  14.044 -1.0181 -1.2382  1.6172
  841MPD2     N12419   4.157   1.872  14.212  1.0531  0.0867  0.5707
  841MPD2    H512420   4.231   1.806  14.236  0.9265 -0.2903 -0.0804
  841MPD2    N112421   3.928   1.508  13.988 -0.4976 -0.1273  0.0873
  841MPD2    H712422   4.014   1.456  13.993 -0.3600 -0.0904 -1.7915
  842MPD2     C12423   4.710   2.939  16.427 -0.4019 -0.4107 -0.5889
  842MPD2    C112424   4.676   2.808  16.435  0.2626 -0.0895  0.4628
  842MPD2    C212425   4.681   2.752  16.562 -0.8455  0.2355  0.1821
  842MPD2    C312426   4.732   2.822  16.668 -0.5076 -0.1518  0.7313
  842MPD2    C412427   0.032   2.953  16.658 -0.8144 -0.2922 -0.3989
  842MPD2    C512428   0.026   3.011  16.534 -0.4167 -1.0085  0.0726
  842MPD2     H12429   4.672   2.645  16.575  0.6111  0.0587 -0.2254
  842MPD2    H112430   0.060   3.015  16.742 -0.2052 -1.9091  0.6011
  842MPD2    H212431   4.700   2.992  16.333 -2.5975 -0.7517 -0.5297
  842MPD2    H312432   0.045   3.116  16.517  0.5096 -1.2762 -0.5232
  842MPD2     N12433   0.015   2.754  16.785  0.7976  0.0777 -0.4358
  842MPD2    H512434   0.086   2.797  16.844 -0.3078  2.7923 -1.0924
  842MPD2    N112435   4.631   2.742  16.317  0.2229 -0.3551 -0.6859
  842MPD2    H712436   4.645   2.791  16.229  0.6060 -0.9501 -0.9484
  843MPD2     C12437   1.629   3.674  17.091  0.9351  0.1329 -0.5684
  843MPD2    C112438   1.684   3.581  17.165 -0.0356  0.3890 -0.8224
  843MPD2    C212439   1.801   3.616  17.238 -0.7064 -0.2565 -0.0661
  843MPD2    C312440   1.834   3.749  17.250  0.1831 -0.7250  0.3065
  843MPD2    C412441   1.771   3.849  17.178 -0.0479 -0.8217 -0.3181
  843MPD2    C512442   1.666   3.809  17.094 -0.2203 -0.2394 -0.1993
  843MPD2     H12443   1.860   3.540  17.286 -0.3554 -0.8505 -1.4363
  843MPD2    H112444   1.795   3.955  17.185 -1.4614 -0.5340  0.2912
  843MPD2    H212445   1.538   3.653  17.035 -0.4147  2.6598  0.6928
  843MPD2    H312446   1.616   3.882  17.031  0.6250  0.4899 -0.0292
  843MPD2     N12447   1.951   3.788  17.312 -0.2181 -0.5906 -0.6740
  843MPD2    H512448   1.941   3.885  17.340  0.6938 -1.3133  2.1969
  843MPD2    N112449   1.636   3.449  17.148 -0.1703 -0.0619  0.2030
  843MPD2    H712450   1.557   3.435  17.087  0.3645 -1.3700 -0.1900
  844MPD2     C12451   0.323   1.939  16.266 -0.3185  0.5437 -0.4128
  844MPD2    C112452   0.365   2.041  16.188 -0.4417  0.3100  0.2197
  844MPD2    C212453   0.415   2.162  16.238  0.1789 -0.3615 -0.5152
  844MPD2    C312454   0.440   2.180  16.375  0.0886 -0.8795 -0.8568
  844MPD2    C412455   0.411   2.072  16.446  0.7757 -0.6444  0.9474
  844MPD2    C512456   0.352   1.949  16.401 -0.6780  0.3725 -0.5501
  844MPD2     H12457   0.431   2.241  16.165  1.7406 -1.6024 -1.4940
  844MPD2    H112458   0.419   2.069  16.554  0.3197 -1.7174  0.9593
  844MPD2    H212459   0.286   1.840  16.243  1.6832 -0.9052  2.4758
  844MPD2    H312460   0.310   1.874  16.466  1.3855 -0.0924  0.2529
  844MPD2     N12461   0.509   2.293  16.418 -0.8818  0.9033  0.0294
  844MPD2    H512462   0.520   2.371  16.355 -1.2073 -0.1330 -1.3133
  844MPD2    N112463   0.360   2.021  16.047 -0.5390 -0.0314  0.4647
  844MPD2    H712464   0.418   2.089  16.000  0.0424 -1.6386 -1.1267
  845MPD2     C12465   0.642   3.277  16.434 -0.3461  0.2720  0.2312
  845MPD2    C112466   0.699   3.250  16.557  0.1667 -0.3172  0.3274
  845MPD2    C212467   0.727   3.116  16.592  0.2815  0.6087 -0.4482
  845MPD2    C312468   0.679   3.011  16.514  0.0473  0.5926 -0.4599
  845MPD2    C412469   0.627   3.042  16.393  0.9831 -0.1180 -0.6231
  845MPD2    C512470   0.620   3.171  16.354 -0.1629 -0.5455 -0.0887
  845MPD2     H12471   0.759   3.097  16.694 -0.3959  1.8339 -0.0078
  845MPD2    H112472   0.613   2.959  16.324 -0.4841 -0.7244  0.4160
  845MPD2    H212473   0.612   3.377  16.406  1.0458  0.4901 -0.4999
  845MPD2    H312474   0.592   3.191  16.251  1.6944 -0.1656 -0.5216
  845MPD2     N12475   0.704   2.876  16.550 -0.1582  0.8015 -0.0979
  845MPD2    H512476   0.734   2.857  16.645  0.3733  0.2762 -0.3732
  845MPD2    N112477   0.716   3.354  16.646  0.8308 -0.3973  0.3089
  845MPD2    H712478   0.698   3.445  16.604 -1.5798 -1.1475 -0.2793
  846MPD2     C12479   1.883   3.831  13.118  0.3437 -0.3123 -0.1551
  846MPD2    C112480   1.859   3.933  13.207  0.5132 -0.0879 -0.7259
  846MPD2    C212481   1.835   3.905  13.341 -0.2895 -1.0730 -0.6935
  846MPD2    C312482   1.850   3.779  13.391 -0.1585  0.2655 -0.0935
  846MPD2    C412483   1.878   3.676  13.301 -0.0142  0.1339  0.4763
  846MPD2    C512484   1.885   3.704  13.166 -0.5634  0.0546  0.2513
  846MPD2     H12485   1.811   3.993  13.399  3.2241  0.9928 -2.3412
  846MPD2    H112486   1.906   3.577  13.334  0.3015  0.1348  0.2072
  846MPD2    H212487   1.906   3.838  13.013 -0.9010  1.1391 -0.3265
  846MPD2    H312488   1.913   3.627  13.095 -0.1056  2.0792 -1.7553
  846MPD2     N12489   1.852   3.764  13.532 -0.7435  0.0299 -0.0348
  846MPD2    H512490   1.812   3.843  13.583  0.8406  0.4317  0.5700
  846MPD2    N112491   1.867   4.068  13.166 -0.6678 -0.1814  0.0552
  846MPD2    H712492   1.850   4.140  13.235  1.8328 -0.0869  0.5839
  847MPD2     C12493   2.319   4.659  14.052  0.5180 -0.6216 -0.6434
  847MPD2    C112494   2.438   4.702  14.103 -0.3661 -0.2760 -0.1562
  847MPD2    C212495   2.491   4.646  14.219  0.1691  0.0342  0.5797
  847MPD2    C312496   2.430   4.536  14.276  0.2313 -0.2145  0.0972
  847MPD2    C412497   2.311   4.492  14.226  0.0057  0.4153 -0.3744
  847MPD2    C512498   2.253   4.556  14.120 -0.4414 -0.1228  0.1098
  847MPD2     H12499   2.582   4.680  14.267 -0.5671  2.0242  0.5767
  847MPD2    H112500   2.259   4.403  14.260 -0.5333  0.4243 -1.1993
  847MPD2    H212501   2.267   4.710  13.972  1.0541  0.5039 -0.2758
  847MPD2    H312502   2.164   4.509  14.080 -1.0150  1.6829 -0.7302
  847MPD2     N12503   2.492   4.472  14.384 -0.4594  0.2687  0.6656
  847MPD2    H512504   2.573   4.522  14.420  0.2299  0.3572 -0.9973
  847MPD2    N112505   2.494   0.086  14.058  0.4389  0.0064 -0.0183
  847MPD2    H712506   2.577   0.107  14.113 -0.2952 -0.0330  1.1074
  848MPD2     C12507   0.294   2.630  16.061 -0.7417  0.2043 -0.0477
  848MPD2    C112508   0.302   2.714  16.167  0.1696  0.7395 -1.1787
  848MPD2    C212509   0.325   2.852  16.147  0.0222 -0.1976  0.7495
  848MPD2    C312510   0.352   2.896  16.018 -0.2884 -0.0378  1.0685
  848MPD2    C412511   0.351   2.809  15.910 -0.0308 -0.8036 -0.1687
  848MPD2    C512512   0.331   2.676  15.936  0.5966 -0.4599  0.1706
  848MPD2     H12513   0.334   2.930  16.222  0.0055 -1.2175  1.7979
  848MPD2    H112514   0.384   2.828  15.809  2.1435 -2.1715  0.2902
  848MPD2    H212515   0.273   2.524  16.069  0.5323 -0.1259 -1.0990
  848MPD2    H312516   0.340   2.606  15.853 -0.3314 -0.1232 -0.2160
  848MPD2     N12517   0.357   3.034  15.981  0.7924 -0.6734 -0.7513
  848MPD2    H512518   0.390   3.043  15.885 -0.9030  0.4177 -1.2366
  848MPD2    N112519   0.276   2.672  16.298  0.4676 -0.4341 -0.2802
  848MPD2    H712520   0.300   2.741  16.368 -1.1944 -2.1961  2.0106
  849MPD2     C12521   3.810   3.116  13.909 -0.4919  0.2474  0.3423
  849MPD2    C112522   3.760   2.992  13.905  0.6147 -0.2826  0.6725
  849MPD2    C212523   3.822   2.903  13.996 -0.3259 -0.0190  0.1910
  849MPD2    C312524   3.918   2.944  14.097  0.5370  0.3396 -0.2194
  849MPD2    C412525   3.965   3.073  14.092  0.3864 -0.3179 -0.0054
  849MPD2    C512526   3.915   3.152  13.992 -0.2478 -0.4218 -0.3421
  849MPD2     H12527   3.795   2.799  13.982  0.1375 -0.0420 -0.5681
  849MPD2    H112528   4.035   3.118  14.162  2.1240  0.6557 -2.4061
  849MPD2    H212529   3.775   3.188  13.837  1.8811  0.8869 -0.1644
  849MPD2    H312530   3.936   3.258  13.999 -0.5500 -0.3103 -1.1877
  849MPD2     N12531   3.986   2.856  14.190  0.4336 -0.2240 -0.2802
  849MPD2    H512532   4.044   2.897  14.262 -1.0008  3.7635 -1.4337
  849MPD2    N112533   3.674   2.951  13.803 -0.1467  0.3850 -0.5657
  849MPD2    H712534   3.660   3.016  13.726  1.5721  0.3779 -0.8909
  850MPD2     C12535   2.314   1.318  14.603  0.0089  0.1344  0.3549
  850MPD2    C112536   2.382   1.350  14.719 -0.3021 -0.0682  0.6350
  850MPD2    C212537   2.514   1.384  14.697 -0.3703 -0.4184  0.2019
  850MPD2    C312538   2.568   1.376  14.570 -0.3416 -0.1196 -0.1610
  850MPD2    C412539   2.492   1.347  14.459  1.2006 -0.3495 -0.3497
  850MPD2    C512540   2.364   1.306  14.483  0.5030  0.5200 -0.0733
  850MPD2     H12541   2.576   1.409  14.782 -2.9995  0.0366  2.0091
  850MPD2    H112542   2.521   1.351  14.355 -0.2205  0.6772 -0.7002
  850MPD2    H212543   2.208   1.301  14.615 -0.0622  1.2682  1.3356
  850MPD2    H312544   2.302   1.288  14.395 -0.2309 -0.4014  0.6348
  850MPD2     N12545   2.707   1.389  14.552  1.2987  0.1360  0.7627
  850MPD2    H512546   2.737   1.387  14.455 -0.2363  0.4577  0.2872
  850MPD2    N112547   2.324   1.335  14.851  0.5351  0.5361  0.0087
  850MPD2    H712548   2.229   1.299  14.849  0.0310  1.8258  0.0575
  851MPD2     C12549   2.741   1.013  15.324  0.2407 -0.4958 -0.1481
  851MPD2    C112550   2.627   0.968  15.272 -0.2487 -0.9886  0.2199
  851MPD2    C212551   2.627   0.837  15.207 -0.5397  0.4914  0.1543
  851MPD2    C312552   2.740   0.764  15.200 -0.4985 -0.1086  0.2555
  851MPD2    C412553   2.856   0.821  15.248  0.3539  0.0044 -0.0128
  851MPD2    C512554   2.857   0.944  15.299  0.4708  0.3079  0.3013
  851MPD2     H12555   2.541   0.797  15.155  0.7760 -1.6224 -0.3470
  851MPD2    H112556   2.945   0.761  15.260  0.0435 -0.3241  0.7056
  851MPD2    H212557   2.760   1.114  15.360 -0.5244  0.0122 -1.1843
  851MPD2    H312558   2.946   0.991  15.340  1.2848  0.6297 -1.8430
  851MPD2     N12559   2.735   0.639  15.138  0.3725  0.1920 -0.0316
  851MPD2    H512560   2.640   0.615  15.112 -0.2578  0.5653  1.9620
  851MPD2    N112561   2.518   1.067  15.279  0.4414  0.2526 -0.0402
  851MPD2    H712562   2.531   1.153  15.331 -0.9408  0.0053  0.6793
  852MPD2     C12563   2.534   3.220   9.867  0.8200  0.5549 -0.5552
  852MPD2    C112564   2.583   3.266   9.989  0.2524  0.3995 -0.4173
  852MPD2    C212565   2.635   3.395   9.995  1.2710  0.0192 -0.4600
  852MPD2    C312566   2.636   3.481   9.887 -0.2737 -0.4728 -0.3459
  852MPD2    C412567   2.583   3.437   9.767  0.6879 -0.5750 -0.4036
  852MPD2    C512568   2.540   3.303   9.753 -0.3116  0.6060 -0.1476
  852MPD2     H12569   2.673   3.432  10.089 -0.4164 -3.1154  1.4745
  852MPD2    H112570   2.585   3.506   9.684  0.2092 -2.6723 -2.1456
  852MPD2    H212571   2.495   3.120   9.855  1.4151  0.2137  0.3440
  852MPD2    H312572   2.494   3.268   9.661  0.6655 -1.1595  0.0338
  852MPD2     N12573   2.675   3.614   9.915 -0.2173  0.6564 -0.0277
  852MPD2    H512574   2.692   3.633  10.014 -1.9913 -2.1135  0.8123
  852MPD2    N112575   2.586   3.187  10.105 -0.3687  0.2248  0.0230
  852MPD2    H712576   2.613   3.231  10.192  0.7002  0.0686 -0.2366
  853MPD2     C12577   3.944   2.741  11.705  0.3250 -0.6317 -0.4099
  853MPD2    C112578   3.956   2.876  11.684 -0.2031 -0.0198  0.3058
  853MPD2    C212579   4.033   2.917  11.580  0.2483  0.1977 -0.2607
  853MPD2    C312580   4.113   2.838  11.502 -0.6272  0.3006  0.3744
  853MPD2    C412581   4.109   2.698  11.530  0.1288 -0.0227 -0.2319
  853MPD2    C512582   4.025   2.653  11.632 -0.3550 -0.5331  0.1036
  853MPD2     H12583   4.036   3.024  11.563  1.3356  0.1051 -0.6755
  853MPD2    H112584   4.173   2.630  11.476 -0.2377 -0.4241 -0.1591
  853MPD2    H212585   3.873   2.703  11.778  0.1916  3.5934  1.6467
  853MPD2    H312586   4.017   2.547  11.651 -0.6786 -0.6138 -0.4802
  853MPD2     N12587   4.190   2.882  11.393 -0.5834  0.5487 -0.1864
  853MPD2    H512588   4.255   2.818  11.350  1.0085  1.7827  0.4046
  853MPD2    N112589   3.883   2.963  11.771 -0.2694  0.2043  0.2272
  853MPD2    H712590   3.815   2.926  11.836 -0.3230 -2.0168 -1.0587
  854MPD2     C12591   1.286   2.964  12.051  0.3563  0.6997  0.2515
  854MPD2    C112592   1.266   3.028  12.171  0.7552  0.2226 -0.1069
  854MPD2    C212593   1.282   2.959  12.290 -0.9870  0.3473  0.4659
  854MPD2    C312594   1.322   2.828  12.293 -0.0619  0.9400 -0.4081
  854MPD2    C412595   1.355   2.770  12.176 -0.0054 -0.4092  0.2693
  854MPD2    C512596   1.342   2.840  12.055  0.4071 -0.2584  0.2064
  854MPD2     H12597   1.264   3.008  12.385  3.0389  0.0036  1.4090
  854MPD2    H112598   1.401   2.672  12.173  0.0763 -0.3490 -0.5448
  854MPD2    H212599   1.268   3.012  11.956  0.4609 -0.1763 -0.2163
  854MPD2    H312600   1.373   2.791  11.964 -0.0155  2.1322 -1.2159
  854MPD2     N12601   1.350   2.764  12.413  0.1957  0.0346 -0.3745
  854MPD2    H512602   1.416   2.688  12.403  1.2755  0.9248  0.0089
  854MPD2    N112603   1.234   3.169  12.153  0.1258  0.3219  0.3209
  854MPD2    H712604   1.239   3.213  12.062 -1.3136  0.9262  0.5377
  855MPD2     C12605   1.076   3.028  13.319 -0.6499  0.4999  0.3188
  855MPD2    C112606   1.151   2.911  13.346  0.2275  0.5905  0.7568
  855MPD2    C212607   1.210   2.846  13.243  0.6513  0.1490  0.7331
  855MPD2    C312608   1.197   2.894  13.113 -0.0374 -0.5559  0.4884
  855MPD2    C412609   1.124   3.007  13.083 -0.0617  0.1244  0.0957
  855MPD2    C512610   1.070   3.076  13.190  0.0942  0.1745  0.0209
  855MPD2     H12611   1.271   2.757  13.252  0.5188  0.0934  1.0850
  855MPD2    H112612   1.109   3.032  12.978 -1.8204  1.5490  0.6778
  855MPD2    H212613   1.023   3.075  13.400 -1.2306  0.1385  0.1497
  855MPD2    H312614   1.004   3.159  13.170 -0.5368 -1.5214 -4.8378
  855MPD2     N12615   1.260   2.829  13.004 -0.4917  0.2841 -0.3280
  855MPD2    H512616   1.262   2.867  12.909  0.8729 -3.9406 -1.9657
  855MPD2    N112617   1.154   2.836  13.469 -0.0964 -0.1871  0.1524
  855MPD2    H712618   1.208   2.751  13.480 -0.1424 -0.5381 -2.5492
  856MPD2     C12619   3.384   3.588  13.561  0.0133  0.6948  0.6388
  856MPD2    C112620   3.375   3.703  13.637 -0.6028 -0.7780 -0.2085
  856MPD2    C212621   3.259   3.716  13.709  0.5117  0.1222  0.0496
  856MPD2    C312622   3.144   3.636  13.698  0.0715 -0.1269  0.1269
  856MPD2    C412623   3.157   3.521  13.621  0.0527  0.1748  0.3178
  856MPD2    C512624   3.278   3.496  13.557  0.0276 -0.5004  0.1579
  856MPD2     H12625   3.246   3.813  13.756 -1.6351 -0.7647  1.2364
  856MPD2    H112626   3.081   3.444  13.610  0.1017  0.3482 -1.2480
  856MPD2    H212627   3.465   3.556  13.496  0.3896  1.1875  0.8704
  856MPD2    H312628   3.290   3.420  13.481  0.0590 -0.7323  0.3915
  856MPD2     N12629   3.027   3.672  13.767 -0.1772 -0.1953  0.4169
  856MPD2    H512630   3.031   3.744  13.839  2.0981  0.1746 -0.0711
  856MPD2    N112631   3.475   3.801  13.654 -0.1634 -0.1545 -0.2264
  856MPD2    H712632   3.459   3.871  13.725 -2.9926 -0.9652 -0.0716
  857MPD2     C12633   4.721   1.541  12.147  0.9313 -0.3072  0.1781
  857MPD2    C112634   0.106   1.540  12.201  0.4082  0.2640 -0.5120
  857MPD2    C212635   0.131   1.630  12.300  0.3082  0.6298 -0.3909
  857MPD2    C312636   0.042   1.719  12.344 -0.6614  0.2613 -0.1318
  857MPD2    C412637   4.654   1.718  12.298  0.3261  0.9022 -0.2613
  857MPD2    C512638   4.623   1.626  12.198 -0.7061 -0.1161  0.2434
  857MPD2     H12639   0.225   1.616  12.351  0.2168 -0.7214 -0.5944
  857MPD2    H112640   4.571   1.776  12.335  0.0343  0.2638  0.0852
  857MPD2    H212641   4.699   1.472  12.067 -2.9803  0.2048  0.8192
  857MPD2    H312642   4.521   1.618  12.160  0.4575 -2.4291 -2.3386
  857MPD2     N12643   0.077   1.798  12.459  0.4543  0.3305 -0.0428
  857MPD2    H512644   0.172   1.793  12.495 -0.6497  1.9890  3.1267
  857MPD2    N112645   0.201   1.444  12.155 -0.3147 -0.9175  0.2052
  857MPD2    H712646   0.172   1.372  12.091 -0.8830  0.0157 -0.5842
  858MPD2     C12647   1.031   0.715  16.287  0.1046 -0.2768 -0.8041
  858MPD2    C112648   0.935   0.614  16.310  0.1099 -0.2048 -1.0005
  858MPD2    C212649   0.879   0.597  16.439 -0.1739 -0.0910 -0.3871
  858MPD2    C312650   0.919   0.682  16.539 -0.1018 -0.7626  0.4500
  858MPD2    C412651   1.009   0.788  16.514 -0.1982  0.9295 -0.0635
  858MPD2    C512652   1.060   0.806  16.386  0.0511  0.0722 -0.3005
  858MPD2     H12653   0.798   0.527  16.449  1.1341 -1.0831  3.3053
  858MPD2    H112654   1.033   0.863  16.588 -3.3165  0.3562  1.5379
  858MPD2    H212655   1.081   0.734  16.193 -0.7339  1.4436 -0.9090
  858MPD2    H312656   1.122   0.893  16.369 -0.0365  0.1596 -0.1753
  858MPD2     N12657   0.869   0.659  16.672 -0.6016 -0.3389 -0.3979
  858MPD2    H512658   0.794   0.592  16.684 -1.8089  1.0044 -0.4502
  858MPD2    N112659   0.897   0.541  16.200  0.0460 -0.2000  0.6829
  858MPD2    H712660   0.960   0.560  16.122  0.3169 -2.1132  0.4356
  859MPD2     C12661   3.981   2.433  15.186  0.3781  0.1287  0.0536
  859MPD2    C112662   4.108   2.423  15.133 -0.1181 -0.8340  0.3812
  859MPD2    C212663   4.201   2.348  15.198  0.1316 -0.1077  0.1612
  859MPD2    C312664   4.164   2.270  15.315 -0.7121 -0.4939 -0.0044
  859MPD2    C412665   4.034   2.264  15.351 -0.6618  0.2009 -0.3263
  859MPD2    C512666   3.950   2.342  15.287  0.5239 -0.9196  0.4134
  859MPD2     H12667   4.301   2.351  15.156  0.4602  1.0342  1.0304
  859MPD2    H112668   3.994   2.219  15.441  1.1628 -1.1838 -0.2140
  859MPD2    H212669   3.912   2.508  15.150  1.6103  1.5568  0.7012
  859MPD2    H312670   3.850   2.348  15.330  0.6343 -3.5068  1.0356
  859MPD2     N12671   4.255   2.193  15.387 -0.0940 -0.5919  0.0833
  859MPD2    H512672   4.213   2.142  15.464 -0.2061 -1.3545 -0.4866
  859MPD2    N112673   4.156   2.500  15.023  0.4028 -0.6035  0.2286
  859MPD2    H712674   4.255   2.502  15.004  0.1109  1.6984 -1.1654
  860MPD2     C12675   2.360   2.606  11.153  0.2558  0.2935 -0.3660
  860MPD2    C112676   2.366   2.731  11.206 -0.2028  0.4971  0.0547
  860MPD2    C212677   2.330   2.746  11.341 -0.5235 -0.5126  0.2843
  860MPD2    C312678   2.279   2.645  11.424  0.0790 -0.0116  0.8941
  860MPD2    C412679   2.267   2.528  11.358 -0.4143  0.4949  0.1189
  860MPD2    C512680   2.310   2.504  11.227  0.5310 -0.4501  0.3859
  860MPD2     H12681   2.333   2.843  11.390  0.1831  0.1157 -1.0056
  860MPD2    H112682   2.228   2.438  11.403 -2.0789  0.9238 -0.4802
  860MPD2    H212683   2.401   2.589  11.054  2.0051 -1.1847  0.6120
  860MPD2    H312684   2.294   2.405  11.185 -2.7342  0.2603 -0.0349
  860MPD2     N12685   2.247   2.671  11.561 -0.2766  0.4827 -0.6972
  860MPD2    H512686   2.269   2.767  11.586  2.9033  0.3191 -2.8064
  860MPD2    N112687   2.420   2.845  11.141 -0.2341 -0.0019  0.0473
  860MPD2    H712688   2.443   2.929  11.193  1.6868  0.6657 -1.8969
  861MPD2     C12689   1.049   1.199  10.795 -0.7473 -0.3851 -0.2031
  861MPD2    C112690   1.132   1.308  10.803 -0.1203  0.0075  0.2482
  861MPD2    C212691   1.140   1.380  10.689 -0.2451 -0.7971 -0.8454
  861MPD2    C312692   1.050   1.364  10.584 -0.0132  0.5123 -0.4054
  861MPD2    C412693   0.975   1.252  10.577 -0.3063 -0.2066  0.2656
  861MPD2    C512694   0.984   1.169  10.680  0.3752  0.2207 -0.6409
  861MPD2     H12695   1.199   1.470  10.695 -0.5661 -0.6966  0.8520
  861MPD2    H112696   0.911   1.226  10.494 -0.1612  3.2170 -0.9117
  861MPD2    H212697   1.044   1.128  10.877 -2.1236  0.6002  0.5859
  861MPD2    H312698   0.916   1.085  10.674  1.0048 -0.3708  0.3557
  861MPD2     N12699   1.024   1.466  10.483 -0.2694 -0.2585 -0.6059
  861MPD2    H512700   0.936   1.451  10.434 -1.5857  0.9611  1.3642
  861MPD2    N112701   1.202   1.351  10.914  0.5108 -0.4188 -0.1958
  861MPD2    H712702   1.243   1.444  10.913 -0.2214 -0.0376  4.3175
  862MPD2     C12703   0.699   1.510   9.886  0.2734 -0.6950  0.2216
  862MPD2    C112704   0.764   1.464   9.999 -0.3393  0.2212  0.2467
  862MPD2    C212705   0.793   1.336  10.017 -0.0845 -0.5895 -0.4051
  862MPD2    C312706   0.747   1.243   9.930  0.5883 -0.4571 -0.7872
  862MPD2    C412707   0.690   1.279   9.814  0.2256 -0.3160 -0.1524
  862MPD2    C512708   0.661   1.415   9.796  0.0917 -0.3109  0.8420
  862MPD2     H12709   0.844   1.315  10.110  3.4905  0.5211 -2.0836
  862MPD2    H112710   0.653   1.209   9.739 -0.3323  1.3763 -1.4448
  862MPD2    H212711   0.696   1.617   9.867  0.6780 -0.7335 -0.0704
  862MPD2    H312712   0.615   1.458   9.708  1.9034  1.4755  0.7600
  862MPD2     N12713   0.773   1.110   9.974 -0.3020  0.1440 -0.9222
  862MPD2    H512714   0.812   1.101  10.067 -0.9608  2.0553 -0.4594
  862MPD2    N112715   0.800   1.553  10.110 -0.6918  0.7440  0.0669
  862MPD2    H712716   0.837   1.505  10.191 -2.9389 -0.0365  0.6325
  863MPD2     C12717   3.993   4.125  15.956  0.0670 -0.2320  0.0109
  863MPD2    C112718   3.904   4.184  16.041 -0.3948 -0.2882 -1.1043
  863MPD2    C212719   3.923   4.187  16.175  0.2103  0.2417  0.0250
  863MPD2    C312720   4.032   4.116  16.226 -0.0185  0.4571  0.0557
  863MPD2    C412721   4.129   4.068  16.140  0.4724  0.2753 -0.2564
  863MPD2    C512722   4.106   4.076  16.002 -0.2489 -0.5873 -0.5317
  863MPD2     H12723   3.840   4.223  16.235  0.3270 -0.8874  0.8785
  863MPD2    H112724   4.220   4.019  16.172  0.2168  0.1514  0.3003
  863MPD2    H212725   3.976   4.134  15.850  0.7520 -0.0645 -0.0846
  863MPD2    H312726   4.186   4.032  15.944  0.9913 -0.1561  0.8550
  863MPD2     N12727   4.057   4.098  16.365 -0.3531  0.5517  0.0611
  863MPD2    H512728   4.148   4.058  16.385 -1.0205 -0.5263  0.9205
  863MPD2    N112729   3.790   4.240  15.973  0.5316 -0.0250 -0.3055
  863MPD2    H712730   3.784   4.199  15.881 -0.4479 -0.1172 -0.1931
  864MPD2     C12731   4.200   0.317  16.872  0.3788  0.1070  0.5638
  864MPD2    C112732   4.291   0.272  16.779  0.5162  0.2038 -0.3767
  864MPD2    C212733   4.375   0.362  16.728 -0.2512  0.2118 -0.1036
  864MPD2    C312734   4.376   0.498  16.761 -0.0384  0.7822 -0.3334
  864MPD2    C412735   4.282   0.541  16.851  0.0804 -0.2982 -0.1203
  864MPD2    C512736   4.199   0.450  16.905 -0.0522 -0.0987 -0.0188
  864MPD2     H12737   4.426   0.336  16.636 -1.6810 -1.8471 -0.3152
  864MPD2    H112738   4.277   0.645  16.883  0.6921 -1.0546  2.3694
  864MPD2    H212739   4.128   0.250  16.917 -0.8269  1.3385  0.4851
  864MPD2    H312740   4.129   0.490  16.977  0.2257  1.1895 -0.4554
  864MPD2     N12741   4.466   0.590  16.709  0.2741  0.2793  0.4563
  864MPD2    H512742   4.449   0.689  16.723  0.5367  0.1594  1.5813
  864MPD2    N112743   4.277   0.137  16.742  0.3618  0.2532  0.5618
  864MPD2    H712744   4.200   0.089  16.787 -0.3694  0.9908  0.1199
  865MPD2     C12745   4.423   0.989  15.832  0.6827  0.2972  0.7397
  865MPD2    C112746   4.423   0.868  15.902  0.7074 -0.1960 -0.0910
  865MPD2    C212747   4.435   0.870  16.043 -0.1948 -0.0925 -0.1823
  865MPD2    C312748   4.463   0.996  16.110  0.0910  0.1261  0.6684
  865MPD2    C412749   4.477   1.109  16.036 -0.2823  0.1134 -0.6811
  865MPD2    C512750   4.449   1.106  15.901 -0.3497  0.1618 -0.3099
  865MPD2     H12751   4.426   0.780  16.104  0.4689  1.0659  1.6404
  865MPD2    H112752   4.504   1.205  16.079  1.1629  0.0467 -1.4130
  865MPD2    H212753   4.399   1.001  15.728 -0.5124  0.5509  1.0487
  865MPD2    H312754   4.447   1.201  15.849  1.1365  0.8833  0.9210
  865MPD2     N12755   4.494   1.001  16.255 -0.3163  0.2055 -0.4038
  865MPD2    H512756   4.554   1.076  16.289  0.4618 -0.8828  0.6262
  865MPD2    N112757   4.411   0.750  15.819 -0.4412 -0.8874  0.0376
  865MPD2    H712758   4.441   0.756  15.722 -1.4995  2.7792 -0.0679
  866MPD2     C12759   1.942   1.522  11.210  0.3821 -0.5374 -0.5038
  866MPD2    C112760   1.964   1.562  11.081  0.1931 -0.9135 -0.8231
  866MPD2    C212761   1.865   1.635  11.010 -0.0600 -0.9578 -0.5084
  866MPD2    C312762   1.741   1.666  11.078  0.4270 -0.6255  0.6343
  866MPD2    C412763   1.727   1.614  11.203 -0.1295 -0.0560  0.0848
  866MPD2    C512764   1.824   1.550  11.271  0.0760 -0.2612 -0.2739
  866MPD2     H12765   1.872   1.651  10.903  1.3557  1.4370 -0.0496
  866MPD2    H112766   1.644   1.642  11.267 -0.0987 -0.8211  0.4632
  866MPD2    H212767   2.021   1.477  11.269 -0.3051  0.1455  0.9356
  866MPD2    H312768   1.805   1.533  11.377 -1.9953 -0.9782 -0.7662
  866MPD2     N12769   1.636   1.747  11.021  0.7520 -0.2420  0.2782
  866MPD2    H512770   1.552   1.756  11.077  0.9601 -0.7239  0.6668
  866MPD2    N112771   2.094   1.532  11.026 -0.0062  0.2077  0.0370
  866MPD2    H712772   2.157   1.471  11.077 -0.0312  1.5277  1.6265
  867MPD2     C12773   2.871   0.710  16.434 -0.1261  0.6316 -0.0862
  867MPD2    C112774   2.997   0.676  16.480 -0.4022  0.5903  0.5281
  867MPD2    C212775   3.067   0.769  16.556 -0.1083  1.1087 -0.5043
  867MPD2    C312776   3.021   0.890  16.581  0.3948 -0.6580  0.9516
  867MPD2    C412777   2.888   0.918  16.541  0.1070 -0.1212 -0.0970
  867MPD2    C512778   2.811   0.825  16.473  0.8208  0.1870 -0.1778
  867MPD2     H12779   3.165   0.736  16.590 -0.2492  1.6190  0.3961
  867MPD2    H112780   2.854   1.019  16.559 -1.7998 -0.9876  1.1127
  867MPD2    H212781   2.803   0.651  16.375 -0.6584  0.9160  0.2446
  867MPD2    H312782   2.713   0.851  16.432  0.1465  0.2788  1.4850
  867MPD2     N12783   3.090   0.990  16.655  0.1901 -0.4880 -0.4441
  867MPD2    H512784   3.029   1.065  16.687 -1.0461 -1.0086 -1.5368
  867MPD2    N112785   3.043   0.547  16.451 -0.5872 -0.2790  0.4439
  867MPD2    H712786   2.969   0.493  16.406 -1.7265  0.4405  1.4313
  868MPD2     C12787   0.161   0.227  12.692 -0.3881  0.0497 -0.5502
  868MPD2    C112788   0.217   0.157  12.794  0.9820  0.2140  0.6084
  868MPD2    C212789   0.153   0.155  12.918  0.4274 -0.0539 -0.7201
  868MPD2    C312790   0.042   0.235  12.940  0.0766  0.2545  0.7042
  868MPD2    C412791   4.731   0.316  12.834  0.2197 -0.4347  0.9631
  868MPD2    C512792   0.058   0.312  12.714 -0.0344  0.0817 -1.0939
  868MPD2     H12793   0.191   0.089  12.995 -1.0628  0.0226  0.0606
  868MPD2    H112794   4.650   0.387  12.843 -1.9058 -2.9019  1.4530
  868MPD2    H212795   0.216   0.222  12.598  0.8223 -0.9758  0.1975
  868MPD2    H312796   0.041   0.384  12.635 -1.2618  1.1986  0.1908
  868MPD2     N12797   4.715   0.241  13.065 -0.3840 -0.4439  0.2950
  868MPD2    H512798   0.019   0.189  13.142 -0.5753 -0.3979  0.4235
  868MPD2    N112799   0.340   0.092  12.764  0.4475  0.5646  0.4496
  868MPD2    H712800   0.391   0.109  12.677 -1.5743 -0.6221 -0.9649
  869MPD2     C12801   1.110   1.922   0.567 -0.2356  0.6983  0.7622
  869MPD2    C112802   1.126   1.904   0.435 -0.1155  1.1852 -0.5366
  869MPD2    C212803   1.178   2.012   0.363  0.1308 -0.9347  0.0521
  869MPD2    C312804   1.227   2.123   0.427 -0.0140 -0.1757 -0.0455
  869MPD2    C412805   1.211   2.135   0.565 -0.7271  0.1569  0.3167
  869MPD2    C512806   1.148   2.036   0.636  0.5779  0.1626 -0.4634
  869MPD2     H12807   1.191   2.003   0.256 -0.5835 -0.4583 -0.0761
  869MPD2    H112808   1.252   2.219   0.619 -0.5792  0.3505 -0.0951
  869MPD2    H212809   1.067   1.847   0.632  1.9762  0.3295  1.8273
  869MPD2    H312810   1.132   2.050   0.742 -0.6562 -0.0543 -0.6102
  869MPD2     N12811   1.290   2.236   0.363  0.1508  0.3772 -0.2158
  869MPD2    H512812   1.322   2.308   0.427  0.6578 -0.0762  0.0320
  869MPD2    N112813   1.094   1.772   0.376  1.0781 -0.5096  0.1226
  869MPD2    H712814   1.053   1.700   0.434 -2.1255  0.3233 -1.1380
  870MPD2     C12815   0.920   1.225   1.513  0.0611  0.4447 -0.8409
  870MPD2    C112816   0.974   1.208   1.389  0.4420  0.4145  0.8780
  870MPD2    C212817   0.895   1.234   1.271 -0.0621  0.7916  0.6425
  870MPD2    C312818   0.760   1.266   1.278 -0.3592 -0.1614 -1.0940
  870MPD2    C412819   0.709   1.280   1.402 -0.2286  0.0666  0.6025
  870MPD2    C512820   0.789   1.262   1.516 -0.0516 -0.0661  0.0230
  870MPD2     H12821   0.932   1.222   1.170 -3.4691 -1.9772 -0.2452
  870MPD2    H112822   0.608   1.306   1.431 -0.5302 -0.2956 -0.1313
  870MPD2    H212823   0.969   1.210   1.608 -3.1144 -0.9491  0.5567
  870MPD2    H312824   0.737   1.275   1.610 -0.2537  1.4157 -0.2931
  870MPD2     N12825   0.680   1.279   1.163  0.0697 -0.3503  0.5805
  870MPD2    H512826   0.731   1.280   1.075  0.6383  0.0185  0.9131
  870MPD2    N112827   1.113   1.178   1.384  0.2217  0.3635  0.3625
  870MPD2    H712828   1.160   1.170   1.474  1.3739  1.6981 -0.1156
  871MPD2     C12829   2.176   0.953  16.082 -0.1821 -0.1477  0.3714
  871MPD2    C112830   2.124   0.879  16.184  0.0483 -0.1221  0.0146
  871MPD2    C212831   2.097   0.752  16.149 -0.8153 -0.3022 -0.3953
  871MPD2    C312832   2.103   0.704  16.018 -0.1797 -0.3944  0.1569
  871MPD2    C412833   2.155   0.785  15.922  0.8344 -0.0092  0.5431
  871MPD2    C512834   2.198   0.907  15.954 -0.4533 -0.3533 -0.5675
  871MPD2     H12835   2.061   0.689  16.230 -1.8721 -0.2162 -0.8010
  871MPD2    H112836   2.177   0.754  15.820  0.0675  0.9456  0.0928
  871MPD2    H212837   2.218   1.051  16.101  0.7812 -0.7203  1.2101
  871MPD2    H312838   2.252   0.971  15.885 -0.9340 -1.5727 -2.0652
  871MPD2     N12839   2.054   0.576  15.999 -0.6383 -0.1915  0.1263
  871MPD2    H512840   2.026   0.525  16.083 -1.4039  1.2726  0.7623
  871MPD2    N112841   2.120   0.935  16.317  0.1028 -0.2816  0.3804
  871MPD2    H712842   2.151   1.031  16.331 -2.1575  0.0879  2.9267
  872MPD2     C12843   3.075   3.613  13.152  0.6748 -0.9121  0.0977
  872MPD2    C112844   3.135   3.497  13.203  0.0184  0.6566  0.8221
  872MPD2    C212845   3.061   3.409  13.279 -0.8165 -0.0513 -0.1717
  872MPD2    C312846   2.927   3.428  13.300  0.2190  0.1038  0.1749
  872MPD2    C412847   2.872   3.538  13.235  0.6809 -0.2365 -0.0769
  872MPD2    C512848   2.942   3.634  13.169 -0.3655 -0.0354  0.2149
  872MPD2     H12849   3.105   3.315  13.312 -1.2920  0.5123  2.0904
  872MPD2    H112850   2.768   3.566  13.251  0.5381  0.2805 -1.9575
  872MPD2    H212851   3.129   3.676  13.082  0.2461  0.7621  1.2851
  872MPD2    H312852   2.877   3.708  13.123 -2.4337 -1.0813  1.4309
  872MPD2     N12853   2.845   3.344  13.383 -0.1865 -0.6038  0.2260
  872MPD2    H512854   2.755   3.387  13.402  0.1359  0.0416  0.2819
  872MPD2    N112855   3.278   3.479  13.197 -0.1466 -0.2409 -0.1687
  872MPD2    H712856   3.316   3.385  13.205  1.9346  0.7568  1.5304
  873MPD2     C12857   0.127   3.190   0.280  0.0956  0.5606 -0.0017
  873MPD2    C112858   0.032   3.269   0.215  0.2413  0.4120  0.6777
  873MPD2    C212859   4.685   3.203   0.120  1.0752  0.4476  0.6756
  873MPD2    C312860   4.693   3.059   0.093 -0.1400 -0.0710 -0.0308
  873MPD2    C412861   0.052   2.991   0.160 -0.3552  0.2636 -0.1046
  873MPD2    C512862   0.135   3.063   0.245  0.4654 -0.2915  0.1028
  873MPD2     H12863   4.622   3.267   0.060  1.5905  2.4996  2.3205
  873MPD2    H112864   0.078   2.887   0.146  0.0128  0.0450  2.1367
  873MPD2    H212865   0.205   3.221   0.348 -1.2031 -0.4868  1.9795
  873MPD2    H312866   0.213   3.013   0.302  2.3057  2.9269  0.4275
  873MPD2     N12867   4.623   2.994  17.731 -0.1968 -0.0477 -0.7880
  873MPD2    H512868   4.634   2.896  17.709  1.7835  0.1631 -0.7082
  873MPD2    N112869   0.007   3.398   0.269  0.3279 -0.1408 -0.0087
  873MPD2    H712870   0.087   3.431   0.323 -0.1069  1.5243 -0.4115
  874MPD2     C12871   4.443   3.066  15.694  0.3752 -0.1035 -0.1133
  874MPD2    C112872   4.550   2.994  15.750  0.0979  0.3034 -1.0317
  874MPD2    C212873   4.672   3.052  15.758  0.1088  1.1317  0.4327
  874MPD2    C312874   4.701   3.178  15.704  0.6569  0.0954 -0.4045
  874MPD2    C412875   4.594   3.248  15.650 -0.4258 -0.0742  0.2844
  874MPD2    C512876   4.467   3.191  15.648  0.3207  0.1306 -0.6101
  874MPD2     H12877   0.007   3.000  15.823  0.8573  2.9447  1.0716
  874MPD2    H112878   4.606   3.348  15.610 -1.7930  0.5029  1.3215
  874MPD2    H212879   4.340   3.038  15.676  0.3558 -1.1020  1.4597
  874MPD2    H312880   4.381   3.251  15.622  0.5718  0.2968 -1.0546
  874MPD2     N12881   0.097   3.223  15.724  0.0977 -0.1440  0.5484
  874MPD2    H512882   0.163   3.160  15.769  0.0182 -0.8506 -0.3297
  874MPD2    N112883   4.511   2.876  15.817 -0.1338  0.7537 -0.0900
  874MPD2    H712884   4.411   2.860  15.820 -0.4688  2.1887 -2.8757
  875MPD2     C12885   0.922   1.487  14.065 -0.4567  0.2708  0.0812
  875MPD2    C112886   0.796   1.478  14.119 -0.3325  0.6828 -0.3357
  875MPD2    C212887   0.785   1.489  14.262  0.3413 -0.7776 -0.2531
  875MPD2    C312888   0.903   1.515  14.336  0.3697 -0.6284  0.0640
  875MPD2    C412889   1.018   1.550  14.272 -0.8133 -0.5978  0.8770
  875MPD2    C512890   1.028   1.532  14.132  0.1842 -0.0919 -0.4463
  875MPD2     H12891   0.691   1.476  14.314  0.3289  2.2652  0.5072
  875MPD2    H112892   1.107   1.564  14.332  0.7148  0.7504 -1.7108
  875MPD2    H212893   0.945   1.467  13.961  0.1097 -0.9374  0.4319
  875MPD2    H312894   1.124   1.547  14.084  0.7294 -1.3878  0.2545
  875MPD2     N12895   0.906   1.511  14.481 -0.2213  0.0532 -0.1959
  875MPD2    H512896   0.985   1.563  14.519 -1.2245  0.4833  1.2673
  875MPD2    N112897   0.689   1.426  14.043 -0.1039  0.0879  0.1356
  875MPD2    H712898   0.600   1.412  14.090  0.3888 -0.6904  0.8194
  876MPD2     C12899   4.204   2.611  15.552 -1.2995 -0.4009  0.1813
  876MPD2    C112900   4.345   2.619  15.564  0.3573  0.4137 -0.1384
  876MPD2    C212901   4.412   2.523  15.640  0.0786 -0.5402 -0.9537
  876MPD2    C312902   4.345   2.410  15.691  0.0104 -0.4117 -0.1373
  876MPD2    C412903   4.207   2.403  15.667  0.3326  0.4210  0.1521
  876MPD2    C512904   4.140   2.504  15.603 -0.6691  0.4825 -0.8123
  876MPD2     H12905   4.516   2.545  15.663 -0.5126  1.2121  0.0371
  876MPD2    H112906   4.153   2.321  15.712 -0.5639  1.4053  0.8893
  876MPD2    H212907   4.155   2.694  15.503  0.0991  0.1676 -0.2387
  876MPD2    H312908   4.033   2.490  15.600 -0.1785 -2.8184 -3.1730
  876MPD2     N12909   4.417   2.330  15.780  0.3019  0.0914 -0.1829
  876MPD2    H512910   4.515   2.348  15.795  0.3721 -0.4078 -0.0487
  876MPD2    N112911   4.409   2.740  15.518 -0.1634  0.7040  1.0382
  876MPD2    H712912   4.342   2.814  15.504  0.4217  0.9404 -0.5054
  877MPD2     C12913   4.107   3.180  15.001 -0.2574  0.6861  0.1153
  877MPD2    C112914   4.242   3.190  14.982  0.3442  0.1224  0.2516
  877MPD2    C212915   4.301   3.261  14.879 -0.1932 -0.0147 -1.2952
  877MPD2    C312916   4.228   3.308  14.771 -0.4429 -0.3592 -0.8147
  877MPD2    C412917   4.088   3.304  14.779 -0.0595 -0.5149 -0.2330
  877MPD2    C512918   4.037   3.243  14.893  0.5277 -0.1781  0.2905
  877MPD2     H12919   4.410   3.259  14.878 -0.1868  0.4500 -1.5932
  877MPD2    H112920   4.020   3.350  14.709 -0.1903 -0.0218  0.2200
  877MPD2    H212921   4.059   3.135  15.086  0.9839 -0.0568  0.4178
  877MPD2    H312922   3.931   3.253  14.914  0.4205  0.7196 -0.6902
  877MPD2     N12923   4.294   3.366  14.661  0.0060  0.3188  0.2764
  877MPD2    H512924   4.244   3.364  14.573  0.3606  2.6474  0.0186
  877MPD2    N112925   4.333   3.132  15.074 -0.0435  0.2850  0.2337
  877MPD2    H712926   4.431   3.143  15.051 -1.1757  3.4749 -3.0230
  878MPD2     C12927   3.753   2.972  12.856  0.8565  0.2123 -0.1615
  878MPD2    C112928   3.828   2.867  12.898  0.4200  0.9865  0.1954
  878MPD2    C212929   3.798   2.819  13.024  0.2725 -0.3415 -1.0294
  878MPD2    C312930   3.697   2.879  13.100 -0.4947 -0.8863  0.6564
  878MPD2    C412931   3.626   2.984  13.047  0.8794  0.2039  0.0010
  878MPD2    C512932   3.655   3.035  12.924 -0.2549  0.6264 -0.0866
  878MPD2     H12933   3.850   2.731  13.062 -0.4533  0.4327  1.7453
  878MPD2    H112934   3.537   3.024  13.094  0.5754 -1.4845  0.8609
  878MPD2    H212935   3.768   3.011  12.756  0.7896  0.8461  0.0756
  878MPD2    H312936   3.593   3.118  12.891 -0.0058  0.3291 -1.3074
  878MPD2     N12937   3.663   2.830  13.227 -0.0918  0.0608  0.1599
  878MPD2    H512938   3.717   2.751  13.261  1.4815  2.4474  3.2492
  878MPD2    N112939   3.922   2.821  12.799 -0.0410 -0.3997 -0.5322
  878MPD2    H712940   3.936   2.886  12.723  3.1531 -0.0137  0.3674
  879MPD2     C12941   0.290   3.426  16.643 -0.3207  1.0003 -0.0058
  879MPD2    C112942   0.187   3.512  16.606 -0.1620  0.3291 -0.3834
  879MPD2    C212943   0.114   3.473  16.494  0.4684 -0.0681  0.3161
  879MPD2    C312944   0.131   3.354  16.429  0.2106  0.0999  0.0752
  879MPD2    C412945   0.232   3.275  16.467  0.2466 -0.4257  0.4101
  879MPD2    C512946   0.314   3.310  16.570  0.2111 -0.5076  0.2093
  879MPD2     H12947   0.026   3.533  16.479  0.0585 -1.3876 -2.5894
  879MPD2    H112948   0.263   3.184  16.417  0.3949  0.5632 -1.2970
  879MPD2    H212949   0.358   3.453  16.723 -0.3209 -0.6583  0.5385
  879MPD2    H312950   0.404   3.253  16.587  0.7280  0.4579  0.7055
  879MPD2     N12951   0.053   3.318  16.312 -0.0033  0.4378 -0.5940
  879MPD2    H512952   0.072   3.225  16.277  0.3108  0.3613 -0.2218
  879MPD2    N112953   0.162   3.622  16.691 -0.5255 -0.0129 -0.1511
  879MPD2    H712954   0.215   3.637  16.775  0.7892 -3.7676 -0.3098
  880MPD2     C12955   0.898   0.408   0.028 -0.6554 -0.2161 -0.0937
  880MPD2    C112956   0.985   0.480   0.110 -0.5788 -0.7217  0.3679
  880MPD2    C212957   1.077   0.400   0.183 -0.4777 -0.1108 -0.7717
  880MPD2    C312958   1.080   0.262   0.163  0.4223  0.0247 -0.4327
  880MPD2    C412959   0.998   0.201   0.072 -0.6379 -0.1209  0.3940
  880MPD2    C512960   0.898   0.275   0.018  0.4955 -0.0080 -0.9509
  880MPD2     H12961   1.143   0.445   0.257  0.1701 -4.8918  1.5482
  880MPD2    H112962   1.002   0.095   0.050 -1.3635  0.5974 -3.1996
  880MPD2    H212963   0.831   0.475  17.716 -1.6008  0.0665  1.4630
  880MPD2    H312964   0.825   0.225  17.695  0.6943 -0.5366 -0.7695
  880MPD2     N12965   1.168   0.191   0.246 -0.5245 -0.2441  0.0316
  880MPD2    H512966   1.201   0.247   0.324  3.3392 -0.5739 -1.3520
  880MPD2    N112967   0.982   0.621   0.108 -0.1949 -0.1821  0.2453
  880MPD2    H712968   0.907   0.661   0.053  0.6146 -0.2376 -0.8831
  881MPD2     C12969   1.492   1.581   0.025  0.2829 -0.1808  0.3369
  881MPD2    C112970   1.487   1.467  17.688  0.1824  0.3499  0.4239
  881MPD2    C212971   1.427   1.357  17.740  0.3115 -0.8142  0.4191
  881MPD2    C312972   1.387   1.350   0.129  0.7511  0.2612  0.5997
  881MPD2    C412973   1.415   1.458   0.213  0.1037  0.2354  0.2191
  881MPD2    C512974   1.468   1.578   0.159 -0.7322 -0.5302 -0.3969
  881MPD2     H12975   1.420   1.267  17.680 -0.6967 -0.7469  0.4318
  881MPD2    H112976   1.393   1.443   0.318 -2.7211 -0.6032 -0.5084
  881MPD2    H212977   1.535   1.671  17.722  0.3623  0.6470  2.1440
  881MPD2    H312978   1.473   1.672   0.212  2.4561 -0.9772  0.0761
  881MPD2     N12979   1.327   1.232   0.178  0.2089 -0.0819  0.6374
  881MPD2    H512980   1.315   1.227   0.279  0.5497  4.7892  0.9261
  881MPD2    N112981   1.500   1.495  17.549 -0.2889  0.6021  0.4189
  881MPD2    H712982   1.521   1.589  17.520  1.1575  0.2230  0.2448
  882MPD2     C12983   4.368   3.386  13.831  0.1945 -0.0880 -0.3063
  882MPD2    C112984   4.309   3.439  13.944  0.4646 -0.8189  0.0803
  882MPD2    C212985   4.173   3.472  13.932  0.2011 -0.7651  0.0445
  882MPD2    C312986   4.098   3.450  13.817  0.2241  0.0891  1.3693
  882MPD2    C412987   4.157   3.390  13.709  0.5361  0.3788  0.3575
  882MPD2    C512988   4.288   3.358  13.722  0.1605 -0.3398  0.7485
  882MPD2     H12989   4.128   3.512  14.022  1.6123 -1.0873  0.8935
  882MPD2    H112990   4.109   3.387  13.612  1.6856 -2.5081 -0.1323
  882MPD2    H212991   4.474   3.367  13.825  0.2723  0.4763 -0.7478
  882MPD2    H312992   4.345   3.323  13.636 -1.7134 -0.7290 -0.3402
  882MPD2     N12993   3.965   3.491  13.784 -0.4214 -0.2029  0.0382
  882MPD2    H512994   3.925   3.479  13.691  1.1005  2.0697 -0.8792
  882MPD2    N112995   4.391   3.440  14.060 -0.2087 -0.0171  0.5092
  882MPD2    H712996   4.471   3.378  14.055  0.7272  1.1635  0.7959
  883MPD2     C12997   1.268   3.342  15.416 -0.0406  0.5974  0.2040
  883MPD2    C112998   1.390   3.282  15.366 -0.6404  0.2967  0.1849
  883MPD2    C212999   1.510   3.324  15.429  0.3723  0.1626  0.1977
  883MPD2    C313000   1.509   3.415  15.534  0.5623 -0.4571  0.3621
  883MPD2    C413001   1.391   3.475  15.574 -0.4953  0.6040 -0.3544
  883MPD2    C513002   1.275   3.427  15.522 -0.0677 -0.7386 -0.0545
  883MPD2     H13003   1.601   3.287  15.384  0.8708  0.4505  0.9550
  883MPD2    H113004   1.394   3.557  15.644  0.5312  0.7070 -0.5196
  883MPD2    H213005   1.166   3.324  15.384 -0.1735 -0.0365  0.9920
  883MPD2    H313006   1.186   3.481  15.553  1.3683  1.6088 -0.0336
  883MPD2     N13007   1.637   3.443  15.587  0.5176 -0.7107  0.8814
  883MPD2    H513008   1.713   3.390  15.546 -2.0795 -2.9343 -1.0247
  883MPD2    N113009   1.390   3.184  15.268  0.9890 -0.3791  0.1171
  883MPD2    H713010   1.473   3.126  15.259 -0.5530 -2.8484  1.8674
  884MPD2     C13011   3.714   4.209  14.932 -0.3041 -0.2586  0.4635
  884MPD2    C113012   3.661   4.308  14.855 -0.0989  0.1089 -0.3595
  884MPD2    C213013   3.534   4.352  14.880  0.5073 -0.1351 -0.1173
  884MPD2    C313014   3.457   4.288  14.973 -0.1257  0.0632 -0.2829
  884MPD2    C413015   3.515   4.188  15.049  0.3498 -0.4507  0.0830
  884MPD2    C513016   3.644   4.156  15.034  0.1434 -0.7879 -0.5842
  884MPD2     H13017   3.485   4.434  14.830 -1.3123 -0.3805  1.2470
  884MPD2    H113018   3.460   4.142  15.131 -1.1366  0.6185 -0.3127
  884MPD2    H213019   3.817   4.178  14.917 -0.0057  1.1206 -0.2547
  884MPD2    H313020   3.693   4.080  15.093 -1.5677 -1.4921 -0.0519
  884MPD2     N13021   3.328   4.335  14.992 -0.7783  0.7935 -0.3102
  884MPD2    H513022   3.319   4.425  14.946 -3.0841  0.8053  0.1494
  884MPD2    N113023   3.722   4.373  14.740 -0.4000  0.0404  0.0118
  884MPD2    H713024   3.675   4.449  14.692 -0.2071  1.4349  2.0390
  885MPD2     C13025   1.451   4.200   0.096  0.4393  0.1244  0.1878
  885MPD2    C113026   1.566   4.171   0.024 -0.0110  0.0467 -0.2658
  885MPD2    C213027   1.574   4.183  17.631 -0.0136  0.5937  0.3972
  885MPD2    C313028   1.458   4.217  17.555 -0.0293 -0.1302 -0.2960
  885MPD2    C413029   1.342   4.229  17.630 -0.1842  0.0507 -0.7262
  885MPD2    C513030   1.341   4.216   0.021 -0.8190  0.3602 -0.5152
  885MPD2     H13031   1.669   4.168  17.582  0.9810  1.7573  1.9431
  885MPD2    H113032   1.241   4.244  17.592 -0.2177 -1.7024 -1.2808
  885MPD2    H213033   1.436   4.184   0.202  1.6482 -0.7287  0.2346
  885MPD2    H313034   1.245   4.228   0.071  0.4563  0.0538  1.9658
  885MPD2     N13035   1.473   4.226  17.414  0.2456  0.1027  0.2962
  885MPD2    H513036   1.560   4.201  17.369  0.0474  0.2076 -0.1450
  885MPD2    N113037   1.681   4.158   0.108  0.4526  0.1501  0.3068
  885MPD2    H713038   1.665   4.170   0.208 -0.8587 -0.7468  0.2078
  886MPD2     C13039   2.789   2.790  15.334 -0.0595  0.6245  0.2277
  886MPD2    C113040   2.910   2.852  15.372  0.6273  0.9468  0.3428
  886MPD2    C213041   2.966   2.950  15.294 -0.3434 -0.6713 -0.2452
  886MPD2    C313042   2.906   2.982  15.173  0.0467 -0.4100  0.8911
  886MPD2    C413043   2.783   2.932  15.137 -0.0004 -0.5555 -0.4690
  886MPD2    C513044   2.729   2.833  15.219 -0.1526 -0.1560 -0.0666
  886MPD2     H13045   3.056   2.998  15.331 -0.5176  1.0735 -2.0937
  886MPD2    H113046   2.745   2.952  15.037  2.7523  1.0479 -1.1683
  886MPD2    H213047   2.739   2.703  15.375 -1.0110  0.3818 -1.4446
  886MPD2    H313048   2.638   2.778  15.197  0.6476 -0.9443 -1.4354
  886MPD2     N13049   2.969   3.063  15.068  0.1176 -0.5416  0.1876
  886MPD2    H513050   2.922   3.094  14.983  0.3624  0.4679  0.4100
  886MPD2    N113051   2.986   2.802  15.481  0.3250 -0.0471  0.0319
  886MPD2    H713052   3.080   2.839  15.480  0.9101 -1.5301 -0.0215
  887MPD2     C13053   3.644   2.624  15.441  1.0016 -0.3637 -0.0899
  887MPD2    C113054   3.587   2.720  15.519 -0.3961 -0.1522  0.1552
  887MPD2    C213055   3.628   2.848  15.504  1.0818  0.5367 -0.3883
  887MPD2    C313056   3.719   2.885  15.408 -1.2663  0.2133 -0.5142
  887MPD2    C413057   3.768   2.787  15.322 -0.2747  0.2982 -0.6464
  887MPD2    C513058   3.739   2.656  15.348  0.0647 -0.1859  0.1076
  887MPD2     H13059   3.580   2.928  15.560  0.5774  0.4785 -0.7408
  887MPD2    H113060   3.837   2.810  15.243  0.0329  0.3981 -0.3497
  887MPD2    H213061   3.628   2.517  15.448 -1.0270 -0.0568 -0.0430
  887MPD2    H313062   3.774   2.575  15.286 -1.5882  1.6008 -3.2005
  887MPD2     N13063   3.756   3.022  15.400  0.2329 -0.2360 -0.1971
  887MPD2    H513064   3.743   3.088  15.476 -1.0804 -3.8591  2.7124
  887MPD2    N113065   3.477   2.690  15.600  0.2026  0.3874  0.4469
  887MPD2    H713066   3.427   2.763  15.649  1.1888 -1.0979  3.6423
  888MPD2     C13067   0.678   2.892  14.488 -0.4535  0.3011 -0.5547
  888MPD2    C113068   0.641   2.952  14.602  0.3776  0.1132  0.0257
  888MPD2    C213069   0.695   3.075  14.629 -0.1021 -0.0320 -0.2823
  888MPD2    C313070   0.776   3.138  14.543  0.2766 -0.2186 -0.0045
  888MPD2    C413071   0.803   3.080  14.420 -0.2532 -0.2992  0.4319
  888MPD2    C513072   0.767   2.951  14.400  0.4976 -0.2680  0.0157
  888MPD2     H13073   0.664   3.122  14.721 -0.0764 -2.1348  0.8157
  888MPD2    H113074   0.860   3.126  14.340 -1.6748  0.0575 -0.3843
  888MPD2    H213075   0.650   2.789  14.469  1.7185 -0.2649 -0.6846
  888MPD2    H313076   0.779   2.906  14.303 -0.6419 -1.0345  0.2287
  888MPD2     N13077   0.817   3.266  14.580  0.0888  0.0673  0.2083
  888MPD2    H513078   0.794   3.297  14.673  3.0807 -0.8995  1.2662
  888MPD2    N113079   0.581   2.894  14.711  0.4121  0.3125  0.0661
  888MPD2    H713080   0.583   2.944  14.799  1.4285  0.1670  0.1237
  889MPD2     C13081   4.421   2.303  12.940  0.1702 -0.5620 -0.6111
  889MPD2    C113082   4.556   2.322  12.952 -0.0767  0.6279 -0.1716
  889MPD2    C213083   4.598   2.456  12.960  0.2346 -0.6638  0.0827
  889MPD2    C313084   4.519   2.561  12.992 -0.0857 -0.0711  0.5865
  889MPD2    C413085   4.383   2.525  12.994  0.1940 -0.3028 -0.0441
  889MPD2    C513086   4.335   2.396  12.985  0.3112  0.3983 -0.1443
  889MPD2     H13087   4.704   2.472  12.972  0.2558  0.4203 -1.5800
  889MPD2    H113088   4.307   2.601  13.008 -0.3681 -0.9404  0.3378
  889MPD2    H213089   4.377   2.204  12.929 -1.5979  0.3350 -1.6632
  889MPD2    H313090   4.227   2.386  12.987  0.3263 -0.1054 -2.5459
  889MPD2     N13091   4.576   2.689  13.024 -0.1026  0.1169  0.0710
  889MPD2    H513092   4.672   2.700  13.055  0.6067  1.1431 -2.4748
  889MPD2    N113093   4.635   2.213  12.912  0.7720  0.0574  0.3706
  889MPD2    H713094   4.590   2.122  12.901  0.3795  0.1970  0.8531
  890MPD2     C13095   4.289   3.958  14.167  0.7954  0.1369 -0.2833
  890MPD2    C113096   4.421   3.954  14.141 -0.2418 -0.1769  0.2078
  890MPD2    C213097   4.507   3.881  14.211  0.0249  0.4627 -0.6983
  890MPD2    C313098   4.466   3.827  14.329  0.3828 -0.4160 -0.4605
  890MPD2    C413099   4.331   3.825  14.358  0.4022  0.2407 -0.3729
  890MPD2    C513100   4.240   3.881  14.267 -0.5297 -0.0211 -0.0053
  890MPD2     H13101   4.613   3.899  14.196  0.5541 -1.6224  0.5532
  890MPD2    H113102   4.282   3.769  14.437 -1.7863  0.2041 -1.7744
  890MPD2    H213103   4.224   4.000  14.091  0.1209 -1.6506 -0.7087
  890MPD2    H313104   4.136   3.858  14.288 -0.8893  0.8574 -0.8540
  890MPD2     N13105   4.560   3.771  14.417 -0.6662 -0.2984 -1.0033
  890MPD2    H513106   4.655   3.772  14.381 -0.2088  0.0674  0.1941
  890MPD2    N113107   4.472   4.043  14.047  0.3662 -0.5545 -1.0260
  890MPD2    H713108   4.408   4.110  14.005  1.0325 -1.2527 -3.1492
  891MPD2     C13109   2.987   2.781  16.825  0.4133  0.0720  0.5772
  891MPD2    C113110   2.892   2.756  16.909  0.1321  0.2990 -0.0036
  891MPD2    C213111   2.915   2.676  17.017  0.9727  0.5114 -0.1019
  891MPD2    C313112   3.041   2.628  17.041  0.2834  0.0279 -0.1434
  891MPD2    C413113   3.137   2.649  16.945 -0.2586  0.2690  0.3531
  891MPD2    C513114   3.108   2.718  16.837 -0.1362 -0.4576  0.1261
  891MPD2     H13115   2.832   2.659  17.085  0.4505  1.8348 -0.4064
  891MPD2    H113116   3.240   2.615  16.951 -1.0024 -2.3135 -1.3033
  891MPD2    H213117   2.970   2.848  16.741 -0.9071 -0.4326  0.4433
  891MPD2    H313118   3.187   2.737  16.765  0.1928  1.2874  0.9444
  891MPD2     N13119   3.066   2.547  17.153  0.2633  0.2672  0.0669
  891MPD2    H513120   2.983   2.495  17.178 -0.0588  0.7181 -0.0552
  891MPD2    N113121   2.772   2.830  16.895 -0.1408  0.0923  0.0895
  891MPD2    H713122   2.769   2.903  16.825  0.6411 -1.0235 -1.1149
  892MPD2     C13123   3.494   3.623  14.636 -0.4374  0.9589  0.1137
  892MPD2    C113124   3.401   3.677  14.542 -0.3336  0.3911 -0.1751
  892MPD2    C213125   3.421   3.657  14.402 -0.8510 -0.1298  0.7273
  892MPD2    C313126   3.526   3.578  14.361 -1.0457  0.1086  0.3303
  892MPD2    C413127   3.602   3.514  14.456 -0.5172  0.4311 -0.0874
  892MPD2    C513128   3.584   3.527  14.591 -0.2539 -0.5135  0.2626
  892MPD2     H13129   3.362   3.715  14.332  2.9202  0.6160 -1.8523
  892MPD2    H113130   3.678   3.443  14.426 -0.4337  1.2763 -1.9015
  892MPD2    H213131   3.491   3.639  14.743 -0.8500 -2.1571  0.5676
  892MPD2    H313132   3.651   3.473  14.655 -2.1450 -2.1300  0.8756
  892MPD2     N13133   3.570   3.569  14.226  0.1172 -0.1106 -0.2700
  892MPD2    H513134   3.655   3.519  14.202 -0.7839 -1.8349  0.1808
  892MPD2    N113135   3.289   3.747  14.593 -0.6328  0.2075  0.1946
  892MPD2    H713136   3.256   3.821  14.531 -0.7845  0.6696  0.8281
  893MPD2     C13137   0.144   1.733   1.543 -0.1819  0.8777 -0.4652
  893MPD2    C113138   0.161   1.807   1.426 -0.3956  0.2749 -0.1863
  893MPD2    C213139   0.079   1.922   1.408 -0.5272 -0.7055 -0.4570
  893MPD2    C313140   4.701   1.944   1.483  0.3260 -0.2127 -0.5614
  893MPD2    C413141   4.682   1.858   1.585  0.1227 -0.0594  0.8000
  893MPD2    C513142   0.032   1.759   1.615  0.4441  0.1678 -0.3007
  893MPD2     H13143   0.094   1.980   1.317  2.9708 -0.2219  0.4369
  893MPD2    H113144   4.589   1.874   1.638 -0.7946 -0.8035 -0.6015
  893MPD2    H213145   0.211   1.654   1.573 -0.7121  1.3638  2.0202
  893MPD2    H313146   0.014   1.681   1.687  0.5369 -0.1187 -0.5866
  893MPD2     N13147   4.612   2.053   1.451  0.1039 -0.2136  0.9712
  893MPD2    H513148   4.523   2.058   1.500 -1.2179  0.1946 -1.4520
  893MPD2    N113149   0.274   1.783   1.355 -0.2701  0.1890 -0.5760
  893MPD2    H713150   0.336   1.708   1.385 -1.5030 -1.3468 -1.8319
  894MPD2     C13151   3.101   3.641   0.802  0.6377 -0.0373 -0.2719
  894MPD2    C113152   2.983   3.716   0.819 -0.1846 -0.2421  0.2113
  894MPD2    C213153   2.994   3.850   0.792  0.4019 -0.4276  0.5686
  894MPD2    C313154   3.107   3.914   0.751  0.2724  0.6098 -0.1769
  894MPD2    C413155   3.222   3.840   0.750  0.2329 -0.5443 -0.4141
  894MPD2    C513156   3.217   3.706   0.767  0.5121  0.2339  0.2461
  894MPD2     H13157   2.913   3.921   0.812 -0.2466 -0.4641 -1.9351
  894MPD2    H113158   3.315   3.884   0.717 -0.1115 -0.4188 -1.2348
  894MPD2    H213159   3.107   3.532   0.801  0.7973 -0.0003 -2.7208
  894MPD2    H313160   3.302   3.641   0.749 -0.8374 -0.8843 -2.1836
  894MPD2     N13161   3.100   4.054   0.720 -0.4805  0.3313  0.6022
  894MPD2    H513162   3.010   4.098   0.733 -1.7473 -1.8018 -1.0056
  894MPD2    N113163   2.862   3.658   0.864 -0.1291 -0.2697  0.4722
  894MPD2    H713164   2.780   3.715   0.847 -0.6813 -1.0693  0.5051
  895MPD2     C13165   3.165   3.325  12.837  0.0399 -0.2827 -0.0411
  895MPD2    C113166   3.028   3.355  12.872  0.0116 -0.4835 -0.5811
  895MPD2    C213167   2.951   3.259  12.938 -0.5333 -0.2175 -0.2576
  895MPD2    C313168   3.006   3.139  12.947 -0.5884 -0.3067  0.4395
  895MPD2    C413169   3.136   3.113  12.922  0.0707 -0.2914 -0.0275
  895MPD2    C513170   3.218   3.208  12.880  0.0975 -0.0450 -0.5610
  895MPD2     H13171   2.853   3.293  12.969 -0.8910 -0.1857 -1.4050
  895MPD2    H113172   3.178   3.014  12.937  0.3804  0.0902  1.6708
  895MPD2    H213173   3.232   3.398  12.793  0.0521  0.1189  0.6427
  895MPD2    H313174   3.325   3.190  12.873  0.5585  2.3817 -0.0087
  895MPD2     N13175   2.921   3.040  12.997  0.0406  0.2403  0.0585
  895MPD2    H513176   2.828   3.070  13.021  0.0558  0.9914 -0.8068
  895MPD2    N113177   2.973   3.472  12.839 -0.4986  0.0269 -0.6170
  895MPD2    H713178   2.880   3.492  12.874 -0.1493  0.1181  0.2511
  896MPD2     C13179   0.757   4.698   1.242  0.3947  0.3480  0.2022
  896MPD2    C113180   0.719   0.013   1.123 -0.5443 -0.2876  0.0547
  896MPD2    C213181   0.585   0.019   1.094 -0.1676  0.2945 -0.8097
  896MPD2    C313182   0.486   4.707   1.178 -0.0993  0.4140  0.2281
  896MPD2    C413183   0.528   4.659   1.307 -0.3970 -0.2422  0.8419
  896MPD2    C513184   0.661   4.663   1.334 -0.3407 -0.6710 -0.2669
  896MPD2     H13185   0.555   0.051   0.995 -0.5800  1.4555 -0.3029
  896MPD2    H113186   0.462   4.609   1.378  0.8820 -1.0333  1.4622
  896MPD2    H213187   0.861   4.703   1.271  0.0683 -0.9162  1.6167
  896MPD2    H313188   0.687   4.618   1.428  2.9752 -1.1822 -1.4257
  896MPD2     N13189   0.350   4.720   1.143  0.1599  0.4313  0.3280
  896MPD2    H513190   0.330   0.011   1.047 -1.5673 -0.0591  0.5421
  896MPD2    N113191   0.825   0.055   1.029 -0.6540  0.9181 -0.2557
  896MPD2    H713192   0.918   0.065   1.070 -0.6771 -0.6704  0.1708
  897MPD2     C13193   1.889   2.848  10.181 -0.1906  0.4704 -0.7697
  897MPD2    C113194   1.805   2.828  10.079 -0.0158  0.9441  0.2345
  897MPD2    C213195   1.686   2.762  10.098 -0.3827 -1.2161  0.0662
  897MPD2    C313196   1.637   2.732  10.223 -0.3349 -0.6465 -0.5380
  897MPD2    C413197   1.728   2.764  10.322  0.3063  0.1240 -0.0090
  897MPD2    C513198   1.854   2.816  10.305 -0.4336  0.0313  0.7926
  897MPD2     H13199   1.612   2.759  10.019 -0.6315 -0.6037  0.2771
  897MPD2    H113200   1.702   2.758  10.427  2.2963  0.8703  0.5340
  897MPD2    H213201   1.975   2.915  10.173 -1.2515  1.9747  0.3832
  897MPD2    H313202   1.919   2.859  10.379  1.1282 -0.2653 -0.4084
  897MPD2     N13203   1.507   2.680  10.244 -0.1204 -0.5932 -0.1124
  897MPD2    H513204   1.452   2.675  10.159  0.9217  0.6402 -0.8411
  897MPD2    N113205   1.842   2.879   9.954  0.7285  0.3905 -0.4729
  897MPD2    H713206   1.925   2.937   9.952  0.6848  0.4709  0.1662
  898MPD2     C13207   2.709   2.973  17.282 -0.4459  0.7383 -0.5212
  898MPD2    C113208   2.815   3.042  17.239  0.2647  0.6176  0.4356
  898MPD2    C213209   2.798   3.172  17.189  0.9301  0.3340  0.3985
  898MPD2    C313210   2.671   3.220  17.175  0.5269 -0.0890  0.6914
  898MPD2    C413211   2.562   3.140  17.203  0.0980 -0.2476  0.5823
  898MPD2    C513212   2.585   3.016  17.261  0.0667 -0.4701 -0.7071
  898MPD2     H13213   2.883   3.235  17.167 -0.5352  2.4168  0.7105
  898MPD2    H113214   2.455   3.154  17.191 -0.0474 -2.3712 -0.6350
  898MPD2    H213215   2.729   2.872  17.316  2.2167  1.4468 -0.0240
  898MPD2    H313216   2.500   2.955  17.291 -2.0954  1.9597 -1.8986
  898MPD2     N13217   2.658   3.351  17.119  0.6568 -0.0338  0.5650
  898MPD2    H513218   2.746   3.388  17.085  0.3100  1.4756  1.3382
  898MPD2    N113219   2.951   2.995  17.250  0.1572 -0.5795  0.5783
  898MPD2    H713220   3.021   3.054  17.207 -0.1139  0.4084  1.4987
  899MPD2     C13221   3.678   3.672  16.967  0.3482 -0.0407  0.1261
  899MPD2    C113222   3.719   3.801  16.989  0.1046 -0.1772  0.2810
  899MPD2    C213223   3.685   3.865  17.106  0.3629 -0.4607  0.1032
  899MPD2    C313224   3.600   3.806  17.203  0.1252  0.4690 -0.3344
  899MPD2    C413225   3.566   3.671  17.185 -0.1235  0.8321  0.7449
  899MPD2    C513226   3.603   3.612  17.062  0.1719 -0.2894  0.7573
  899MPD2     H13227   3.726   3.964  17.117 -0.9305  0.1645 -0.7202
  899MPD2    H113228   3.507   3.614  17.255 -0.9227  0.4389 -0.2414
  899MPD2    H213229   3.709   3.620  16.877 -1.5870 -0.3947 -0.3291
  899MPD2    H313230   3.573   3.510  17.039  1.9100 -0.7478  0.5511
  899MPD2     N13231   3.564   3.865  17.330  0.0362 -0.2919 -0.3961
  899MPD2    H513232   3.506   3.805  17.387 -1.7965  0.7165 -1.1940
  899MPD2    N113233   3.813   3.852  16.892 -0.5005 -0.8026  0.1863
  899MPD2    H713234   3.822   3.808  16.801 -1.3202  0.3272 -0.4536
  900MPD2     C13235   4.095   0.162  12.638  0.3919 -0.3156 -0.0259
  900MPD2    C113236   4.060   0.065  12.556  0.2087  0.0301  0.7712
  900MPD2    C213237   3.958   0.085  12.469  0.1440  0.4552 -0.4538
  900MPD2    C313238   3.894   0.209  12.456  0.1035 -0.9081 -0.6040
  900MPD2    C413239   3.922   0.299  12.551 -0.3487  0.2649 -0.5939
  900MPD2    C513240   4.022   0.278  12.638 -0.1063  0.3218 -0.3262
  900MPD2     H13241   3.946   0.011  12.390 -0.6733 -0.7442  0.8156
  900MPD2    H113242   3.887   0.401  12.547 -0.8758  0.1704  1.5494
  900MPD2    H213243   4.168   0.141  12.715  0.5982  0.5149  0.0047
  900MPD2    H313244   4.048   0.357  12.708 -1.2931  0.9276 -0.5725
  900MPD2     N13245   3.810   0.233  12.347 -0.3870 -0.5472  0.3662
  900MPD2    H513246   3.821   0.164  12.273 -0.3214  0.4519 -0.5519
  900MPD2    N113247   4.138   4.681  12.560 -0.0360 -0.1250 -0.3905
  900MPD2    H713248   4.229   4.684  12.606 -0.6604  0.6368  0.8147
  901MPD2     C13249   3.910   3.724  12.392  0.2280 -0.3578  0.2782
  901MPD2    C113250   4.031   3.758  12.329 -0.1383  0.0596 -0.1259
  901MPD2    C213251   4.104   3.869  12.374  0.5183  0.9539 -0.3158
  901MPD2    C313252   4.055   3.945  12.471  0.5086  0.7918 -0.8935
  901MPD2    C413253   3.938   3.913  12.535  0.8836  0.4235 -0.1651
  901MPD2    C513254   3.866   3.803  12.497  0.2890  0.1475  0.0201
  901MPD2     H13255   4.190   3.887  12.311  1.4580 -2.9606 -0.1606
  901MPD2    H113256   3.893   3.983  12.605  1.5094  0.0025  0.6628
  901MPD2    H213257   3.844   3.641  12.373  0.4871 -0.9385  1.9532
  901MPD2    H313258   3.765   3.775  12.522  0.4285  0.4284  0.9017
  901MPD2     N13259   4.117   4.063  12.519  0.5873  0.4346  0.3331
  901MPD2    H513260   4.073   4.122  12.588 -1.7054 -1.6404  0.6305
  901MPD2    N113261   4.075   3.700  12.211 -0.6422  0.1559  0.2100
  901MPD2    H713262   4.161   3.738  12.172 -0.3271 -0.2584  0.5110
  902MPD2     C13263   3.060   3.252  12.485 -0.0403  0.0335  0.2622
  902MPD2    C113264   3.002   3.283  12.363 -0.3595 -0.4447  0.3193
  902MPD2    C213265   2.951   3.182  12.286 -0.3286 -0.0850  0.3203
  902MPD2    C313266   2.953   3.050  12.333 -0.0737 -0.3949  0.2444
  902MPD2    C413267   2.999   3.022  12.457 -0.4233 -0.0789  0.4245
  902MPD2    C513268   3.052   3.124  12.529 -0.5062 -0.6188 -0.1067
  902MPD2     H13269   2.911   3.221  12.193  0.2692  2.4017  1.1040
  902MPD2    H113270   3.004   2.921  12.495 -3.7170 -0.2835  0.2980
  902MPD2    H213271   3.103   3.324  12.554  1.1072 -0.3788 -0.0286
  902MPD2    H313272   3.085   3.093  12.627  2.5606  1.1151 -0.5879
  902MPD2     N13273   2.907   2.935  12.264  0.0311 -0.2428  0.2593
  902MPD2    H513274   2.917   2.843  12.306 -1.5542 -0.3072  0.5059
  902MPD2    N113275   2.998   3.413  12.308 -0.5222 -0.3909 -0.0318
  902MPD2    H713276   2.941   3.424  12.224 -0.5968 -1.9417 -0.1983
  903MPD2     C13277   3.109   2.735  11.419 -0.1169  0.1560 -0.5357
  903MPD2    C113278   2.996   2.792  11.475  0.0156 -0.1408  0.3088
  903MPD2    C213279   2.911   2.866  11.399 -0.4972 -0.3926 -0.0169
  903MPD2    C313280   2.942   2.883  11.268 -0.2018 -1.0355  0.3600
  903MPD2    C413281   3.049   2.816  11.208 -0.8966 -0.0393  0.4156
  903MPD2    C513282   3.127   2.730  11.283  0.8684  0.2606 -0.5158
  903MPD2     H13283   2.827   2.925  11.434 -0.9921 -0.8131 -0.4944
  903MPD2    H113284   3.082   2.823  11.105  0.8875  0.1836  1.0075
  903MPD2    H213285   3.185   2.679  11.472 -0.7535  1.6807  2.0155
  903MPD2    H313286   3.216   2.681  11.246  0.2147 -0.9930 -0.4092
  903MPD2     N13287   2.857   2.962  11.188  0.0580 -0.1898 -0.0362
  903MPD2    H513288   2.783   3.016  11.232 -0.1651 -0.6161  0.1097
  903MPD2    N113289   2.985   2.781  11.614 -0.6771 -0.2415 -0.4524
  903MPD2    H713290   3.057   2.725  11.657  1.0633  1.4406 -1.1482
  904MPD2     C13291   2.247   2.185  13.710 -0.0046  0.1825  0.1231
  904MPD2    C113292   2.301   2.313  13.723 -0.0039  0.5944 -0.1039
  904MPD2    C213293   2.432   2.336  13.690  0.6953  0.0840 -0.4286
  904MPD2    C313294   2.509   2.220  13.663 -0.9108  0.9757  0.0113
  904MPD2    C413295   2.454   2.089  13.659 -0.0728 -0.4239  0.3162
  904MPD2    C513296   2.323   2.081  13.675  1.0420  0.0852 -0.1711
  904MPD2     H13297   2.469   2.438  13.688  1.5832 -0.2386 -0.0583
  904MPD2    H113298   2.512   2.006  13.620 -0.7736 -0.5796 -0.4084
  904MPD2    H213299   2.139   2.175  13.714  0.0002  0.5586  1.3721
  904MPD2    H313300   2.272   1.986  13.679  1.8475 -0.2946  0.8821
  904MPD2     N13301   2.642   2.246  13.640  0.0743 -0.2197 -0.0095
  904MPD2    H513302   2.669   2.344  13.639  0.5518 -0.3571 -0.3994
  904MPD2    N113303   2.234   2.431  13.753 -0.5506  0.3634  1.4340
  904MPD2    H713304   2.281   2.514  13.788  1.1161 -0.3866  0.9943
  905MPD2     C13305   2.097   2.930  13.224 -0.3249 -0.8303  0.3642
  905MPD2    C113306   2.164   2.893  13.339  0.5159  0.3096  0.4472
  905MPD2    C213307   2.299   2.915  13.347 -1.0464 -0.3308  0.0845
  905MPD2    C313308   2.364   2.963  13.236  0.0465 -0.1313  0.5006
  905MPD2    C413309   2.299   2.998  13.125  0.1484  0.4302 -0.0743
  905MPD2    C513310   2.165   2.981  13.112  0.1449  0.0930  0.5336
  905MPD2     H13311   2.353   2.859  13.423  2.7518  2.6508 -0.3566
  905MPD2    H113312   2.354   3.036  13.040 -0.3945 -0.0752 -0.6496
  905MPD2    H213313   1.993   2.903  13.211 -1.3078  3.3598 -0.1937
  905MPD2    H313314   2.109   3.007  13.023 -0.4485  0.1664  0.9293
  905MPD2     N13315   2.503   2.949  13.226  0.0124 -0.6235  0.2379
  905MPD2    H513316   2.529   2.941  13.128  1.0635  0.4818  0.4240
  905MPD2    N113317   2.081   2.847  13.448  0.2470  0.2870  0.1912
  905MPD2    H713318   1.981   2.835  13.431  0.2285  1.7988 -0.7323
  906MPD2     C13319   0.316   2.733  10.158 -0.0196  0.0588 -0.0556
  906MPD2    C113320   0.370   2.626  10.090  0.0066 -0.4541 -0.6183
  906MPD2    C213321   0.391   2.507  10.158 -0.0575  0.0794 -0.3199
  906MPD2    C313322   0.385   2.496  10.299 -0.6522 -0.4254 -0.0135
  906MPD2    C413323   0.352   2.611  10.367 -0.0334 -0.1162  0.4418
  906MPD2    C513324   0.312   2.723  10.294 -0.1496 -0.2100 -0.2960
  906MPD2     H13325   0.431   2.423  10.102  2.1729 -0.8231  2.6753
  906MPD2    H113326   0.349   2.615  10.476  1.8158  3.5268  0.3462
  906MPD2    H213327   0.298   2.833  10.121  0.8450  0.3660  0.3417
  906MPD2    H313328   0.275   2.811  10.346 -0.0120  0.2918 -1.0527
  906MPD2     N13329   0.415   2.374  10.363 -0.9436  0.1681  0.2857
  906MPD2    H513330   0.453   2.382  10.457 -1.0535  0.5999  0.2914
  906MPD2    N113331   0.393   2.627   9.952  0.1010 -0.6845 -0.1015
  906MPD2    H713332   0.446   2.548   9.916  3.2825  1.1360  0.5103
  907MPD2     C13333   3.952   1.534  15.510  0.5710  0.8180 -1.0646
  907MPD2    C113334   3.900   1.409  15.472  0.4241 -0.0177  0.6526
  907MPD2    C213335   3.900   1.305  15.564 -0.6047 -0.0304 -0.3221
  907MPD2    C313336   3.977   1.313  15.681  0.6150 -0.5004 -0.1015
  907MPD2    C413337   4.026   1.432  15.712 -0.4952  0.5498 -0.0223
  907MPD2    C513338   4.007   1.541  15.632 -0.3712 -0.0516  0.0704
  907MPD2     H13339   3.843   1.216  15.540  0.2261 -0.5135 -0.5181
  907MPD2    H113340   4.070   1.437  15.812 -1.0158 -1.5398  0.2981
  907MPD2    H213341   3.937   1.627  15.456 -0.3760  0.4828 -1.3677
  907MPD2    H313342   4.049   1.635  15.666  0.6344 -0.9211  1.2618
  907MPD2     N13343   3.998   1.195  15.757 -0.2803  0.4163  0.3492
  907MPD2    H513344   3.953   1.111  15.722 -0.1933  0.2165  0.7149
  907MPD2    N113345   3.826   1.386  15.353  0.1598 -0.7450  0.8653
  907MPD2    H713346   3.768   1.303  15.342 -0.0975 -0.2848 -1.2754
  908MPD2     C13347   1.658   2.637   9.022 -0.0199 -0.0610  0.9615
  908MPD2    C113348   1.721   2.565   9.121 -0.2491 -0.2001  0.2634
  908MPD2    C213349   1.774   2.626   9.226  0.1514  0.7433 -0.3896
  908MPD2    C313350   1.767   2.765   9.242 -0.2466 -0.8679  0.2628
  908MPD2    C413351   1.696   2.836   9.145 -0.5626  0.0152 -0.3334
  908MPD2    C513352   1.636   2.776   9.036  0.3343 -0.0656 -0.3561
  908MPD2     H13353   1.822   2.561   9.298 -2.5568  1.0483  1.6701
  908MPD2    H113354   1.685   2.943   9.152 -0.1590  0.1345 -1.5067
  908MPD2    H213355   1.619   2.592   8.931  2.2089 -2.0948  0.9931
  908MPD2    H313356   1.579   2.829   8.960  0.3634  1.1014  0.4451
  908MPD2     N13357   1.836   2.831   9.351  0.0740 -0.4199  0.2133
  908MPD2    H513358   1.893   2.774   9.413  0.7998 -0.8645 -0.8574
  908MPD2    N113359   1.734   2.423   9.090 -0.2475  0.6670  0.3579
  908MPD2    H713360   1.687   2.383   9.009  0.2511 -0.4949  0.6303
  909MPD2     C13361   2.289   0.341  11.434 -0.2731  0.0593 -0.6293
  909MPD2    C113362   2.275   0.477  11.398 -0.5624  0.4157 -0.4859
  909MPD2    C213363   2.204   0.562  11.481 -0.3372  1.1387  0.1900
  909MPD2    C313364   2.146   0.517  11.594 -0.3458  0.5479 -0.4159
  909MPD2    C413365   2.158   0.383  11.635 -0.7031 -0.1205  0.2486
  909MPD2    C513366   2.222   0.297  11.543  0.6444  0.2129  0.5872
  909MPD2     H13367   2.191   0.665  11.449  2.0899  2.2148  2.6409
  909MPD2    H113368   2.099   0.343  11.717  2.7029 -1.6209  1.9639
  909MPD2    H213369   2.337   0.269  11.368  0.8317  0.0447  0.1711
  909MPD2    H313370   2.242   0.193  11.567 -2.1143  0.2479  3.1220
  909MPD2     N13371   2.072   0.614  11.675  0.0989 -0.1289  0.1312
  909MPD2    H513372   2.043   0.702  11.633 -2.4187 -1.6112 -1.2068
  909MPD2    N113373   2.344   0.546  11.294  0.0545  0.1480  0.3358
  909MPD2    H713374   2.300   0.635  11.271 -0.8539  0.3971  2.9744
  910MPD2     C13375   2.741   2.018  15.701 -0.5392  0.5022 -0.4842
  910MPD2    C113376   2.876   1.994  15.718  0.2249  0.4781  0.0427
  910MPD2    C213377   2.971   2.059  15.646  0.4227 -0.7264 -0.2535
  910MPD2    C313378   2.927   2.145  15.543 -0.1937 -0.0963  0.5770
  910MPD2    C413379   2.794   2.163  15.520  0.0839 -0.3215 -0.4245
  910MPD2    C513380   2.697   2.104  15.607 -0.0830  0.9477  0.2516
  910MPD2     H13381   3.075   2.049  15.676 -0.7271 -2.7216  3.0755
  910MPD2    H113382   2.766   2.235  15.444  1.2118 -0.2390 -0.7624
  910MPD2    H213383   2.667   1.964  15.759  2.5220 -0.9470  2.1081
  910MPD2    H313384   2.596   2.143  15.601 -1.4337 -2.6380 -0.4714
  910MPD2     N13385   3.015   2.194  15.451 -0.6043  0.5888 -0.2749
  910MPD2    H513386   2.973   2.252  15.378  2.7126 -0.9380 -3.3871
  910MPD2    N113387   2.926   1.899  15.812  0.0890  0.2257 -0.1393
  910MPD2    H713388   3.025   1.876  15.809  0.5818  2.2051  1.1881
  911MPD2     C13389   1.027   2.256  16.496 -0.5605  0.1890  0.1540
  911MPD2    C113390   1.107   2.367  16.485  0.5861  0.3672 -0.3504
  911MPD2    C213391   1.074   2.472  16.394 -0.1546  0.0285  0.4769
  911MPD2    C313392   0.946   2.462  16.329 -0.3077 -0.1871 -0.0718
  911MPD2    C413393   0.867   2.347  16.340 -0.3138 -0.8192 -0.0758
  911MPD2    C513394   0.912   2.244  16.420 -0.1377 -0.6825 -0.4765
  911MPD2     H13395   1.145   2.553  16.385  1.3480 -1.1185  1.9690
  911MPD2    H113396   0.776   2.345  16.282  0.1755 -0.0085 -0.8842
  911MPD2    H213397   1.061   2.166  16.547 -3.1290  0.4114  2.2239
  911MPD2    H313398   0.861   2.149  16.432 -2.7405  0.8207  0.4051
  911MPD2     N13399   0.899   2.568  16.254  0.7679  0.0950  0.0260
  911MPD2    H513400   0.820   2.557  16.191  0.7636  1.1708 -0.1509
  911MPD2    N113401   1.215   2.382  16.573  0.0067 -0.4827  0.3661
  911MPD2    H713402   1.236   2.302  16.632  2.3760  1.2882  1.9163
  912MPD2     C13403   0.583   2.673  15.540 -0.3500 -0.2228  0.1984
  912MPD2    C113404   0.595   2.620  15.666 -0.0619 -0.0334 -0.6188
  912MPD2    C213405   0.571   2.483  15.683  0.2523 -0.2797 -0.1032
  912MPD2    C313406   0.544   2.405  15.567  0.2893 -0.0157 -0.2882
  912MPD2    C413407   0.521   2.463  15.446  0.1847 -0.0769 -0.0080
  912MPD2    C513408   0.548   2.597  15.434  0.2996  0.3984 -0.2172
  912MPD2     H13409   0.592   2.433  15.778 -1.0572 -3.0510 -1.2602
  912MPD2    H113410   0.479   2.406  15.364  1.9473 -0.7707 -0.4273
  912MPD2    H213411   0.589   2.780  15.523 -2.2148 -0.2595 -0.6738
  912MPD2    H313412   0.543   2.631  15.331 -0.8565  0.9311  0.0122
  912MPD2     N13413   0.514   2.264  15.582 -0.2051 -0.2779 -0.2139
  912MPD2    H513414   0.498   2.209  15.498  0.1373  0.8263 -1.0002
  912MPD2    N113415   0.660   2.701  15.755  0.5765  1.0013 -0.5468
  912MPD2    H713416   0.655   2.801  15.739 -2.0508  0.9620 -0.1192
  913MPD2     C13417   1.545   3.454   9.678  0.0260  0.0739  0.1718
  913MPD2    C113418   1.553   3.546   9.780 -0.8339 -0.9946 -0.0180
  913MPD2    C213419   1.576   3.681   9.747  0.2383 -0.3098  0.9166
  913MPD2    C313420   1.598   3.718   9.612  0.0949  0.2737  0.0483
  913MPD2    C413421   1.586   3.621   9.516  0.4346  0.2150 -0.1901
  913MPD2    C513422   1.554   3.494   9.545  0.4066  0.7379 -0.5176
  913MPD2     H13423   1.585   3.756   9.824 -1.2806  0.8122  0.0062
  913MPD2    H113424   1.595   3.646   9.411  2.0712 -0.8646 -0.3167
  913MPD2    H213425   1.522   3.351   9.700 -0.4838 -0.0606 -1.0017
  913MPD2    H313426   1.540   3.419   9.468  2.8756 -1.7668  1.4105
  913MPD2     N13427   1.638   3.846   9.573  0.5153 -0.2348 -0.1559
  913MPD2    H513428   1.644   3.867   9.474 -0.5165  0.4498 -0.0772
  913MPD2    N113429   1.534   3.496   9.917 -0.3768  0.4782 -0.2374
  913MPD2    H713430   1.532   3.395   9.925  0.6306  0.3019 -2.1810
  914MPD2     C13431   4.481   4.166  11.622  0.7501 -0.3313  0.2095
  914MPD2    C113432   4.475   4.158  11.759 -0.7767 -0.0381  0.4131
  914MPD2    C213433   4.431   4.043  11.815  0.1349  0.2185  0.4168
  914MPD2    C313434   4.391   3.930  11.742  0.2623  0.7055  0.7788
  914MPD2    C413435   4.383   3.944  11.605 -0.0317  0.0253  0.1049
  914MPD2    C513436   4.423   4.065  11.548 -0.9663 -0.7582  0.0961
  914MPD2     H13437   4.438   4.023  11.922 -2.2066  1.1389  0.7499
  914MPD2    H113438   4.363   3.856  11.544  0.5449 -0.1175  0.1172
  914MPD2    H213439   4.526   4.247  11.565 -0.7257 -0.5661 -1.2986
  914MPD2    H313440   4.409   4.070  11.441 -0.7860 -1.0724  0.0584
  914MPD2     N13441   4.339   3.820  11.817  0.3299  0.2393 -0.7125
  914MPD2    H513442   4.362   3.810  11.916 -0.9965  0.8103 -0.3420
  914MPD2    N113443   4.524   4.268  11.828  0.1049  0.1691 -0.1971
  914MPD2    H713444   4.576   4.334  11.770  1.3602 -2.0154 -1.5638
  915MPD2     C13445   1.774   3.613  15.230  0.9473 -0.0305  0.1265
  915MPD2    C113446   1.638   3.603  15.257 -0.0003 -0.9115 -0.0239
  915MPD2    C213447   1.589   3.677  15.360 -0.5935  0.3774  0.5660
  915MPD2    C313448   1.660   3.760  15.439  0.2119 -0.5155  0.4029
  915MPD2    C413449   1.794   3.767  15.418 -0.3021 -0.4582 -0.0244
  915MPD2    C513450   1.846   3.694  15.313 -0.0979  0.6233 -0.1899
  915MPD2     H13451   1.482   3.672  15.377 -0.6338  1.3701  0.6304
  915MPD2    H113452   1.860   3.835  15.472 -0.5274  0.1836 -0.5643
  915MPD2    H213453   1.825   3.569  15.145 -0.4027 -1.7681  0.2036
  915MPD2    H313454   1.952   3.700  15.292  0.0661  0.2646  0.5138
  915MPD2     N13455   1.600   3.852  15.526  0.0048  0.8219  0.3398
  915MPD2    H513456   1.502   3.842  15.549 -0.4764  2.3587 -1.0604
  915MPD2    N113457   1.543   3.545  15.168  0.1748 -0.7359 -0.3818
  915MPD2    H713458   1.443   3.553  15.184 -0.3652 -3.8058 -2.1988
  916MPD2     C13459   0.181   2.149  15.488  0.7553  0.3551  0.3351
  916MPD2    C113460   0.131   2.041  15.556  0.4317  0.7268 -0.3702
  916MPD2    C213461   0.157   1.915  15.505  0.2644 -1.2639 -0.4093
  916MPD2    C313462   0.238   1.898  15.396  0.2527 -0.2479 -0.0841
  916MPD2    C413463   0.281   2.010  15.322 -0.0070 -0.0712 -0.1410
  916MPD2    C513464   0.259   2.131  15.380 -0.8598 -0.1547  0.7382
  916MPD2     H13465   0.121   1.828  15.559 -0.7723 -1.5902 -1.6251
  916MPD2    H113466   0.337   2.006  15.229 -1.5109 -2.5804 -0.9571
  916MPD2    H213467   0.167   2.250  15.525  0.5255  1.4879 -2.8837
  916MPD2    H313468   0.301   2.219  15.333 -2.3186 -0.1274 -0.5225
  916MPD2     N13469   0.282   1.768  15.360  0.6594  0.2025  0.2618
  916MPD2    H513470   0.230   1.695  15.407  1.8505  0.3696  1.8276
  916MPD2    N113471   0.062   2.064  15.669  0.5527 -0.0067 -0.0758
  916MPD2    H713472   0.045   2.160  15.695  2.2004 -0.1230  1.4291
  917MPD2     C13473   0.851   0.097  10.762 -0.1416 -0.2584 -0.1533
  917MPD2    C113474   0.879   0.120  10.899  0.5148  0.6126  0.0671
  917MPD2    C213475   0.977   0.218  10.927 -0.0220 -0.1221  0.2849
  917MPD2    C313476   1.042   0.292  10.825  0.5252 -0.6066 -0.8857
  917MPD2    C413477   1.012   0.266  10.694  0.0895  0.1363 -0.0632
  917MPD2    C513478   0.917   0.166  10.664  0.4565 -1.3173 -0.0049
  917MPD2     H13479   0.992   0.241  11.032 -0.8086  0.3507  0.2912
  917MPD2    H113480   1.054   0.318  10.609  0.1486 -0.8001 -0.6073
  917MPD2    H213481   0.784   0.024  10.718  0.3256  0.5415 -2.2230
  917MPD2    H313482   0.910   0.133  10.560  0.0924  0.0510 -0.4113
  917MPD2     N13483   1.126   0.401  10.859 -0.5282 -0.2889 -0.5475
  917MPD2    H513484   1.156   0.455  10.778  0.4161  0.2207  0.1378
  917MPD2    N113485   0.804   0.058  10.998 -0.5933  0.5431  0.4305
  917MPD2    H713486   0.749   4.715  10.966 -0.1536  0.9044 -1.2213
  918MPD2     C13487   0.561   0.306  11.994  0.5057 -0.3030 -0.3526
  918MPD2    C113488   0.662   0.356  11.911  0.2762 -0.1958 -0.1444
  918MPD2    C213489   0.686   0.298  11.782 -0.0640 -0.1318  0.1627
  918MPD2    C313490   0.607   0.193  11.742 -0.2539  0.3799 -0.1891
  918MPD2    C413491   0.499   0.152  11.821 -0.2719 -0.3592  0.0316
  918MPD2    C513492   0.479   0.208  11.942  0.2230  0.4005 -0.2788
  918MPD2     H13493   0.775   0.327  11.728 -0.1082 -0.1349  0.0885
  918MPD2    H113494   0.428   0.078  11.784 -2.6385 -0.0111  3.9398
  918MPD2    H213495   0.537   0.354  12.089 -0.4499 -1.3663 -0.0620
  918MPD2    H313496   0.388   0.176  11.991  0.2781  0.1901 -0.3139
  918MPD2     N13497   0.645   0.129  11.620  0.3894  0.5241  0.5485
  918MPD2    H513498   0.723   0.173  11.573  1.4580 -1.7117  0.2476
  918MPD2    N113499   0.745   0.459  11.959  0.4777 -0.0984  0.0697
  918MPD2    H713500   0.805   0.498  11.887 -0.7711 -0.4826 -1.1922
  919MPD2     C13501   1.581   3.927  11.546  0.8338 -0.0868  0.2899
  919MPD2    C113502   1.601   3.826  11.456 -0.0351 -0.2272 -0.5582
  919MPD2    C213503   1.609   3.853  11.319  0.9270  0.5329 -0.3871
  919MPD2    C313504   1.589   3.981  11.273  0.6337 -0.2388 -0.6795
  919MPD2    C413505   1.578   4.079  11.370 -0.0699  0.5440  0.6297
  919MPD2    C513506   1.591   4.055  11.506 -0.3256 -0.0135  0.4066
  919MPD2     H13507   1.609   3.765  11.255  1.1149  1.0135 -1.0465
  919MPD2    H113508   1.568   4.182  11.340  0.0673  0.6302  0.8881
  919MPD2    H213509   1.570   3.914  11.653  1.0168 -3.3595 -0.0998
  919MPD2    H313510   1.594   4.139  11.575  1.7223  0.7721 -0.6478
  919MPD2     N13511   1.559   4.021  11.140 -0.0005  0.0536 -0.0399
  919MPD2    H513512   1.525   4.115  11.123  0.5546  0.6812  2.3995
  919MPD2    N113513   1.597   3.687  11.480 -0.7317 -0.2045 -0.2152
  919MPD2    H713514   1.612   3.624  11.401  2.2256  1.8064 -1.2692
  920MPD2     C13515   1.452   4.643  10.333  0.6742  0.2053  0.9600
  920MPD2    C113516   1.424   4.513  10.282 -0.5273 -1.5994 -0.5115
  920MPD2    C213517   1.454   4.406  10.368  0.3093  0.0200 -0.1391
  920MPD2    C313518   1.502   4.421  10.500 -0.9369  0.1881 -0.8458
  920MPD2    C413519   1.525   4.551  10.542 -0.9049  0.1572  0.1071
  920MPD2    C513520   1.506   4.657  10.453  0.4772 -0.0084  0.1669
  920MPD2     H13521   1.436   4.304  10.339  1.1070  1.0520 -4.2698
  920MPD2    H113522   1.560   4.568  10.643 -0.9745 -0.4622  0.2309
  920MPD2    H213523   1.446   4.735  10.275  0.0999 -1.0176 -0.9070
  920MPD2    H313524   1.534   0.022  10.485 -2.6086  1.0441 -0.5055
  920MPD2     N13525   1.502   4.297  10.575 -0.0716 -0.8617 -0.4332
  920MPD2    H513526   1.492   4.211  10.523 -0.0364  0.2328 -2.2550
  920MPD2    N113527   1.363   4.499  10.159  0.0023 -0.4806 -0.2895
  920MPD2    H713528   1.349   4.404  10.128 -1.2698 -0.3284 -0.1644
  921MPD2     C13529   1.991   3.058  16.619 -0.0864  0.7378  0.6865
  921MPD2    C113530   2.022   2.963  16.711 -0.4017  0.5869  0.3419
  921MPD2    C213531   1.931   2.863  16.736 -0.1418 -0.5717  0.3034
  921MPD2    C313532   1.812   2.853  16.665 -0.3350  0.3903  0.0758
  921MPD2    C413533   1.781   2.947  16.579  0.5141 -0.0364 -0.4783
  921MPD2    C513534   1.864   3.052  16.560 -0.2043  0.1844  0.7277
  921MPD2     H13535   1.962   2.783  16.802  0.7415  0.1127  0.7050
  921MPD2    H113536   1.690   2.932  16.522 -0.0585  0.1331  0.3983
  921MPD2    H213537   2.051   3.146  16.600  0.1778  0.4444  0.1279
  921MPD2    H313538   1.836   3.126  16.485 -0.7645 -0.1091  0.6402
  921MPD2     N13539   1.719   2.755  16.679  0.2398  0.8144  1.0450
  921MPD2    H513540   1.651   2.746  16.604  1.0765  0.3101  0.3536
  921MPD2    N113541   2.140   2.979  16.781 -0.1269  0.0603 -0.1260
  921MPD2    H713542   2.196   3.053  16.739  0.4652 -1.9412 -2.8326
  922MPD2     C13543   2.134   4.669  16.766 -0.7296  0.0459 -0.2500
  922MPD2    C113544   2.117   0.068  16.782  0.1492  0.3462 -0.2592
  922MPD2    C213545   1.996   0.112  16.838 -0.1381 -0.0693 -0.6359
  922MPD2    C313546   1.890   0.022  16.852 -0.1130  0.7116  0.9733
  922MPD2    C413547   1.930   4.620  16.839  0.7242 -0.6677 -0.0964
  922MPD2    C513548   2.054   4.571  16.816  0.4566  0.0206 -1.0927
  922MPD2     H13549   1.985   0.219  16.852 -1.2548 -0.2738  0.0704
  922MPD2    H113550   1.856   4.543  16.860 -0.4216  0.0230 -1.6055
  922MPD2    H213551   2.233   4.644  16.729 -0.5873  0.7384 -0.3355
  922MPD2    H313552   2.085   4.469  16.835  0.2519 -0.0478 -1.1305
  922MPD2     N13553   1.762   0.058  16.884  0.1370 -0.6487  0.5189
  922MPD2    H513554   1.750   0.156  16.908  2.0527  0.4511 -3.0360
  922MPD2    N113555   2.222   0.158  16.763 -0.3353  0.4695 -0.2497
  922MPD2    H713556   2.225   0.239  16.823 -0.2043  0.0005  0.3757
  923MPD2     C13557   3.422   2.935   8.527  0.9427 -0.4761  0.3791
  923MPD2    C113558   3.486   2.965   8.640 -0.1541 -0.6360 -0.1749
  923MPD2    C213559   3.579   2.881   8.695 -0.1812  0.4507 -0.2451
  923MPD2    C313560   3.640   2.781   8.613 -0.4237 -0.2417 -0.0905
  923MPD2    C413561   3.593   2.765   8.482 -0.2506 -0.0507  0.1095
  923MPD2    C513562   3.476   2.835   8.450 -0.1158 -0.4038 -0.2818
  923MPD2     H13563   3.628   2.906   8.789  1.4469  0.1955 -1.0168
  923MPD2    H113564   3.643   2.704   8.408  3.1442  0.3404  2.0942
  923MPD2    H213565   3.332   2.985   8.494  2.1990  2.5448  1.4977
  923MPD2    H313566   3.424   2.818   8.356 -0.3780 -2.5254  0.2476
  923MPD2     N13567   3.760   2.714   8.659 -0.0797 -0.0473  0.4041
  923MPD2    H513568   3.795   2.741   8.751  0.5062 -0.7414  0.3817
  923MPD2    N113569   3.441   3.085   8.707  0.2900 -0.7897  0.8377
  923MPD2    H713570   3.375   3.139   8.652  1.0664 -0.6602  0.0369
  924MPD2     C13571   3.756   0.302  16.068 -0.1282 -0.5553 -0.4716
  924MPD2    C113572   3.714   0.430  16.060 -0.1576  0.2411  0.7827
  924MPD2    C213573   3.802   0.527  16.016 -0.0851 -0.1075  0.0633
  924MPD2    C313574   3.937   0.508  15.989  0.8152 -0.0415 -0.4804
  924MPD2    C413575   3.981   0.382  16.012 -0.0320  0.4771 -0.3356
  924MPD2    C513576   3.892   0.282  16.051  0.0280 -0.3866 -0.0134
  924MPD2     H13577   3.767   0.630  16.010  1.3443  0.2891 -1.3900
  924MPD2    H113578   4.084   0.348  16.004 -0.1804  0.3934 -1.9885
  924MPD2    H213579   3.701   0.217  16.108 -0.2797  1.3269  3.3097
  924MPD2    H313580   3.935   0.183  16.064  0.2435 -0.3256 -0.2710
  924MPD2     N13581   4.031   0.611  15.967 -0.4736  0.1739 -0.1387
  924MPD2    H513582   4.127   0.594  15.996 -0.7229 -0.4283  0.3275
  924MPD2    N113583   3.583   0.469  16.092  0.5665 -0.7465  0.6580
  924MPD2    H713584   3.551   0.562  16.068 -1.2809 -1.5489 -0.0229
  925MPD2     C13585   2.907   3.206  14.202 -0.8312 -0.3243  0.0311
  925MPD2    C113586   2.780   3.222  14.156 -0.5483  0.5962  0.3365
  925MPD2    C213587   2.675   3.229  14.252  0.4142 -0.7168  0.2170
  925MPD2    C313588   2.690   3.232  14.386 -0.5629  0.1665  1.1433
  925MPD2    C413589   2.825   3.241  14.425  0.0859  0.5900  0.8604
  925MPD2    C513590   2.928   3.221  14.334  0.4733  0.3557  0.3977
  925MPD2     H13591   2.572   3.249  14.225  0.2923 -1.1765  0.3375
  925MPD2    H113592   2.844   3.253  14.531 -0.3118  0.4505  0.9471
  925MPD2    H213593   2.984   3.180  14.130 -0.7401 -0.4223  0.1663
  925MPD2    H313594   3.031   3.217  14.366  0.4621 -1.4905  0.2163
  925MPD2     N13595   2.583   3.251  14.479  0.3414  0.1225 -0.0858
  925MPD2    H513596   2.617   3.247  14.575 -1.8065  2.3724  0.7430
  925MPD2    N113597   2.745   3.225  14.021  0.3158  0.4068 -0.2634
  925MPD2    H713598   2.652   3.191  13.998  0.3892 -0.6924  1.0484
  926MPD2     C13599   1.286   1.831  13.616 -0.2882  0.7555 -0.3619
  926MPD2    C113600   1.221   1.834  13.491  0.0339  0.0332  0.1397
  926MPD2    C213601   1.271   1.901  13.379 -0.2419 -0.9851 -0.4124
  926MPD2    C313602   1.400   1.960  13.395 -0.3519  0.1957 -0.9328
  926MPD2    C413603   1.471   1.962  13.513 -0.5520  0.2833  0.1029
  926MPD2    C513604   1.408   1.900  13.618 -0.3926  0.5497  0.1998
  926MPD2     H13605   1.222   1.873  13.287  0.1541  1.3972 -1.3468
  926MPD2    H113606   1.561   2.020  13.531 -0.5145  0.2612 -0.0131
  926MPD2    H213607   1.240   1.802  13.710 -0.3825 -2.4491 -1.3722
  926MPD2    H313608   1.457   1.908  13.715  0.9947  2.8413 -0.6798
  926MPD2     N13609   1.471   2.016  13.286 -0.1332 -0.0588 -0.0890
  926MPD2    H513610   1.568   2.045  13.292 -0.0216 -0.5808  0.6776
  926MPD2    N113611   1.090   1.788  13.475  0.1377  0.7540  0.0033
  926MPD2    H713612   1.043   1.815  13.388 -0.6339 -2.0165 -0.4380
  927MPD2     C13613   0.765   4.029  16.501 -1.0592 -0.8439 -0.1069
  927MPD2    C113614   0.860   4.003  16.598 -0.2392 -0.7124  0.7788
  927MPD2    C213615   0.992   4.035  16.569 -0.3900 -0.7557  0.1867
  927MPD2    C313616   1.027   4.086  16.443  0.2893 -0.0921 -0.4534
  927MPD2    C413617   0.935   4.094  16.344 -0.6286 -0.0039  0.4206
  927MPD2    C513618   0.803   4.068  16.376  0.1547 -0.4623  0.2374
  927MPD2     H13619   1.065   4.011  16.645  0.9052  2.0665 -0.1642
  927MPD2    H113620   0.968   4.115  16.243  1.1732  0.3533  1.0861
  927MPD2    H213621   0.661   4.007  16.523 -1.3733 -0.8559 -1.5777
  927MPD2    H313622   0.731   4.075  16.296  0.5697  3.1441  0.1541
  927MPD2     N13623   1.164   4.111  16.409 -0.0789 -0.2334 -0.0836
  927MPD2    H513624   1.195   4.122  16.313  1.5353  1.2630  0.5971
  927MPD2    N113625   0.822   3.953  16.724  0.0842  0.4159 -0.2117
  927MPD2    H713626   0.723   3.959  16.744  0.2015 -0.6722  0.6767
  928MPD2     C13627   3.673   2.441   0.520 -0.8262 -0.1422  1.1755
  928MPD2    C113628   3.729   2.341   0.448 -0.3890  0.0969  0.8271
  928MPD2    C213629   3.684   2.318   0.312  0.5168 -0.2935 -0.1954
  928MPD2    C313630   3.582   2.395   0.256 -0.0924 -0.2280 -0.1293
  928MPD2    C413631   3.531   2.505   0.339  0.3469  0.0369  0.1685
  928MPD2    C513632   3.585   2.527   0.463 -0.6225  0.2470  0.2292
  928MPD2     H13633   3.738   2.253   0.243  0.2149 -1.1264  0.3488
  928MPD2    H113634   3.454   2.571   0.302  0.6018  0.4554  0.3790
  928MPD2    H213635   3.701   2.459   0.624  1.6259 -0.3734  0.5576
  928MPD2    H313636   3.553   2.610   0.525 -1.0495  0.6021 -0.4744
  928MPD2     N13637   3.547   2.395   0.116 -0.2561  0.3822  0.6835
  928MPD2    H513638   3.484   2.463   0.074  0.4453  0.7230  0.1767
  928MPD2    N113639   3.831   2.263   0.510  0.0409  0.7106  0.3526
  928MPD2    H713640   3.863   2.297   0.600 -3.2358 -2.3240  2.6698
  929MPD2     C13641   4.693   2.682   9.754  0.2240 -0.2596  0.1438
  929MPD2    C113642   4.616   2.575   9.707 -0.2192 -0.3815 -0.0374
  929MPD2    C213643   4.519   2.610   9.622  0.4553 -0.1539 -0.3660
  929MPD2    C313644   4.497   2.737   9.570 -0.3980 -0.2381 -0.8232
  929MPD2    C413645   4.578   2.836   9.613 -0.0231 -0.3467 -0.7298
  929MPD2    C513646   4.668   2.803   9.703 -0.4544  0.3114  0.3638
  929MPD2     H13647   4.473   2.526   9.571 -0.4857 -0.6159  1.2294
  929MPD2    H113648   4.571   2.939   9.581 -0.6774  0.0687  0.7583
  929MPD2    H213649   0.040   2.673   9.824 -2.1849  0.7117  3.0835
  929MPD2    H313650   0.010   2.876   9.727 -1.8124  1.3902  1.4335
  929MPD2     N13651   4.388   2.777   9.486  0.1461  0.1285  0.5204
  929MPD2    H513652   4.364   2.875   9.480 -1.2201 -0.2882 -0.8150
  929MPD2    N113653   4.631   2.438   9.755  0.1329  0.0336 -0.0011
  929MPD2    H713654   4.567   2.374   9.709  1.7995 -0.0000 -2.3132
  930MPD2     C13655   0.964   4.402  13.684  0.1912  0.0662  0.4037
  930MPD2    C113656   0.893   4.508  13.628 -0.2629  0.1086  0.4126
  930MPD2    C213657   0.776   4.482  13.557 -0.0495  0.2734 -0.4443
  930MPD2    C313658   0.746   4.352  13.530  0.4344 -0.2758  0.3745
  930MPD2    C413659   0.814   4.250  13.588  0.6290 -0.1568  0.0576
  930MPD2    C513660   0.923   4.273  13.676  0.6181  0.4542 -1.0712
  930MPD2     H13661   0.717   4.566  13.521  0.8100  1.7803  1.6740
  930MPD2    H113662   0.786   4.146  13.589 -1.6741  0.4647  0.7331
  930MPD2    H213663   1.046   4.434  13.746  0.4957 -0.8400  0.4643
  930MPD2    H313664   0.970   4.183  13.717 -2.1020 -1.8805 -3.0909
  930MPD2     N13665   0.636   4.309  13.446 -0.2098 -0.2844 -0.2529
  930MPD2    H513666   0.590   4.223  13.473  1.2242 -0.9383  0.0846
  930MPD2    N113667   0.951   4.636  13.642  0.4710 -0.4089 -0.3608
  930MPD2    H713668   1.041   4.651  13.685  1.0085 -1.2419 -1.1877
  931MPD2     C13669   1.186   3.476  17.251  0.6187  0.1207  0.2665
  931MPD2    C113670   1.086   3.547  17.312 -0.1942 -0.5331  0.0637
  931MPD2    C213671   1.082   3.538  17.452  0.0835  0.3488 -0.2994
  931MPD2    C313672   1.164   3.453  17.529  0.2755 -0.0643  1.0002
  931MPD2    C413673   1.246   3.370  17.455 -0.2139  0.3198 -0.1801
  931MPD2    C513674   1.268   3.392  17.319  0.1538 -0.0995  0.5782
  931MPD2     H13675   0.994   3.572  17.504  0.0149  0.0713 -0.2378
  931MPD2    H113676   1.306   3.291  17.500 -0.6867  0.8033  1.2969
  931MPD2    H213677   1.202   3.494  17.145 -1.3448  2.0413  0.2837
  931MPD2    H313678   1.351   3.348  17.265 -1.6887  1.0125 -3.2218
  931MPD2     N13679   1.149   3.447  17.666  0.3710  0.0381  0.1456
  931MPD2    H513680   1.211   3.381  17.711  0.0880 -1.2592 -1.3587
  931MPD2    N113681   1.011   3.636  17.233  0.4063 -0.1058 -0.4400
  931MPD2    H713682   1.022   3.632  17.132  1.0110  2.6933 -0.4986
  932MPD2     C13683   3.408   2.846  10.967 -0.4244 -0.1230 -0.3111
  932MPD2    C113684   3.471   2.916  11.074  0.8112 -0.8808 -0.0417
  932MPD2    C213685   3.519   2.828  11.175 -0.6080 -0.0079  0.3595
  932MPD2    C313686   3.502   2.696  11.170 -0.1154  0.1273 -0.6019
  932MPD2    C413687   3.424   2.644  11.069  0.1625 -0.1645 -0.5858
  932MPD2    C513688   3.374   2.717  10.965  0.4547 -0.2735 -0.0192
  932MPD2     H13689   3.576   2.870  11.257 -1.2065  0.6207  0.4581
  932MPD2    H113690   3.413   2.537  11.053  0.1649 -0.2938  0.2675
  932MPD2    H213691   3.379   2.899  10.878  1.7233  0.9032 -0.3821
  932MPD2    H313692   3.312   2.680  10.885 -0.3235  1.0032  0.0072
  932MPD2     N13693   3.573   2.616  11.269  0.3475  0.4492  0.3011
  932MPD2    H513694   3.631   2.661  11.340 -0.2520  0.2058  0.9445
  932MPD2    N113695   3.491   3.051  11.082  0.2998  0.5079 -0.0425
  932MPD2    H713696   3.543   3.077  11.165  0.9894 -1.0424  0.0076
  933MPD2     C13697   4.532   2.051   0.963 -0.3438 -0.2455 -0.0061
  933MPD2    C113698   4.449   2.145   0.904  0.4274  0.0886  0.3907
  933MPD2    C213699   4.494   2.279   0.899 -0.0004 -0.7525  0.3889
  933MPD2    C313700   4.620   2.326   0.937  0.9571 -0.4290 -1.1976
  933MPD2    C413701   4.702   2.227   0.996 -0.3473  0.5184 -0.3478
  933MPD2    C513702   4.649   2.098   1.013  0.7405 -0.0388  0.7350
  933MPD2     H13703   4.434   2.357   0.853 -1.9156 -1.8366  1.0631
  933MPD2    H113704   0.069   2.246   1.026 -0.1011  0.9840 -1.4837
  933MPD2    H213705   4.512   1.945   0.975  2.7308 -0.6353  1.5810
  933MPD2    H313706   4.711   2.024   1.061 -1.4491 -1.0034  2.0715
  933MPD2     N13707   4.652   2.460   0.919 -0.5362  0.0869  0.6757
  933MPD2    H513708   4.591   2.525   0.870  0.9046 -1.1451 -2.8129
  933MPD2    N113709   4.313   2.113   0.869 -0.0310  0.5418  0.4128
  933MPD2    H713710   4.295   2.013   0.866 -0.9703  0.5913  3.9508
  934MPD2     C13711   4.656   4.531   1.384  0.2620  0.2304 -0.3722
  934MPD2    C113712   4.719   4.437   1.304 -0.0248 -0.4492  0.8226
  934MPD2    C213713   4.656   4.405   1.187 -0.6662 -0.9420  0.3409
  934MPD2    C313714   4.538   4.460   1.141 -0.4171  0.1551  0.3116
  934MPD2    C413715   4.481   4.558   1.221  0.1423  0.5292  0.0029
  934MPD2    C513716   4.543   4.591   1.342 -0.8269  0.0481  0.6061
  934MPD2     H13717   4.699   4.329   1.122  0.9045  2.3152 -2.3917
  934MPD2    H113718   4.397   4.615   1.182  0.0324  1.5769  1.7679
  934MPD2    H213719   4.678   4.560   1.486 -0.7155 -0.3932  0.0116
  934MPD2    H313720   4.502   4.666   1.408 -0.2352  1.8478 -1.0847
  934MPD2     N13721   4.454   4.408   1.048  0.0933  1.1213 -0.0628
  934MPD2    H513722   4.364   4.455   1.037  0.2452  1.7456  1.3712
  934MPD2    N113723   0.111   4.381   1.335 -0.8667  0.1635 -0.5784
  934MPD2    H713724   0.155   4.320   1.267 -0.0164  0.7223 -0.5262
  935MPD2     C13725   4.652   3.965   0.157  0.1961 -0.5188 -0.7671
  935MPD2    C113726   4.520   3.939   0.191 -0.2985  0.0786  0.6702
  935MPD2    C213727   4.473   3.999   0.302  0.1210  0.0338  0.9531
  935MPD2    C313728   4.545   4.088   0.372 -0.1895 -0.4021 -0.2091
  935MPD2    C413729   4.673   4.099   0.345 -0.5014 -1.0549 -0.3628
  935MPD2    C513730   4.728   4.034   0.236 -0.0376  0.5283 -1.0026
  935MPD2     H13731   4.372   3.974   0.333  0.2380 -0.2005  1.1466
  935MPD2    H113732   0.004   4.157   0.408 -1.3246  0.4322 -0.8694
  935MPD2    H213733   4.697   3.924   0.068 -0.9651  1.1861 -2.1460
  935MPD2    H313734   0.098   4.038   0.213  0.4644 -0.8679  1.0869
  935MPD2     N13735   4.490   4.154   0.484 -0.6105  0.3646  0.0637
  935MPD2    H513736   4.554   4.203   0.546  1.1416 -1.7282 -0.0798
  935MPD2    N113737   4.434   3.850   0.134  0.4463 -0.4274  0.4841
  935MPD2    H713738   4.335   3.861   0.157  0.5486 -0.5921  1.0083
  936MPD2     C13739   3.141   1.188  12.022  0.4665 -0.3935 -0.9095
  936MPD2    C113740   3.269   1.233  12.046  0.1832  0.1634  0.0785
  936MPD2    C213741   3.342   1.277  11.943 -0.1887  0.7576 -0.5695
  936MPD2    C313742   3.290   1.288  11.814 -0.4034  0.3683 -0.0767
  936MPD2    C413743   3.160   1.251  11.791  0.2182 -0.4243  0.2038
  936MPD2    C513744   3.090   1.191  11.889  0.0061  0.0732 -0.1110
  936MPD2     H13745   3.437   1.322  11.969 -0.0220 -0.3195  0.6816
  936MPD2    H113746   3.110   1.269  11.696  0.4563 -1.3036 -0.0865
  936MPD2    H213747   3.080   1.145  12.100 -0.7723  1.1440 -1.0219
  936MPD2    H313748   2.994   1.145  11.865  1.1391 -3.4068  1.9406
  936MPD2     N13749   3.351   1.359  11.710 -0.2136 -0.1356  0.2944
  936MPD2    H513750   3.301   1.388  11.627  0.3284 -0.3270 -0.0967
  936MPD2    N113751   3.334   1.249  12.172  0.1462  0.5400  0.7861
  936MPD2    H713752   3.424   1.296  12.173 -0.1445  1.0927  0.7451
  937MPD2     C13753   1.771   3.110  11.110  0.0824  0.3564  0.2913
  937MPD2    C113754   1.802   3.237  11.161 -0.7612  0.1686 -0.0373
  937MPD2    C213755   1.858   3.327  11.068 -0.1027 -0.1516  0.8235
  937MPD2    C313756   1.890   3.303  10.936  0.2726  0.3031  0.0076
  937MPD2    C413757   1.863   3.175  10.893 -0.2248  0.1529 -0.0124
  937MPD2    C513758   1.805   3.087  10.978  0.0376 -0.4708 -0.0678
  937MPD2     H13759   1.875   3.431  11.096  1.8293 -0.8660  2.2972
  937MPD2    H113760   1.889   3.129  10.798 -1.3945 -0.6612  0.0659
  937MPD2    H213761   1.718   3.035  11.167  1.6265  0.5542  1.9805
  937MPD2    H313762   1.779   2.989  10.939 -0.0211 -1.9438  3.6920
  937MPD2     N13763   1.937   3.404  10.851 -0.6075  0.1566 -0.0105
  937MPD2    H513764   1.967   3.493  10.890 -0.6868  0.8715 -1.5716
  937MPD2    N113765   1.748   3.288  11.282  0.1546 -0.6588  0.2815
  937MPD2    H713766   1.745   3.389  11.287 -0.7690 -0.6892  0.2616
  938MPD2     C13767   3.757   4.174   0.315  0.4328 -0.0831 -0.2442
  938MPD2    C113768   3.794   4.202   0.444  0.6911 -0.0679 -0.6377
  938MPD2    C213769   3.820   4.099   0.534  0.0251  0.3273 -0.4350
  938MPD2    C313770   3.835   3.968   0.490 -0.4324 -0.2379 -0.4864
  938MPD2    C413771   3.815   3.945   0.357 -0.3751  0.3427  0.5880
  938MPD2    C513772   3.777   4.044   0.270  0.1718  0.6271 -0.2176
  938MPD2     H13773   3.836   4.119   0.640  2.7346  1.0332 -0.9855
  938MPD2    H113774   3.848   3.848   0.320 -0.7852  0.5857 -0.3984
  938MPD2    H213775   3.727   4.249   0.244  0.9740 -0.7937 -1.2158
  938MPD2    H313776   3.768   4.018   0.165 -1.5087 -1.2647  0.3970
  938MPD2     N13777   3.868   3.857   0.568 -0.1002 -0.8366 -0.1438
  938MPD2    H513778   3.877   3.768   0.522  0.2961 -0.9228  0.1063
  938MPD2    N113779   3.792   4.338   0.490  1.0049 -0.8477 -0.1397
  938MPD2    H713780   3.841   4.353   0.577  0.7975  0.4451 -0.2470
  939MPD2     C13781   0.455   0.088   0.506  0.1624 -0.1432  0.2894
  939MPD2    C113782   0.392   0.199   0.465  0.8919 -0.1385  0.6542
  939MPD2    C213783   0.321   0.207   0.347  0.7352  0.2822 -1.4462
  939MPD2    C313784   0.312   0.092   0.274 -0.6245  0.4502  0.2376
  939MPD2    C413785   0.366   4.708   0.317  0.2648  0.1044 -0.0850
  939MPD2    C513786   0.441   4.711   0.433 -0.2359  0.9448 -0.6868
  939MPD2     H13787   0.266   0.297   0.324 -1.0955 -0.0931  1.4501
  939MPD2    H113788   0.370   4.617   0.257  2.2520  0.2590 -0.1883
  939MPD2    H213789   0.509   0.082   0.600  2.5112  1.6764 -0.9439
  939MPD2    H313790   0.489   4.615   0.443 -0.5316  0.7988 -0.6475
  939MPD2     N13791   0.234   0.098   0.152  0.1578  0.0418  0.3015
  939MPD2    H513792   0.176   0.179   0.135  1.7424  1.0513 -0.2463
  939MPD2    N113793   0.425   0.311   0.539  1.1260  0.4644 -0.6010
  939MPD2    H713794   0.481   0.295   0.622 -0.3768  0.2904  0.3781
  940MPD2     C13795   4.462   1.299  12.270 -0.0715  0.3429 -0.1285
  940MPD2    C113796   4.343   1.251  12.324  0.8437  0.1310 -0.7172
  940MPD2    C213797   4.282   1.142  12.270  1.0130 -0.3335 -0.4473
  940MPD2    C313798   4.333   1.072  12.154 -0.3304  0.1443 -0.4694
  940MPD2    C413799   4.454   1.122  12.103 -0.5491 -0.8392  0.7044
  940MPD2    C513800   4.515   1.237  12.160  0.0533  0.1867 -0.6796
  940MPD2     H13801   4.185   1.112  12.309 -0.1345  2.8015 -0.8867
  940MPD2    H113802   4.510   1.075  12.023 -0.6703  1.5599 -0.7678
  940MPD2    H213803   4.504   1.393  12.305 -0.2779 -0.0295  1.1102
  940MPD2    H313804   4.606   1.268  12.108  0.5114 -1.7503 -1.0425
  940MPD2     N13805   4.270   0.958  12.099  0.2446  0.4943 -0.0021
  940MPD2    H513806   4.320   0.920  12.020  1.2971  1.4341  0.2130
  940MPD2    N113807   4.281   1.295  12.442  0.8309  0.6473  1.1179
  940MPD2    H713808   4.204   1.241  12.480  0.6990  0.1333  0.1203
  941MPD2     C13809   4.148   0.355  10.002  0.4991  0.2080  0.2384
  941MPD2    C113810   4.013   0.403   9.978  0.0065  0.0750  0.2179
  941MPD2    C213811   3.917   0.390  10.082  0.2829 -0.2272  0.2134
  941MPD2    C313812   3.954   0.334  10.201  1.0322 -0.1510  0.1177
  941MPD2    C413813   4.088   0.292  10.222 -0.1620 -0.5127 -0.2962
  941MPD2    C513814   4.179   0.295  10.120  0.0637 -0.4208 -0.1230
  941MPD2     H13815   3.815   0.427  10.073  1.0178  1.3395 -1.7541
  941MPD2    H113816   4.122   0.238  10.310 -2.2419 -1.3707 -0.0355
  941MPD2    H213817   4.217   0.358   9.918  0.0503 -2.3362 -0.2324
  941MPD2    H313818   4.274   0.245  10.131 -0.0452 -1.1819 -2.5708
  941MPD2     N13819   3.856   0.326  10.299 -0.3359  0.1151 -0.3375
  941MPD2    H513820   3.763   0.364  10.284 -0.8158 -0.6278  0.7258
  941MPD2    N113821   3.976   0.455   9.853  0.6238  0.0248  0.4373
  941MPD2    H713822   3.882   0.494   9.850 -1.1040 -4.1520  0.5487
  942MPD2     C13823   3.463   1.565   8.785  0.3684  0.2899 -0.7981
  942MPD2    C113824   3.419   1.552   8.651  0.3739  0.5579 -0.2070
  942MPD2    C213825   3.485   1.617   8.545 -0.5395 -0.5827  0.0743
  942MPD2    C313826   3.607   1.672   8.571 -0.0113 -0.7044  0.1785
  942MPD2    C413827   3.658   1.665   8.695  0.8846 -0.3584  0.3569
  942MPD2    C513828   3.588   1.616   8.804 -0.4535 -0.7568 -0.2805
  942MPD2     H13829   3.451   1.620   8.443  0.7571  0.4451 -0.3200
  942MPD2    H113830   3.752   1.706   8.729 -1.3904  3.3004  2.3403
  942MPD2    H213831   3.404   1.516   8.861  3.1108 -0.9884  0.4966
  942MPD2    H313832   3.630   1.608   8.904 -2.3169 -3.9506  0.2721
  942MPD2     N13833   3.690   1.721   8.469 -0.6686 -0.2812 -0.2886
  942MPD2    H513834   3.773   1.774   8.495 -0.8368 -0.8270  1.3231
  942MPD2    N113835   3.277   1.500   8.629  0.0010 -0.2610 -0.1076
  942MPD2    H713836   3.240   1.496   8.535  0.8541  0.1538 -0.4673
  943MPD2     C13837   2.200   0.418  10.273  0.9121 -0.1147  0.4646
  943MPD2    C113838   2.280   0.481  10.184 -0.1503  0.3653 -1.1921
  943MPD2    C213839   2.307   0.616  10.190 -0.4734  0.0699 -0.0151
  943MPD2    C313840   2.249   0.690  10.289 -1.3978  0.1928  0.7210
  943MPD2    C413841   2.174   0.625  10.384 -2.1073 -0.4026  0.0816
  943MPD2    C513842   2.146   0.494  10.380 -0.8422 -0.5678 -0.1404
  943MPD2     H13843   2.359   0.663  10.107 -1.2754  2.0240  0.5858
  943MPD2    H113844   2.115   0.681  10.457 -0.4187  1.2603  0.1700
  943MPD2    H213845   2.162   0.319  10.253  1.5074 -0.6061  1.7820
  943MPD2    H313846   2.084   0.436  10.446 -1.5697 -0.5107 -0.7807
  943MPD2     N13847   2.245   0.830  10.295  0.0185 -0.2271  0.4809
  943MPD2    H513848   2.188   0.874  10.367 -1.8100 -0.2355 -0.9847
  943MPD2    N113849   2.332   0.395  10.088 -0.3922  0.5756  0.2698
  943MPD2    H713850   2.313   0.296  10.098 -2.5438  0.9545 -0.0868
  944MPD2     C13851   2.238   0.317  10.876 -0.0615  0.0448  0.4922
  944MPD2    C113852   2.132   0.241  10.924  0.1973 -0.2497 -0.3330
  944MPD2    C213853   2.056   0.303  11.025  0.8710 -0.1298 -0.3690
  944MPD2    C313854   2.072   0.439  11.054 -0.7371  0.1573  0.2507
  944MPD2    C413855   2.163   0.511  10.986  0.2821 -0.5290  0.2427
  944MPD2    C513856   2.248   0.452  10.896 -0.2339 -0.4104  0.3868
  944MPD2     H13857   1.970   0.258  11.072  1.0860  3.7177  3.6505
  944MPD2    H113858   2.188   0.613  11.013  1.5346 -1.1511  1.4493
  944MPD2    H213859   2.311   0.273  10.809 -1.0493 -1.3097  0.3080
  944MPD2    H313860   2.333   0.499  10.848  0.8067 -0.0113  2.6233
  944MPD2     N13861   2.000   0.508  11.158 -0.0421 -0.5435  0.2550
  944MPD2    H513862   2.038   0.599  11.183  0.9152 -1.1739  1.0882
  944MPD2    N113863   2.123   0.104  10.888  0.0215 -0.2156  0.3053
  944MPD2    H713864   2.184   0.075  10.813 -0.2715  1.1752 -0.4649
    1TMC1    C113865   0.051   0.473  14.226 -0.0157  0.5133  0.2181
    1TMC1    C213866   0.064   0.397  14.339 -0.6622 -0.2284 -0.3809
    1TMC1    C313867   4.698   0.305  14.376  0.4002 -0.5357  0.2657
    1TMC1    C413868   4.667   0.469  14.164 -0.3344  1.0353  0.7641
    1TMC1    C513869   4.566   0.388  14.208  0.0518  0.0896 -0.3266
    1TMC1    C613870   4.576   0.300  14.313  0.3749  0.4051  0.6102
    1TMC1     C13871   0.148   0.577  14.211  0.4468  1.0391  0.7392
    1TMC1     O13872   0.229   0.581  14.303 -0.3471  0.0788  0.0707
    1TMC1     H13873   0.154   0.402  14.399 -0.3970  0.0157 -0.7999
    1TMC1    H113874   4.654   0.539  14.082 -0.1099 -0.4384 -0.5441
    1TMC1    H213875   4.493   0.238  14.345 -0.5515  0.0084 -2.5959
    1TMC1    C713876   4.438   0.420  14.169  0.3802 -0.5710 -0.1423
    1TMC1    C813877   4.719   0.212  14.489 -0.3097  0.5420 -0.5333
    1TMC1    O113878   4.431   0.494  14.070 -0.7544  0.4423  0.4309
    1TMC1    O213879   0.043   0.239  14.595  0.4668 -0.1890 -0.5094
    1TMC1    O313880   4.381   0.450  14.287 -0.3924 -0.2358 -0.3452
    1TMC1    H313881   4.421   0.408  14.366  1.3480  0.2117 -0.9835
    1TMC1    O513882   4.666   0.096  14.452  0.0040  0.0182 -0.1601
    1TMC1    H513883   4.633   0.092  14.359  1.0349 -1.3062 -0.4721
    2MPD2     C13884   0.229   1.067  14.069  0.0792  0.5374 -0.0836
    2MPD2    C113885   0.098   1.040  14.052 -1.0513 -0.1235  0.2891
    2MPD2    C213886   0.058   0.912  14.086 -0.3422 -0.4435  0.1425
    2MPD2    C313887   0.145   0.819  14.135  0.1251  0.9396  0.1052
    2MPD2    C413888   0.274   0.857  14.171  0.2402 -0.2628  0.2827
    2MPD2    C513889   0.319   0.981  14.135 -0.3696 -0.2315  0.1354
    2MPD2     H13890   4.696   0.871  14.066  0.4440 -2.0799 -0.2966
    2MPD2    H113891   0.342   0.781  14.208 -0.6244 -1.0427  0.2913
    2MPD2    H213892   0.264   1.167  14.046 -2.1648  1.2608 -0.3890
    2MPD2    H313893   0.426   0.998  14.140 -0.2180 -1.5495  1.3107
    2MPD2     N13894   0.092   0.685  14.147  0.5744 -0.0416  0.1377
    2MPD2    H513895   4.732   0.677  14.113  0.4358 -0.7788  0.7062
    2MPD2    N113896   0.011   1.136  13.994  0.0534  0.5328 -0.4666
    2MPD2    H713897   0.059   1.221  13.963 -1.5414  1.8834  0.7741
    3TMC2    C113898   4.553   1.215  13.881  0.1700  0.2148 -0.3466
    3TMC2    C213899   4.425   1.256  13.901 -0.4062 -0.0634 -0.9275
    3TMC2    C313900   4.375   1.363  13.830  0.2539  0.3840 -0.3242
    3TMC2    C413901   4.635   1.279  13.788  0.4547  0.1572 -0.5851
    3TMC2    C513902   4.580   1.388  13.726  0.5804  0.5558  0.3761
    3TMC2    C613903   4.456   1.435  13.742  0.9264 -1.2476 -0.9850
    3TMC2     C13904   4.612   1.113  13.971 -0.5409 -0.0007  0.3567
    3TMC2     O13905   4.529   1.032  14.011 -0.0655 -0.2856  0.2510
    3TMC2     H13906   4.372   1.211  13.984  2.3177 -2.0870 -0.2741
    3TMC2    H113907   0.003   1.249  13.776  0.7631  1.1517 -0.4215
    3TMC2    H213908   4.428   1.524  13.688  0.8905 -1.1370 -0.7840
    3TMC2    C713909   4.673   1.448  13.639 -0.1095 -1.3708 -0.2678
    3TMC2    C813910   4.256   1.431  13.877  0.2597 -0.0275  0.3346
    3TMC2    O113911   0.024   1.370  13.603  0.0769 -0.5773  0.0653
    3TMC2    O213912   4.215   1.434  13.994 -0.3567  0.6723 -0.2094
    3TMC2    O513913   4.174   1.416  13.769 -0.1985 -0.0765 -0.6373
    3TMC2    H513914   4.222   1.384  13.690  0.8964  1.4738 -0.6047
    4TMC2    C113915   4.433   2.376  13.370 -0.5082  0.3781  0.2826
    4TMC2    C213916   4.535   2.456  13.337 -0.3809 -0.1773 -0.2391
    4TMC2    C313917   4.661   2.412  13.336 -0.5593  0.3640 -0.0799
    4TMC2    C413918   4.466   2.261  13.435  1.0461  0.1175  0.0886
    4TMC2    C513919   4.599   2.229  13.452 -0.4144 -0.1468 -0.5538
    4TMC2    C613920   4.700   2.296  13.387  0.5839 -0.4078 -0.4620
    4TMC2     C13921   4.298   2.425  13.366  0.2738  0.1925 -0.8507
    4TMC2     O13922   4.282   2.551  13.360 -0.2468  0.2486  0.3743
    4TMC2     H13923   4.511   2.554  13.299 -1.1163 -0.6443 -0.9906
    4TMC2    H113924   4.393   2.191  13.473  1.7613  0.7419  2.6250
    4TMC2    H213925   0.067   2.261  13.388  1.0049  0.8472  0.9465
    4TMC2    C713926   4.609   2.093  13.508 -0.2547 -0.5091  0.2933
    4TMC2    C813927   0.024   2.508  13.291  0.1151 -0.5267  0.1319
    4TMC2    O113928   4.515   2.041  13.578 -0.4009  0.3189  0.3433
    4TMC2    O213929   4.729   2.626  13.281 -0.0308  0.3977  0.4392
    4TMC2    O513930   0.119   2.440  13.227 -0.1553  0.0605 -0.2695
    4TMC2    H513931   0.110   2.343  13.237 -1.3982  0.0634 -1.3477
    5MPD2     C13932   3.838   2.374  13.153  0.4042 -0.7562  0.3867
    5MPD2    C113933   3.890   2.252  13.163 -0.2913  0.0189  0.4027
    5MPD2    C213934   4.018   2.234  13.222 -0.8531  0.0342 -0.0902
    5MPD2    C313935   4.089   2.348  13.262 -0.3886 -0.9415 -0.5933
    5MPD2    C413936   4.034   2.467  13.258  0.1218 -0.2243  0.1271
    5MPD2    C513937   3.905   2.479  13.206  0.1780  0.2032  0.0204
    5MPD2     H13938   4.061   2.135  13.232 -2.7596 -0.8006 -0.1065
    5MPD2    H113939   4.085   2.558  13.288 -2.5639  0.5370  2.3807
    5MPD2    H213940   3.743   2.390  13.104  0.5673  1.2127  0.7027
    5MPD2    H313941   3.854   2.575  13.199 -0.2241 -0.1451 -1.8658
    5MPD2     N13942   4.220   2.328  13.310 -0.0014  0.1014 -0.1578
    5MPD2    H513943   4.255   2.234  13.295 -0.2690 -0.1591  0.8295
    5MPD2    N113944   3.820   2.146  13.099  0.2239  0.3134 -0.3455
    5MPD2    H713945   3.738   2.169  13.044  0.5200  2.4943  0.1381
    6MPD1     C13946   3.213   3.202  11.940  0.0518  0.8292  0.2667
    6MPD1    C113947   3.226   3.080  11.885  0.4495 -0.2115  0.1273
    6MPD1    C213948   3.249   2.973  11.970 -0.2390 -0.7452  0.0749
    6MPD1    C313949   3.264   2.987  12.102 -0.4400 -0.1072  0.1714
    6MPD1    C413950   3.229   3.103  12.157  0.1792  0.4389 -0.3140
    6MPD1    C513951   3.209   3.216  12.081 -0.2144  0.9558 -0.1736
    6MPD1     H13952   3.250   2.873  11.929  2.6530 -0.2083 -1.2046
    6MPD1    H113953   3.218   3.108  12.265  0.8627 -0.5525 -0.2026
    6MPD1    H213954   3.204   3.293  11.881  0.5283  0.7046 -0.0015
    6MPD1    H313955   3.200   3.318  12.115 -0.6581  0.3711  1.4561
    6MPD1     N13956   3.305   2.873  12.182 -0.5290  0.2633  0.2205
    6MPD1    H513957   3.284   2.886  12.281  4.5812  0.2518  1.3191
    6MPD1    N113958   3.223   3.068  11.742  0.3154  0.0783 -0.8256
    6MPD1    H613959   3.168   3.139  11.694 -4.4524 -2.6471  0.5439
    6MPD1    H713960   3.193   2.975  11.715  0.3610 -0.5249  1.1732
    7MPD2     C13961   3.212   2.442  12.830  0.1270 -0.8282 -0.6581
    7MPD2    C113962   3.246   2.356  12.730  0.3056  0.1211 -0.1111
    7MPD2    C213963   3.289   2.229  12.761 -0.5365  0.2128 -0.0186
    7MPD2    C313964   3.302   2.181  12.888  0.7632  0.0527 -0.5523
    7MPD2    C413965   3.247   2.263  12.989 -0.0547  0.0501 -0.4075
    7MPD2    C513966   3.208   2.388  12.953 -0.8757  0.9666 -0.8183
    7MPD2     H13967   3.316   2.169  12.675  0.2349 -0.2628  0.5597
    7MPD2    H113968   3.248   2.229  13.093  1.2437  1.9391  0.1902
    7MPD2    H213969   3.175   2.542  12.813 -0.1074 -0.8458 -0.2541
    7MPD2    H313970   3.185   2.457  13.033 -1.3167 -1.8136  1.4357
    7MPD2     N13971   3.364   2.057  12.923 -0.2007 -0.5780 -0.3640
    7MPD2    H513972   3.376   2.048  13.023  0.8900  0.0916 -0.4282
    7MPD2    N113973   3.271   2.401  12.602  0.5647  0.7089 -0.2799
    7MPD2    H713974   3.277   2.326  12.534  0.5655  0.8424 -0.4274
    8TMC3    C113975   3.572   1.917  12.886 -0.0006  0.5809 -0.3977
    8TMC3    C213976   3.644   1.973  12.980 -0.4876 -0.4161  0.2885
    8TMC3    C313977   3.769   1.936  12.999  0.3725 -0.0446  0.9388
    8TMC3    C413978   3.634   1.826  12.799  0.4370  0.8720 -1.0496
    8TMC3    C513979   3.767   1.783  12.811  0.3622  0.0910 -0.6477
    8TMC3    C613980   3.830   1.834  12.927  0.1155 -0.1917  0.1431
    8TMC3     C13981   3.445   1.989  12.832 -0.2722 -0.2861  0.4051
    8TMC3     O13982   3.449   1.994  12.711 -0.5527 -0.0251  0.2036
    8TMC3     H13983   3.598   2.052  13.038  1.2320  0.1660  0.8535
    8TMC3    H113984   3.568   1.781  12.726 -1.3887  1.3406  0.3139
    8TMC3    H213985   3.936   1.815  12.936 -0.1682 -1.3502  1.0585
    8TMC3    C713986   3.839   1.836  12.703 -0.1034  0.1860 -0.3821
    8TMC3    C813987   3.870   2.021  13.075  0.0033 -0.2234  0.2479
    8TMC3    O113988   3.956   1.801  12.691  0.1053 -0.0408 -0.3414
    8TMC3    O213989   3.976   1.967  13.117  0.2988  0.2201  0.1621
    9TMC3    C113990   3.408   2.672  12.249 -0.1157  0.4554 -0.0170
    9TMC3    C213991   3.493   2.576  12.220  0.4057  0.0246 -0.5246
    9TMC3    C313992   3.509   2.466  12.299 -0.0835 -0.4908 -0.0531
    9TMC3    C413993   3.317   2.657  12.348 -0.1065  0.3238  0.2614
    9TMC3    C513994   3.335   2.545  12.427 -0.3234  0.1298  0.3408
    9TMC3    C613995   3.428   2.449  12.403 -0.8993 -0.3332 -0.1393
    9TMC3     C13996   3.376   2.761  12.143 -0.2080 -0.1825  0.4331
    9TMC3     O13997   3.411   2.734  12.028 -0.1891  0.5673 -0.5205
    9TMC3     H13998   3.560   2.599  12.138 -0.5340  1.2921 -0.9289
    9TMC3    H113999   3.235   2.722  12.375 -1.0358 -1.3775  1.5660
    9TMC3    H214000   3.451   2.371  12.475  0.5505 -1.3992 -1.7419
    9TMC3    C714001   3.260   2.530  12.550 -0.5437 -0.6573  0.5891
    9TMC3    C814002   3.629   2.391  12.295 -0.1416  0.4938  0.6756
    9TMC3    O114003   3.219   2.634  12.601  0.2606  0.5309 -0.0013
    9TMC3    O214004   3.721   2.444  12.233  0.3725  0.3054  0.4624
   10MPD2     C14005   3.926   2.008  12.470 -0.0910 -0.3080 -0.1493
   10MPD2    C114006   3.797   2.000  12.523 -0.0056  0.1700 -0.6640
   10MPD2    C214007   3.701   2.081  12.467 -0.6167 -0.6037  0.5621
   10MPD2    C314008   3.734   2.192  12.389  0.4722 -0.2182  0.3683
   10MPD2    C414009   3.867   2.209  12.339  0.1568 -0.2502  0.1678
   10MPD2    C514010   3.958   2.110  12.382  0.3914  0.6273  0.6488
   10MPD2     H14011   3.601   2.079  12.511 -1.2396 -0.5456 -0.8573
   10MPD2    H114012   3.894   2.290  12.272 -0.7667  0.3939  0.5728
   10MPD2    H214013   4.003   1.939  12.503 -0.4342 -0.7340 -0.2424
   10MPD2    H314014   4.064   2.123  12.365  0.5832 -1.2930  0.3491
   10MPD2     N14015   3.619   2.267  12.363  0.4679  0.2800 -0.5532
   10MPD2    H514016   3.532   2.238  12.405  1.7595 -1.6983  0.7602
   10MPD2    N114017   3.760   1.918  12.628 -0.1037 -0.0889  0.0004
   10MPD2    H714018   3.664   1.932  12.659  0.1247 -1.6412  1.3607
   11MPD2     C14019   0.123   1.651  13.523 -0.1153 -0.4683  0.3342
   11MPD2    C114020   4.726   1.680  13.558  0.7694 -0.3842 -0.0505
   11MPD2    C214021   4.684   1.811  13.543 -0.3453  0.0763  0.1996
   11MPD2    C314022   0.035   1.906  13.493  0.5585  0.3698 -0.0213
   11MPD2    C414023   0.160   1.879  13.458  0.5100  0.4570 -0.0577
   11MPD2    C514024   0.200   1.750  13.469  0.3092  0.2626 -0.2122
   11MPD2     H14025   4.593   1.849  13.586  0.1449  1.5957 -0.1077
   11MPD2    H114026   0.228   1.955  13.420  0.5066  0.5796  0.1816
   11MPD2    H214027   0.168   1.555  13.549 -0.4717 -0.2857  1.6494
   11MPD2    H314028   0.294   1.723  13.425  2.4992  2.5941  2.9828
   11MPD2     N14029   4.734   2.040  13.475 -0.6439  0.6160 -0.0195
   11MPD2    H514030   0.044   2.096  13.404 -1.3789  0.8955 -0.2663
   11MPD2    N114031   4.652   1.582  13.628 -0.0662 -0.2384  0.3428
   11MPD2    H714032   4.566   1.615  13.670  1.4193  2.1380  1.4707
    1MPD1     C14033   1.734   2.935   0.179 -0.0412 -0.2804 -0.8237
    1MPD1    C114034   1.709   2.934   0.315 -0.3658 -0.7076  0.4223
    1MPD1    C214035   1.783   2.851   0.399 -0.5750 -0.7564 -0.4366
    1MPD1    C314036   1.884   2.770   0.352 -0.4568  0.0098  0.1864
    1MPD1    C414037   1.909   2.770   0.219 -0.2405 -0.2940  0.1025
    1MPD1    C514038   1.838   2.851   0.136  0.4185 -0.1628 -0.8737
    1MPD1     H14039   1.763   2.862   0.506  1.7671 -3.0800  0.2099
    1MPD1    H114040   1.996   2.719   0.181  0.8041  0.9696  0.8004
    1MPD1    H214041   1.675   2.990   0.107  1.1797 -0.8112 -2.2137
    1MPD1    H314042   1.864   2.856   0.031  2.7344 -1.7701 -0.3778
    1MPD1     N14043   1.969   2.690   0.434 -0.3189  0.7119 -0.0912
    1MPD1    H514044   2.042   2.633   0.391 -2.6918 -1.7067 -0.9170
    1MPD1    N114045   1.604   3.018   0.360 -0.4982  0.2894 -0.1500
    1MPD1    H614046   1.519   2.991   0.312 -0.4118  3.0551 -1.8540
    1MPD1    H714047   1.595   3.014   0.461  0.1944  0.3343 -0.0846
    2MPD1     C14048   1.759   1.930   1.005 -0.4113 -0.7398  0.8550
    2MPD1    C114049   1.710   2.056   1.019  0.2231  1.4256 -0.4403
    2MPD1    C214050   1.761   2.151   0.940  0.3519  0.5766 -0.5322
    2MPD1    C314051   1.875   2.130   0.869 -0.4447  0.7318  0.1823
    2MPD1    C414052   1.934   2.009   0.871 -0.2065  0.1090  0.2746
    2MPD1    C514053   1.870   1.903   0.934 -0.2097 -0.4105 -0.1825
    2MPD1     H14054   1.723   2.253   0.940 -1.6680 -0.1586 -2.3208
    2MPD1    H114055   2.015   1.984   0.803 -1.2566  1.5487 -1.5029
    2MPD1    H214056   1.706   1.846   1.048  1.5466 -0.7668  3.1533
    2MPD1    H314057   1.902   1.799   0.933  0.2091 -0.2913  0.2560
    2MPD1     N14058   1.940   2.244   0.828 -0.0675 -0.3520 -0.2558
    2MPD1    H514059   1.880   2.325   0.844  0.1181  0.1171 -1.9242
    2MPD1    N114060   1.584   2.082   1.082  0.1872  0.1277  0.2917
    2MPD1    H614061   1.577   2.178   1.115  0.5785  0.1474  0.3219
    2MPD1    H714062   1.576   2.028   1.168  0.9871 -1.9612 -0.9666
    3TMC3    C114063   2.112   2.385   0.726  0.2041  0.1039  0.7124
    3TMC3    C214064   2.239   2.393   0.679  0.7044 -0.1497  0.2923
    3TMC3    C314065   2.270   2.504   0.605  0.1256  0.3015 -1.0559
    3TMC3    C414066   2.023   2.482   0.700  0.1014  0.3707  0.9012
    3TMC3    C514067   2.052   2.582   0.618  0.2469  0.1602 -0.2508
    3TMC3    C614068   2.180   2.594   0.573 -0.9062  0.0280  0.0330
    3TMC3     C14069   2.068   2.250   0.779  0.0330  0.2893 -0.3512
    3TMC3     O14070   2.153   2.167   0.765 -0.3818 -1.0064  0.0212
    3TMC3     H14071   2.303   2.307   0.695 -1.4653 -1.1293  3.7231
    3TMC3    H114072   1.921   2.469   0.736  0.6950 -0.8270  2.1332
    3TMC3    H214073   2.206   2.685   0.521 -1.7483  1.0880  1.4533
    3TMC3    C714074   1.947   2.663   0.568 -0.3861 -0.4202  0.3253
    3TMC3    C814075   2.405   2.512   0.549 -0.1378 -0.0529  0.6529
    3TMC3    O114076   1.846   2.672   0.627 -0.6236  0.3336  0.1056
    3TMC3    O214077   2.426   2.596   0.463 -0.5036  0.3201  0.8994
    4MPD1     C14078   2.821   2.253   0.413  0.4451  0.2836  0.1333
    4MPD1    C114079   2.797   2.224   0.543  0.0867  0.1845  0.0565
    4MPD1    C214080   2.685   2.282   0.603  0.2918 -0.0482  0.1511
    4MPD1    C314081   2.605   2.372   0.539  0.2116 -0.4890  0.5142
    4MPD1    C414082   2.641   2.401   0.409 -0.2607 -0.0393 -0.2596
    4MPD1    C514083   2.742   2.336   0.345  0.3087  0.2523  0.1158
    4MPD1     H14084   2.651   2.261   0.704  2.0181  1.2825  1.0059
    4MPD1    H114085   2.593   2.480   0.352  0.0077  0.1675 -0.1989
    4MPD1    H214086   2.908   2.205   0.369 -1.4871 -2.5702 -0.5596
    4MPD1    H314087   2.768   2.365   0.244 -1.1867 -0.0966 -0.3749
    4MPD1     N14088   2.496   2.432   0.612  0.2564  1.1173  0.4048
    4MPD1    H514089   2.464   2.390   0.699 -1.0313  0.4308 -0.4020
    4MPD1    N114090   2.880   2.131   0.603 -0.7586 -0.0540 -0.0615
    4MPD1    H614091   2.961   2.107   0.546  0.6453 -2.2859  2.8943
    4MPD1    H714092   2.894   2.141   0.703 -0.7468  1.0301 -0.1712
    1TCq1    O114093   3.598   2.361  10.744 -0.3754 -0.4082 -0.0661
    1TCq1    C114094   3.604   2.496  10.742 -0.6352  0.6682 -0.1567
    1TCq1    O214095   3.577   2.573  10.650 -0.0547  0.1763 -0.1852
    1TCq1    C214096   3.699   2.540  10.854  0.0257  0.1854 -0.8964
    1TCq1    C314097   3.777   2.448  10.920  0.0992 -0.2188  0.0730
    1TCq1    C414098   3.869   2.491  11.012  0.2355 -0.7260  0.3232
    1TCq1    C514099   3.885   2.628  11.023  0.5296  0.1034 -0.6178
    1TCq1    C614100   3.797   2.711  10.965  0.5891 -0.6646  0.9770
    1TCq1    C714101   3.705   2.677  10.876 -0.1515 -0.1329  0.2468
    1TCq1    C814102   3.826   2.855  10.968  0.4035 -0.1080 -0.5150
    1TCq1    O414103   3.800   2.916  10.866  0.4168 -0.0445  0.4447
    1TCq1    C914104   3.979   2.406  11.048 -0.0011  0.6209  0.1861
    1TCq1    O514105   3.964   2.291  11.009 -0.8176  0.0212  0.0614
    1TCq1    O614106   4.075   2.452  11.114  0.2360  0.4633  0.3549
    1TCq1    H114107   3.601   2.331  10.837 -2.2422  1.0594  0.4558
    1TCq1    H214108   3.783   2.343  10.893  0.6972  0.0579 -0.8806
    1TCq1    H314109   3.966   2.671  11.080  0.3347 -0.0570 -0.2196
    1TCq1    H414110   3.638   2.752  10.834  0.2187 -0.8946 -1.6923
    2MPD1     C14111   3.861   3.299  11.203  0.6951 -0.2081  0.5929
    2MPD1    C114112   3.854   3.203  11.300 -0.6880  1.3969  0.0343
    2MPD1    C214113   3.853   3.063  11.261  0.7851  0.1067 -0.7233
    2MPD1    C314114   3.857   3.030  11.126 -0.1097  0.1779 -1.0081
    2MPD1    C414115   3.868   3.134  11.035  0.3797  0.0732  0.3421
    2MPD1    C514116   3.871   3.269  11.075 -0.4243 -0.3512  0.0836
    2MPD1     H14117   3.829   2.987  11.335  0.1732  0.8528 -0.1519
    2MPD1    H114118   3.866   3.110  10.929 -0.1406 -2.2636  0.8910
    2MPD1    H214119   3.857   3.407  11.215  0.4848 -0.3369  1.6504
    2MPD1    H314120   3.879   3.348  11.001 -1.1994  0.8997  1.3319
    2MPD1     N14121   3.851   2.899  11.094 -0.2619 -0.3864 -0.2477
    2MPD1    H514122   3.851   2.827  11.165  0.1941  1.2607  1.4232
    2MPD1    N114123   3.803   3.238  11.420 -0.2322 -0.1128  0.5378
    2MPD1    H614124   3.835   3.334  11.431 -2.3415  0.6098  0.2438
    2MPD1    H714125   3.843   3.176  11.490 -3.5115 -1.6972  1.0060
    1TMC1    C114126   1.426   1.840   1.453 -0.1848 -0.2960 -0.0428
    1TMC1    C214127   1.417   1.769   1.574 -0.0816 -0.0176 -0.3952
    1TMC1    C314128   1.296   1.791   1.631 -0.5606  0.4481 -0.1822
    1TMC1    C414129   1.330   1.920   1.397 -0.9032 -1.2227  0.5062
    1TMC1    C514130   1.212   1.925   1.462 -0.6249  0.0846 -0.9694
    1TMC1    C614131   1.190   1.860   1.577  0.4046  0.2450  0.4491
    1TMC1     C14132   1.544   1.817   1.377  0.3593  0.0702  0.3165
    1TMC1     O14133   1.575   1.900   1.288 -1.0733  0.3721  0.3567
    1TMC1     H14134   1.509   1.743   1.625 -0.3842  2.5156  1.4361
    1TMC1    H114135   1.346   1.985   1.312  1.4906  0.6752  2.4080
    1TMC1    H214136   1.096   1.851   1.629  0.3366 -0.3950  0.2122
    1TMC1    C714137   1.098   1.983   1.390 -1.1822 -0.3417  0.5091
    1TMC1    C814138   1.265   1.736   1.760 -0.0801  0.0549  0.0705
    1TMC1    O114139   1.092   1.969   1.271  0.5392  0.0934  0.4699
    1TMC1    O214140   1.186   1.790   1.842  0.2416  0.1706 -0.7734
    1TMC1    O314141   1.091   2.106   1.452  0.2634 -0.1037 -0.1476
    1TMC1    H314142   1.104   2.101   1.549  0.5965 -0.7760 -0.2251
    1TMC1    O514143   1.351   1.630   1.781  0.3983 -0.3928  0.0093
    1TMC1    H514144   1.405   1.604   1.703  1.7377 -1.5512  1.3278
    2MPD1     C14145   1.977   1.554   1.263 -0.6536  0.4892 -0.1911
    2MPD1    C114146   1.901   1.478   1.350  0.0691 -0.0507  0.2570
    2MPD1    C214147   1.787   1.536   1.404  0.2792 -0.3285  0.3931
    2MPD1    C314148   1.740   1.653   1.358 -0.2371 -0.2613 -0.1251
    2MPD1    C414149   1.803   1.713   1.253  0.1548  0.1552 -0.7060
    2MPD1    C514150   1.923   1.669   1.213  0.2839 -0.0314  0.0537
    2MPD1     H14151   1.741   1.482   1.486 -0.3496 -0.2100  0.1233
    2MPD1    H114152   1.767   1.811   1.223  0.5941  0.5972  0.2285
    2MPD1    H214153   2.072   1.528   1.217 -1.0237  0.4375 -0.9130
    2MPD1    H314154   1.991   1.732   1.156  0.1897 -0.2087 -0.2520
    2MPD1     N14155   1.613   1.702   1.407  0.0661  0.0531  0.1788
    2MPD1    H514156   1.562   1.648   1.476 -0.6346 -1.2529 -1.3726
    2MPD1    N114157   1.956   1.368   1.423  0.5406  0.2931  0.1619
    2MPD1    H614158   1.889   1.297   1.451  0.4534  1.2349  2.2949
    2MPD1    H714159   2.031   1.324   1.370  0.5704  0.3027  0.1962
    1MPD1     C14160   0.612   3.517  10.761  0.4481 -0.0051 -0.1159
    1MPD1    C114161   0.707   3.418  10.759 -0.1823 -0.0812  0.2226
    1MPD1    C214162   0.785   3.407  10.870 -0.2032  0.5734  0.0443
    1MPD1    C314163   0.788   3.500  10.974  0.2300  0.0006 -1.1120
    1MPD1    C414164   0.705   3.609  10.965  0.5055 -0.0784  0.4371
    1MPD1    C514165   0.613   3.606  10.866  0.1027 -0.0423 -0.2867
    1MPD1     H14166   0.859   3.330  10.880  1.9466  2.6132 -0.1256
    1MPD1    H114167   0.687   3.684  11.041  2.1994  1.5742 -0.8060
    1MPD1    H214168   0.540   3.529  10.681 -0.1735  0.7512  0.5633
    1MPD1    H314169   0.544   3.690  10.871  0.5841  0.3635 -0.5303
    1MPD1     N14170   0.863   3.475  11.097 -0.6454 -0.8882  0.3645
    1MPD1    H514171   0.910   3.386  11.099  0.7214 -0.1439  1.2939
    1MPD1    N114172   0.702   3.312  10.661 -0.2832  0.0598  0.2657
    1MPD1    H614173   0.684   3.350  10.568  0.7135  0.0241  0.0618
    1MPD1    H714174   0.793   3.267  10.657  0.1986  1.0848 -0.2800
    2MPD1     C14175   1.088   3.843   9.741 -0.5949 -0.1229  0.3396
    2MPD1    C114176   1.185   3.755   9.786  0.6418  0.8186  0.1813
    2MPD1    C214177   1.180   3.622   9.775  0.1628  0.1530  0.5724
    2MPD1    C314178   1.068   3.559   9.720 -0.7158 -0.0360  0.0729
    2MPD1    C414179   0.972   3.641   9.682  0.5999  0.5308  0.1909
    2MPD1    C514180   0.988   3.782   9.682  0.7508 -0.4174  0.1751
    2MPD1     H14181   1.271   3.568   9.801 -0.0550 -1.0680 -1.1957
    2MPD1    H114182   0.879   3.603   9.640  0.4831  0.6537  0.3383
    2MPD1    H214183   1.089   3.950   9.752  0.1276 -0.0158 -0.8655
    2MPD1    H314184   0.903   3.834   9.640  0.0500 -0.3706  1.6583
    2MPD1     N14185   1.045   3.422   9.726  0.3008 -0.2248  0.1487
    2MPD1    H514186   0.961   3.389   9.680 -2.0467  3.4141  1.8275
    2MPD1    N114187   1.288   3.805   9.870 -0.1597 -0.3693  0.1014
    2MPD1    H614188   1.296   3.905   9.886 -0.3056 -0.2391 -0.6622
    2MPD1    H714189   1.378   3.767   9.844 -0.1384  0.2798 -0.7512
    3MPD1     C14190   0.292   3.155   9.507 -0.4538 -0.0386 -0.0845
    3MPD1    C114191   0.401   3.201   9.430  0.5420  0.2754  0.0346
    3MPD1    C214192   0.528   3.172   9.474 -0.2990 -0.4024  0.0514
    3MPD1    C314193   0.546   3.104   9.597 -0.0848 -0.2529 -0.5176
    3MPD1    C414194   0.434   3.065   9.668  0.1826  0.6561 -0.0594
    3MPD1    C514195   0.310   3.076   9.615 -0.0987 -0.0474  0.0050
    3MPD1     H14196   0.616   3.190   9.413  0.8414 -0.8718  1.5580
    3MPD1    H114197   0.435   3.026   9.769 -0.0547  0.3726 -0.1666
    3MPD1    H214198   0.191   3.187   9.487  0.8478  3.9673 -0.2323
    3MPD1    H314199   0.222   3.060   9.676  0.4991  2.2660  1.4855
    3MPD1     N14200   0.673   3.090   9.655 -0.7446  0.3380 -0.4393
    3MPD1    H514201   0.754   3.114   9.598 -1.3131  2.2106 -0.4529
    3MPD1    N114202   0.383   3.304   9.333 -0.5804  0.2559 -0.7120
    3MPD1    H614203   0.295   3.286   9.285 -0.4669 -0.2061 -0.7448
    3MPD1    H714204   0.459   3.305   9.265 -0.3255 -0.3690 -0.4315
    4MPD2     C14205   1.414   3.521  11.112  0.7293  0.2306  0.1551
    4MPD2    C114206   1.358   3.412  11.182  0.2225  0.2337 -0.1804
    4MPD2    C214207   1.381   3.283  11.139 -0.6553 -0.1464 -0.2764
    4MPD2    C314208   1.453   3.259  11.023  0.0010  0.1809  0.1145
    4MPD2    C414209   1.504   3.362  10.952  0.1125 -0.5233  0.1203
    4MPD2    C514210   1.484   3.487  10.999  0.2192 -0.5414  0.1176
    4MPD2     H14211   1.354   3.198  11.201 -2.2602 -0.9768 -2.1062
    4MPD2    H114212   1.566   3.344  10.865 -0.6958 -1.1140 -0.3289
    4MPD2    H214213   1.408   3.621  11.153 -1.1316 -0.8387  2.4748
    4MPD2    H314214   1.521   3.563  10.930 -0.6722  1.1160  1.4584
    4MPD2     N14215   1.475   3.135  10.964  0.2318  1.3670 -0.2817
    4MPD2    H514216   1.514   3.131  10.870  1.3168 -0.7755  0.2733
    4MPD2    N114217   1.284   3.429  11.305 -0.2995 -0.4214 -0.5985
    4MPD2    H714218   1.261   3.342  11.352  1.9895 -0.5206  0.3150
    5TMC3    C114219   1.130   3.514  11.444  0.4622 -0.0086 -0.2042
    5TMC3    C214220   1.033   3.571  11.373 -0.2410 -0.0445 -0.1223
    5TMC3    C314221   0.936   3.489  11.320 -0.1895 -0.3954 -0.4704
    5TMC3    C414222   1.128   3.380  11.468 -0.7242 -0.1278 -0.4567
    5TMC3    C514223   1.025   3.304  11.415  0.2666  0.2237 -0.5684
    5TMC3    C614224   0.927   3.354  11.340  0.6384  0.3209  0.4957
    5TMC3     C14225   1.251   3.544  11.376 -0.4726 -0.2028 -0.1355
    5TMC3     O14226   1.271   3.664  11.342 -0.8286 -0.2731  0.5723
    5TMC3     H14227   1.037   3.672  11.335 -0.6600  0.4663  1.1949
    5TMC3    H114228   1.202   3.325  11.525 -0.1615  0.8570 -0.2440
    5TMC3    H214229   0.858   3.295  11.281 -0.2612  1.7748  0.0632
    5TMC3    C714230   1.063   3.172  11.388  0.1961 -0.7082  0.2460
    5TMC3    C814231   0.856   3.554  11.215 -0.2199 -0.2149 -0.8305
    5TMC3    O114232   1.182   3.164  11.373 -0.9182  0.2592  0.3565
    5TMC3    O214233   0.821   3.674  11.225  0.4383 -0.5062  0.4755
    6TMC3    C114234   1.045   3.201   9.831  0.7863  0.5205 -0.0672
    6TMC3    C214235   0.919   3.177   9.775 -0.1254 -0.2196 -0.5035
    6TMC3    C314236   0.837   3.078   9.830  0.6861  0.3565 -0.3546
    6TMC3    C414237   1.088   3.132   9.936 -0.3642 -0.1422  0.7048
    6TMC3    C514238   1.002   3.037   9.989  0.5540 -0.0671  1.0281
    6TMC3    C614239   0.885   3.006   9.939  0.3002 -0.2791 -0.0088
    6TMC3     C14240   1.115   3.327   9.802 -0.5278  0.4672 -0.6454
    6TMC3     O14241   1.220   3.344   9.861 -0.0910  0.7729  0.5864
    6TMC3     H14242   0.880   3.222   9.685 -0.5561 -0.4209 -0.4191
    6TMC3    H114243   1.184   3.156   9.980  0.5493 -1.5261 -0.5064
    6TMC3    H214244   0.819   2.923   9.964 -0.1094  0.8388  2.5786
    6TMC3    C714245   1.051   2.964  10.105 -0.1653  0.3131  0.1879
    6TMC3    C814246   0.698   3.061   9.790 -0.0884  0.5422 -0.1263
    6TMC3    O114247   1.169   2.965  10.140  0.3033 -0.3114 -0.5674
    6TMC3    O214248   0.632   3.007   9.884  0.1788  0.1793 -0.1169
    7MPD2     C14249   1.023   2.686  11.241  0.0539  0.2508 -0.7110
    7MPD2    C114250   1.117   2.778  11.208  0.3523 -0.5114  0.6021
    7MPD2    C214251   1.097   2.907  11.251 -0.0861 -0.6898  0.2515
    7MPD2    C314252   0.987   2.949  11.315 -0.8349 -0.8187 -0.5006
    7MPD2    C414253   0.893   2.853  11.335 -0.3396  0.3293  0.2170
    7MPD2    C514254   0.906   2.722  11.315  0.5065 -0.0035 -0.1584
    7MPD2     H14255   1.180   2.976  11.239 -0.4402 -0.2937  0.0691
    7MPD2    H114256   0.800   2.883  11.384 -0.4262 -0.0489  0.2892
    7MPD2    H214257   1.024   2.582  11.213  2.8085  0.6501 -2.0356
    7MPD2    H314258   0.826   2.650  11.326 -1.4596  2.1890 -0.2767
    7MPD2     N14259   0.964   3.084  11.365 -0.1433 -0.3878 -0.0832
    7MPD2    H514260   0.871   3.106  11.399 -0.0209 -0.9201  0.5797
    7MPD2    N114261   1.233   2.749  11.133 -0.6087  0.0058 -0.3706
    7MPD2    H714262   1.293   2.830  11.119 -0.8218  0.0278 -1.1618
    8TMC3    C114263   1.348   2.675  10.952  0.3650 -0.3571 -0.5825
    8TMC3    C214264   1.283   2.699  10.833  0.2297  0.4965 -0.7745
    8TMC3    C314265   1.316   2.805  10.761 -0.0169 -0.2175  0.5073
    8TMC3    C414266   1.441   2.767  10.998 -0.1182  0.4829  0.7932
    8TMC3    C514267   1.461   2.891  10.932  0.5000 -0.0153  0.3893
    8TMC3    C614268   1.402   2.905  10.809 -0.0297 -0.3342  0.9752
    8TMC3     C14269   1.247   2.638  11.050  0.4338  0.6749 -0.4585
    8TMC3     O14270   1.165   2.551  11.023  0.1485  0.4411  0.0670
    8TMC3     H14271   1.208   2.635  10.788  0.1511 -0.7724  1.1482
    8TMC3    H114272   1.492   2.748  11.092  0.9201  0.2044  0.1657
    8TMC3    H214273   1.404   3.000  10.757  0.0084 -0.7441  0.2220
    8TMC3    C714274   1.446   3.011  11.015  0.2757 -0.6608 -0.0287
    8TMC3    C814275   1.250   2.827  10.633  0.6772  0.0303 -0.0412
    8TMC3    O114276   1.440   2.991  11.134 -0.2055 -0.1360  0.4220
    8TMC3    O214277   1.313   2.888  10.548  0.2955 -0.7809  0.6832
    9MPD2     C14278   0.899   2.789  10.572 -0.2820 -0.3025 -0.5105
    9MPD2    C114279   1.029   2.819  10.540 -0.4502 -0.2139 -0.4266
    9MPD2    C214280   1.051   2.861  10.403  0.5318 -0.9103  1.3370
    9MPD2    C314281   0.945   2.898  10.324 -0.1500  0.2506  0.8276
    9MPD2    C414282   0.822   2.896  10.379  1.0814 -0.3327  0.0233
    9MPD2    C514283   0.797   2.816  10.489  0.0242  0.8377  0.2679
    9MPD2     H14284   1.155   2.867  10.372  0.2694 -0.6795  0.4868
    9MPD2    H114285   0.736   2.906  10.315  0.2777 -1.6969  0.8841
    9MPD2    H214286   0.880   2.742  10.668 -0.4138  1.7413  0.4601
    9MPD2    H314287   0.695   2.794  10.517  0.1041 -0.6421 -0.5824
    9MPD2     N14288   0.938   2.938  10.184  0.0571  0.1919  0.5342
    9MPD2    H514289   0.844   2.952  10.147 -0.8150 -2.2442  1.8237
    9MPD2    N114290   1.122   2.787  10.639 -0.5955 -0.2515 -0.1585
    9MPD2    H714291   1.094   2.748  10.729  0.8814  0.8377  0.7756
    1MPD1     C14292   1.389   2.133  16.924 -0.4649 -0.8615 -0.1288
    1MPD1    C114293   1.354   2.046  16.824 -0.3607  0.3347  0.0090
    1MPD1    C214294   1.217   2.039  16.797 -0.0347 -0.0701 -0.4589
    1MPD1    C314295   1.129   2.130  16.844  0.2040 -0.6725  0.3390
    1MPD1    C414296   1.177   2.229  16.922 -0.2615 -0.2393 -0.2827
    1MPD1    C514297   1.304   2.233  16.965 -0.6007  0.4652  0.6687
    1MPD1     H14298   1.181   1.955  16.738 -1.2758  0.4549 -0.4386
    1MPD1    H114299   1.105   2.303  16.954 -0.6731 -0.3940 -0.8505
    1MPD1    H214300   1.490   2.135  16.962 -0.2864  0.6210 -0.6606
    1MPD1    H314301   1.345   2.300  17.039 -1.2990  1.6381 -0.0179
    1MPD1     N14302   0.992   2.137  16.823  0.2092 -0.8005 -0.3784
    1MPD1    H514303   0.933   2.202  16.875  1.7884  1.1770 -1.0441
    1MPD1    N114304   1.436   1.942  16.772  0.1028  0.1538 -0.1016
    1MPD1    H614305   1.535   1.958  16.755 -0.5935  2.8322 -1.7257
    1MPD1    H714306   1.406   1.923  16.676  0.6717 -1.2647  0.0120
    2TMC2    C114307   0.599   1.902  16.748 -0.6040 -0.1265  0.4037
    2TMC2    C214308   0.530   1.980  16.834 -0.2361  0.0826 -0.2632
    2TMC2    C314309   0.595   2.077  16.894 -0.3959 -0.6273 -0.5391
    2TMC2    C414310   0.732   1.924  16.717  0.2621  0.6037  0.4594
    2TMC2    C514311   0.793   2.022  16.791  0.9966 -0.2927 -0.4342
    2TMC2    C614312   0.729   2.103  16.884  0.2212  0.2347 -0.2978
    2TMC2     C14313   0.523   1.798  16.670 -0.8456  0.1868  0.2544
    2TMC2     O14314   0.419   1.764  16.722  0.4752 -0.5847 -0.3237
    2TMC2     H14315   0.425   1.979  16.859  0.2449 -1.6798  1.6605
    2TMC2    H114316   0.784   1.865  16.643  0.2144  0.4537  0.5453
    2TMC2    H214317   0.781   2.170  16.951 -1.5310  0.4269  0.8821
    2TMC2    C714318   0.933   2.038  16.761 -0.4836  0.1451 -0.3747
    2TMC2    C814319   0.524   2.136  17.004 -0.4102 -0.0737 -0.3125
    2TMC2    O114320   0.977   1.964  16.678 -0.1172 -0.1617 -0.0076
    2TMC2    O214321   0.580   2.155  17.108 -0.4173 -0.0103 -0.6875
    2TMC2    O514322   0.431   2.210  16.937 -0.3154  0.3438  0.7006
    2TMC2    H514323   0.411   2.176  16.848  1.5002 -0.3430  0.5661
    3MPD1     C14324   0.448   1.422  16.309  0.7911 -0.2858  1.0935
    3MPD1    C114325   0.571   1.477  16.294  0.3514  0.0336  0.5915
    3MPD1    C214326   0.596   1.594  16.372 -0.0250  0.3258 -0.1778
    3MPD1    C314327   0.521   1.631  16.482 -0.2825 -0.0332 -0.3524
    3MPD1    C414328   0.400   1.565  16.508 -0.5506 -0.0869  0.4140
    3MPD1    C514329   0.371   1.464  16.417 -0.0777  0.1874 -0.1944
    3MPD1     H14330   0.683   1.655  16.349 -0.1673  0.9472  0.9170
    3MPD1    H114331   0.327   1.600  16.579  1.2223  1.0173  1.7130
    3MPD1    H214332   0.405   1.349  16.242  0.1209  2.1130 -1.0895
    3MPD1    H314333   0.276   1.416  16.438 -0.2935  0.8342  0.2939
    3MPD1     N14334   0.577   1.741  16.555 -0.3129  0.0456 -0.3591
    3MPD1    H514335   0.666   1.774  16.518  0.0375 -0.8403 -0.3041
    3MPD1    N114336   0.655   1.457  16.185 -0.7310  0.0520 -0.6440
    3MPD1    H614337   0.745   1.504  16.193 -0.1795 -0.5094 -3.5483
    3MPD1    H714338   0.638   1.371  16.134 -1.7053  0.2887 -0.7291
    1TMC1    C114339   2.821   0.967  12.547  0.3747  0.2882  0.3069
    1TMC1    C214340   2.786   1.105  12.565  0.3296 -0.8729 -0.0467
    1TMC1    C314341   2.657   1.135  12.521 -0.5791 -0.2351  0.1733
    1TMC1    C414342   2.744   0.869  12.489  0.7872  0.0893  0.8363
    1TMC1    C514343   2.620   0.915  12.459  0.3722 -0.5922  1.0981
    1TMC1    C614344   2.563   1.043  12.480 -0.0189  0.2452  0.5787
    1TMC1     C14345   2.965   0.949  12.540  0.2974  0.4314 -0.0593
    1TMC1     O14346   3.000   0.873  12.450 -0.2857  0.1140  0.2282
    1TMC1     H14347   2.849   1.177  12.616 -0.4359 -0.3847  0.2133
    1TMC1    H114348   2.780   0.768  12.478 -4.0303 -1.6835  1.5254
    1TMC1    H214349   2.457   1.055  12.462  0.5721  2.4907 -1.3702
    1TMC1    C714350   2.559   0.854  12.336 -0.1538 -0.3446  0.1257
    1TMC1    C814351   2.628   1.274  12.539  0.6774 -0.9488  0.3721
    1TMC1    O114352   2.440   0.873  12.309 -0.6545 -0.1177 -0.1322
    1TMC1    O214353   2.685   1.356  12.608 -1.1046 -0.1051  0.1453
    1TMC1    O314354   2.654   0.789  12.265 -0.2624  0.6172 -0.4370
    1TMC1    H314355   2.745   0.794  12.301 -0.5729 -3.7252  1.0200
    1TMC1    O514356   2.522   1.304  12.450  0.5464  0.3151  0.7517
    1TMC1    H514357   2.511   1.227  12.391 -0.3378  0.2217  1.0400
    2MPD2     C14358   3.258   0.984  12.539 -0.0773 -0.2143  0.0530
    2MPD2    C114359   3.178   1.033  12.642  0.1472  0.0337 -0.6430
    2MPD2    C214360   3.234   1.111  12.739 -0.1203  0.6123 -0.2123
    2MPD2    C314361   3.365   1.161  12.720 -0.1262 -0.1647 -0.0360
    2MPD2    C414362   3.441   1.115  12.613  0.2774 -0.3159  0.5988
    2MPD2    C514363   3.394   1.018  12.531  0.4242  0.2766  0.2529
    2MPD2     H14364   3.177   1.144  12.824  0.1776 -0.4942  0.4140
    2MPD2    H114365   3.544   1.136  12.586 -0.1794  1.5444  0.2710
    2MPD2    H214366   3.221   0.920  12.460  1.6591  1.2020 -1.9311
    2MPD2    H314367   3.447   0.973  12.449  0.1416  1.9034 -0.8100
    2MPD2     N14368   3.406   1.254  12.815 -0.5333 -0.0824  0.2053
    2MPD2    H514369   3.365   1.270  12.906 -1.1312  0.5011 -0.1644
    2MPD2    N114370   3.035   1.017  12.638  0.2449  0.3776 -0.0763
    2MPD2    H714371   2.982   1.045  12.721  0.5367  0.0505  0.2206
    3TCq1    O114372   3.866   1.516  13.209  0.6498 -0.6959  0.5365
    3TCq1    C114373   3.840   1.529  13.080 -0.6255  0.4574  0.3573
    3TCq1    O214374   3.928   1.540  12.997 -0.4548  0.1498  0.1654
    3TCq1    C214375   3.703   1.518  13.057  0.2881  0.4662 -0.2371
    3TCq1    C314376   3.610   1.590  13.127 -0.3599  0.3353  0.5120
    3TCq1    C414377   3.484   1.579  13.087 -0.6894 -0.2520 -0.4317
    3TCq1    C514378   3.446   1.496  12.980 -0.0907  0.8746  0.0425
    3TCq1    C614379   3.542   1.424  12.916 -0.2337  0.2227 -0.5071
    3TCq1    C714380   3.672   1.447  12.949 -0.3725  0.0895  0.3356
    3TCq1    C814381   3.529   1.326  12.807 -0.6291  0.5734  0.2043
    3TCq1    O414382   3.622   1.304  12.735 -0.3230 -0.0851  0.1335
    3TCq1    C914383   3.387   1.651  13.154 -0.1118  0.2677  0.0161
    3TCq1    O514384   3.273   1.618  13.115 -0.7711 -0.3155  0.4083
    3TCq1    O614385   3.422   1.746  13.233 -0.4493  0.1236  0.0649
    3TCq1    H114386   3.785   1.489  13.258  0.2227 -3.5428 -1.7418
    3TCq1    H214387   3.646   1.670  13.190  0.0972  0.7359 -0.2560
    3TCq1    H314388   3.342   1.481  12.956 -0.5432  2.9831  0.6955
    3TCq1    H414389   3.752   1.404  12.890 -0.2935  0.1325  0.4107
    1MPD2     C14390   2.626   2.135  14.010  0.0335  0.1104  0.3607
    1MPD2    C114391   2.656   2.013  14.075 -0.1093  0.2635  0.0983
    1MPD2    C214392   2.777   2.008  14.139  0.0383 -0.2689  0.1266
    1MPD2    C314393   2.875   2.103  14.123  0.1662 -0.1996  0.2807
    1MPD2    C414394   2.846   2.213  14.044 -0.9145  0.9224  0.2924
    1MPD2    C514395   2.721   2.230  13.997 -1.2079  0.7208 -0.9243
    1MPD2     H14396   2.800   1.929  14.209 -2.4133  0.3973  1.7211
    1MPD2    H114397   2.927   2.278  14.015  2.8249 -4.6468 -1.6904
    1MPD2    H214398   2.534   2.159  13.958  0.7279 -1.2564 -1.4979
    1MPD2    H314399   2.699   2.318  13.937  0.6608  1.1349 -1.0039
    1MPD2     N14400   3.007   2.092  14.180 -0.0831  0.0807 -0.2716
    1MPD2    H514401   3.080   2.154  14.146  1.3361 -0.7298  1.3186
    1MPD2    N114402   2.555   1.910  14.100 -0.1824  0.5802  0.2166
    1MPD2    H714403   2.471   1.907  14.043  0.3669 -1.7484 -0.5009
    2TMC3    C114404   2.454   1.724  14.197 -0.2232 -0.4456  0.0501
    2TMC3    C214405   2.468   1.650  14.307 -0.0824 -0.4943 -0.1919
    2TMC3    C314406   2.373   1.657  14.408  0.3579 -0.5652 -0.7045
    2TMC3    C414407   2.333   1.772  14.167 -0.6997 -0.2586 -0.1300
    2TMC3    C514408   2.229   1.764  14.256 -0.6219  0.6927  0.0842
    2TMC3    C614409   2.252   1.716  14.384 -0.0717  0.4844  0.7074
    2TMC3     C14410   2.568   1.800  14.181 -0.1461  0.4181  0.1073
    2TMC3     O14411   2.658   1.777  14.260 -1.0494 -0.7526  0.1697
    2TMC3     H14412   2.564   1.602  14.321 -0.5275 -1.1749  0.4854
    2TMC3    H114413   2.325   1.832  14.077  1.5282  2.1871  1.3011
    2TMC3    H214414   2.183   1.716  14.468 -0.6894 -1.8314  0.1781
    2TMC3    C714415   2.108   1.843  14.223  0.1737  0.1128  0.6409
    2TMC3    C814416   2.435   1.690  14.535  0.7512  0.2743 -0.2188
    2TMC3    O114417   2.087   1.852  14.102 -0.3250  0.0220 -0.0848
    2TMC3    O214418   2.363   1.722  14.629  0.5028 -0.0691 -0.0044
    3TCq1    O114419   1.861   2.854  14.811 -0.1495  0.7313 -0.4676
    3TCq1    C114420   1.978   2.889  14.756  0.0942  0.3491 -0.5933
    3TCq1    O214421   2.045   2.973  14.808  0.2045 -0.0656 -0.6907
    3TCq1    C214422   2.048   2.766  14.708 -0.7259 -0.6866 -0.3671
    3TCq1    C314423   2.188   2.761  14.701  0.3642  0.4347  0.1100
    3TCq1    C414424   2.249   2.662  14.627 -0.7496 -0.1035  0.1572
    3TCq1    C514425   2.171   2.580  14.552 -0.9002 -0.0946 -0.1567
    3TCq1    C614426   2.040   2.578  14.563  0.0719 -0.6327  0.1330
    3TCq1    C714427   1.975   2.668  14.641  0.2098  0.1102 -0.4041
    3TCq1    C814428   1.959   2.500  14.475  0.5916  0.4250 -0.5979
    3TCq1    O414429   1.855   2.541  14.431 -0.6534 -0.1072  0.4667
    3TCq1    C914430   2.382   2.649  14.610  0.4612  0.0321  0.1104
    3TCq1    O514431   2.458   2.730  14.672 -0.4085  0.0223  0.1048
    3TCq1    O614432   2.418   2.531  14.587  0.4850  0.4297  0.0332
    3TCq1    H114433   1.834   2.763  14.785  2.0952 -0.2776  0.6835
    3TCq1    H214434   2.254   2.835  14.743 -0.3599  1.1389  0.0116
    3TCq1    H314435   2.220   2.523  14.474 -1.3381  0.9726 -1.2171
    3TCq1    H414436   1.867   2.672  14.636  0.1692 -0.9463 -0.3724
    4MPD2     C14437   1.861   2.288  14.283  1.2554 -0.3242  0.2201
    4MPD2    C114438   1.962   2.273  14.369  0.0306 -0.5553 -0.2659
    4MPD2    C214439   2.022   2.151  14.384  0.3731  0.1929 -0.5928
    4MPD2    C314440   1.994   2.038  14.305  0.3303  0.2173 -0.0099
    4MPD2    C414441   1.891   2.053  14.218  0.5824  0.6467 -0.5273
    4MPD2    C514442   1.816   2.166  14.219  0.1451 -0.3553  0.2069
    4MPD2     H14443   2.089   2.132  14.467 -0.3384 -0.1614 -0.0903
    4MPD2    H114444   1.854   1.976  14.152 -0.2264  1.4280 -0.9785
    4MPD2    H214445   1.813   2.381  14.254  0.9845 -0.0249  1.6257
    4MPD2    H314446   1.728   2.170  14.155  0.6468 -1.5836 -0.5737
    4MPD2     N14447   2.076   1.922  14.324  0.0801 -0.4179  0.1604
    4MPD2    H514448   2.139   1.914  14.403  0.6330  0.2474 -0.2151
    4MPD2    N114449   2.015   2.378  14.458 -0.6612  0.4337 -0.4795
    4MPD2    H714450   2.097   2.354  14.512 -1.4852  0.7137  0.8867
    5TMC2    C114451   3.205   1.998  14.561 -0.2376  0.4731 -0.0809
    5TMC2    C214452   3.243   2.134  14.570  0.0050  0.3175  0.5732
    5TMC2    C314453   3.248   2.209  14.449  0.1572 -0.5014  0.6666
    5TMC2    C414454   3.188   1.937  14.438 -0.7597  0.1420 -0.2052
    5TMC2    C514455   3.172   2.023  14.329  0.0557 -0.2711 -0.1082
    5TMC2    C614456   3.204   2.157  14.330  0.2752  0.1908 -0.0718
    5TMC2     C14457   3.127   1.945  14.668  0.5747 -0.1770  0.1093
    5TMC2     O14458   3.151   1.985  14.779 -0.5521 -0.0817  0.2133
    5TMC2     H14459   3.255   2.181  14.666 -0.8879  0.6537  0.5221
    5TMC2    H114460   3.160   1.833  14.433 -0.2864 -0.0493  1.0636
    5TMC2    H214461   3.191   2.226  14.248 -1.1046  2.1514  1.8043
    5TMC2    C714462   3.042   1.995  14.271 -0.5368 -0.3579  0.3146
    5TMC2    C814463   3.248   2.351  14.464  0.1777  0.3651  0.1527
    5TMC2    O114464   2.984   1.906  14.330 -0.3335 -0.3737  0.0488
    5TMC2    O214465   3.193   2.416  14.379  0.3414 -0.6573 -0.0959
    5TMC2    O514466   3.300   2.398  14.577 -0.7011  0.1763 -0.2802
    5TMC2    H514467   3.355   2.330  14.623  0.2574  0.3242 -1.2170
    6MPD2     C14468   2.646   1.764  14.766  0.1249 -0.0808 -0.5882
    6MPD2    C114469   2.668   1.755  14.626  0.6141 -0.1469  0.4893
    6MPD2    C214470   2.800   1.785  14.579 -0.6514  0.5859  0.0650
    6MPD2    C314471   2.904   1.830  14.665  0.0484 -0.0815  0.3738
    6MPD2    C414472   2.878   1.833  14.798 -0.5487  0.4590  0.1967
    6MPD2    C514473   2.749   1.797  14.845  0.0005 -0.7614  0.2169
    6MPD2     H14474   2.826   1.783  14.474 -0.7405 -1.2594  0.0702
    6MPD2    H114475   2.947   1.867  14.875 -1.3660 -0.4536  1.3344
    6MPD2    H214476   2.544   1.741  14.794 -1.2961  3.0875 -3.2063
    6MPD2    H314477   2.743   1.819  14.951 -0.7554 -1.6294  0.3492
    6MPD2     N14478   3.021   1.884  14.608  0.1794  0.1440 -0.0041
    6MPD2    H514479   3.031   1.873  14.508  0.3132  0.5975 -0.0368
    6MPD2    N114480   2.572   1.723  14.523  0.1054  0.5658  0.5659
    6MPD2    H714481   2.604   1.723  14.427 -0.0854 -2.2151  0.5153
  945NH4     N114482   2.851   1.231   0.707 -0.2209 -0.0536  0.7838
  945NH4     H214483   2.774   1.187   0.653  0.2867 -0.5148  0.4480
  945NH4     H314484   2.911   1.285   0.642 -1.5726 -0.0300 -0.4466
  945NH4     H414485   2.905   1.165   0.766  2.6215 -0.7273 -2.6322
  945NH4     H514486   2.794   1.295   0.767  0.2751  0.9126  0.2212
  946SOD     NA14487   0.214   3.037   6.764  0.2855  0.0058 -0.2162
  947SOD     NA14488   4.030   1.696  13.525 -0.4526 -0.1560 -0.0964
  948SOD     NA14489   3.280   2.591  14.707 -0.1263  0.5765 -0.5695
  949SOD     NA14490   3.798   2.906  10.040 -0.1779 -0.4207  0.1510
  950SOD     NA14491   4.709   4.318  12.809 -0.0404  0.0719  0.0021
  951SOD     NA14492   1.043   3.663   1.887 -0.6788 -0.5155  0.2257
  952SOD     NA14493   0.271   2.273  11.865 -0.3672  0.3450  0.4824
  953SOL     OW14494   1.098   2.002  17.140  0.0877  0.2226 -0.3807
  953SOL    HW114495   1.179   2.010  17.090  0.5360 -2.4660 -0.0784
  953SOL    HW214496   1.090   2.089  17.179  0.0614 -0.5644  1.3740
  954SOL     OW14497   1.591   3.690   2.296  0.5477  0.0353  0.9946
  954SOL    HW114498   1.668   3.663   2.347 -1.5713 -1.7730  3.2653
  954SOL    HW214499   1.517   3.671   2.354 -2.0671 -0.0338 -2.4072
  955SOL     OW14500   2.334   3.814   4.410 -0.8011 -0.1935  0.4699
  955SOL    HW114501   2.418   3.860   4.420 -0.5908  0.1434 -2.8542
  955SOL    HW214502   2.293   3.862   4.482 -1.0916 -0.9824  0.8312
  956SOL     OW14503   2.152   1.626  14.806  0.5731  1.0133 -0.1179
  956SOL    HW114504   2.226   1.655  14.752  0.5339  0.0810 -0.6656
  956SOL    HW214505   2.164   1.678  14.885 -1.5106  0.1590  0.7723
  957SOL     OW14506   2.197   0.351   7.042 -0.6360  0.4217  0.2867
  957SOL    HW114507   2.289   0.327   7.029 -0.5346  1.3659 -0.6997
  957SOL    HW214508   2.192   0.361   7.137 -2.3255  0.2808  0.2106
  958SOL     OW14509   0.274   1.985   9.885 -0.2229  0.0954 -0.4242
  958SOL    HW114510   0.227   1.967   9.803 -0.2185  0.7408 -0.5715
  958SOL    HW214511   0.358   1.941   9.874 -1.4432 -1.8664 -1.8410
  959SOL     OW14512   0.862   1.980  12.722 -0.1102  0.1073  0.2471
  959SOL    HW114513   0.883   2.068  12.754  0.6097 -0.9318  2.5924
  959SOL    HW214514   0.811   1.956  12.799 -3.0162  0.4615 -1.5516
  960SOL     OW14515   2.857   1.789   7.202 -0.4811 -0.5862  0.3378
  960SOL    HW114516   2.833   1.785   7.294 -0.6192 -1.4248  0.2615
  960SOL    HW214517   2.806   1.859   7.162 -0.9183 -0.0313  1.8777
  961SOL     OW14518   0.035   0.277   8.870  0.1567 -0.2747  0.2175
  961SOL    HW114519   0.013   0.294   8.961  1.1166 -1.2510  0.6331
  961SOL    HW214520   0.130   0.268   8.879  0.4771  3.5585  0.6986
  962SOL     OW14521   1.224   1.947   7.649  0.2837 -0.4707 -1.1509
  962SOL    HW114522   1.246   1.985   7.734 -0.4463 -3.4832  0.3727
  962SOL    HW214523   1.197   2.020   7.593 -0.7664 -0.4634 -0.6455
  963SOL     OW14524   0.199   4.588   2.447 -0.1084 -0.5247  0.1832
  963SOL    HW114525   0.198   4.558   2.538 -0.0339 -1.1073 -0.0084
  963SOL    HW214526   0.120   4.641   2.446  0.5595  0.4751 -0.3831
  964SOL     OW14527   3.983   1.135  17.536 -0.0714 -0.6480 -0.3201
  964SOL    HW114528   3.933   1.062  17.499  0.8071 -1.0224 -0.7761
  964SOL    HW214529   3.994   1.180  17.453  1.7170  1.3115  0.9663
  965SOL     OW14530   1.898   3.995  11.167  0.1260 -0.3198  0.2707
  965SOL    HW114531   1.891   4.042  11.084  2.6319 -0.1559  0.1305
  965SOL    HW214532   1.819   4.025  11.212  0.0114 -1.0095  0.5172
  966SOL     OW14533   4.049   1.884  13.722 -0.8250  0.2961  0.6938
  966SOL    HW114534   4.029   1.866  13.814  0.1976 -0.9941  0.6611
  966SOL    HW214535   4.096   1.967  13.729 -0.5133  0.0925  1.0315
  967SOL     OW14536   2.891   0.546   1.225  0.2032  0.0981 -0.4401
  967SOL    HW114537   2.940   0.464   1.214  0.6270  0.1274  1.1641
  967SOL    HW214538   2.921   0.575   1.311  0.6003 -5.1222  1.2123
  968SOL     OW14539   3.645   0.202  15.011 -0.1540  0.6457  0.4582
  968SOL    HW114540   3.625   0.296  15.009 -1.4441  0.3954  1.1544
  968SOL    HW214541   3.660   0.193  15.105 -1.9524 -1.1181  0.5746
  969SOL     OW14542   0.016   4.268   4.900 -0.1550  0.6674 -0.2448
  969SOL    HW114543   0.003   4.270   4.995  1.5842  3.3261 -0.0673
  969SOL    HW214544   0.109   4.254   4.885  0.7907  3.4047  3.1109
  970SOL     OW14545   3.370   2.586   0.015  0.4284 -0.3255  0.0096
  970SOL    HW114546   3.282   2.568   0.047  0.0551 -3.3026 -2.7879
  970SOL    HW214547   3.361   2.679  17.732  0.2035 -0.2383  0.4267
  971SOL     OW14548   0.279   0.988   6.697 -0.2951  0.4388  0.3257
  971SOL    HW114549   0.324   0.956   6.619 -0.9665 -0.2073  0.2024
  971SOL    HW214550   0.352   1.022   6.749  0.8534 -0.3370 -0.7828
  972SOL     OW14551   3.690   1.347   1.084 -0.1345  0.5459 -0.1096
  972SOL    HW114552   3.638   1.267   1.085  1.8858 -0.7087  2.3164
  972SOL    HW214553   3.779   1.319   1.102 -0.3441 -0.1735 -0.1756
  973SOL     OW14554   3.245   4.582   8.496  0.2808 -0.5622 -0.2583
  973SOL    HW114555   3.298   4.539   8.428 -1.0287  1.0373 -2.3037
  973SOL    HW214556   3.263   4.532   8.575  0.6876 -0.7001 -0.4361
  974SOL     OW14557   3.148   0.230  11.033  0.2111 -0.0635 -0.6398
  974SOL    HW114558   3.126   0.160  10.972 -0.4314 -0.9401  0.6223
  974SOL    HW214559   3.146   0.303  10.971  0.7766  0.3567 -0.1675
  975SOL     OW14560   2.478   3.230   2.716 -0.1348  0.3689 -0.0070
  975SOL    HW114561   2.404   3.289   2.733  0.0637  0.5303  0.3078
  975SOL    HW214562   2.454   3.205   2.627  1.1063 -0.6388 -0.0600
  976SOL     OW14563   3.105   3.221  11.531 -0.1651 -0.1125 -0.9584
  976SOL    HW114564   3.171   3.209  11.463  1.0932  3.2678 -0.3730
  976SOL    HW214565   3.031   3.239  11.474 -1.3425 -1.2524  0.2233
  977SOL     OW14566   2.598   3.493  13.379  0.2976 -0.3270 -0.3701
  977SOL    HW114567   2.636   3.578  13.399  1.9820 -0.9987 -0.6762
  977SOL    HW214568   2.572   3.513  13.289  0.6956 -0.3450 -0.4912
  978SOL     OW14569   1.790   0.733  16.578 -0.3520  0.3115  0.2951
  978SOL    HW114570   1.862   0.722  16.516  0.0697  0.3536  0.7803
  978SOL    HW214571   1.737   0.791  16.523 -0.2045 -0.2236 -0.4115
  979SOL     OW14572   4.401   4.385   5.639 -0.0299  0.3125 -0.4024
  979SOL    HW114573   4.372   4.430   5.560 -1.6276  1.7076  0.9625
  979SOL    HW214574   4.325   4.383   5.697  0.4375  0.9669  0.2270
  980SOL     OW14575   2.436   0.226   0.457  0.1391  0.4130 -0.8224
  980SOL    HW114576   2.494   0.153   0.478  1.0549  1.0137 -1.2982
  980SOL    HW214577   2.491   0.304   0.465  0.2507  0.1908  0.4664
  981SOL     OW14578   2.121   2.258   9.066  0.1772 -0.7056 -0.1421
  981SOL    HW114579   2.054   2.203   9.025 -0.1981 -0.1535 -0.2827
  981SOL    HW214580   2.198   2.209   9.037  0.2599 -1.5661  1.5439
  982SOL     OW14581   2.604   0.597   9.138  0.5116  0.1022  0.8059
  982SOL    HW114582   2.626   0.646   9.217 -0.9096  0.3909  1.0287
  982SOL    HW214583   2.623   0.508   9.167 -0.3460 -0.0570  0.8843
  983SOL     OW14584   2.410   1.428   0.453  0.0450  0.7564  0.4803
  983SOL    HW114585   2.450   1.483   0.387  0.4419  0.8423  0.7887
  983SOL    HW214586   2.323   1.468   0.456  0.8208  2.4858 -0.4278
  984SOL     OW14587   2.202   1.839   5.470 -0.1412  0.0200 -0.1957
  984SOL    HW114588   2.281   1.869   5.426  1.0286 -0.8241  1.3554
  984SOL    HW214589   2.236   1.778   5.535  0.2265  0.5330  0.0931
  985SOL     OW14590   3.803   3.294   5.944  0.2393  0.4788  0.2023
  985SOL    HW114591   3.760   3.222   5.898  1.1043 -0.5389  0.9831
  985SOL    HW214592   3.844   3.338   5.869  0.4366 -0.7525 -0.4050
  986SOL     OW14593   3.401   0.404   4.711 -0.2517  0.3261  0.4461
  986SOL    HW114594   3.375   0.470   4.774 -1.6071  0.7136 -0.5325
  986SOL    HW214595   3.320   0.384   4.665  0.0336  0.0931  0.0357
  987SOL     OW14596   3.117   3.054   5.598 -0.0638  0.3563 -0.5287
  987SOL    HW114597   3.174   3.014   5.532 -1.2316 -2.5683  0.2483
  987SOL    HW214598   3.118   2.984   5.663  0.7769  0.9996  0.1463
  988SOL     OW14599   0.355   1.523   8.801  0.6743  0.4108  0.0909
  988SOL    HW114600   0.371   1.429   8.814 -0.8278  0.4897  2.3586
  988SOL    HW214601   0.363   1.566   8.886  0.8866 -0.3472  0.4598
  989SOL     OW14602   3.338   1.941   7.577  0.0426 -0.0806 -0.3632
  989SOL    HW114603   3.327   1.853   7.614  1.8750  0.3438  1.1452
  989SOL    HW214604   3.421   1.931   7.532  0.2000 -3.5023  0.6905
  990SOL     OW14605   1.126   3.718   3.016 -0.7437  0.1817 -0.0874
  990SOL    HW114606   1.144   3.634   2.973  1.8073  1.7614 -2.0388
  990SOL    HW214607   1.030   3.723   3.017 -0.8182 -0.6421 -2.3320
  991SOL     OW14608   2.229   1.085   8.812 -0.2900 -0.1072  0.6364
  991SOL    HW114609   2.206   1.162   8.864 -1.7345 -0.7598  0.9773
  991SOL    HW214610   2.285   1.032   8.868 -1.8721 -0.9667  1.4182
  992SOL     OW14611   3.210   2.003  15.047 -0.3281 -0.0847  0.5453
  992SOL    HW114612   3.193   1.992  14.954  1.2865 -0.4352  0.3075
  992SOL    HW214613   3.290   2.055  15.049  0.0662 -0.6168 -1.5412
  993SOL     OW14614   2.708   1.433  15.032  0.2167  0.1311  0.1738
  993SOL    HW114615   2.727   1.428  14.938 -1.4862  2.0377 -0.2775
  993SOL    HW214616   2.612   1.432  15.034  0.1694  2.0647 -0.5774
  994SOL     OW14617   3.419   0.097   0.298  0.3678 -0.2444  0.4957
  994SOL    HW114618   3.434   0.134   0.385 -2.7577  0.9861  0.5115
  994SOL    HW214619   3.357   0.152   0.250 -0.0944 -0.9274  0.3135
  995SOL     OW14620   1.434   2.141  17.569  0.0741  0.3547 -0.4521
  995SOL    HW114621   1.428   2.074  17.638 -1.4114 -1.2921 -2.1954
  995SOL    HW214622   1.434   2.092  17.487 -1.9421 -1.2565  0.4969
  996SOL     OW14623   3.051   2.214   9.192  0.0028 -0.1646 -0.2054
  996SOL    HW114624   3.137   2.203   9.151  0.9499  0.0524  1.7167
  996SOL    HW214625   2.998   2.205   9.113 -0.6232 -1.4288  0.3738
  997SOL     OW14626   3.273   0.855   2.203  0.3217  0.2741 -0.0230
  997SOL    HW114627   3.318   0.828   2.123 -0.4703 -1.7046  0.2003
  997SOL    HW214628   3.329   0.815   2.270  1.5812  2.2474  0.1072
  998SOL     OW14629   1.872   4.067   9.990 -0.0130  0.2306  0.1912
  998SOL    HW114630   1.963   4.037   9.981 -0.2536 -0.0763 -1.2216
  998SOL    HW214631   1.845   4.072  10.082  1.7466 -1.6786  0.8072
  999SOL     OW14632   1.820   3.036  10.535  0.0061  0.2929 -0.1168
  999SOL    HW114633   1.771   3.106  10.579  1.6918  1.8544 -0.7574
  999SOL    HW214634   1.880   2.992  10.594  2.5400  0.9791 -2.2072
 1000SOL     OW14635   0.207   0.701  11.325  0.0075 -0.0877  0.0833
 1000SOL    HW114636   0.239   0.701  11.234 -0.3834 -0.5816 -0.0550
 1000SOL    HW214637   0.263   0.752  11.383 -0.3050 -0.2978  0.5722
 1001SOL     OW14638   4.247   0.375   0.194 -0.4113  0.2257  0.3553
 1001SOL    HW114639   4.267   0.468   0.190  0.3765  0.0561  0.3059
 1001SOL    HW214640   4.225   0.368   0.287 -1.2386 -1.3080  0.0512
 1002SOL     OW14641   4.463   1.226   4.521  0.6507  0.2146  0.6285
 1002SOL    HW114642   4.546   1.241   4.476 -0.0532  0.6137 -0.5366
 1002SOL    HW214643   4.407   1.172   4.466  0.2422  1.2972 -0.0168
 1003SOL     OW14644   1.556   1.520  12.864 -0.2705 -0.2318 -0.3933
 1003SOL    HW114645   1.523   1.451  12.921 -1.9405  2.4826  1.9411
 1003SOL    HW214646   1.541   1.496  12.773 -0.7996 -0.7732 -0.1631
 1004SOL     OW14647   4.681   1.574   5.893  0.3411  0.1636  0.1167
 1004SOL    HW114648   4.613   1.541   5.833  1.0416  0.8027 -1.0393
 1004SOL    HW214649   4.643   1.647   5.943 -0.6916 -0.4272  0.1989
 1005SOL     OW14650   3.032   4.270   4.847  0.2323  0.4733 -0.5176
 1005SOL    HW114651   2.955   4.318   4.877  2.1592  2.7840  0.7439
 1005SOL    HW214652   3.090   4.296   4.919 -0.9134  0.2590  0.4766
 1006SOL     OW14653   4.487   1.199   5.554  0.1851 -0.3755  0.1789
 1006SOL    HW114654   4.469   1.186   5.647  0.8349  0.3789  0.4112
 1006SOL    HW214655   4.537   1.279   5.571 -0.2436  0.6162 -3.2456
 1007SOL     OW14656   1.626   1.097   7.367  0.3408 -0.3080 -0.0978
 1007SOL    HW114657   1.548   1.123   7.415  0.9361  0.0282  0.6837
 1007SOL    HW214658   1.694   1.084   7.433  1.3813  1.1688 -0.8845
 1008SOL     OW14659   3.358   4.270  16.527 -0.7950 -0.2232  0.7030
 1008SOL    HW114660   3.281   4.233  16.484 -0.3707 -0.2093 -0.0512
 1008SOL    HW214661   3.429   4.249  16.467 -1.0729 -0.4948  0.4725
 1009SOL     OW14662   0.671   0.718  10.984 -0.1971 -0.0061  0.0853
 1009SOL    HW114663   0.592   0.710  10.931 -0.4413 -0.4111  0.5050
 1009SOL    HW214664   0.629   0.740  11.067 -1.6468  0.3440 -0.7489
 1010SOL     OW14665   0.963   3.963   8.602  0.2881 -0.8125  0.0140
 1010SOL    HW114666   0.876   4.000   8.621  0.9035  1.2015 -1.0976
 1010SOL    HW214667   0.954   3.878   8.645 -0.6164 -0.4018  0.6534
 1011SOL     OW14668   1.118   4.429   7.662  0.1880  0.3731  0.1032
 1011SOL    HW114669   1.120   4.383   7.746 -0.6678  0.4626  0.1803
 1011SOL    HW214670   1.171   4.507   7.671 -1.1614  1.3160 -0.1312
 1012SOL     OW14671   1.602   3.819   1.599  0.0301  0.0135 -0.1053
 1012SOL    HW114672   1.571   3.782   1.517 -1.7951  0.5029  0.3674
 1012SOL    HW214673   1.696   3.816   1.582 -0.0114 -0.2675 -0.2746
 1013SOL     OW14674   1.873   2.364   2.413  0.0436  0.8260  0.0107
 1013SOL    HW114675   1.922   2.420   2.353  5.6092 -1.8638  2.0588
 1013SOL    HW214676   1.860   2.281   2.367  0.8310  1.6381 -1.6901
 1014SOL     OW14677   4.317   3.096   6.488 -0.1349  0.0808 -0.3047
 1014SOL    HW114678   4.411   3.084   6.504  0.1080  1.2415 -0.8409
 1014SOL    HW214679   4.321   3.125   6.396 -1.1009 -1.3968 -0.8095
 1015SOL     OW14680   3.066   2.467   0.410  0.1108 -0.4574 -0.4867
 1015SOL    HW114681   3.024   2.496   0.491  0.5896  0.2123 -0.4804
 1015SOL    HW214682   3.110   2.390   0.446 -1.3369 -0.6834  0.8040
 1016SOL     OW14683   4.312   3.617   3.767  0.2277 -0.1132 -0.1771
 1016SOL    HW114684   4.345   3.623   3.678  2.4649 -0.4998  0.6245
 1016SOL    HW214685   4.386   3.644   3.821  0.2633  1.6774 -1.1397
 1017SOL     OW14686   0.182   3.454   3.701  0.0955 -0.3571  0.4102
 1017SOL    HW114687   0.133   3.452   3.783  0.0120 -1.6897  0.3258
 1017SOL    HW214688   0.135   3.512   3.641 -1.5682 -2.3157 -0.1738
 1018SOL     OW14689   0.457   1.742   8.974  0.0624 -0.0040 -0.6914
 1018SOL    HW114690   0.548   1.735   9.002 -0.2326  0.5017  0.4210
 1018SOL    HW214691   0.418   1.775   9.055 -2.0729  0.4007 -1.8949
 1019SOL     OW14692   4.184   0.354   6.267 -0.3776 -0.1622  1.2164
 1019SOL    HW114693   4.249   0.416   6.234  0.3320 -1.2068  0.6466
 1019SOL    HW214694   4.234   0.307   6.334  0.5426 -1.7368 -0.5887
 1020SOL     OW14695   4.488   0.518   8.839  0.1344 -0.4728  0.3227
 1020SOL    HW114696   4.395   0.502   8.823  0.1718 -1.0573  0.7301
 1020SOL    HW214697   4.523   0.447   8.786  0.1465 -1.0734  1.1445
 1021SOL     OW14698   3.079   4.116  17.668  0.1988 -0.6941 -0.2211
 1021SOL    HW114699   3.123   4.082  17.590 -0.8191 -1.1969 -0.5715
 1021SOL    HW214700   3.057   4.038  17.719 -0.6909 -1.3012 -1.5444
 1022SOL     OW14701   0.203   1.056  12.402  0.2103  0.6625 -0.0693
 1022SOL    HW114702   0.132   1.084  12.460 -0.4867  1.6470 -1.4080
 1022SOL    HW214703   0.283   1.055  12.455 -0.5242  0.3357  1.0281
 1023SOL     OW14704   3.637   4.144   2.689 -0.2543 -0.5217  0.4211
 1023SOL    HW114705   3.724   4.113   2.716  0.7880  1.0545 -1.0900
 1023SOL    HW214706   3.582   4.071   2.718 -1.0275 -1.0330 -2.3416
 1024SOL     OW14707   4.393   1.285   4.000 -0.2381 -0.6742  0.3583
 1024SOL    HW114708   4.367   1.330   4.080 -2.6424 -0.6354 -0.4384
 1024SOL    HW214709   4.359   1.197   4.018 -0.9123 -0.3131  0.8358
 1025SOL     OW14710   4.012   2.625   8.028 -0.1648 -0.1024  0.3453
 1025SOL    HW114711   3.970   2.557   8.081  1.7937 -0.5633  1.3106
 1025SOL    HW214712   3.944   2.690   8.046 -0.1003  0.7963 -2.7729
 1026SOL     OW14713   2.241   3.525   8.901 -0.7800  0.2508  0.0070
 1026SOL    HW114714   2.150   3.520   8.873 -1.0050 -0.9944  0.9109
 1026SOL    HW214715   2.287   3.558   8.824 -1.3920 -2.3220 -1.4732
 1027SOL     OW14716   0.360   0.346   2.641 -0.3838 -0.4483 -0.0811
 1027SOL    HW114717   0.324   0.417   2.588  0.4018 -0.8284 -1.1352
 1027SOL    HW214718   0.366   0.277   2.575 -0.5307 -0.0908 -0.4663
 1028SOL     OW14719   1.558   0.655   7.711 -0.2421 -0.1432 -0.5246
 1028SOL    HW114720   1.472   0.657   7.669 -1.1861  0.0557  1.3997
 1028SOL    HW214721   1.574   0.561   7.720  0.3563 -0.0781 -0.9085
 1029SOL     OW14722   4.548   4.673   2.674 -0.3500 -0.1897 -0.0473
 1029SOL    HW114723   4.539   0.017   2.727 -0.0151  0.8414 -1.5406
 1029SOL    HW214724   4.466   4.624   2.680  1.3072 -2.9733 -0.3046
 1030SOL     OW14725   0.334   2.675   3.127 -0.2082 -0.2255  0.0980
 1030SOL    HW114726   0.253   2.631   3.155 -0.8173 -0.3889 -1.9391
 1030SOL    HW214727   0.404   2.640   3.181 -1.2288 -0.3429  1.3545
 1031SOL     OW14728   0.514   3.885   5.455  0.0942  0.6229  0.1877
 1031SOL    HW114729   0.554   3.929   5.530 -1.0189  2.0834 -0.0693
 1031SOL    HW214730   0.425   3.914   5.474 -0.2621 -0.4793  0.1830
 1032SOL     OW14731   0.137   4.582  13.125  0.1844  0.3398  0.2706
 1032SOL    HW114732   0.203   4.573  13.057 -1.2776  3.1372 -1.4956
 1032SOL    HW214733   0.181   4.615  13.204 -1.0675  3.2478 -0.2584
 1033SOL     OW14734   3.867   1.016   1.214  0.3425 -0.3174 -0.3405
 1033SOL    HW114735   3.818   0.944   1.176 -1.4691 -0.0961  1.6224
 1033SOL    HW214736   3.818   1.088   1.174  2.4924  0.4609 -1.5838
 1034SOL     OW14737   4.318   2.698   3.862 -0.2175  0.1345  0.3139
 1034SOL    HW114738   4.365   2.638   3.803 -1.7667  1.0338 -1.8507
 1034SOL    HW214739   4.243   2.645   3.891 -0.1073  0.0490  0.4413
 1035SOL     OW14740   1.228   3.726   2.659 -0.1040  1.2754  0.2828
 1035SOL    HW114741   1.239   3.742   2.752 -1.2396  1.1424  0.4470
 1035SOL    HW214742   1.153   3.782   2.636  0.4483  1.3960 -1.2249
 1036SOL     OW14743   2.557   2.859   5.924 -0.5269 -0.2494 -0.3365
 1036SOL    HW114744   2.652   2.859   5.917 -0.2985 -0.4478  2.9385
 1036SOL    HW214745   2.540   2.795   5.855 -2.2924 -0.2768  0.1111
 1037SOL     OW14746   4.317   2.119  10.002  0.5965  0.0502 -0.2830
 1037SOL    HW114747   4.329   2.210   9.974  0.7718  1.1724  3.2979
 1037SOL    HW214748   4.383   2.121  10.072 -0.3920 -0.1718  0.6581
 1038SOL     OW14749   0.802   0.744  17.656 -0.3558 -0.3719  0.0701
 1038SOL    HW114750   0.743   0.819  17.661  0.0932  0.0604 -1.3192
 1038SOL    HW214751   0.871   0.765  17.594 -1.0839  1.0463 -0.2452
 1039SOL     OW14752   0.177   2.438   4.838  0.0187 -0.0302 -0.7766
 1039SOL    HW114753   0.196   2.376   4.908 -0.4852 -0.9790 -1.4864
 1039SOL    HW214754   0.263   2.481   4.830  0.3711 -1.1826 -3.0610
 1040SOL     OW14755   1.756   4.493   8.295 -0.3757  0.1030  0.0411
 1040SOL    HW114756   1.763   4.433   8.369 -0.2765  0.0256 -0.0307
 1040SOL    HW214757   1.845   4.493   8.259 -0.2236  0.8439  0.4292
 1041SOL     OW14758   2.666   3.958   2.299  0.8283 -0.2221 -0.0348
 1041SOL    HW114759   2.761   3.963   2.288  0.8639  0.6636  0.7488
 1041SOL    HW214760   2.648   4.050   2.282 -1.8579 -0.3326  2.1746
 1042SOL     OW14761   2.462   2.717   5.002  0.0825  0.1827  0.0029
 1042SOL    HW114762   2.487   2.782   5.068 -0.6580  1.9318 -1.4077
 1042SOL    HW214763   2.481   2.757   4.917  0.5229 -0.9724 -0.4343
 1043SOL     OW14764   0.383   3.863  10.596  0.2586 -0.0968  0.0307
 1043SOL    HW114765   0.388   3.864  10.691  1.8798 -0.3623 -0.0595
 1043SOL    HW214766   0.291   3.839  10.587  0.1485  0.8238 -1.3377
 1044SOL     OW14767   2.721   1.505   4.473 -0.1962  0.4972  0.0982
 1044SOL    HW114768   2.785   1.571   4.498 -1.1353  1.6404 -0.4788
 1044SOL    HW214769   2.635   1.546   4.483  0.0237  1.4343 -1.8676
 1045SOL     OW14770   0.446   4.154  10.529  0.0023  0.0744  0.4142
 1045SOL    HW114771   0.456   4.061  10.551  1.1436  0.6290  2.2315
 1045SOL    HW214772   0.404   4.199  10.602 -1.4475 -1.3658  0.4632
 1046SOL     OW14773   2.024   4.666   8.414 -0.3393 -0.1112 -0.2812
 1046SOL    HW114774   2.002   4.612   8.337  1.4755 -0.6883 -0.3868
 1046SOL    HW214775   2.001   0.015   8.375 -1.1323  0.1788  0.8249
 1047SOL     OW14776   1.010   4.116   4.150  1.2486 -0.3297  0.0783
 1047SOL    HW114777   0.928   4.152   4.116  1.8832  0.1047 -0.9631
 1047SOL    HW214778   1.050   4.200   4.171 -0.2829  0.8403 -1.6631
 1048SOL     OW14779   0.350   3.035   6.158  0.5569 -0.1873 -0.5162
 1048SOL    HW114780   0.427   2.993   6.196  0.1489  0.4640  1.0513
 1048SOL    HW214781   0.380   3.125   6.143 -1.2770  0.5896  0.4318
 1049SOL     OW14782   0.296   1.759  12.019 -0.4918 -0.6281 -0.4978
 1049SOL    HW114783   0.317   1.685  12.076 -0.5705  0.8219  1.4316
 1049SOL    HW214784   0.230   1.727  11.958 -1.8297 -1.4722  1.3930
 1050SOL     OW14785   2.685   2.974   4.153  0.0225 -0.3303  0.2014
 1050SOL    HW114786   2.645   2.975   4.240 -0.5611 -0.9687 -0.0582
 1050SOL    HW214787   2.697   2.880   4.139  1.2003 -0.1062 -0.3080
 1051SOL     OW14788   0.426   0.695   9.538  0.5911  0.0521  0.7992
 1051SOL    HW114789   0.334   0.721   9.551  0.6663  0.6218  0.1949
 1051SOL    HW214790   0.406   0.605   9.513  0.2666  0.6883 -1.2533
 1052SOL     OW14791   4.216   2.602   6.432  0.4187  0.4087  0.4894
 1052SOL    HW114792   4.276   2.593   6.358 -1.3715 -0.3139 -0.8828
 1052SOL    HW214793   4.255   2.545   6.497  0.1034 -2.7888 -2.1277
 1053SOL     OW14794   2.747   2.743   8.789  0.1438 -0.2981 -0.1658
 1053SOL    HW114795   2.771   2.662   8.833  0.7737 -0.3005 -0.5198
 1053SOL    HW214796   2.729   2.802   8.863 -1.5872 -2.7268  1.3389
 1054SOL     OW14797   1.823   3.062   6.243  0.2850  0.3750  0.3184
 1054SOL    HW114798   1.862   3.136   6.197  0.3117 -0.0633 -0.3578
 1054SOL    HW214799   1.903   3.013   6.261  1.1399  0.9963 -1.8968
 1055SOL     OW14800   0.488   0.738   4.795  0.4458 -0.2035 -0.2252
 1055SOL    HW114801   0.495   0.647   4.822  1.0813  0.1616  0.8388
 1055SOL    HW214802   0.405   0.770   4.831  0.2767  0.6621 -1.3822
 1056SOL     OW14803   2.727   1.080   6.234  0.1617  0.2446 -0.3013
 1056SOL    HW114804   2.764   1.081   6.322  1.0097 -1.5770 -0.6227
 1056SOL    HW214805   2.755   0.997   6.195 -0.6452  0.0215 -0.4047
 1057SOL     OW14806   3.072   4.237  11.950 -0.1363  0.1450  0.0756
 1057SOL    HW114807   3.142   4.300  11.932  0.7834 -0.2256  2.2520
 1057SOL    HW214808   3.073   4.233  12.046 -1.7016  0.3584  0.0916
 1058SOL     OW14809   1.066   2.423   2.579  0.0563  0.5315  0.2053
 1058SOL    HW114810   1.031   2.507   2.610  1.2251  0.6240  1.2900
 1058SOL    HW214811   1.157   2.448   2.592  1.1703 -3.0720 -0.9036
 1059SOL     OW14812   0.093   2.831   4.208  0.6369  0.0987  0.2027
 1059SOL    HW114813   0.063   2.754   4.256 -0.5350  0.1111 -0.5011
 1059SOL    HW214814   0.022   2.895   4.214  1.3527  0.6502  3.0432
 1060SOL     OW14815   4.676   1.960   4.032 -0.4324  0.1100 -0.6446
 1060SOL    HW114816   4.629   1.884   4.067 -0.9846  1.4975  1.6863
 1060SOL    HW214817   0.027   1.924   4.017  1.0410  2.3865  2.3732
 1061SOL     OW14818   4.340   3.082   9.835  0.1914 -0.3162 -0.5678
 1061SOL    HW114819   4.299   3.107   9.918  3.6591  2.1883  0.4251
 1061SOL    HW214820   4.420   3.051   9.877  0.4579 -0.3499 -1.0943
 1062SOL     OW14821   2.413   3.055   5.084 -0.2815 -0.0901  0.1378
 1062SOL    HW114822   2.387   3.079   4.995 -0.4649 -0.0541  0.2028
 1062SOL    HW214823   2.499   3.012   5.077 -1.0607 -1.8595  1.6705
 1063SOL     OW14824   2.475   3.525   4.566 -0.2247  0.3241  0.0749
 1063SOL    HW114825   2.396   3.476   4.542  0.1892  0.1758 -1.0070
 1063SOL    HW214826   2.445   3.536   4.656 -0.6946 -3.8812  0.4588
 1064SOL     OW14827   4.281   1.053   1.543 -0.3113  0.5433  0.1461
 1064SOL    HW114828   4.308   1.138   1.508 -1.6547  1.2141  0.7390
 1064SOL    HW214829   4.354   1.031   1.601 -0.5982  2.3771  1.1920
 1065SOL     OW14830   0.691   1.278  17.510 -0.5314  0.6861 -0.0552
 1065SOL    HW114831   0.750   1.239  17.574  1.8427  0.4295 -2.3968
 1065SOL    HW214832   0.607   1.236  17.529  0.9322 -2.6290 -0.8799
 1066SOL     OW14833   3.951   4.116  11.308  0.0020  0.3106 -0.6354
 1066SOL    HW114834   3.958   4.090  11.216  1.6864  0.7205 -0.6218
 1066SOL    HW214835   3.878   4.176  11.291 -0.8692 -0.6439 -0.2559
 1067SOL     OW14836   4.522   3.085   2.094  0.3687 -0.5777  0.2589
 1067SOL    HW114837   4.603   3.122   2.129 -0.3380  1.5734 -0.4182
 1067SOL    HW214838   4.544   3.056   2.006 -2.1102 -0.0129 -0.5526
 1068SOL     OW14839   4.228   2.944   3.749 -0.3460  0.1175 -0.1887
 1068SOL    HW114840   4.264   2.869   3.796 -1.7335  0.4025  1.3586
 1068SOL    HW214841   4.262   2.934   3.660 -1.3366 -1.2404 -0.4103
 1069SOL     OW14842   4.102   3.446   2.731 -0.1287 -0.3727 -0.2094
 1069SOL    HW114843   4.046   3.510   2.775 -0.0378 -2.5421  3.0418
 1069SOL    HW214844   4.115   3.382   2.801  1.1010 -0.8083 -0.8252
 1070SOL     OW14845   4.229   1.925  13.088 -0.1401  0.7139  0.2198
 1070SOL    HW114846   4.202   1.836  13.066 -1.2698  0.4565  2.6481
 1070SOL    HW214847   4.142   1.964  13.086 -0.3158  0.2506 -1.8281
 1071SOL     OW14848   1.820   4.601  10.407 -0.4144 -0.0385  0.6169
 1071SOL    HW114849   1.818   4.669  10.339  1.4993 -1.4001 -0.7965
 1071SOL    HW214850   1.765   4.534  10.366 -1.0211  1.3120 -0.7966
 1072SOL     OW14851   4.433   4.538   8.323  0.2562 -0.2616 -0.1037
 1072SOL    HW114852   4.394   4.491   8.250 -0.3692  0.1239 -0.0156
 1072SOL    HW214853   4.365   4.530   8.390  2.2149  0.1750  1.9722
 1073SOL     OW14854   1.184   3.969  11.797  0.3251  0.4837  0.4530
 1073SOL    HW114855   1.195   3.884  11.838  0.8038  0.9680  1.3113
 1073SOL    HW214856   1.210   3.943  11.708 -0.3448 -0.5566  0.5580
 1074SOL     OW14857   2.831   3.667  11.682  0.0004 -0.0216 -0.3006
 1074SOL    HW114858   2.910   3.644  11.732  0.4405  0.4546 -0.7706
 1074SOL    HW214859   2.855   3.756  11.659  1.5288 -0.5010 -0.5851
 1075SOL     OW14860   3.021   3.507   5.936  0.3420  0.3581  0.1185
 1075SOL    HW114861   2.990   3.567   5.868 -1.4117 -0.1195  0.4998
 1075SOL    HW214862   3.043   3.578   5.996  2.4631  0.5357 -0.8878
 1076SOL     OW14863   3.472   0.635  15.519 -0.4754 -0.2325  0.4773
 1076SOL    HW114864   3.539   0.702  15.532 -1.2462  1.1291 -2.5705
 1076SOL    HW214865   3.418   0.645  15.597 -1.3116  1.8269 -0.3510
 1077SOL     OW14866   2.822   4.434   4.996 -0.0344  0.5116  0.3358
 1077SOL    HW114867   2.815   4.384   5.077  0.2853  0.2554  0.2087
 1077SOL    HW214868   2.877   4.506   5.026 -0.3564  1.0083 -0.2531
 1078SOL     OW14869   0.152   1.834  11.141 -0.1283 -0.3039 -0.3687
 1078SOL    HW114870   0.226   1.803  11.089  0.5540  0.6837  0.0241
 1078SOL    HW214871   0.105   1.752  11.158 -0.7630  0.1671  0.1812
 1079SOL     OW14872   3.712   2.500  14.169 -0.3782 -0.4616 -0.2329
 1079SOL    HW114873   3.781   2.557  14.135  0.8327 -1.7807  0.0380
 1079SOL    HW214874   3.716   2.427  14.107  1.7966 -0.8059  0.3139
 1080SOL     OW14875   0.649   3.764   8.464 -0.0324 -0.0677  0.6262
 1080SOL    HW114876   0.670   3.856   8.485 -0.2885  0.4043 -1.2337
 1080SOL    HW214877   0.575   3.750   8.523 -1.2836  2.4696 -0.3152
 1081SOL     OW14878   0.685   3.096  11.392 -0.6498  0.0996 -0.0735
 1081SOL    HW114879   0.603   3.147  11.393 -1.8288 -1.7737 -1.0220
 1081SOL    HW214880   0.668   3.031  11.460 -1.2001  1.5302  1.1556
 1082SOL     OW14881   2.338   1.639   2.090  0.0834 -0.3607  0.7662
 1082SOL    HW114882   2.257   1.588   2.087 -0.2133  0.1264  0.6447
 1082SOL    HW214883   2.303   1.720   2.125  2.0077  0.4442  0.8472
 1083SOL     OW14884   2.030   1.348   7.743  0.6524 -0.9473 -0.5420
 1083SOL    HW114885   2.050   1.440   7.760 -1.1817 -0.7879  0.7711
 1083SOL    HW214886   2.050   1.340   7.649  1.5099 -1.2923 -0.3298
 1084SOL     OW14887   1.005   3.922   0.334 -0.0720  0.2512  0.1166
 1084SOL    HW114888   0.990   3.904   0.241  1.7006  1.6101 -0.4283
 1084SOL    HW214889   1.100   3.912   0.337  0.1212  1.8777 -0.5997
 1085SOL     OW14890   0.657   1.017  12.323 -0.3591 -0.0028 -0.2961
 1085SOL    HW114891   0.581   1.070  12.346  0.5191  1.0499  0.1595
 1085SOL    HW214892   0.635   0.933  12.363 -1.0031  1.1689  1.8169
 1086SOL     OW14893   3.673   2.497   1.608  0.4459 -0.0693 -0.5130
 1086SOL    HW114894   3.578   2.493   1.600  0.3539  0.6055  0.2809
 1086SOL    HW214895   3.696   2.445   1.685 -1.6603 -0.4844 -0.1525
 1087SOL     OW14896   0.568   4.263   2.788 -0.4861  0.2463  0.1587
 1087SOL    HW114897   0.663   4.274   2.783 -0.2944 -2.1365 -1.4947
 1087SOL    HW214898   0.557   4.255   2.883  2.8755  0.4461  0.5697
 1088SOL     OW14899   1.535   3.121   6.863 -0.1126 -0.0421 -0.1689
 1088SOL    HW114900   1.626   3.092   6.857 -0.4160 -1.2732  1.6198
 1088SOL    HW214901   1.507   3.078   6.943  0.6800 -2.3869 -1.1460
 1089SOL     OW14902   4.282   3.922  16.420 -0.2924  0.4887 -0.1302
 1089SOL    HW114903   4.323   3.891  16.340 -1.4069 -1.8618  0.2084
 1089SOL    HW214904   4.356   3.954  16.471  1.5793 -2.3202 -1.0989
 1090SOL     OW14905   1.156   0.508  13.005  0.1628 -0.0312  0.5659
 1090SOL    HW114906   1.155   0.565  12.928  0.5264 -0.7732  0.0180
 1090SOL    HW214907   1.099   0.558  13.064 -1.1450 -0.3681 -0.4322
 1091SOL     OW14908   1.455   4.505   9.179  0.0000  0.0673 -0.3625
 1091SOL    HW114909   1.522   4.438   9.166  2.3851  2.3758 -0.1773
 1091SOL    HW214910   1.511   4.582   9.166  1.1976 -0.8058 -0.3958
 1092SOL     OW14911   1.847   1.529   4.750 -0.0916  0.0728 -0.2610
 1092SOL    HW114912   1.849   1.600   4.814 -2.4681  1.6289 -1.9091
 1092SOL    HW214913   1.862   1.582   4.671 -2.4320  0.1841 -0.6208
 1093SOL     OW14914   4.681   2.919   8.353 -0.0246  0.2483 -0.4441
 1093SOL    HW114915   4.604   2.879   8.313  0.1206  0.0526 -0.5335
 1093SOL    HW214916   0.009   2.849   8.370  0.2348  1.0041  1.6824
 1094SOL     OW14917   0.193   0.305   8.363  0.5590 -0.3601 -0.4027
 1094SOL    HW114918   0.098   0.306   8.366  0.6498 -0.5540  2.3701
 1094SOL    HW214919   0.217   0.311   8.455  0.1683  1.6694 -0.4239
 1095SOL     OW14920   4.389   2.585   1.631 -0.2728 -0.2321 -0.2640
 1095SOL    HW114921   4.368   2.620   1.544 -1.2166 -0.3776 -0.0922
 1095SOL    HW214922   4.307   2.602   1.676 -0.6388 -2.2860 -0.1589
 1096SOL     OW14923   2.758   2.448  17.276  0.5439  0.6455  0.2692
 1096SOL    HW114924   2.716   2.528  17.306  1.3118  1.5065 -0.9460
 1096SOL    HW214925   2.704   2.415  17.205  1.9030 -0.9895 -0.0047
 1097SOL     OW14926   1.132   2.103   5.096 -0.0977 -0.0336  0.0565
 1097SOL    HW114927   1.073   2.085   5.022 -1.4141 -2.1405  1.6457
 1097SOL    HW214928   1.191   2.028   5.098 -0.5682 -0.3781  0.8540
 1098SOL     OW14929   0.939   1.696   3.440  0.7069  0.0059 -0.0952
 1098SOL    HW114930   1.027   1.721   3.470 -0.5614  3.7786  0.4398
 1098SOL    HW214931   0.954   1.604   3.421  1.2245  0.1290 -0.2855
 1099SOL     OW14932   0.304   4.501  11.504 -0.8034  0.6192  0.3221
 1099SOL    HW114933   0.343   4.420  11.536 -1.1010  1.4178  2.7067
 1099SOL    HW214934   0.352   4.564  11.559  2.5597  0.0401 -1.9523
 1100SOL     OW14935   3.859   0.203   3.608  0.7027 -0.3264  0.0106
 1100SOL    HW114936   3.912   0.280   3.629 -2.8439  0.9848  4.0307
 1100SOL    HW214937   3.897   0.131   3.659  0.9080 -0.1169  0.1540
 1101SOL     OW14938   0.827   0.490   6.682 -0.2118 -0.9894 -0.3377
 1101SOL    HW114939   0.867   0.548   6.748  1.8577 -1.6692 -0.9745
 1101SOL    HW214940   0.907   0.468   6.634  0.3317  2.4914 -1.0492
 1102SOL     OW14941   4.144   1.133   6.162 -0.4325 -0.1186  0.6212
 1102SOL    HW114942   4.235   1.107   6.149 -0.3105 -0.1744  1.6382
 1102SOL    HW214943   4.099   1.055   6.128  1.1272 -0.9791  0.5351
 1103SOL     OW14944   3.066   3.403  15.217 -0.4053 -0.2227 -0.2922
 1103SOL    HW114945   3.159   3.422  15.202 -1.0291  2.2422 -1.0708
 1103SOL    HW214946   3.032   3.487  15.186  0.0700  1.1421  2.8704
 1104SOL     OW14947   3.017   4.251  14.718  0.4682  0.6320 -0.1888
 1104SOL    HW114948   2.946   4.240  14.781  0.2839  1.7630 -0.2080
 1104SOL    HW214949   3.006   4.344  14.698 -1.2760  0.6445  0.8086
 1105SOL     OW14950   3.218   4.677  13.053  0.0774  0.5171 -0.3076
 1105SOL    HW114951   3.174   4.713  12.976  1.1965  1.6637 -0.4036
 1105SOL    HW214952   3.216   4.582  13.037 -0.2179  0.0127  2.5760
 1106SOL     OW14953   3.683   1.526   4.293 -0.1631  0.1311 -0.6417
 1106SOL    HW114954   3.763   1.475   4.281 -1.6924 -2.6608  1.2941
 1106SOL    HW214955   3.633   1.471   4.352 -0.0427 -0.4334 -1.0635
 1107SOL     OW14956   1.112   1.527  15.351 -0.2172  0.3757 -0.1420
 1107SOL    HW114957   1.114   1.530  15.256  2.6992  1.5690 -0.0470
 1107SOL    HW214958   1.056   1.603  15.367 -0.1821  0.4836 -0.5375
 1108SOL     OW14959   0.757   2.296   2.755 -0.2493 -0.5516 -0.3951
 1108SOL    HW114960   0.786   2.318   2.667 -0.8364  1.9981  0.0540
 1108SOL    HW214961   0.709   2.374   2.783 -0.2558 -0.5920 -0.2949
 1109SOL     OW14962   1.500   2.598   4.962 -0.0810  0.1211 -0.1285
 1109SOL    HW114963   1.554   2.567   5.035  0.4528 -0.1657 -0.6508
 1109SOL    HW214964   1.570   2.635   4.908 -0.5137 -1.0547 -1.4882
 1110SOL     OW14965   0.731   3.034   7.655  0.0897 -0.0576  0.8879
 1110SOL    HW114966   0.708   3.112   7.603  0.7354 -0.1072  0.5356
 1110SOL    HW214967   0.717   2.957   7.600  0.2146 -0.0563  0.8552
 1111SOL     OW14968   4.631   1.815   6.508  0.1110  0.3898  0.1313
 1111SOL    HW114969   4.588   1.736   6.540  2.8339 -1.5750 -1.1081
 1111SOL    HW214970   4.685   1.778   6.439 -1.2488 -1.4180  0.0257
 1112SOL     OW14971   0.458   4.494   5.735 -0.1859  0.9970 -0.3652
 1112SOL    HW114972   0.504   4.519   5.655  2.0677  0.5664  0.8108
 1112SOL    HW214973   0.378   4.546   5.735 -0.7719  0.1090 -0.4048
 1113SOL     OW14974   0.716   1.345   1.916  0.3239  0.2242  0.2360
 1113SOL    HW114975   0.726   1.430   1.874 -1.8529  0.3753  0.0242
 1113SOL    HW214976   0.718   1.368   2.009  0.4102  0.1546  0.2515
 1114SOL     OW14977   3.674   0.127   7.429  0.1091 -0.6159 -0.1420
 1114SOL    HW114978   3.755   0.172   7.406 -0.6808  0.0431 -1.6450
 1114SOL    HW214979   3.663   0.162   7.517 -0.0636 -1.3997  0.1513
 1115SOL     OW14980   4.703   1.744   3.305  0.1715 -0.3821 -0.3770
 1115SOL    HW114981   4.711   1.684   3.231 -0.7207 -1.2281  0.2242
 1115SOL    HW214982   0.055   1.779   3.321 -0.7068  2.8113 -2.5435
 1116SOL     OW14983   0.673   0.520   4.565  0.3320 -0.0438  0.3049
 1116SOL    HW114984   0.651   0.505   4.473  1.4071 -1.3138  0.2477
 1116SOL    HW214985   0.679   0.615   4.560  1.3323 -0.2117 -1.4504
 1117SOL     OW14986   0.494   0.566   4.060  0.2185  0.1066  0.5155
 1117SOL    HW114987   0.520   0.488   4.010  2.1664 -0.6993  2.7939
 1117SOL    HW214988   0.515   0.640   4.002  2.1980 -1.9481 -1.3916
 1118SOL     OW14989   1.435   4.192  11.970  0.2485  0.5286  0.4528
 1118SOL    HW114990   1.347   4.193  11.933  0.3699  1.1141  0.1800
 1118SOL    HW214991   1.473   4.271  11.932 -1.0731  0.7334 -0.4568
 1119SOL     OW14992   4.603   3.258   5.487 -0.2265  0.7144  0.1546
 1119SOL    HW114993   4.676   3.266   5.425  0.0456  0.9667  0.5093
 1119SOL    HW214994   4.542   3.326   5.458 -1.0721 -1.0937 -2.3346
 1120SOL     OW14995   3.481   0.995   5.641 -0.8158  0.3471  0.0797
 1120SOL    HW114996   3.567   0.992   5.599 -0.4303  2.0174  0.7339
 1120SOL    HW214997   3.449   0.909   5.615  0.8970 -0.0491 -0.6893
 1121SOL     OW14998   1.863   4.451  13.712 -0.6160  0.2463  0.3011
 1121SOL    HW114999   1.922   4.391  13.759 -1.8004 -0.7038  0.5860
 1121SOL    HW215000   1.832   4.516  13.775 -1.9644  0.3139 -0.4476
 1122SOL     OW15001   2.774   3.588  14.919  0.7580  0.4052  0.4155
 1122SOL    HW115002   2.849   3.569  14.862 -0.2275 -0.6406 -0.5482
 1122SOL    HW215003   2.824   3.582  15.000  0.7047  0.8502  0.4820
 1123SOL     OW15004   3.653   4.698  12.462  0.0212  0.0342 -0.7293
 1123SOL    HW115005   3.590   0.034  12.464 -2.0555 -1.7924 -1.4283
 1123SOL    HW215006   3.702   4.726  12.384 -0.8096  1.9191 -0.5726
 1124SOL     OW15007   0.644   4.653   7.647  0.2695  0.0106 -0.4762
 1124SOL    HW115008   0.629   4.731   7.700 -0.0372 -0.2766 -0.1405
 1124SOL    HW215009   0.559   4.613   7.665 -0.0634  0.5050 -0.9664
 1125SOL     OW15010   0.699   2.790   8.212  0.5260 -0.2354 -0.3441
 1125SOL    HW115011   0.778   2.828   8.175  0.0976 -0.0692 -1.0723
 1125SOL    HW215012   0.645   2.869   8.224 -2.4270 -1.9837 -2.1361
 1126SOL     OW15013   4.083   1.819   5.024  0.3886 -0.0025 -0.3984
 1126SOL    HW115014   4.048   1.802   4.936  0.4843  0.6524 -0.5601
 1126SOL    HW215015   4.135   1.898   5.009 -0.4518  0.5178 -0.5982
 1127SOL     OW15016   4.264   2.666   1.396 -0.5311 -0.0674  0.1133
 1127SOL    HW115017   4.212   2.619   1.331  0.3380 -2.4326  1.1120
 1127SOL    HW215018   4.267   2.755   1.362  2.6114 -1.1995 -2.5332
 1128SOL     OW15019   0.052   3.777   2.360 -0.0012 -0.0715  0.0900
 1128SOL    HW115020   4.692   3.783   2.362 -0.1346 -1.8150 -0.9322
 1128SOL    HW215021   0.054   3.682   2.365  0.6272 -0.1463 -1.4325
 1129SOL     OW15022   1.800   0.195   0.330 -0.0172 -0.2373  0.9050
 1129SOL    HW115023   1.885   0.211   0.289 -0.8599 -0.2885 -0.8496
 1129SOL    HW215024   1.740   0.193   0.256  1.6791 -1.7614 -0.4053
 1130SOL     OW15025   2.285   3.918   5.909  0.4190 -0.0492 -0.0262
 1130SOL    HW115026   2.268   3.834   5.865  0.6044  1.2541 -2.5651
 1130SOL    HW215027   2.199   3.933   5.949  0.8979  2.8357 -0.0921
 1131SOL     OW15028   1.901   1.139   2.571 -0.2908 -0.0944 -0.1324
 1131SOL    HW115029   1.953   1.212   2.605 -0.4755  0.7290 -1.6140
 1131SOL    HW215030   1.813   1.162   2.600 -0.3818  1.5242 -1.6552
 1132SOL     OW15031   4.638   0.003  16.424  0.0628 -0.6451  0.0113
 1132SOL    HW115032   4.568   0.027  16.484  1.7747 -1.1758  2.1913
 1132SOL    HW215033   4.602   4.658  16.387 -0.5771 -0.6392  0.6312
 1133SOL     OW15034   3.763   2.198  15.001  0.1707  0.3140 -0.3002
 1133SOL    HW115035   3.806   2.246  14.930  1.0137 -0.2547 -0.1748
 1133SOL    HW215036   3.722   2.266  15.054 -0.7942 -0.9374  0.5457
 1134SOL     OW15037   0.766   1.082   3.657 -0.8184  0.3618  0.0767
 1134SOL    HW115038   0.838   1.028   3.625 -0.3072  1.3043 -0.3427
 1134SOL    HW215039   0.743   1.030   3.735 -2.8613 -0.5182 -1.1126
 1135SOL     OW15040   2.603   4.447   4.808  0.1462 -0.0399  0.5334
 1135SOL    HW115041   2.535   4.457   4.874 -0.6052 -1.1761 -0.0726
 1135SOL    HW215042   2.682   4.451   4.861  2.0128 -1.0529 -2.1530
 1136SOL     OW15043   3.308   3.573   1.438 -0.3533  0.4401 -0.2605
 1136SOL    HW115044   3.239   3.639   1.430 -1.3192 -0.3961  1.0354
 1136SOL    HW215045   3.251   3.505   1.474  2.9739 -1.2750  1.7082
 1137SOL     OW15046   4.416   2.633  11.594 -0.2938 -0.1985  0.7133
 1137SOL    HW115047   4.484   2.567  11.607  0.7260  0.8210  0.6223
 1137SOL    HW215048   4.353   2.596  11.655 -0.3974 -1.7802 -0.3714
 1138SOL     OW15049   0.562   2.625  12.617  0.4090 -0.2582  0.4315
 1138SOL    HW115050   0.540   2.713  12.584  0.3331 -0.0081  1.1460
 1138SOL    HW215051   0.580   2.648  12.709 -0.5467 -0.0531  0.5742
 1139SOL     OW15052   0.697   2.012  16.239  0.0591  0.0902  0.7538
 1139SOL    HW115053   0.616   2.019  16.290 -1.3062  1.6062 -1.5962
 1139SOL    HW215054   0.669   2.057  16.159  2.2899 -2.1610 -1.2738
 1140SOL     OW15055   1.756   4.104   3.995  0.3336  0.3045  0.4635
 1140SOL    HW115056   1.730   4.170   3.930 -1.6096  2.4905  3.4750
 1140SOL    HW215057   1.828   4.064   3.946  0.0733 -3.1856  3.0291
 1141SOL     OW15058   0.628   1.334  13.541 -0.3049  0.5756  0.7573
 1141SOL    HW115059   0.665   1.247  13.532  0.2780  0.5928  2.9239
 1141SOL    HW215060   0.670   1.367  13.621  1.1548  1.2654 -0.3069
 1142SOL     OW15061   0.296   2.877   8.328  0.6443  0.1732 -0.3377
 1142SOL    HW115062   0.331   2.957   8.365  0.7519 -0.3131  0.6074
 1142SOL    HW215063   0.306   2.880   8.232  0.9444 -0.3239 -0.3205
 1143SOL     OW15064   0.015   3.709   5.170 -0.2923 -0.1347 -0.3261
 1143SOL    HW115065   4.669   3.691   5.216 -0.2426 -0.2459 -0.2807
 1143SOL    HW215066   0.023   3.624   5.127 -0.2440 -0.9698  1.3475
 1144SOL     OW15067   4.071   1.165   9.653  0.1606  0.3702 -0.1263
 1144SOL    HW115068   4.084   1.200   9.742  1.2714 -0.0173 -0.1454
 1144SOL    HW215069   4.002   1.101   9.671 -0.0721  1.2724  2.2891
 1145SOL     OW15070   0.408   3.624   1.383  0.3291  0.4054  0.8005
 1145SOL    HW115071   0.353   3.665   1.316  0.3940 -1.1591 -0.2094
 1145SOL    HW215072   0.385   3.672   1.463  1.7589  0.5927  1.0925
 1146SOL     OW15073   4.382   0.162   1.853 -0.1976 -0.0034 -0.1992
 1146SOL    HW115074   4.402   0.138   1.943  0.3066 -1.0798 -0.5959
 1146SOL    HW215075   4.424   0.247   1.839 -1.1323  0.3300 -0.9623
 1147SOL     OW15076   2.903   0.152   9.387  0.1139  0.0188  0.0561
 1147SOL    HW115077   2.873   0.087   9.323  0.2967 -1.2644  1.2625
 1147SOL    HW215078   2.825   0.160   9.442 -0.1178 -2.3855  0.0914
 1148SOL     OW15079   3.571   2.900   7.536 -0.0399 -0.1214 -0.3466
 1148SOL    HW115080   3.511   2.928   7.467  1.5598 -1.2029 -2.1862
 1148SOL    HW215081   3.617   2.833   7.486 -0.6007 -0.7622 -0.0114
 1149SOL     OW15082   4.663   1.900   1.928  0.1741  0.0029 -0.5518
 1149SOL    HW115083   0.014   1.940   1.930 -0.1574  0.6308  0.8346
 1149SOL    HW215084   4.685   1.819   1.973  0.3576 -0.7514 -1.9820
 1150SOL     OW15085   2.556   2.355   7.285  0.1417  0.4185  0.2598
 1150SOL    HW115086   2.552   2.434   7.231 -1.4687 -0.6030 -1.1105
 1150SOL    HW215087   2.648   2.361   7.310 -0.1993  1.3068  1.3237
 1151SOL     OW15088   4.059   3.287   6.060 -0.1324  0.5072 -0.1088
 1151SOL    HW115089   3.966   3.270   6.047 -0.3676  1.3970  0.4216
 1151SOL    HW215090   4.052   3.358   6.124 -0.9436  0.3468 -0.0235
 1152SOL     OW15091   0.883   1.138   1.843  0.2977 -0.3978  0.0965
 1152SOL    HW115092   0.799   1.183   1.839 -0.9243 -2.5125  1.7518
 1152SOL    HW215093   0.933   1.214   1.874  0.7649 -2.0915  3.4734
 1153SOL     OW15094   1.997   2.835   8.913  0.0360 -0.4474  0.2130
 1153SOL    HW115095   2.015   2.741   8.916 -0.5555 -0.6345 -1.9016
 1153SOL    HW215096   1.903   2.848   8.920 -0.1665 -3.1532  2.6426
 1154SOL     OW15097   1.990   0.570   8.831  0.6921  0.3408 -0.1754
 1154SOL    HW115098   1.956   0.572   8.742 -1.2138  0.0367  0.5523
 1154SOL    HW215099   1.908   0.570   8.880  0.9919 -1.7063  0.3086
 1155SOL     OW15100   1.506   2.645   3.573  0.0632 -0.5712  0.0778
 1155SOL    HW115101   1.538   2.720   3.522 -0.2479 -0.3045  0.2795
 1155SOL    HW215102   1.414   2.633   3.550 -0.4525  1.2966  1.2261
 1156SOL     OW15103   4.099   3.733   7.248  0.2413  0.6992  0.3206
 1156SOL    HW115104   4.055   3.653   7.274 -0.9574  0.5641 -2.1514
 1156SOL    HW215105   4.180   3.726   7.299 -0.6188 -1.7824  1.3429
 1157SOL     OW15106   4.616   2.773   4.688  0.2469  0.5560  0.0586
 1157SOL    HW115107   4.707   2.749   4.671  0.3470  0.1769  1.1484
 1157SOL    HW215108   4.602   2.835   4.616  0.1217 -0.2634 -0.6249
 1158SOL     OW15109   4.418   1.514   2.581 -0.1167 -0.1759 -0.1171
 1158SOL    HW115110   4.385   1.582   2.522 -1.5596 -2.8806 -2.4551
 1158SOL    HW215111   4.385   1.543   2.666  0.1433  1.7958 -0.6822
 1159SOL     OW15112   3.187   0.741   1.328  0.1117 -0.1155  0.0610
 1159SOL    HW115113   3.138   0.822   1.335 -2.6106 -1.7973  0.2221
 1159SOL    HW215114   3.151   0.691   1.401 -0.8822  0.2548 -0.1869
 1160SOL     OW15115   3.575   0.030   2.037  0.2094 -0.5138  0.3381
 1160SOL    HW115116   3.513   0.088   1.993  0.7415  0.5329  0.9846
 1160SOL    HW215117   3.517   4.690   2.029  0.2697 -0.7481  2.1953
 1161SOL     OW15118   2.251   3.835   8.723  0.2057 -0.0665  0.5095
 1161SOL    HW115119   2.288   3.750   8.700  0.7298 -0.1646  1.7380
 1161SOL    HW215120   2.320   3.889   8.687 -0.7542  0.3926 -0.6510
 1162SOL     OW15121   2.478   2.645   3.348  0.1936 -0.3743 -0.4647
 1162SOL    HW115122   2.480   2.740   3.354 -0.8546 -0.3792  0.0971
 1162SOL    HW215123   2.458   2.624   3.439 -0.2524 -2.8979 -1.1467
 1163SOL     OW15124   3.290   3.347   3.142 -0.8178 -0.2622 -0.0760
 1163SOL    HW115125   3.317   3.311   3.058 -0.0989  1.1710 -0.4719
 1163SOL    HW215126   3.212   3.293   3.151  0.5767 -2.3338 -0.3869
 1164SOL     OW15127   3.721   2.080  15.510  0.5938  0.4293 -0.2376
 1164SOL    HW115128   3.695   2.149  15.449  0.5116  0.5130 -0.1088
 1164SOL    HW215129   3.757   2.125  15.587 -0.6996 -0.4711  0.9039
 1165SOL     OW15130   4.729   1.277   7.429  0.3068 -0.2068 -0.0218
 1165SOL    HW115131   4.637   1.282   7.403  0.0120 -0.7790  0.9311
 1165SOL    HW215132   4.726   1.201   7.487  0.4246  1.1442  1.7446
 1166SOL     OW15133   4.256   3.306   3.485 -0.2062 -0.1708  0.0602
 1166SOL    HW115134   4.195   3.344   3.423  0.4830  0.3835 -0.2767
 1166SOL    HW215135   4.212   3.225   3.511 -0.1025  0.0500  0.9292
 1167SOL     OW15136   0.590   2.274   8.248  0.5641 -0.0014  0.0738
 1167SOL    HW115137   0.536   2.278   8.168  0.0339  1.4562  0.5082
 1167SOL    HW215138   0.574   2.361   8.284 -0.4536 -1.0933  2.2624
 1168SOL     OW15139   1.366   0.770   4.781  0.2133 -0.2908 -0.6545
 1168SOL    HW115140   1.424   0.738   4.712 -1.3375 -1.0640 -1.6233
 1168SOL    HW215141   1.300   0.822   4.734  0.3660 -1.4192 -2.1264
 1169SOL     OW15142   4.419   4.311  16.184 -0.4236  0.7902  0.2677
 1169SOL    HW115143   4.323   4.318  16.179 -0.1969  1.0487 -4.2003
 1169SOL    HW215144   4.434   4.225  16.146  0.1399  0.2065  1.8106
 1170SOL     OW15145   3.023   4.410   8.788  0.0080 -0.0629 -0.4417
 1170SOL    HW115146   2.990   4.474   8.725 -0.4685  0.4358  0.3218
 1170SOL    HW215147   3.023   4.336   8.727  1.2912 -1.0014  0.6775
 1171SOL     OW15148   3.297   3.049  16.526 -0.8633 -0.1566  0.2054
 1171SOL    HW115149   3.342   3.119  16.479 -3.0502  1.0621 -0.0661
 1171SOL    HW215150   3.268   2.991  16.456  1.0020  0.6575 -1.2432
 1172SOL     OW15151   4.207   4.635   6.990 -0.0328  0.2974  0.3857
 1172SOL    HW115152   4.177   4.724   7.008 -1.8622  0.0635 -1.5182
 1172SOL    HW215153   4.127   4.589   7.016 -0.1919 -0.0111 -0.6633
 1173SOL     OW15154   0.370   0.097   2.544  0.5662 -0.0698 -0.6112
 1173SOL    HW115155   0.324   0.025   2.500 -0.4046 -0.2912  0.7542
 1173SOL    HW215156   0.453   0.096   2.497 -0.9406  0.4908 -3.2901
 1174SOL     OW15157   2.453   1.760  16.994  0.1012 -0.4527  0.2462
 1174SOL    HW115158   2.546   1.754  16.973 -0.2049  2.3887 -1.9468
 1174SOL    HW215159   2.456   1.803  17.080  0.4271  1.7995 -0.8849
 1175SOL     OW15160   1.371   3.442   3.158 -0.5162 -0.4317 -0.5195
 1175SOL    HW115161   1.371   3.351   3.130  0.0142 -0.6965  0.3403
 1175SOL    HW215162   1.283   3.462   3.125 -0.8295  1.1543  1.2457
 1176SOL     OW15163   3.637   1.490   5.165 -0.0755 -0.5246 -0.3353
 1176SOL    HW115164   3.564   1.495   5.227  1.6202  2.1846  1.4941
 1176SOL    HW215165   3.670   1.580   5.178 -2.3478  0.2762 -0.1271
 1177SOL     OW15166   2.867   3.278   3.855 -0.0380 -0.0749  0.0357
 1177SOL    HW115167   2.893   3.208   3.914  0.9106 -0.7399 -1.1707
 1177SOL    HW215168   2.889   3.238   3.771 -0.3642  1.0895 -0.6060
 1178SOL     OW15169   1.255   4.059  14.769  0.4573  0.0455  0.0112
 1178SOL    HW115170   1.310   3.983  14.748  0.7270  0.7316 -1.7422
 1178SOL    HW215171   1.325   4.119  14.793  2.1874 -2.0876  0.3711
 1179SOL     OW15172   3.762   0.485  12.852 -0.1200 -0.0832  0.3500
 1179SOL    HW115173   3.730   0.499  12.941  0.1206  1.8662  0.1335
 1179SOL    HW215174   3.767   0.573  12.814  2.5625 -0.9256 -1.1760
 1180SOL     OW15175   0.679   0.549  11.552  0.7061 -0.4827  0.6714
 1180SOL    HW115176   0.696   0.457  11.532 -2.7691 -1.0197  0.1934
 1180SOL    HW215177   0.731   0.588  11.482 -0.3149 -0.1695  0.0822
 1181SOL     OW15178   2.424   1.975  14.956  0.1290  0.3868 -0.7572
 1181SOL    HW115179   2.343   2.009  14.919  0.7067  0.5847 -1.8485
 1181SOL    HW215180   2.415   1.880  14.965  0.7445  0.4780  0.7166
 1182SOL     OW15181   3.814   4.317   1.346 -0.3025 -0.1979 -0.3323
 1182SOL    HW115182   3.782   4.381   1.284 -1.4500 -1.1787 -0.7621
 1182SOL    HW215183   3.757   4.326   1.422  0.4605 -0.2758  0.2506
 1183SOL     OW15184   1.131   1.766   4.841  0.9827 -0.5994 -0.0239
 1183SOL    HW115185   1.171   1.801   4.761  1.7093  3.2337  2.0431
 1183SOL    HW215186   1.066   1.705   4.805  1.1089 -0.8695  0.2038
 1184SOL     OW15187   3.226   4.085   3.332  0.6573 -0.5058 -0.1758
 1184SOL    HW115188   3.292   4.038   3.382  1.2845  0.4437 -0.1131
 1184SOL    HW215189   3.224   4.162   3.389 -1.5646  0.7884 -1.9768
 1185SOL     OW15190   1.696   4.706   4.516 -0.3444  0.0235  0.3418
 1185SOL    HW115191   1.769   4.644   4.512 -0.5115 -0.1013 -0.6670
 1185SOL    HW215192   1.627   4.644   4.540 -0.6328  0.2818  0.1781
 1186SOL     OW15193   2.541   0.288   8.509  0.1130  0.5515 -0.3362
 1186SOL    HW115194   2.523   0.235   8.587  0.8507  0.8183  0.0251
 1186SOL    HW215195   2.452   0.286   8.476 -0.4761 -2.0789  1.4128
 1187SOL     OW15196   2.249   4.333   3.169 -0.1210  0.2216 -0.4533
 1187SOL    HW115197   2.337   4.372   3.168  0.5092 -1.2329 -2.4062
 1187SOL    HW215198   2.229   4.348   3.262  3.1487 -0.2345  0.3318
 1188SOL     OW15199   2.293   3.624   6.938 -0.0071 -0.1034  0.0100
 1188SOL    HW115200   2.252   3.585   6.861  0.0682  0.4154 -0.2951
 1188SOL    HW215201   2.389   3.618   6.941  0.0363 -0.4329 -2.0720
 1189SOL     OW15202   2.844   0.821   3.361  0.0815 -0.3273  0.3828
 1189SOL    HW115203   2.858   0.749   3.300 -3.2943  0.3825 -1.2849
 1189SOL    HW215204   2.923   0.873   3.345 -2.6644  3.7659 -0.1087
 1190SOL     OW15205   0.316   3.600   0.131  0.4291  0.1298  0.3563
 1190SOL    HW115206   0.364   3.563   0.057 -1.1850  1.1909 -1.2348
 1190SOL    HW215207   0.230   3.571   0.099  1.0167 -1.0615 -0.1595
 1191SOL     OW15208   0.097   1.967   4.305 -0.3755  0.1727  0.2054
 1191SOL    HW115209   0.018   2.020   4.291 -0.0110  0.5469 -0.4347
 1191SOL    HW215210   0.133   1.960   4.216 -0.7612  2.0520 -0.1100
 1192SOL     OW15211   1.980   3.179   1.026 -0.2180  0.1432 -0.1545
 1192SOL    HW115212   1.885   3.165   1.023 -0.3378 -0.2095  4.6114
 1192SOL    HW215213   2.000   3.218   0.941  0.1528  0.0868 -0.0907
 1193SOL     OW15214   3.957   1.560  17.217 -0.2224  0.5095 -0.5339
 1193SOL    HW115215   4.036   1.613  17.226  1.0602 -1.5140  0.1529
 1193SOL    HW215216   3.933   1.560  17.310  1.2318 -2.5556 -0.1528
 1194SOL     OW15217   2.768   0.740   1.003  0.0980 -0.1068  0.6020
 1194SOL    HW115218   2.858   0.750   1.035 -0.1924  0.0111  1.3690
 1194SOL    HW215219   2.786   0.656   0.961  1.9803  0.4366  0.3046
 1195SOL     OW15220   4.544   1.434  15.967 -0.3864 -0.2435  0.3767
 1195SOL    HW115221   4.613   1.486  15.926 -1.6651 -0.3446 -1.9486
 1195SOL    HW215222   4.477   1.443  15.899 -0.6387  1.6386  0.8742
 1196SOL     OW15223   4.635   3.582   7.075  0.1727  0.4275 -0.3753
 1196SOL    HW115224   4.684   3.663   7.089 -0.7740  0.8260  0.6105
 1196SOL    HW215225   4.555   3.610   7.120 -0.0172 -1.7694  0.6549
 1197SOL     OW15226   1.686   2.024   5.978  0.2917 -0.0396 -0.3582
 1197SOL    HW115227   1.712   1.981   6.060 -0.4670  1.2306  0.5395
 1197SOL    HW215228   1.592   2.023   5.995  0.3211 -4.0126 -0.3301
 1198SOL     OW15229   3.808   4.549   9.635 -0.6790  0.4741  0.2795
 1198SOL    HW115230   3.755   4.569   9.558 -1.6334  1.5054  1.1991
 1198SOL    HW215231   3.791   4.620   9.698  0.1223 -0.6057  1.7134
 1199SOL     OW15232   4.243   1.353   2.428  0.7213  0.0108 -0.0720
 1199SOL    HW115233   4.204   1.434   2.462  0.0728  1.4255 -4.1845
 1199SOL    HW215234   4.334   1.381   2.434  0.3287  1.1641  0.6533
 1200SOL     OW15235   2.172   1.632  13.028 -0.3963  0.3325 -0.1771
 1200SOL    HW115236   2.154   1.560  13.088  4.8126 -0.5103  0.4274
 1200SOL    HW215237   2.223   1.584  12.963 -2.3344 -1.0825 -0.6580
 1201SOL     OW15238   1.821   4.576   8.874 -0.4908  0.2151  0.1782
 1201SOL    HW115239   1.891   4.642   8.876 -0.1384 -0.1821  1.0127
 1201SOL    HW215240   1.755   4.635   8.910 -0.5323  0.0762  0.3269
 1202SOL     OW15241   3.468   3.267  16.433 -0.0068  0.2074  0.4352
 1202SOL    HW115242   3.533   3.326  16.394  0.8488 -0.9692  0.0658
 1202SOL    HW215243   3.540   3.226  16.482  0.5628  0.6147 -0.0592
 1203SOL     OW15244   2.923   0.195   8.437 -0.5614  0.5803 -0.2635
 1203SOL    HW115245   2.920   0.210   8.532  1.6150  3.2571 -0.6335
 1203SOL    HW215246   2.986   0.261   8.408 -1.4047  0.2460 -2.8711
 1204SOL     OW15247   3.908   0.376   9.095 -0.1879  0.4812  0.0218
 1204SOL    HW115248   3.860   0.368   9.177 -0.2723  2.4422  0.1621
 1204SOL    HW215249   3.886   0.463   9.061  2.7992  0.4045 -2.1355
 1205SOL     OW15250   4.546   1.138   8.468  0.2086 -0.0602 -0.8172
 1205SOL    HW115251   4.475   1.159   8.407  1.6638 -1.3656 -2.9339
 1205SOL    HW215252   4.600   1.085   8.410  0.6044  1.0006 -1.4139
 1206SOL     OW15253   3.176   1.356   7.528  0.6032  0.5985 -0.0974
 1206SOL    HW115254   3.193   1.438   7.574 -0.8809  1.4690 -1.0873
 1206SOL    HW215255   3.250   1.298   7.547 -0.2482  0.0678  1.5751
 1207SOL     OW15256   0.840   3.430   2.278  0.4083 -0.3975  0.6748
 1207SOL    HW115257   0.893   3.493   2.229 -1.2343 -0.4471 -1.1776
 1207SOL    HW215258   0.760   3.481   2.291  1.2547  1.4244 -1.3030
 1208SOL     OW15259   2.966   2.273   8.084  0.4846  0.0232  0.3459
 1208SOL    HW115260   2.964   2.352   8.138  1.3983  1.0297 -1.0966
 1208SOL    HW215261   3.029   2.216   8.126  1.4605 -0.5682 -1.9291
 1209SOL     OW15262   1.946   4.342   1.563 -0.0472  0.2746  0.2474
 1209SOL    HW115263   2.018   4.284   1.539  0.6199  2.1752 -2.2731
 1209SOL    HW215264   1.873   4.280   1.556  1.3470 -1.6136  2.4303
 1210SOL     OW15265   2.239   1.180   0.212  0.4743  0.6531  0.1667
 1210SOL    HW115266   2.330   1.205   0.195  0.6864  0.6990  1.3689
 1210SOL    HW215267   2.235   1.100   0.159 -0.8290  0.8398 -0.0241
 1211SOL     OW15268   2.103   1.736  10.532 -0.1928 -0.4025 -0.1253
 1211SOL    HW115269   2.045   1.673  10.489 -0.0848  0.7468 -1.9564
 1211SOL    HW215270   2.049   1.760  10.607 -0.5196  1.5864 -0.9944
 1212SOL     OW15271   3.723   3.138   4.620  0.3415  0.2182 -0.1917
 1212SOL    HW115272   3.645   3.137   4.675  1.6944  0.7610  1.7481
 1212SOL    HW215273   3.695   3.085   4.546  1.1296  0.5918 -0.7540
 1213SOL     OW15274   1.375   4.091   0.943  0.3894  0.3915  0.0313
 1213SOL    HW115275   1.453   4.143   0.964  0.4084  0.0459  0.8047
 1213SOL    HW215276   1.356   4.053   1.029  0.9340 -0.1246 -0.0672
 1214SOL     OW15277   0.961   0.065   4.430  1.0875  0.1801 -0.0673
 1214SOL    HW115278   0.984   0.117   4.506 -3.1686  1.2311  0.4897
 1214SOL    HW215279   0.887   0.013   4.461  1.6541  0.4121  1.6549
 1215SOL     OW15280   3.996   2.644   5.212  0.3322 -0.1935  0.3271
 1215SOL    HW115281   4.007   2.655   5.307 -2.4109  1.1993  0.4744
 1215SOL    HW215282   4.072   2.590   5.191  1.0543  1.1794 -0.5490
 1216SOL     OW15283   2.590   1.425  13.324  0.2106 -0.2967  0.7052
 1216SOL    HW115284   2.577   1.432  13.419 -2.2273 -0.4712  0.3714
 1216SOL    HW215285   2.582   1.330  13.318  0.4894 -0.3910  1.7030
 1217SOL     OW15286   0.536   1.713  14.828  0.0470 -0.4933 -0.6238
 1217SOL    HW115287   0.488   1.639  14.791 -0.1135  0.0175 -1.4305
 1217SOL    HW215288   0.616   1.713  14.777  0.4287 -1.8837 -0.0270
 1218SOL     OW15289   4.639   2.616  11.201 -0.0116 -0.4260  0.3312
 1218SOL    HW115290   4.734   2.623  11.194 -0.3384  0.9042 -2.9179
 1218SOL    HW215291   4.614   2.709  11.199 -2.1500 -1.0191 -0.3797
 1219SOL     OW15292   0.649   3.050   9.087 -0.3961 -0.0599 -0.1736
 1219SOL    HW115293   0.703   2.980   9.052 -0.0504  0.6031 -0.9717
 1219SOL    HW215294   0.646   3.010   9.173  1.9302 -0.0671 -0.1153
 1220SOL     OW15295   3.256   1.046   6.233 -0.2287 -0.3211  0.0024
 1220SOL    HW115296   3.282   1.126   6.188 -0.1815  0.1354  0.8463
 1220SOL    HW215297   3.185   1.023   6.173 -1.0957 -0.6749  1.1629
 1221SOL     OW15298   2.251   2.973   0.602 -0.4262  1.1591  0.3691
 1221SOL    HW115299   2.198   3.052   0.619 -0.8277  0.5253  2.1208
 1221SOL    HW215300   2.271   2.983   0.509  1.8644  1.1457  0.8630
 1222SOL     OW15301   4.270   3.425   2.534 -0.3119 -0.6163 -0.1573
 1222SOL    HW115302   4.204   3.427   2.465  1.7059  0.1283 -2.0491
 1222SOL    HW215303   4.222   3.426   2.617  1.2982  1.0338  0.7626
 1223SOL     OW15304   1.257   3.864  11.548 -0.3680 -0.2692 -0.1878
 1223SOL    HW115305   1.267   3.815  11.467 -0.7348  0.3078 -0.5780
 1223SOL    HW215306   1.313   3.809  11.603  0.1058  1.1813  0.7844
 1224SOL     OW15307   0.855   1.988   3.340  0.3193 -0.7797 -0.5242
 1224SOL    HW115308   0.911   1.954   3.409  1.7807  0.0833 -1.2879
 1224SOL    HW215309   0.799   1.911   3.331  0.5522 -0.7911 -1.8630
 1225SOL     OW15310   0.197   4.420  17.092 -0.7038 -0.2374  0.0939
 1225SOL    HW115311   0.151   4.349  17.046  1.1084  1.2247 -3.9484
 1225SOL    HW215312   0.280   4.416  17.046 -0.7892 -1.6374  0.0610
 1226SOL     OW15313   0.317   2.710  13.226 -0.5062  0.5796  0.0768
 1226SOL    HW115314   0.228   2.674  13.225 -0.9295  1.7346 -2.7837
 1226SOL    HW215315   0.300   2.803  13.211 -0.8003  0.9473  2.6588
 1227SOL     OW15316   4.496   1.288   7.346 -0.3410  0.4609 -0.4141
 1227SOL    HW115317   4.417   1.265   7.296 -1.5439 -1.3051  2.2790
 1227SOL    HW215318   4.466   1.289   7.437  1.8435 -0.3699  0.3012
 1228SOL     OW15319   2.975   1.151   2.831  0.2017 -0.1434 -0.5169
 1228SOL    HW115320   2.890   1.173   2.793 -0.0558 -0.9825 -0.4186
 1228SOL    HW215321   2.948   1.104   2.910  0.1494  0.6135 -0.0772
 1229SOL     OW15322   4.612   0.039  10.697 -0.4554  0.0011 -0.3761
 1229SOL    HW115323   4.705   0.016  10.694 -0.0429  1.6724 -0.6444
 1229SOL    HW215324   4.632   0.133  10.693 -0.9741  0.1779  1.3547
 1230SOL     OW15325   3.498   2.242   6.950  0.1897  0.2286 -0.0500
 1230SOL    HW115326   3.572   2.204   6.996 -0.0233 -0.4832 -0.2931
 1230SOL    HW215327   3.512   2.194   6.869 -0.4265  1.2625 -0.7701
 1231SOL     OW15328   2.258   1.276   5.601 -0.1450  0.0716 -0.3949
 1231SOL    HW115329   2.312   1.331   5.658  0.6637 -1.3140  0.1758
 1231SOL    HW215330   2.226   1.210   5.663  1.2647  0.0828  0.3455
 1232SOL     OW15331   4.064   2.801   6.741  0.1922 -0.2493  0.0163
 1232SOL    HW115332   4.042   2.778   6.651 -1.1175 -1.2144  0.5822
 1232SOL    HW215333   3.984   2.767   6.781  0.6745 -0.5808  0.7026
 1233SOL     OW15334   3.580   3.728  16.198 -0.7005  0.5096 -0.4877
 1233SOL    HW115335   3.549   3.816  16.219  0.3301  1.3192 -2.3292
 1233SOL    HW215336   3.670   3.752  16.174  0.1596 -1.8021  0.4711
 1234SOL     OW15337   0.800   0.018   2.803  0.4037  0.3090  0.1593
 1234SOL    HW115338   0.872   0.075   2.774  0.0190 -0.3592 -2.1107
 1234SOL    HW215339   0.831   4.725   2.889 -0.9242  0.6139  0.7439
 1235SOL     OW15340   4.236   0.553   3.044  0.0755 -0.0874  0.4518
 1235SOL    HW115341   4.265   0.484   3.104 -0.0965 -3.1297 -2.8983
 1235SOL    HW215342   4.317   0.590   3.009 -0.6897  0.3605 -0.8423
 1236SOL     OW15343   2.705   2.549   6.107 -1.0008  0.2929  0.8186
 1236SOL    HW115344   2.621   2.513   6.079  0.3044 -3.4383  1.6952
 1236SOL    HW215345   2.772   2.516   6.047  0.5378  0.8569  2.2229
 1237SOL     OW15346   0.298   2.874   8.034  0.2618  0.0148 -0.0696
 1237SOL    HW115347   0.385   2.884   7.996  0.5967 -1.3637  0.3401
 1237SOL    HW215348   0.262   2.808   7.975 -1.7207  0.0613  1.0927
 1238SOL     OW15349   4.242   1.238   7.266  0.2610 -0.3921  0.4066
 1238SOL    HW115350   4.208   1.244   7.177  1.6172  0.0230 -0.0805
 1238SOL    HW215351   4.195   1.160   7.296  0.0529 -0.0723  0.9000
 1239SOL     OW15352   1.869   3.210   7.624 -0.4807 -0.5434 -0.1043
 1239SOL    HW115353   1.840   3.269   7.694  1.2740 -0.3933  0.4883
 1239SOL    HW215354   1.807   3.232   7.555  0.1520  1.7793  0.0460
 1240SOL     OW15355   2.992   1.505   5.402 -0.4119 -0.0098 -0.3691
 1240SOL    HW115356   2.935   1.428   5.410 -0.4340  0.1619  1.2043
 1240SOL    HW215357   3.023   1.527   5.490 -0.7583  0.4347 -0.3575
 1241SOL     OW15358   3.405   3.704   0.434 -0.5623  0.4441 -0.8006
 1241SOL    HW115359   3.401   3.610   0.456  2.4378  0.0212 -2.0987
 1241SOL    HW215360   3.419   3.703   0.340 -0.6349 -2.1082 -0.7968
 1242SOL     OW15361   0.031   4.722   5.839 -0.0308  0.3014 -0.0967
 1242SOL    HW115362   4.692   4.719   5.898 -1.6200  2.1701 -2.0588
 1242SOL    HW215363   0.059   0.076   5.857 -1.6754  1.3346 -2.7562
 1243SOL     OW15364   1.588   0.617  13.663 -0.1074  0.1095  0.2595
 1243SOL    HW115365   1.537   0.608  13.744 -1.4795 -2.5060 -0.8861
 1243SOL    HW215366   1.548   0.554  13.603 -0.4198  1.1759 -0.6375
 1244SOL     OW15367   3.886   2.123  15.767  0.4538 -0.8557  0.3290
 1244SOL    HW115368   3.914   2.091  15.853 -2.5644 -2.3320  0.7671
 1244SOL    HW215369   3.821   2.189  15.791  0.5795 -0.5639 -0.1333
 1245SOL     OW15370   3.890   1.495   2.631 -0.0323 -0.5652 -0.3322
 1245SOL    HW115371   3.919   1.524   2.718 -0.4856 -2.2545  0.3776
 1245SOL    HW215372   3.961   1.525   2.574  0.9554 -0.2898  1.0216
 1246SOL     OW15373   1.521   3.698   1.367 -0.0717 -0.0266 -0.4069
 1246SOL    HW115374   1.497   3.621   1.316 -2.7904  1.1122 -0.7962
 1246SOL    HW215375   1.573   3.743   1.300  2.1628  0.6757  1.7819
 1247SOL     OW15376   3.043   4.152  10.366  0.2680 -0.6958 -0.4281
 1247SOL    HW115377   3.081   4.126  10.450 -2.1049 -0.8244  0.5901
 1247SOL    HW215378   2.955   4.115  10.366  0.9029 -2.2038  1.7123
 1248SOL     OW15379   3.131   4.211   5.339 -0.3966  0.0550  0.5662
 1248SOL    HW115380   3.131   4.133   5.394  1.1384  0.8694  1.7251
 1248SOL    HW215381   3.074   4.271   5.387  0.1665 -0.2137  1.5648
 1249SOL     OW15382   3.367   4.087   1.279 -0.4817  0.4387 -0.5668
 1249SOL    HW115383   3.371   4.174   1.240  0.7576  0.4071 -0.4953
 1249SOL    HW215384   3.332   4.035   1.207  0.0009  0.1958 -0.6281
 1250SOL     OW15385   0.394   1.953   1.614 -0.6482 -0.0145 -0.1258
 1250SOL    HW115386   0.396   2.008   1.693 -0.5571  0.0308 -0.1604
 1250SOL    HW215387   0.298   1.945   1.614 -0.6268 -0.2700 -0.3066
 1251SOL     OW15388   2.639   1.642   7.437 -0.2684 -0.3925  0.0637
 1251SOL    HW115389   2.585   1.638   7.516 -0.9974 -1.0790 -0.4743
 1251SOL    HW215390   2.671   1.552   7.437 -0.6437 -0.5325 -1.3176
 1252SOL     OW15391   0.292   2.210  14.150 -0.4759  0.1318  0.2459
 1252SOL    HW115392   0.264   2.147  14.217  0.0407  1.8398  2.0671
 1252SOL    HW215393   0.228   2.280  14.166 -2.7459 -0.6136 -5.8465
 1253SOL     OW15394   3.617   4.115   1.102  0.1560  0.4887 -0.3268
 1253SOL    HW115395   3.575   4.065   1.032  0.5966 -0.0108 -0.2299
 1253SOL    HW215396   3.555   4.184   1.123  0.5686  0.8516 -0.3114
 1254SOL     OW15397   3.871   4.242   4.035 -0.7800 -0.3673  0.0645
 1254SOL    HW115398   3.943   4.203   4.084 -0.7614 -1.0387 -0.5018
 1254SOL    HW215399   3.873   4.323   4.086  0.8911  0.0769 -0.7185
 1255SOL     OW15400   0.031   0.600   2.141  0.5759  0.5580  0.2021
 1255SOL    HW115401   0.019   0.663   2.213  1.4459 -1.1879  1.8904
 1255SOL    HW215402   0.013   0.515   2.182  0.0637  1.0006  0.8974
 1256SOL     OW15403   2.933   3.061   4.533  0.8686  0.1630 -0.2223
 1256SOL    HW115404   2.953   3.094   4.446  2.3626 -0.0841  0.0153
 1256SOL    HW215405   2.842   3.034   4.521  0.6945 -0.1091  1.7143
 1257SOL     OW15406   0.627   3.358   2.050 -0.3207 -0.3993  0.3715
 1257SOL    HW115407   0.653   3.419   1.982 -1.1778 -2.8443 -2.1746
 1257SOL    HW215408   0.705   3.307   2.071 -0.8545 -0.0795  3.1388
 1258SOL     OW15409   1.081   1.872   7.942  0.4578  0.1247 -0.2378
 1258SOL    HW115410   1.146   1.942   7.940 -0.0988  0.6511  0.3512
 1258SOL    HW215411   1.000   1.921   7.929  0.2480  0.1400  1.1499
 1259SOL     OW15412   1.371   1.842   4.402  0.4773  0.0989  0.2150
 1259SOL    HW115413   1.456   1.871   4.437  0.5521  0.6997 -0.4569
 1259SOL    HW215414   1.353   1.893   4.323 -0.3304 -0.1842  0.2253
 1260SOL     OW15415   0.789   2.385   2.506 -0.1970  0.1332 -0.1996
 1260SOL    HW115416   0.882   2.370   2.488 -0.6622 -0.8463 -1.7349
 1260SOL    HW215417   0.757   2.428   2.427  0.4176  1.4934  0.2830
 1261SOL     OW15418   1.798   2.560   6.109 -0.1124 -0.1752  0.6436
 1261SOL    HW115419   1.884   2.537   6.143 -0.4882 -0.8907  1.1079
 1261SOL    HW215420   1.784   2.650   6.138 -0.4234  0.1808 -0.5843
 1262SOL     OW15421   2.633   3.190   3.700  0.3629  0.4298 -0.1815
 1262SOL    HW115422   2.698   3.252   3.732 -1.2989  1.7859  0.6150
 1262SOL    HW215423   2.593   3.165   3.783  0.5315  0.8215  0.0139
 1263SOL     OW15424   0.697   2.085  14.936 -0.1917  0.0314  0.2026
 1263SOL    HW115425   0.640   2.032  14.879  0.0112  0.7815 -0.6837
 1263SOL    HW215426   0.634   2.088  15.008 -0.4882  0.2617 -0.0634
 1264SOL     OW15427   3.003   4.588  10.787 -0.0209 -0.5171  0.2558
 1264SOL    HW115428   3.010   4.546  10.873 -1.2080  0.5238  0.8683
 1264SOL    HW215429   2.955   4.667  10.811 -2.4893 -1.0284 -2.9472
 1265SOL     OW15430   4.137   2.305   5.540  0.1615  0.2243  0.5431
 1265SOL    HW115431   4.113   2.352   5.619 -1.7067  1.1090 -0.5640
 1265SOL    HW215432   4.214   2.348   5.503 -1.3316 -0.0751 -2.9843
 1266SOL     OW15433   0.273   3.687  12.431 -0.7318  0.1584  0.2014
 1266SOL    HW115434   0.199   3.631  12.408 -1.6165  1.8574 -1.0870
 1266SOL    HW215435   0.275   3.660  12.523 -1.1094 -1.5700 -0.3005
 1267SOL     OW15436   2.062   0.466   3.952 -0.3121 -0.6794  0.0572
 1267SOL    HW115437   2.087   0.416   3.874  1.3439  0.3794 -0.0777
 1267SOL    HW215438   1.967   0.455   3.949 -0.4640  0.7933 -0.8021
 1268SOL     OW15439   4.688   4.291   9.157 -0.1096 -0.4640  0.0420
 1268SOL    HW115440   4.700   4.292   9.062  3.4921 -0.8322  0.5221
 1268SOL    HW215441   4.594   4.280   9.174 -0.2700  0.7953 -0.0138
 1269SOL     OW15442   2.731   3.719   9.049  0.4527  0.0511 -0.3594
 1269SOL    HW115443   2.643   3.684   9.033  1.5001 -1.5031 -2.6507
 1269SOL    HW215444   2.710   3.808   9.020  0.9278  0.4239  0.4434
 1270SOL     OW15445   0.670   2.718   2.803  0.2478  0.1947  0.3440
 1270SOL    HW115446   0.637   2.707   2.714 -2.2068 -1.9978  1.5190
 1270SOL    HW215447   0.655   2.631   2.839 -0.3238 -0.1215 -0.6415
 1271SOL     OW15448   2.064   3.298  15.853 -0.2711  0.5727  0.2909
 1271SOL    HW115449   2.071   3.223  15.913  0.6677  0.7274  0.3731
 1271SOL    HW215450   2.132   3.358  15.884  0.4385 -0.9346  1.6420
 1272SOL     OW15451   2.605   4.412   7.218 -0.0421 -0.1595 -0.2334
 1272SOL    HW115452   2.624   4.326   7.255  0.6976  1.1915  2.5631
 1272SOL    HW215453   2.515   4.402   7.186  0.2139 -3.0243  0.0005
 1273SOL     OW15454   2.681   0.141  13.199 -0.3859 -0.4558  0.2519
 1273SOL    HW115455   2.641   0.096  13.273 -3.4729  1.2916 -0.3636
 1273SOL    HW215456   2.712   0.224  13.236 -0.0619 -1.2033  1.6879
 1274SOL     OW15457   1.764   0.018   4.196 -0.2483 -0.6621  0.4598
 1274SOL    HW115458   1.670   0.004   4.191 -0.2687  0.0261 -1.1217
 1274SOL    HW215459   1.798   4.665   4.205  1.0863 -0.0577  1.5252
 1275SOL     OW15460   0.336   2.315   5.363  0.5698 -0.6803  0.1247
 1275SOL    HW115461   0.262   2.315   5.303  1.2944  0.6039 -0.7760
 1275SOL    HW215462   0.364   2.224   5.351  0.9331 -0.5477 -0.0432
 1276SOL     OW15463   2.749   0.952   7.170 -0.8708  0.0642  0.0900
 1276SOL    HW115464   2.820   0.903   7.129 -0.7626  0.4041 -0.1308
 1276SOL    HW215465   2.694   0.881   7.202  1.0529 -2.5227 -2.3159
 1277SOL     OW15466   4.640   1.754  12.855  0.1397  0.1475 -0.0389
 1277SOL    HW115467   4.654   1.711  12.771  1.2161 -0.8145  0.6400
 1277SOL    HW215468   4.562   1.703  12.876 -0.1810  1.0283  0.9008
 1278SOL     OW15469   0.212   0.210   5.258  0.1504 -0.4028 -0.3096
 1278SOL    HW115470   0.180   0.130   5.299  0.8082  0.5435  2.0953
 1278SOL    HW215471   0.250   0.258   5.332 -3.1961  1.6709  0.0471
 1279SOL     OW15472   0.408   4.248   5.555 -0.4632 -0.0164 -0.5050
 1279SOL    HW115473   0.496   4.277   5.535 -0.4210 -0.1564 -0.5251
 1279SOL    HW215474   0.411   4.237   5.650 -1.6195  0.8204 -0.3686
 1280SOL     OW15475   0.086   4.249   8.871 -0.3280  0.2275 -0.6089
 1280SOL    HW115476   0.130   4.174   8.911 -0.7037  1.8272  2.7667
 1280SOL    HW215477   0.008   4.203   8.839 -0.5257  1.0150 -1.2542
 1281SOL     OW15478   4.192   4.178   7.156  0.3833 -0.0716  0.3589
 1281SOL    HW115479   4.146   4.235   7.216 -0.2706  1.6752 -1.7960
 1281SOL    HW215480   4.257   4.236   7.116  0.8193  0.0697  1.2758
 1282SOL     OW15481   1.212   3.692  15.329  0.0831 -0.3104  0.1178
 1282SOL    HW115482   1.146   3.637  15.286 -0.2102 -0.8266  1.2261
 1282SOL    HW215483   1.273   3.717  15.260  0.2144 -0.7797  0.0675
 1283SOL     OW15484   0.974   2.983   3.661  0.4923 -0.3690 -0.4047
 1283SOL    HW115485   0.980   3.005   3.754 -1.5081 -0.2133 -0.3243
 1283SOL    HW215486   0.941   2.894   3.654  0.7587 -0.3481 -1.9855
 1284SOL     OW15487   3.318   1.426   6.596  0.5776  0.3782 -0.7848
 1284SOL    HW115488   3.269   1.444   6.676  1.1690  2.4111 -0.8565
 1284SOL    HW215489   3.250   1.385   6.544 -1.0350 -1.3421  2.6722
 1285SOL     OW15490   2.468   0.168  15.986 -0.5913  0.4399 -0.5243
 1285SOL    HW115491   2.504   0.224  15.917 -0.8008 -2.1987 -2.7781
 1285SOL    HW215492   2.384   0.208  16.007  0.3153  2.5511 -0.9211
 1286SOL     OW15493   0.063   1.031   6.480 -0.3481 -0.1398  0.6737
 1286SOL    HW115494   0.157   1.011   6.477 -0.7883 -2.0646  0.3428
 1286SOL    HW215495   0.058   1.108   6.538 -2.3455 -2.1316  3.1142
 1287SOL     OW15496   2.416   1.514  11.585 -0.1980 -0.7319  0.0412
 1287SOL    HW115497   2.404   1.547  11.674 -0.6334 -2.5893  0.6630
 1287SOL    HW215498   2.485   1.574  11.557  0.6570 -0.9757  1.6341
 1288SOL     OW15499   1.415   4.237   6.067  0.3231  0.1183 -0.3538
 1288SOL    HW115500   1.474   4.309   6.089 -0.6272  0.1876  2.0598
 1288SOL    HW215501   1.410   4.184   6.147 -0.8660  1.7509  0.6414
 1289SOL     OW15502   0.634   4.472   7.911 -0.1687 -0.4098  0.2575
 1289SOL    HW115503   0.699   4.416   7.868 -1.4935 -0.5354 -1.5836
 1289SOL    HW215504   0.572   4.401   7.927  0.2138 -0.2140  2.5268
 1290SOL     OW15505   2.365   4.333   7.408 -0.3259  0.2059  0.1059
 1290SOL    HW115506   2.296   4.392   7.378  0.6270  0.9029 -0.7317
 1290SOL    HW215507   2.372   4.262   7.344 -1.1094  0.9061 -0.7594
 1291SOL     OW15508   0.673   1.280   8.046 -0.1209 -0.1529 -0.3224
 1291SOL    HW115509   0.729   1.291   8.123  0.5401  1.2593 -1.0052
 1291SOL    HW215510   0.645   1.369   8.025 -1.9748 -0.5586  0.4725
 1292SOL     OW15511   0.790   0.970   3.929  0.4084  0.1732  0.6783
 1292SOL    HW115512   0.860   0.991   3.992 -1.2833 -1.2918  3.0530
 1292SOL    HW215513   0.746   1.055   3.926  0.2835  0.1672  2.2300
 1293SOL     OW15514   1.406   3.869   0.103  0.2254  0.0551  0.1357
 1293SOL    HW115515   1.333   3.904   0.052  0.5720  0.5543 -0.0091
 1293SOL    HW215516   1.436   3.816   0.030  0.4391 -0.1199  0.3479
 1294SOL     OW15517   3.918   3.931   4.844 -0.0554  0.7265 -0.1308
 1294SOL    HW115518   3.954   3.848   4.814  0.3361  1.1868 -0.9363
 1294SOL    HW215519   3.827   3.918   4.816  0.2006  0.9560 -1.0784
 1295SOL     OW15520   2.186   4.523   0.881  0.6287 -0.2538  0.5151
 1295SOL    HW115521   2.177   4.432   0.910  1.7236 -0.6305 -0.3023
 1295SOL    HW215522   2.234   4.561   0.955  1.7355 -1.3186  0.3593
 1296SOL     OW15523   2.142   3.634   2.503 -0.5509 -0.2834  0.4085
 1296SOL    HW115524   2.226   3.604   2.539 -1.1840 -1.0518  1.2358
 1296SOL    HW215525   2.174   3.712   2.458 -0.5475 -0.2038  0.5496
 1297SOL     OW15526   1.619   1.429   5.620 -0.6738  0.6588 -0.5009
 1297SOL    HW115527   1.617   1.500   5.685  2.8782 -1.6135  2.1183
 1297SOL    HW215528   1.611   1.473   5.536 -0.9736  1.7204  0.0834
 1298SOL     OW15529   1.676   0.494  16.488  0.6352 -0.3330 -0.4239
 1298SOL    HW115530   1.684   0.543  16.406 -0.7684 -1.0002 -0.9679
 1298SOL    HW215531   1.680   0.564  16.552  0.4955 -1.6126  0.9886
 1299SOL     OW15532   4.067   3.200   6.540  0.3030  0.1538  0.1908
 1299SOL    HW115533   4.099   3.286   6.569  0.6604  0.5121 -1.2593
 1299SOL    HW215534   4.152   3.157   6.532 -0.8576 -1.8633 -0.9711
 1300SOL     OW15535   3.828   0.724  17.232 -0.3822  0.4362 -0.2821
 1300SOL    HW115536   3.809   0.667  17.308 -0.9039 -1.6529 -1.9734
 1300SOL    HW215537   3.859   0.659  17.169 -0.1684  0.5266 -0.2714
 1301SOL     OW15538   2.804   2.555  11.328 -0.7004 -0.0533 -0.3054
 1301SOL    HW115539   2.726   2.520  11.372  0.7932  0.1146  2.4730
 1301SOL    HW215540   2.871   2.521  11.387  0.6833 -0.1537 -1.9329
 1302SOL     OW15541   0.165   3.328  10.857  0.5203  0.1759  0.1488
 1302SOL    HW115542   0.259   3.340  10.842  0.2116 -1.2656 -2.9330
 1302SOL    HW215543   0.118   3.371  10.785 -0.0055 -0.3315  0.1966
 1303SOL     OW15544   0.435   4.329   9.009  0.4588 -0.1094 -0.1466
 1303SOL    HW115545   0.354   4.337   9.059  0.6157 -1.6881  0.3448
 1303SOL    HW215546   0.466   4.419   9.000  1.3748 -0.5918 -1.7678
 1304SOL     OW15547   1.258   0.862   3.500  0.0324 -0.7061  0.3526
 1304SOL    HW115548   1.272   0.938   3.443 -1.4319  0.0739  1.0262
 1304SOL    HW215549   1.338   0.868   3.552  0.7128 -0.0572 -0.7620
 1305SOL     OW15550   0.347   3.587   2.650 -0.0417 -0.3809  0.1136
 1305SOL    HW115551   0.409   3.559   2.583 -0.8748  0.6130 -1.0666
 1305SOL    HW215552   0.310   3.667   2.613 -1.3124 -1.4709 -0.9729
 1306SOL     OW15553   0.773   4.120   9.050 -0.1252  0.0047 -0.3715
 1306SOL    HW115554   0.735   4.038   9.082 -1.4150  0.5805 -0.4750
 1306SOL    HW215555   0.778   4.089   8.959  2.7524  0.9679 -0.5521
 1307SOL     OW15556   1.509   2.980   2.626 -0.4833 -0.1393 -0.4574
 1307SOL    HW115557   1.567   3.020   2.561 -1.3230 -0.5051 -1.4349
 1307SOL    HW215558   1.547   3.021   2.703 -1.8077  2.7693 -1.3567
 1308SOL     OW15559   3.217   0.151   5.936  0.5734  0.2674  0.0081
 1308SOL    HW115560   3.164   0.071   5.944  0.0009  0.8518  2.0349
 1308SOL    HW215561   3.166   0.195   5.869  0.4158  1.7249  1.0943
 1309SOL     OW15562   2.239   2.088   6.364  0.0898 -0.4593  0.3137
 1309SOL    HW115563   2.211   2.124   6.448  0.8292  0.8425 -0.0006
 1309SOL    HW215564   2.334   2.093   6.374  0.4699 -0.6830 -3.1182
 1310SOL     OW15565   0.493   4.462   5.063  0.2992 -0.6400 -0.3545
 1310SOL    HW115566   0.478   4.435   5.154 -0.3962 -0.6388 -0.4674
 1310SOL    HW215567   0.514   4.375   5.029  0.8201  0.4552 -2.8717
 1311SOL     OW15568   2.749   0.756   4.387 -0.9893  0.0486  0.5752
 1311SOL    HW115569   2.746   0.662   4.365 -1.0927 -0.7145  3.9006
 1311SOL    HW215570   2.762   0.748   4.481 -0.8619  0.6409  0.6062
 1312SOL     OW15571   2.840   0.917   5.183 -0.1548 -0.2185 -0.2304
 1312SOL    HW115572   2.795   0.969   5.249 -1.2065  0.1190 -1.2155
 1312SOL    HW215573   2.769   0.855   5.165  1.0934 -1.5502 -0.5718
 1313SOL     OW15574   1.927   2.752  17.080  0.0597  0.5066  0.0686
 1313SOL    HW115575   1.859   2.727  17.017  0.0283  2.2303 -0.5898
 1313SOL    HW215576   2.010   2.749  17.034 -0.5757  0.6011 -1.0857
 1314SOL     OW15577   0.745   3.137  15.081 -0.0318  0.3616 -0.0923
 1314SOL    HW115578   0.779   3.054  15.115 -0.3720  0.5380  0.6988
 1314SOL    HW215579   0.784   3.193  15.148  1.7079 -3.2039  1.9014
 1315SOL     OW15580   3.140   0.124  10.781  0.5506 -0.2425  0.5089
 1315SOL    HW115581   3.209   0.069  10.817  1.1846  0.4601  0.3757
 1315SOL    HW215582   3.181   0.168  10.706 -0.6783 -0.0543 -0.0661
 1316SOL     OW15583   0.525   0.410   5.287  0.4322 -0.0080 -0.3467
 1316SOL    HW115584   0.475   0.359   5.351  1.6546 -1.7598 -0.7676
 1316SOL    HW215585   0.579   0.336   5.258 -0.9038 -0.9876 -0.3536
 1317SOL     OW15586   3.670   2.390   6.038 -0.3841  0.1117  1.0467
 1317SOL    HW115587   3.665   2.294   6.037 -0.8468  0.1465 -0.5484
 1317SOL    HW215588   3.762   2.403   6.060 -0.2390  1.6139 -0.4886
 1318SOL     OW15589   0.394   0.228   8.053 -0.0910 -0.0511 -0.2315
 1318SOL    HW115590   0.315   0.226   7.998  0.5987 -2.2379 -1.1682
 1318SOL    HW215591   0.379   0.144   8.098  1.4310 -0.1605  0.0432
 1319SOL     OW15592   2.627   2.937   2.108 -0.3046  0.2631 -0.2206
 1319SOL    HW115593   2.710   2.929   2.154 -0.5367  0.1232  0.1721
 1319SOL    HW215594   2.561   2.912   2.172  0.4011 -0.1598  0.3285
 1320SOL     OW15595   1.405   3.092   1.094  0.2986  0.5288  0.3163
 1320SOL    HW115596   1.353   3.072   1.172 -1.3776  1.9376 -0.4352
 1320SOL    HW215597   1.446   3.005   1.088 -2.2133 -0.5243 -2.0107
 1321SOL     OW15598   4.128   0.496   7.056 -0.2020  0.3591  0.4215
 1321SOL    HW115599   4.134   0.481   6.962 -0.2756 -0.8736  0.6131
 1321SOL    HW215600   4.082   0.579   7.059  1.8275  1.4761  0.5283
 1322SOL     OW15601   1.244   4.684   3.463 -0.1874 -0.2073 -0.3051
 1322SOL    HW115602   1.269   4.713   3.551 -1.6346  0.2104 -0.0271
 1322SOL    HW215603   1.277   4.594   3.460  0.0008 -0.1006 -1.2439
 1323SOL     OW15604   4.352   1.543   0.011 -0.4386 -0.2014  0.9286
 1323SOL    HW115605   4.395   1.462  17.726  0.3050  1.0125 -1.6546
 1323SOL    HW215606   4.427   1.583   0.054  0.5461  0.2995 -1.3191
 1324SOL     OW15607   4.339   3.424   7.809 -0.2192 -0.2998  0.4821
 1324SOL    HW115608   4.374   3.342   7.774  0.2931  0.1598 -0.0920
 1324SOL    HW215609   4.272   3.391   7.869 -0.1697  2.3341  1.9980
 1325SOL     OW15610   4.333   3.691   2.083 -0.1326 -0.3767 -0.3404
 1325SOL    HW115611   4.285   3.763   2.042 -0.0350 -0.8493 -1.2769
 1325SOL    HW215612   4.297   3.612   2.043 -1.7828  0.1821  0.0189
 1326SOL     OW15613   0.838   4.496  10.585  0.0830  0.2441  0.1892
 1326SOL    HW115614   0.768   4.448  10.541  0.8372 -1.1229  0.4774
 1326SOL    HW215615   0.899   4.534  10.521  0.0856 -1.9528 -1.1101
 1327SOL     OW15616   3.967   0.233  17.680  0.0314  0.1641  0.3337
 1327SOL    HW115617   3.966   0.154  17.625 -2.8623  2.1554 -2.5195
 1327SOL    HW215618   4.059   0.232  17.706 -0.5044 -0.1723  2.1794
 1328SOL     OW15619   2.721   2.139   3.337 -0.0304  0.0022  0.0364
 1328SOL    HW115620   2.677   2.196   3.399  0.8271 -0.3154  0.9326
 1328SOL    HW215621   2.666   2.060   3.330 -0.0578 -0.0516  0.9370
 1329SOL     OW15622   1.612   0.340   7.701  0.5160  0.0316 -0.2345
 1329SOL    HW115623   1.602   0.354   7.795 -2.4340 -0.1545 -0.5291
 1329SOL    HW215624   1.615   0.244   7.707  1.2312  0.2882  3.2082
 1330SOL     OW15625   3.954   1.322  16.600 -0.2461  0.2637 -0.7758
 1330SOL    HW115626   4.023   1.337  16.535  3.1872 -1.1970  2.5732
 1330SOL    HW215627   3.944   1.228  16.592 -1.5070  0.4345 -1.1614
 1331SOL     OW15628   3.332   0.774  11.109  0.0484 -0.0076  0.2704
 1331SOL    HW115629   3.286   0.781  11.025  1.0898 -0.6117 -0.3399
 1331SOL    HW215630   3.420   0.782  11.074  0.4069 -1.4811  0.8064
 1332SOL     OW15631   3.667   1.232   4.641  0.2389  0.1250  0.5619
 1332SOL    HW115632   3.616   1.153   4.663 -0.2789  0.2937 -0.0339
 1332SOL    HW215633   3.719   1.231   4.721  0.7246  0.5714  0.2504
 1333SOL     OW15634   4.352   3.740   6.739 -0.5205  0.0504 -0.0021
 1333SOL    HW115635   4.320   3.664   6.788 -2.0270  0.4102 -0.4291
 1333SOL    HW215636   4.324   3.724   6.648  1.4916 -0.7772 -0.4763
 1334SOL     OW15637   4.730   3.116   6.648  0.4834 -0.1258  0.1714
 1334SOL    HW115638   0.005   3.169   6.569  0.5461 -0.4289 -0.0268
 1334SOL    HW215639   4.662   3.156   6.702  1.0622 -1.6785  2.0455
 1335SOL     OW15640   1.760   3.725   6.669 -0.7525  0.7820 -0.0546
 1335SOL    HW115641   1.727   3.733   6.579 -4.0382 -3.1543  0.8226
 1335SOL    HW215642   1.815   3.647   6.661  0.0501  1.2358  1.0247
 1336SOL     OW15643   3.677   4.580   4.959  0.3028 -0.1685 -0.4600
 1336SOL    HW115644   3.733   4.657   4.950 -0.7100  0.3009 -2.7914
 1336SOL    HW215645   3.645   4.575   4.869 -0.5290  1.4675 -0.2525
 1337SOL     OW15646   2.401   2.967  13.807  0.2684 -0.2852 -0.1983
 1337SOL    HW115647   2.378   3.058  13.791 -3.9585 -1.0804  1.4366
 1337SOL    HW215648   2.332   2.925  13.756  0.9529 -0.1669 -1.2299
 1338SOL     OW15649   1.484   4.651   3.935 -0.2012 -0.6631 -0.1634
 1338SOL    HW115650   1.494   4.571   3.883  1.5490 -0.1097 -0.6725
 1338SOL    HW215651   1.478   4.621   4.026 -0.6897  0.9079  0.3257
 1339SOL     OW15652   2.157   1.283   2.719  0.4374 -0.1091 -0.0077
 1339SOL    HW115653   2.191   1.363   2.761  0.4941  0.6162 -1.4396
 1339SOL    HW215654   2.207   1.280   2.637 -0.8094 -0.3705 -0.7547
 1340SOL     OW15655   3.242   4.286   7.699  0.0463 -0.4678 -0.0916
 1340SOL    HW115656   3.185   4.291   7.622 -1.1049 -2.2290  0.6368
 1340SOL    HW215657   3.312   4.350   7.683 -1.4028  1.4287  1.1610
 1341SOL     OW15658   1.571   2.607   1.136  0.2533 -0.2116 -0.5807
 1341SOL    HW115659   1.491   2.660   1.142  0.2784 -0.0829 -1.3185
 1341SOL    HW215660   1.539   2.517   1.125  0.5257  0.0164 -3.3396
 1342SOL     OW15661   4.533   0.014   5.635  0.2240  0.2445  0.0675
 1342SOL    HW115662   4.464   0.071   5.669 -0.0072 -1.0879  1.8312
 1342SOL    HW215663   4.576   4.723   5.716  3.2967  0.8022 -1.3750
 1343SOL     OW15664   0.339   4.440   2.212 -0.6941 -0.4346 -0.0169
 1343SOL    HW115665   0.381   4.399   2.287 -1.3871 -1.7689 -0.3603
 1343SOL    HW215666   0.254   4.478   2.237  0.0109  1.8507 -1.0991
 1344SOL     OW15667   2.292   2.725   4.544 -0.6184 -0.9717  0.0525
 1344SOL    HW115668   2.336   2.640   4.539 -0.9340 -1.1662  0.5591
 1344SOL    HW215669   2.206   2.705   4.506 -0.1985 -0.8699 -0.9514
 1345SOL     OW15670   2.193   2.953   9.967 -0.1342  0.3243  0.1800
 1345SOL    HW115671   2.274   2.984   9.925  0.5083 -1.3111  0.2250
 1345SOL    HW215672   2.165   2.896   9.896  2.8648 -0.2891 -0.5380
 1346SOL     OW15673   3.230   3.510   6.375 -0.3320  0.4057  0.4746
 1346SOL    HW115674   3.255   3.418   6.369 -0.2157  0.4532  0.2720
 1346SOL    HW215675   3.287   3.538   6.305 -1.2405  1.6297  0.2289
 1347SOL     OW15676   2.489   2.023  17.443 -0.1472  0.3489 -0.2456
 1347SOL    HW115677   2.552   2.082  17.485 -1.3146  0.6263  1.1248
 1347SOL    HW215678   2.438   1.990  17.518 -0.6759  0.6926 -0.4519
 1348SOL     OW15679   0.905   0.049   3.945 -0.4132  0.3080 -0.1299
 1348SOL    HW115680   0.852   4.709   3.918  1.1669 -0.8634  0.0745
 1348SOL    HW215681   0.954   0.070   3.866  0.4934 -0.5231  0.2168
 1349SOL     OW15682   3.355   1.821   8.274  0.2883 -0.0493 -0.0671
 1349SOL    HW115683   3.328   1.822   8.182 -0.8480 -2.1393  0.2453
 1349SOL    HW215684   3.433   1.768   8.259 -0.5820 -0.8426 -1.8043
 1350SOL     OW15685   1.091   0.986   7.498  0.5077 -0.3279 -0.3290
 1350SOL    HW115686   1.034   0.994   7.575  0.1850 -0.0162 -0.6024
 1350SOL    HW215687   1.017   0.971   7.440  0.1097  2.1657 -0.4642
 1351SOL     OW15688   3.954   3.876   8.156  0.3104 -0.7291 -0.0646
 1351SOL    HW115689   3.876   3.826   8.177 -0.0624  0.2929  0.9418
 1351SOL    HW215690   3.958   3.953   8.213 -1.1973 -1.2630  0.7437
 1352SOL     OW15691   4.538   1.014   7.841  0.3568  0.3947 -0.5496
 1352SOL    HW115692   4.496   0.981   7.920  0.8221  2.1873  0.4408
 1352SOL    HW215693   4.535   0.944   7.775  1.1279 -0.0573 -0.1068
 1353SOL     OW15694   0.217   0.796   5.987 -0.4943 -0.2813  0.0181
 1353SOL    HW115695   0.233   0.851   6.063 -1.8087 -0.1338  0.1894
 1353SOL    HW215696   0.280   0.725   5.999  3.6725  2.7697 -3.6957
 1354SOL     OW15697   4.052   2.034   5.759  0.2152 -0.1394 -0.5185
 1354SOL    HW115698   4.129   2.074   5.798  0.0867 -1.3187  0.9686
 1354SOL    HW215699   4.090   1.955   5.720 -1.2485 -0.2217 -1.7789
 1355SOL     OW15700   2.760   1.951  17.669 -0.2462  0.0894 -0.5438
 1355SOL    HW115701   2.772   1.918  17.580  0.0992 -1.3243  0.0271
 1355SOL    HW215702   2.813   2.029  17.656  3.2142 -2.2436 -0.5954
 1356SOL     OW15703   1.226   2.603  15.405 -0.1198 -0.0226 -0.5608
 1356SOL    HW115704   1.155   2.627  15.466  0.1316  3.3601 -1.5941
 1356SOL    HW215705   1.304   2.638  15.449 -0.2004  0.0906 -0.5050
 1357SOL     OW15706   1.520   3.087   4.830 -0.0190  0.0266 -0.2560
 1357SOL    HW115707   1.544   3.171   4.792 -1.9033 -0.3087 -2.1751
 1357SOL    HW215708   1.529   3.043   4.745  1.8250  0.7665 -0.4407
 1358SOL     OW15709   1.325   0.639  10.174 -0.3121 -0.3605  0.4480
 1358SOL    HW115710   1.355   0.573  10.111 -0.3681  1.3848 -1.3995
 1358SOL    HW215711   1.289   0.706  10.116 -0.0307 -0.5952  0.0005
 1359SOL     OW15712   1.971   1.768   3.678  0.7792  0.7837  0.4692
 1359SOL    HW115713   2.041   1.808   3.627  0.6311 -1.1804 -1.2681
 1359SOL    HW215714   1.970   1.834   3.747  0.3855  0.6625  0.5803
 1360SOL     OW15715   2.096   3.362   3.255 -0.5278  1.1207  0.4047
 1360SOL    HW115716   2.045   3.282   3.265 -1.6752  1.9167  0.8625
 1360SOL    HW215717   2.182   3.320   3.261 -0.6573  0.1316 -4.6021
 1361SOL     OW15718   4.139   1.193   8.437 -0.1996 -0.4661  0.0079
 1361SOL    HW115719   4.090   1.116   8.407 -3.2843  0.8448  1.7975
 1361SOL    HW215720   4.217   1.186   8.381 -0.2786  0.1108 -0.1707
 1362SOL     OW15721   3.328   0.938   9.016 -0.1052 -0.3310 -0.5591
 1362SOL    HW115722   3.420   0.920   9.036 -0.2194 -0.7317 -0.3955
 1362SOL    HW215723   3.296   0.939   9.106 -1.3757  0.5903 -1.0276
 1363SOL     OW15724   0.407   0.178   6.558 -0.4622 -0.1421  0.1882
 1363SOL    HW115725   0.488   0.193   6.608 -0.3663 -3.6830  1.1044
 1363SOL    HW215726   0.356   0.140   6.630 -0.4172 -0.0347  0.2760
 1364SOL     OW15727   2.718   3.424   2.010  0.6974  0.7344  0.5459
 1364SOL    HW115728   2.774   3.356   2.047  1.6903  0.4414 -1.5071
 1364SOL    HW215729   2.634   3.384   2.032  0.0910  1.4385 -0.4583
 1365SOL     OW15730   3.064   2.295   1.216  0.4883  0.3049  0.0210
 1365SOL    HW115731   3.097   2.222   1.164 -1.1237  0.1080 -0.7112
 1365SOL    HW215732   3.007   2.245   1.275  1.3597  0.0481  0.6545
 1366SOL     OW15733   3.842   2.119  13.845 -0.1650 -0.0617 -0.2305
 1366SOL    HW115734   3.822   2.041  13.793  0.9632 -0.3348 -0.2635
 1366SOL    HW215735   3.898   2.162  13.780  0.8991 -1.0830  0.0060
 1367SOL     OW15736   0.575   2.051   7.781  0.6131  0.0639  0.0189
 1367SOL    HW115737   0.612   2.059   7.693  1.0708  1.8427  0.3623
 1367SOL    HW215738   0.481   2.045   7.765  0.5674  0.4158  0.1573
 1368SOL     OW15739   0.842   0.585   1.989 -0.0095 -0.6431  0.1409
 1368SOL    HW115740   0.937   0.586   1.996  0.0641  0.6952 -1.0738
 1368SOL    HW215741   0.829   0.626   2.075 -0.0495  1.8581 -1.0712
 1369SOL     OW15742   3.125   1.413   6.781  0.1720 -0.4965  0.1613
 1369SOL    HW115743   3.112   1.449   6.869  0.1461 -1.0010  0.3593
 1369SOL    HW215744   3.059   1.461   6.731 -0.3666  0.5478  1.8687
 1370SOL     OW15745   0.839   4.019  17.516 -0.2354 -0.1944  0.5485
 1370SOL    HW115746   0.780   3.993  17.586 -1.0781 -0.7402 -0.3778
 1370SOL    HW215747   0.913   3.962  17.539 -1.7760 -1.6578  1.8066
 1371SOL     OW15748   2.721   1.225   5.620  0.5974  0.3980 -0.0913
 1371SOL    HW115749   2.655   1.200   5.556 -0.5477  2.0096  0.4584
 1371SOL    HW215750   2.704   1.159   5.687  3.5578 -1.9191 -1.6548
 1372SOL     OW15751   4.509   1.873   4.582 -0.7349  0.5267  0.2697
 1372SOL    HW115752   4.484   1.918   4.502 -2.3494  2.3939  1.8132
 1372SOL    HW215753   4.595   1.913   4.579 -0.2222 -0.5017  0.9661
 1373SOL     OW15754   3.570   0.716   3.687 -0.5605  0.6636 -0.1403
 1373SOL    HW115755   3.488   0.668   3.688 -0.0740 -0.1385  1.2251
 1373SOL    HW215756   3.569   0.750   3.776  1.1888 -0.8231  0.4396
 1374SOL     OW15757   3.240   1.858   0.695  0.9246  0.2673  0.0805
 1374SOL    HW115758   3.293   1.909   0.635 -0.5509  1.5964 -0.0895
 1374SOL    HW215759   3.159   1.830   0.652  1.9313 -1.4145 -0.7099
 1375SOL     OW15760   0.361   1.874   7.400  0.0345  0.2584  0.1623
 1375SOL    HW115761   0.346   1.825   7.480 -2.8119 -1.3153 -1.3343
 1375SOL    HW215762   0.425   1.824   7.349 -0.6417 -0.3531 -0.0966
 1376SOL     OW15763   4.414   3.779   3.126 -0.1127 -0.1688  0.3426
 1376SOL    HW115764   4.346   3.817   3.070  1.4595  0.0478 -1.4090
 1376SOL    HW215765   4.499   3.806   3.090 -0.3598 -0.2917 -0.3393
 1377SOL     OW15766   4.574   2.018   3.050  0.8032  0.2147  0.3729
 1377SOL    HW115767   4.564   2.007   2.956 -0.3862  0.1285  0.5095
 1377SOL    HW215768   4.654   1.966   3.059  2.1900  2.4189  0.7742
 1378SOL     OW15769   4.615   2.107   3.302 -0.3953 -0.2106 -0.1660
 1378SOL    HW115770   4.549   2.065   3.357 -2.4418  1.7179 -1.1204
 1378SOL    HW215771   4.591   2.061   3.222  1.0543 -1.1581 -0.0567
 1379SOL     OW15772   1.042   0.946   9.223 -0.0982 -0.0901  0.0675
 1379SOL    HW115773   1.093   1.019   9.259  1.9532 -0.6102 -1.7680
 1379SOL    HW215774   1.109   0.877   9.226  1.0734  0.9953 -1.1537
 1380SOL     OW15775   0.456   3.746   6.641  1.0122 -0.3223 -0.0261
 1380SOL    HW115776   0.497   3.833   6.644 -3.6754  1.9202 -0.0692
 1380SOL    HW215777   0.532   3.689   6.638  0.2383 -1.3741  0.2343
 1381SOL     OW15778   2.351   0.569   1.346  0.1876  0.2108 -0.0863
 1381SOL    HW115779   2.424   0.508   1.351 -0.5263 -0.8122 -2.3655
 1381SOL    HW215780   2.396   0.649   1.320  1.3421 -0.6047 -0.5682
 1382SOL     OW15781   1.836   3.337  13.648  0.2838 -0.0705 -0.2149
 1382SOL    HW115782   1.893   3.408  13.618 -0.9983  1.4017  0.8156
 1382SOL    HW215783   1.861   3.337  13.740 -0.5627  1.7477  0.0162
 1383SOL     OW15784   3.176   4.408   1.694 -0.0823 -0.7339  0.0194
 1383SOL    HW115785   3.233   4.485   1.695  1.1542 -1.6716  2.8052
 1383SOL    HW215786   3.226   4.358   1.628 -0.1860  0.3005 -0.8354
 1384SOL     OW15787   0.227   2.343  11.046 -0.4912 -0.1753 -0.0506
 1384SOL    HW115788   0.194   2.270  11.099 -1.7100  0.7697  0.4770
 1384SOL    HW215789   0.145   2.364  11.002 -0.5600 -3.6699 -1.5495
 1385SOL     OW15790   4.421   3.839  16.198  0.0797 -0.4791  0.3449
 1385SOL    HW115791   4.400   3.800  16.114 -2.6798 -0.5475  1.0633
 1385SOL    HW215792   4.488   3.782  16.235 -0.0886 -1.0787 -0.2792
 1386SOL     OW15793   2.765   2.631  14.981 -0.1985  0.2252  0.4937
 1386SOL    HW115794   2.739   2.540  14.966  0.0087 -0.0957  2.0668
 1386SOL    HW215795   2.689   2.687  14.964  0.1500 -0.5046 -3.5283
 1387SOL     OW15796   3.026   0.507   5.311 -0.0318 -0.2760  0.6056
 1387SOL    HW115797   2.932   0.521   5.308 -0.2715 -1.8068  0.8433
 1387SOL    HW215798   3.045   0.480   5.221 -2.6330  1.8864 -0.5914
 1388SOL     OW15799   4.494   3.346   7.024 -0.3260 -0.2071  0.7304
 1388SOL    HW115800   4.553   3.420   7.042 -0.5189 -0.2388  1.5017
 1388SOL    HW215801   4.485   3.312   7.113  0.0744  0.4490  1.0194
 1389SOL     OW15802   2.692   2.695   4.124 -0.2267 -0.8170 -0.3611
 1389SOL    HW115803   2.699   2.683   4.029 -0.2285  1.2809 -0.6300
 1389SOL    HW215804   2.606   2.658   4.141 -0.7377  1.5427  2.1148
 1390SOL     OW15805   3.002   4.260   3.962 -0.1366  0.3207 -0.1757
 1390SOL    HW115806   3.072   4.260   3.897  0.5134 -1.0342  0.5230
 1390SOL    HW215807   3.011   4.175   4.005 -0.4714  0.5605  0.3783
 1391SOL     OW15808   2.751   2.467   3.415  0.1035 -0.3005  0.2697
 1391SOL    HW115809   2.698   2.400   3.458  1.3470 -1.4272  0.0625
 1391SOL    HW215810   2.711   2.473   3.328  0.7511  3.3294  0.2445
 1392SOL     OW15811   4.496   1.875   3.850  0.1856 -0.0435 -0.1456
 1392SOL    HW115812   4.580   1.899   3.887 -0.2264 -1.5788  1.8277
 1392SOL    HW215813   4.521   1.836   3.766  1.5390  1.2296 -0.3260
 1393SOL     OW15814   2.862   1.748  10.603 -0.5626  0.7556  0.3308
 1393SOL    HW115815   2.816   1.813  10.550  1.5442  1.9223 -0.0935
 1393SOL    HW215816   2.941   1.800  10.619  0.1923  0.1972 -1.5584
 1394SOL     OW15817   1.345   4.666   1.157  1.0217 -0.3914 -0.5761
 1394SOL    HW115818   1.370   4.619   1.078  0.6047 -1.2070 -0.2207
 1394SOL    HW215819   1.433   4.687   1.189  0.6929  1.5938 -0.9613
 1395SOL     OW15820   2.640   1.480   5.563 -0.1018 -0.2023 -0.4250
 1395SOL    HW115821   2.572   1.468   5.497  1.6347  0.5061 -2.3683
 1395SOL    HW215822   2.694   1.402   5.553 -0.5794 -1.0884  4.1167
 1396SOL     OW15823   1.655   2.156   8.611 -0.1745 -0.0470 -1.0892
 1396SOL    HW115824   1.585   2.137   8.548 -0.4974  0.2423 -0.8160
 1396SOL    HW215825   1.723   2.192   8.554  1.2438  0.7605  1.1388
 1397SOL     OW15826   3.685   0.756  16.921  0.1864  0.1495 -0.5626
 1397SOL    HW115827   3.731   0.828  16.964  2.5731 -2.0699  0.5927
 1397SOL    HW215828   3.756   0.695  16.942 -0.4769 -0.4000  0.0591
 1398SOL     OW15829   1.689   2.873  12.938 -0.7171 -0.0248  0.4047
 1398SOL    HW115830   1.702   2.966  12.956  0.8758  0.0013 -0.8557
 1398SOL    HW215831   1.637   2.870  12.857 -0.2832 -2.6124  0.2134
 1399SOL     OW15832   1.397   0.368  13.060 -0.2236  0.2390 -0.1774
 1399SOL    HW115833   1.329   0.430  13.088 -0.2311 -0.3855  1.1624
 1399SOL    HW215834   1.419   0.394  12.970 -0.1509 -1.3770 -0.6248
 1400SOL     OW15835   2.650   2.702   7.613  0.4490  0.0501  0.5174
 1400SOL    HW115836   2.712   2.750   7.668  2.8957  0.1242 -2.2493
 1400SOL    HW215837   2.705   2.704   7.534 -1.8558  2.6178 -1.0490
 1401SOL     OW15838   2.038   2.599  10.999 -0.3549  0.7804 -0.0577
 1401SOL    HW115839   2.064   2.536  10.932 -0.8069  0.3450  0.1726
 1401SOL    HW215840   2.083   2.681  10.979  0.8860 -0.1382 -1.0149
 1402SOL     OW15841   2.240   1.697  11.445 -0.1671  0.3115 -0.1316
 1402SOL    HW115842   2.290   1.625  11.484 -1.1192 -1.2830 -1.8561
 1402SOL    HW215843   2.268   1.689  11.354  1.0368 -0.4433  0.2880
 1403SOL     OW15844   1.126   3.162   6.286 -0.5352  1.2255 -0.6262
 1403SOL    HW115845   1.076   3.082   6.296  0.1688  0.6758 -1.4954
 1403SOL    HW215846   1.205   3.145   6.234 -0.4653  0.9188 -0.4198
 1404SOL     OW15847   1.572   3.176  12.981  0.1111 -0.4030  0.4066
 1404SOL    HW115848   1.657   3.139  12.957 -0.1533 -0.1766 -0.8967
 1404SOL    HW215849   1.599   3.265  13.002 -0.0222 -0.3106  0.1898
 1405SOL     OW15850   4.479   3.237  16.461 -0.4091 -0.3231 -0.1315
 1405SOL    HW115851   4.393   3.278  16.454 -0.2731 -0.3290 -1.7548
 1405SOL    HW215852   4.533   3.315  16.465 -1.2991  0.2291  1.1869
 1406SOL     OW15853   1.930   0.678   9.607 -0.2806  0.3593 -0.2207
 1406SOL    HW115854   1.932   0.774   9.601 -0.9556  0.3460 -0.6243
 1406SOL    HW215855   1.842   0.664   9.572 -1.0496 -0.6434  2.1255
 1407SOL     OW15856   0.463   3.477   8.579  0.1664 -0.0136  0.2604
 1407SOL    HW115857   0.446   3.446   8.490  0.7224 -0.9841  0.5030
 1407SOL    HW215858   0.404   3.552   8.587 -1.4702 -0.9932 -2.7400
 1408SOL     OW15859   0.888   3.984   6.974 -0.3717 -0.0590  0.2547
 1408SOL    HW115860   0.945   4.060   6.968  0.0720 -0.6723 -3.2403
 1408SOL    HW215861   0.822   4.020   7.034  0.8848  1.1886  0.8718
 1409SOL     OW15862   2.675   3.607   6.739  0.0589  0.1996 -0.2028
 1409SOL    HW115863   2.624   3.596   6.819 -1.7641  2.1626 -1.0972
 1409SOL    HW215864   2.733   3.532   6.752 -0.4493 -0.2030 -0.2558
 1410SOL     OW15865   1.113   1.996  12.901 -0.1798  0.0010  0.4176
 1410SOL    HW115866   1.169   1.982  12.978  0.8715 -1.0331 -0.5460
 1410SOL    HW215867   1.080   1.906  12.892 -1.4543  0.4124  0.9357
 1411SOL     OW15868   1.097   4.020  15.291 -0.0312  0.2166  0.3685
 1411SOL    HW115869   1.033   4.020  15.220  0.1235  0.6007  0.2268
 1411SOL    HW215870   1.156   3.948  15.267 -1.6616 -1.6990  2.1299
 1412SOL     OW15871   2.511   4.653  16.453 -0.2956  0.5231  0.5078
 1412SOL    HW115872   2.540   4.715  16.387 -3.6313  2.8353  1.2276
 1412SOL    HW215873   2.430   4.689  16.491 -1.1333 -0.3830 -0.4188
 1413SOL     OW15874   3.481   2.262   2.123  0.0570 -0.5879  0.0733
 1413SOL    HW115875   3.496   2.257   2.218 -0.3151  1.0227  0.2184
 1413SOL    HW215876   3.449   2.174   2.103  0.5065 -0.6974 -0.1745
 1414SOL     OW15877   1.402   1.568   2.285 -0.1488 -0.2030  0.6411
 1414SOL    HW115878   1.381   1.487   2.331  0.4024 -0.8955 -0.3310
 1414SOL    HW215879   1.317   1.593   2.250  1.0283  0.5625 -1.7201
 1415SOL     OW15880   0.030   4.594   1.767  0.1662  0.3873  0.1817
 1415SOL    HW115881   4.687   4.545   1.792 -0.0814  0.3482 -0.6574
 1415SOL    HW215882   0.057   4.544   1.690 -3.4955  1.3471 -1.7658
 1416SOL     OW15883   2.045   0.660   6.184  0.0828 -0.1323  0.4055
 1416SOL    HW115884   2.089   0.575   6.184  2.7178  1.2152  1.0958
 1416SOL    HW215885   1.958   0.639   6.217 -0.2508 -1.8257 -1.5554
 1417SOL     OW15886   2.363   4.351   5.977  0.4998  0.7596 -0.3123
 1417SOL    HW115887   2.451   4.372   5.945  1.3294  0.0278  1.4992
 1417SOL    HW215888   2.315   4.359   5.895  1.7776 -2.5528 -1.3909
 1418SOL     OW15889   3.655   0.120   7.780 -0.1028 -0.0493 -0.1194
 1418SOL    HW115890   3.745   0.088   7.774  0.7419  1.9826  1.6956
 1418SOL    HW215891   3.605   0.039   7.787  0.6813 -0.5167  0.1261
 1419SOL     OW15892   3.465   1.736  10.016  0.5244  1.0550 -0.1210
 1419SOL    HW115893   3.544   1.757   9.967  0.0148  4.3643  0.4601
 1419SOL    HW215894   3.474   1.776  10.103 -0.6457 -1.3041  1.0909
 1420SOL     OW15895   0.214   2.513   2.215  0.2444  0.5170 -0.0229
 1420SOL    HW115896   0.122   2.494   2.231  0.6906 -2.1619 -0.6186
 1420SOL    HW215897   0.212   2.539   2.123  1.8543  0.9745  0.0610
 1421SOL     OW15898   1.953   3.093   2.909 -0.1276  0.5871 -0.2095
 1421SOL    HW115899   1.988   3.031   2.844 -1.7587  2.0930 -2.5511
 1421SOL    HW215900   1.944   3.173   2.857  3.2579  0.5805 -0.8417
 1422SOL     OW15901   0.150   0.117  15.961 -0.3784 -0.0716 -0.2340
 1422SOL    HW115902   0.240   0.144  15.976 -0.2342 -0.2442 -0.7964
 1422SOL    HW215903   0.102   0.166  16.029 -0.2859 -2.4175  1.5482
 1423SOL     OW15904   2.923   0.447   2.795  0.2978  0.1449 -0.1815
 1423SOL    HW115905   2.849   0.387   2.811  0.6508  0.0950  1.2668
 1423SOL    HW215906   2.924   0.450   2.700 -0.8129  1.1473 -0.1563
 1424SOL     OW15907   3.772   2.580   0.869  0.0633 -0.3177  0.1256
 1424SOL    HW115908   3.693   2.525   0.862  0.6196 -0.8181 -2.2612
 1424SOL    HW215909   3.744   2.660   0.825  3.0813  0.8512  0.3555
 1425SOL     OW15910   4.637   3.035   7.116 -0.0888 -0.5041  0.5898
 1425SOL    HW115911   4.627   3.122   7.155  0.4313  0.2783 -1.0280
 1425SOL    HW215912   4.557   2.992   7.146 -2.2702  0.2137 -4.1647
 1426SOL     OW15913   0.779   0.421   7.591  0.9386  0.1422  0.3714
 1426SOL    HW115914   0.687   0.419   7.618  0.1760  0.2589 -2.2230
 1426SOL    HW215915   0.759   0.389   7.503  0.3552  0.6382  0.3232
 1427SOL     OW15916   0.002   1.666   2.051  0.1692  0.4439 -0.5344
 1427SOL    HW115917   4.722   1.588   1.998  2.5746 -1.5087  1.6390
 1427SOL    HW215918   0.038   1.629   2.132 -0.9833  0.5797  0.0392
 1428SOL     OW15919   1.691   1.829   8.726 -0.5319 -0.0140 -0.1278
 1428SOL    HW115920   1.746   1.751   8.725  1.6157  1.5165 -2.6981
 1428SOL    HW215921   1.657   1.825   8.637 -1.5198 -0.2099  0.2593
 1429SOL     OW15922   1.898   4.440  16.563 -0.0014 -0.5339  0.0786
 1429SOL    HW115923   1.866   4.351  16.569 -0.3577 -0.2994  1.5957
 1429SOL    HW215924   1.819   4.488  16.587 -1.2550 -3.0752  0.9873
 1430SOL     OW15925   4.284   1.082   2.095  0.0501  0.3677  0.1663
 1430SOL    HW115926   4.329   1.166   2.098 -0.2844  0.5074  1.1655
 1430SOL    HW215927   4.202   1.112   2.133 -0.2512 -1.1225  0.6845
 1431SOL     OW15928   2.640   0.506   7.895 -0.2972 -0.3409  0.1864
 1431SOL    HW115929   2.732   0.495   7.919 -0.1050  0.2157 -0.2749
 1431SOL    HW215930   2.628   0.457   7.814 -0.4368 -0.8351  0.5035
 1432SOL     OW15931   3.938   3.601  14.713 -0.1669 -1.1344 -0.8163
 1432SOL    HW115932   4.031   3.599  14.735 -0.4967  1.4058  0.8073
 1432SOL    HW215933   3.894   3.605  14.798 -0.3792 -1.2433 -0.9206
 1433SOL     OW15934   0.589   3.473   9.687 -0.0402  0.0575  0.0711
 1433SOL    HW115935   0.655   3.419   9.641  0.6653 -1.7745  3.2611
 1433SOL    HW215936   0.516   3.481   9.625  3.6185  0.4058 -4.2499
 1434SOL     OW15937   3.775   4.579   6.854 -0.2439 -0.7406  0.0022
 1434SOL    HW115938   3.697   4.632   6.833 -1.4482 -2.2013  0.8048
 1434SOL    HW215939   3.738   4.526   6.924 -1.1780  1.9327  1.5572
 1435SOL     OW15940   3.772   2.110   1.326  0.0946 -0.4430 -0.0398
 1435SOL    HW115941   3.847   2.115   1.267  0.1674  1.2957  0.1908
 1435SOL    HW215942   3.813   2.170   1.388  1.1041  0.7221 -1.8525
 1436SOL     OW15943   1.813   1.683   2.453  0.1719 -0.2532 -0.4706
 1436SOL    HW115944   1.778   1.760   2.498 -1.3504 -0.4708 -1.2916
 1436SOL    HW215945   1.757   1.674   2.377 -2.7142  2.0960  1.3939
 1437SOL     OW15946   1.812   1.098   3.404  0.3323  0.1427  0.3049
 1437SOL    HW115947   1.753   1.173   3.395 -1.0972 -0.9644  0.5133
 1437SOL    HW215948   1.744   1.032   3.396 -0.0155  0.4553  0.6652
 1438SOL     OW15949   1.155   3.407  13.341  0.1436  0.1137  0.0284
 1438SOL    HW115950   1.175   3.499  13.322  2.2468 -0.8052 -2.1853
 1438SOL    HW215951   1.075   3.413  13.394  1.5012  0.1925  2.0567
 1439SOL     OW15952   0.867   0.675   5.895  0.7465  0.0979  0.4340
 1439SOL    HW115953   0.794   0.615   5.913  1.1018 -0.3797  0.2690
 1439SOL    HW215954   0.878   0.710   5.984  0.5576 -2.6074  1.5350
 1440SOL     OW15955   4.699   0.647   8.065  0.3213 -0.3582  0.1392
 1440SOL    HW115956   4.631   0.661   8.131  0.5437  0.4487  0.1860
 1440SOL    HW215957   0.032   0.605   8.117  1.8344  2.8379  0.6912
 1441SOL     OW15958   3.954   1.299  12.234  0.5533  0.2507 -0.1205
 1441SOL    HW115959   4.030   1.277  12.180  1.1383  0.6601  0.5298
 1441SOL    HW215960   3.965   1.220  12.286 -0.0833  1.4495  1.8311
 1442SOL     OW15961   2.443   2.602   8.685  0.0104 -0.0738 -0.1648
 1442SOL    HW115962   2.383   2.629   8.615  0.2402  0.1391 -0.2796
 1442SOL    HW215963   2.422   2.509   8.694  1.0340 -0.3686 -0.8349
 1443SOL     OW15964   3.420   1.191   3.392 -0.5113 -0.0992  0.0920
 1443SOL    HW115965   3.356   1.148   3.449 -1.0501  0.6914  0.0739
 1443SOL    HW215966   3.476   1.119   3.362 -0.5948  0.5338 -1.5528
 1444SOL     OW15967   4.079   4.168   6.572  0.0482 -0.0642  0.1435
 1444SOL    HW115968   4.038   4.165   6.659  2.3966 -2.1801  1.1572
 1444SOL    HW215969   4.007   4.198   6.516  0.8247 -3.8614 -2.9006
 1445SOL     OW15970   3.774   4.325   3.542  0.3258  0.1454 -0.0007
 1445SOL    HW115971   3.681   4.325   3.519 -0.0568  1.1531  1.5963
 1445SOL    HW215972   3.765   4.285   3.629 -0.9461  3.4291  1.3697
 1446SOL     OW15973   3.196   0.548   5.961 -0.3575  0.0846  0.1148
 1446SOL    HW115974   3.221   0.605   6.034 -1.0397  0.0868  0.3415
 1446SOL    HW215975   3.163   0.611   5.897 -2.4202 -1.4781 -0.3390
 1447SOL     OW15976   2.186   3.416  13.803  0.0350 -0.2828  0.0159
 1447SOL    HW115977   2.193   3.437  13.710  0.8679  1.0965  0.3897
 1447SOL    HW215978   2.261   3.359  13.815 -2.0386 -2.9684  0.1067
 1448SOL     OW15979   0.740   2.997   3.408  0.6891  0.5247  0.5724
 1448SOL    HW115980   0.810   3.060   3.423  2.1408 -0.4995 -1.7787
 1448SOL    HW215981   0.741   2.955   3.494 -0.4506  1.0523  0.8421
 1449SOL     OW15982   3.135   2.521   0.145 -0.4140  0.1044  0.7781
 1449SOL    HW115983   3.102   2.490   0.229  1.5890 -0.0910  1.5066
 1449SOL    HW215984   3.061   2.512   0.086 -0.4949 -0.3829  0.9554
 1450SOL     OW15985   3.891   3.991   3.441 -0.6397  0.4240  0.4840
 1450SOL    HW115986   3.862   3.995   3.532  0.2710 -0.2441  0.8085
 1450SOL    HW215987   3.875   3.898   3.423  3.2967 -0.1186 -0.2726
 1451SOL     OW15988   0.697   3.113   7.182  0.5074  0.4552  0.3367
 1451SOL    HW115989   0.770   3.052   7.178 -1.8532 -2.2583 -0.9980
 1451SOL    HW215990   0.721   3.168   7.107 -0.3217 -1.4352 -1.2968
 1452SOL     OW15991   0.415   0.027   4.437 -0.2933  0.0397  0.2767
 1452SOL    HW115992   0.448   0.011   4.348 -1.5645 -1.1525  0.0119
 1452SOL    HW215993   0.495   0.070   4.466 -0.7799  1.0976  0.0640
 1453SOL     OW15994   4.453   0.527   5.544 -0.0649 -0.3117 -0.0036
 1453SOL    HW115995   4.416   0.522   5.456  1.1346  1.1725 -0.6042
 1453SOL    HW215996   4.545   0.505   5.534 -0.9107 -2.8681 -1.9935
 1454SOL     OW15997   2.465   3.140   9.377 -0.3543 -0.0665  0.4631
 1454SOL    HW115998   2.521   3.164   9.303  0.5343 -0.0833  1.1248
 1454SOL    HW215999   2.523   3.070   9.408 -2.5928 -0.9158  2.6941
 1455SOL     OW16000   3.047   0.786  15.866  0.1884 -0.2102 -0.1839
 1455SOL    HW116001   3.105   0.862  15.870  0.4180 -0.4637  1.3792
 1455SOL    HW216002   3.084   0.736  15.939  0.1645 -2.2088 -1.5220
 1456SOL     OW16003   2.081   0.120  17.699 -0.8353  0.4846  0.8323
 1456SOL    HW116004   2.026   0.107   0.036 -1.9401  2.1682  0.3255
 1456SOL    HW216005   2.128   0.203  17.710 -1.0294  0.9613 -2.1218
 1457SOL     OW16006   1.979   3.595   4.566  0.1089 -0.4239  0.0460
 1457SOL    HW116007   1.907   3.644   4.606  0.4260  0.5086 -0.5325
 1457SOL    HW216008   2.055   3.638   4.605 -0.6190  0.8910  0.0098
 1458SOL     OW16009   2.307   2.241   7.638  0.5925  0.3618  0.2931
 1458SOL    HW116010   2.386   2.225   7.690  0.7453 -0.8173 -0.2985
 1458SOL    HW216011   2.325   2.329   7.603  0.8674  0.4312  0.6070
 1459SOL     OW16012   4.180   0.457   7.308 -0.6146 -0.1016 -0.2064
 1459SOL    HW116013   4.173   0.452   7.213  0.2720  0.2980 -0.2929
 1459SOL    HW216014   4.269   0.494   7.307 -0.4827 -0.4586 -1.1584
 1460SOL     OW16015   0.524   3.809   1.837  0.2957 -0.2984 -0.4615
 1460SOL    HW116016   0.550   3.897   1.811  0.2185 -0.2570 -0.4016
 1460SOL    HW216017   0.448   3.811   1.780 -0.2316  3.7880  0.3359
 1461SOL     OW16018   2.137   0.419   8.011  0.5613 -0.1373 -0.3217
 1461SOL    HW116019   2.091   0.502   8.025 -1.3175 -1.0803 -1.0529
 1461SOL    HW216020   2.225   0.446   8.039  1.8180 -2.4084 -2.0831
 1462SOL     OW16021   1.122   4.083   2.190  0.5991 -0.3079  0.0573
 1462SOL    HW116022   1.138   4.113   2.279  0.2404 -0.4866  0.1806
 1462SOL    HW216023   1.159   4.154   2.137  0.5440 -1.2893 -1.2754
 1463SOL     OW16024   1.263   1.080   6.056  0.2446 -0.9577  0.5835
 1463SOL    HW116025   1.292   1.049   5.970 -1.3348 -0.5889 -0.0817
 1463SOL    HW216026   1.348   1.100   6.094  0.1084  0.3421  0.2039
 1464SOL     OW16027   0.456   3.414   3.282 -0.4057  0.2809 -0.6598
 1464SOL    HW116028   0.545   3.419   3.247  0.1440 -0.0331  0.6793
 1464SOL    HW216029   0.425   3.487   3.229 -2.3485 -0.7285 -0.8909
 1465SOL     OW16030   3.963   1.429   4.355  0.3355  0.1628  0.4707
 1465SOL    HW116031   3.930   1.476   4.431  0.8887 -1.3384  1.6495
 1465SOL    HW216032   3.950   1.337   4.379 -2.3094  0.6388  0.8521
 1466SOL     OW16033   1.531   4.015   9.986 -0.8346 -0.8428 -0.0961
 1466SOL    HW116034   1.583   4.010   9.906 -0.1962  1.7054  0.1545
 1466SOL    HW216035   1.539   3.920   9.999 -0.5833 -0.8448 -0.2706
 1467SOL     OW16036   3.559   0.984  11.893  0.4430  0.2900  0.3213
 1467SOL    HW116037   3.488   0.995  11.956  0.2768 -0.7972  0.3261
 1467SOL    HW216038   3.609   1.065  11.897 -2.3435  2.0638 -0.3392
 1468SOL     OW16039   3.870   4.034   7.147 -0.5226 -0.1804 -0.4546
 1468SOL    HW116040   3.847   3.981   7.223 -2.0272  3.8427  1.9163
 1468SOL    HW216041   3.798   4.010   7.089 -0.5022 -0.1312 -0.5000
 1469SOL     OW16042   0.801   2.159   5.296  0.2847 -0.3647 -0.2928
 1469SOL    HW116043   0.736   2.136   5.229  0.1087  0.0809 -0.2720
 1469SOL    HW216044   0.818   2.073   5.334  1.4679 -0.1160 -0.2657
 1470SOL     OW16045   2.740   2.671   3.659 -0.4913 -0.3641 -0.0948
 1470SOL    HW116046   2.803   2.741   3.675 -0.3546 -0.3995 -0.4727
 1470SOL    HW216047   2.751   2.654   3.565  0.4875  2.5093 -0.4969
 1471SOL     OW16048   1.173   0.367  14.912 -0.2648  0.2680 -0.3306
 1471SOL    HW116049   1.253   0.414  14.887 -0.4305  0.7690  0.0741
 1471SOL    HW216050   1.128   0.349  14.830  2.4525 -0.2755 -1.6822
 1472SOL     OW16051   1.226   1.162   8.328 -0.4104 -0.0734 -0.4598
 1472SOL    HW116052   1.256   1.090   8.272 -3.2315 -2.5089  1.1402
 1472SOL    HW216053   1.149   1.124   8.370 -0.8561  1.5533  0.1598
 1473SOL     OW16054   0.955   2.013   4.339 -0.3019  0.2838 -0.1127
 1473SOL    HW116055   0.908   2.010   4.256  2.8235  1.0859 -1.9078
 1473SOL    HW216056   1.024   2.074   4.312 -0.4667 -0.8993 -3.1329
 1474SOL     OW16057   3.298   0.266   6.763 -0.1682 -0.1089 -0.2412
 1474SOL    HW116058   3.332   0.209   6.694  1.6831 -1.8014  2.0435
 1474SOL    HW216059   3.251   0.335   6.717 -0.2757 -0.7055 -1.0216
 1475SOL     OW16060   0.359   1.463  10.810 -0.1317  0.3509  0.7545
 1475SOL    HW116061   0.402   1.495  10.730 -2.0546  1.0088 -0.0297
 1475SOL    HW216062   0.277   1.510  10.794  0.6031  0.8763 -1.5387
 1476SOL     OW16063   3.858   2.468   9.493  0.6803  0.2225  0.2469
 1476SOL    HW116064   3.929   2.472   9.557  1.4766  0.7188 -0.6678
 1476SOL    HW216065   3.800   2.527   9.540  1.9662 -0.9076  3.2579
 1477SOL     OW16066   2.155   2.643   7.893  0.0236  0.1259  0.8815
 1477SOL    HW116067   2.115   2.720   7.852  1.6570  0.0824 -0.7581
 1477SOL    HW216068   2.121   2.572   7.839  0.3309  0.1215  0.6955
 1478SOL     OW16069   2.519   0.422   3.442 -0.1489  0.0599 -0.1297
 1478SOL    HW116070   2.469   0.376   3.510 -0.7094  1.9065  0.7037
 1478SOL    HW216071   2.596   0.450   3.492  0.0831 -3.1212  1.3202
 1479SOL     OW16072   3.767   3.744   6.504  0.5051 -0.2900  0.2828
 1479SOL    HW116073   3.796   3.700   6.424 -0.8808  1.3110 -1.1033
 1479SOL    HW216074   3.755   3.659   6.547 -2.0466  0.3824  0.8967
 1480SOL     OW16075   1.658   3.129  10.301 -0.1544  0.2590 -0.3631
 1480SOL    HW116076   1.574   3.086  10.314 -0.1924  0.5055  0.2194
 1480SOL    HW216077   1.717   3.069  10.348 -0.1590  1.4536  1.1724
 1481SOL     OW16078   3.351   2.099   1.158 -0.2425  0.0020 -0.1737
 1481SOL    HW116079   3.322   2.030   1.098 -0.4733  2.3021 -2.7191
 1481SOL    HW216080   3.440   2.064   1.165  0.1152  0.7718 -0.9370
 1482SOL     OW16081   0.052   2.157   8.915  0.1572 -0.0437 -0.1065
 1482SOL    HW116082   0.119   2.109   8.866 -1.3499 -1.3231 -0.9167
 1482SOL    HW216083   0.086   2.150   9.004 -1.3541  0.3701  0.4919
 1483SOL     OW16084   3.452   3.332   6.704  0.9380 -0.3722  0.3393
 1483SOL    HW116085   3.540   3.360   6.731  0.9115 -0.4546  0.5115
 1483SOL    HW216086   3.476   3.258   6.648  0.2266 -1.1545  1.0664
 1484SOL     OW16087   2.944   3.987   4.241 -0.4136 -0.2251 -0.0328
 1484SOL    HW116088   2.994   3.988   4.323 -3.1395 -0.9226  1.6743
 1484SOL    HW216089   2.954   3.894   4.222  0.2901 -0.2887  0.6519
 1485SOL     OW16090   4.215   0.702   4.483  0.1433  0.2153  0.1922
 1485SOL    HW116091   4.120   0.688   4.486  0.3071 -1.0832 -0.5339
 1485SOL    HW216092   4.241   0.647   4.557  0.2573  0.9544  0.7017
 1486SOL     OW16093   2.654   3.319   6.991 -0.0201 -0.6622  0.6274
 1486SOL    HW116094   2.620   3.339   6.904 -1.1188 -0.2847  1.1431
 1486SOL    HW216095   2.736   3.274   6.971  1.3892  1.8773  0.6748
 1487SOL     OW16096   3.053   1.193   5.150 -0.3807  0.5805  0.6164
 1487SOL    HW116097   3.110   1.122   5.180 -1.4696 -0.4244  0.2593
 1487SOL    HW216098   3.019   1.218   5.236 -1.5503 -1.1455  0.6501
 1488SOL     OW16099   0.910   4.395   5.830 -0.3115 -0.3843  0.5252
 1488SOL    HW116100   0.894   4.385   5.924 -0.5852  0.9440  0.6215
 1488SOL    HW216101   0.888   4.488   5.830 -0.7930 -0.5095 -1.4710
 1489SOL     OW16102   1.663   4.464   1.338  0.0492 -0.1263 -0.3237
 1489SOL    HW116103   1.578   4.420   1.334  0.9147 -1.9613  1.2436
 1489SOL    HW216104   1.646   4.547   1.292 -0.9559 -0.8702 -1.2988
 1490SOL     OW16105   0.205   0.759   4.510  0.0240 -0.3804 -0.2560
 1490SOL    HW116106   0.245   0.754   4.597  0.8966  0.6896 -0.5861
 1490SOL    HW216107   0.119   0.722   4.530 -0.9285  1.5830 -0.6507
 1491SOL     OW16108   3.195   0.859  10.875  0.0134 -0.1951  0.5139
 1491SOL    HW116109   3.146   0.941  10.868 -3.0429 -1.9065  1.9110
 1491SOL    HW216110   3.215   0.843  10.782 -0.9553 -1.0894  0.4691
 1492SOL     OW16111   3.067   1.804   7.710  0.3350  0.6503 -0.0020
 1492SOL    HW116112   3.018   1.776   7.633  2.7516 -0.2671 -1.2241
 1492SOL    HW216113   3.119   1.726   7.730  0.8609  0.7949 -0.7958
 1493SOL     OW16114   3.086   0.445   7.166 -0.2816 -0.2312 -0.3191
 1493SOL    HW116115   3.087   0.370   7.106 -3.1217  1.3464 -2.3002
 1493SOL    HW216116   2.994   0.472   7.164  0.3375  1.8750 -0.4879
 1494SOL     OW16117   3.409   3.438   5.485  0.0930 -0.4578 -0.2385
 1494SOL    HW116118   3.479   3.490   5.526 -1.1406  1.0767 -0.0979
 1494SOL    HW216119   3.469   3.373   5.448 -0.8939 -1.1029 -0.7002
 1495SOL     OW16120   0.071   1.426   7.794  0.2573 -0.2167  0.1852
 1495SOL    HW116121   0.060   1.412   7.888 -1.2273  1.8796  0.3237
 1495SOL    HW216122   0.061   1.337   7.760  0.6126 -0.3245  0.3553
 1496SOL     OW16123   0.240   3.000  15.608  0.0652  0.1194 -0.7153
 1496SOL    HW116124   0.210   2.909  15.602 -0.2310  0.1642  0.1808
 1496SOL    HW216125   0.190   3.041  15.538 -2.8110 -0.2778  1.1420
 1497SOL     OW16126   1.946   2.229   1.955 -0.4045  0.1358 -0.0670
 1497SOL    HW116127   1.979   2.142   1.977  2.2765  1.5694  1.6366
 1497SOL    HW216128   1.860   2.236   1.996 -0.8010 -0.3473 -0.8055
 1498SOL     OW16129   2.150   3.961   7.213 -0.1963  0.2721  0.0108
 1498SOL    HW116130   2.182   3.932   7.298 -2.1953 -1.8116  0.0608
 1498SOL    HW216131   2.079   4.020   7.241  0.2611  0.4360  0.8072
 1499SOL     OW16132   3.522   0.820   6.485 -0.2085 -0.2841  0.1338
 1499SOL    HW116133   3.460   0.789   6.419 -0.5874  1.3186 -0.2571
 1499SOL    HW216134   3.575   0.740   6.491 -0.5924 -0.5946 -0.6247
 1500SOL     OW16135   4.273   3.729   1.213 -0.3418 -0.4406  0.5377
 1500SOL    HW116136   4.202   3.793   1.222 -2.3735 -2.5176 -0.8121
 1500SOL    HW216137   4.325   3.769   1.143 -0.5497  0.1697  0.7330
 1501SOL     OW16138   1.085   3.181  14.798  0.6848 -0.2123  0.2907
 1501SOL    HW116139   0.989   3.183  14.803  0.6470 -1.8901  0.2691
 1501SOL    HW216140   1.092   3.113  14.731  0.8526 -0.2367  0.3352
 1502SOL     OW16141   2.545   1.478  17.014 -0.8691 -0.0266 -0.4121
 1502SOL    HW116142   2.555   1.566  16.978  0.6589  0.5908  1.5323
 1502SOL    HW216143   2.616   1.477  17.079 -0.7238 -1.5692 -0.5908
 1503SOL     OW16144   1.575   2.051   7.944  0.3256 -0.2188 -0.3595
 1503SOL    HW116145   1.574   1.963   7.907  0.1534 -0.1466 -0.5272
 1503SOL    HW216146   1.484   2.080   7.938  0.5513  0.2259 -1.8071
 1504SOL     OW16147   1.534   1.545  15.396 -0.6799 -0.4293 -0.0749
 1504SOL    HW116148   1.513   1.452  15.406 -1.7435 -0.4114 -2.0564
 1504SOL    HW216149   1.569   1.551  15.307 -1.1944 -2.6790 -0.4374
 1505SOL     OW16150   2.529   3.792   2.955  0.2662 -0.3982  0.5849
 1505SOL    HW116151   2.441   3.758   2.973 -0.0357  0.6996  1.1817
 1505SOL    HW216152   2.549   3.848   3.030  1.3809  0.8943 -0.6785
 1506SOL     OW16153   2.717   2.633   6.922 -0.2996 -0.3998 -0.3167
 1506SOL    HW116154   2.787   2.611   6.984 -0.3269 -1.2356 -0.5776
 1506SOL    HW216155   2.713   2.728   6.930 -0.3490 -0.3351 -1.1543
 1507SOL     OW16156   1.157   1.478   2.186  0.0965  0.0059  0.4613
 1507SOL    HW116157   1.088   1.476   2.252  0.9089 -2.8445  1.2288
 1507SOL    HW216158   1.110   1.496   2.104  0.4537 -0.4093  0.1652
 1508SOL     OW16159   3.846   1.338   7.511  0.2795 -0.1356  0.0095
 1508SOL    HW116160   3.802   1.263   7.472  0.4287 -0.8873  1.2953
 1508SOL    HW216161   3.766   1.388   7.494  1.0401  0.7438 -1.0362
 1509SOL     OW16162   1.602   2.979   6.580  0.2715  0.1795  0.2984
 1509SOL    HW116163   1.658   3.054   6.558  0.6474 -0.2669 -0.2885
 1509SOL    HW216164   1.512   3.011   6.570  0.7477  2.5730  3.6005
 1510SOL     OW16165   4.266   0.691   6.203 -0.0739  0.1099  0.0610
 1510SOL    HW116166   4.361   0.685   6.194 -0.0691  0.8078 -0.3471
 1510SOL    HW216167   4.242   0.709   6.112  1.4002 -1.1340 -0.5763
 1511SOL     OW16168   3.149   1.919  12.001  0.1956  0.2713 -0.3187
 1511SOL    HW116169   3.189   1.883  12.080 -1.0707  0.1396  0.2639
 1511SOL    HW216170   3.203   1.878  11.934 -0.6837 -2.0601  0.4178
 1512SOL     OW16171   1.609   4.424   7.974 -0.4929 -0.0057 -0.4782
 1512SOL    HW116172   1.617   4.369   8.053 -2.3582  0.2372 -0.1091
 1512SOL    HW216173   1.580   4.360   7.909  2.3497 -0.8441 -0.8970
 1513SOL     OW16174   1.002   1.208  17.221 -0.3596 -0.4416  0.0310
 1513SOL    HW116175   1.080   1.256  17.249  0.3951 -2.2124  0.9561
 1513SOL    HW216176   0.946   1.285  17.209  0.0075 -0.0358  0.9691
 1514SOL     OW16177   3.793   1.715   4.781  0.2247  0.1394 -0.2902
 1514SOL    HW116178   3.821   1.645   4.840  1.5263 -1.0877 -2.3657
 1514SOL    HW216179   3.819   1.788   4.837 -0.9314 -0.7151  1.3746
 1515SOL     OW16180   3.566   1.592   6.032  0.1615  0.7915 -0.5278
 1515SOL    HW116181   3.564   1.577   5.938 -6.3300 -2.7059  0.1601
 1515SOL    HW216182   3.647   1.640   6.047  2.2326 -2.4412 -1.4041
 1516SOL     OW16183   3.115   1.883  10.647  0.1081 -0.8226 -0.3622
 1516SOL    HW116184   3.137   1.919  10.733 -0.7550 -1.7476  0.2488
 1516SOL    HW216185   3.203   1.855  10.622  0.5739  2.4494 -2.3552
 1517SOL     OW16186   3.337   4.637   9.547  0.4777  0.1315 -0.2060
 1517SOL    HW116187   3.374   4.592   9.471 -0.3328 -0.1137 -0.4596
 1517SOL    HW216188   3.390   4.601   9.618 -1.3431 -0.3224  0.9481
 1518SOL     OW16189   0.351   0.906   1.747  0.1024 -0.4628  0.0650
 1518SOL    HW116190   0.365   0.824   1.699  1.0554 -0.5921  0.5630
 1518SOL    HW216191   0.354   0.963   1.670 -1.0005 -2.5088 -1.5039
 1519SOL     OW16192   0.300   2.520   4.505 -0.4169 -0.2389 -0.0323
 1519SOL    HW116193   0.341   2.492   4.587 -0.3321  2.5083  0.8574
 1519SOL    HW216194   0.365   2.514   4.435  0.7565  1.4831  0.8985
 1520SOL     OW16195   3.279   4.452  14.589  0.5480 -0.0502 -0.0737
 1520SOL    HW116196   3.188   4.423  14.576  0.8082 -0.2602 -1.3663
 1520SOL    HW216197   3.318   4.366  14.580  1.0445  0.2117 -0.3942
 1521SOL     OW16198   0.976   3.784   3.980  0.3878  0.5938 -0.2342
 1521SOL    HW116199   0.980   3.689   3.971 -1.5487  0.3387  1.4570
 1521SOL    HW216200   1.043   3.807   3.916  1.4172  0.4644  0.8044
 1522SOL     OW16201   4.245   1.341  11.592 -0.0781  0.5810  0.2102
 1522SOL    HW116202   4.311   1.381  11.536 -1.2818  2.3298  0.0493
 1522SOL    HW216203   4.236   1.407  11.661 -1.6690 -1.3709  1.8699
 1523SOL     OW16204   4.176   2.440   4.805  0.4302  0.6266  0.3204
 1523SOL    HW116205   4.117   2.369   4.832 -0.6749  0.3521 -2.7485
 1523SOL    HW216206   4.256   2.388   4.802 -0.4402 -0.7353  0.3424
 1524SOL     OW16207   3.286   4.104   5.768  0.8813 -0.4407 -0.5949
 1524SOL    HW116208   3.271   4.177   5.828 -0.6645 -0.4542 -0.9851
 1524SOL    HW216209   3.372   4.069   5.793 -0.5097 -2.7777  0.9147
 1525SOL     OW16210   3.611   1.388  17.289 -0.1509 -0.2015 -0.0289
 1525SOL    HW116211   3.667   1.388  17.212 -0.1064  1.6829 -0.0096
 1525SOL    HW216212   3.552   1.316  17.266  1.0575 -1.8008  1.9101
 1526SOL     OW16213   1.016   4.262   4.589  0.1127 -0.1836 -0.4690
 1526SOL    HW116214   1.003   4.299   4.502  1.2244 -1.2607 -1.0896
 1526SOL    HW216215   0.939   4.210   4.614 -0.5472  0.3642 -1.3698
 1527SOL     OW16216   1.678   0.209  12.345  0.3522  0.2758  0.2093
 1527SOL    HW116217   1.588   0.239  12.360  0.2460  0.1446 -0.1561
 1527SOL    HW216218   1.713   0.290  12.307 -1.1719 -0.2507 -2.3777
 1528SOL     OW16219   0.809   3.198  15.477  0.4500  0.9811  0.1380
 1528SOL    HW116220   0.794   3.107  15.453  2.0430 -0.0521  3.1120
 1528SOL    HW216221   0.823   3.231  15.388  1.1690 -1.0668 -0.5029
 1529SOL     OW16222   0.686   1.311   8.944 -0.2995 -0.4866 -0.9365
 1529SOL    HW116223   0.727   1.237   8.988 -0.5998  0.5873  1.1499
 1529SOL    HW216224   0.755   1.377   8.955 -1.8114  1.2285 -1.8358
 1530SOL     OW16225   2.435   0.679   2.859 -0.1581 -0.3211 -0.4586
 1530SOL    HW116226   2.460   0.601   2.809 -0.2531 -0.3818 -0.4108
 1530SOL    HW216227   2.355   0.645   2.899 -0.7215  0.1524 -1.1950
 1531SOL     OW16228   4.223   0.298   2.666 -0.2722 -0.6552 -0.0857
 1531SOL    HW116229   4.147   0.336   2.710 -0.3142  0.1642 -0.8607
 1531SOL    HW216230   4.259   0.374   2.621 -0.2081 -1.5483 -1.5415
 1532SOL     OW16231   3.577   1.431   7.005  0.2326 -0.0575 -0.0547
 1532SOL    HW116232   3.545   1.398   6.921  1.7084 -0.8814 -0.3052
 1532SOL    HW216233   3.612   1.351   7.044 -2.0912  0.2850  2.7138
 1533SOL     OW16234   1.828   1.895   7.578  0.3376 -0.6672  0.4280
 1533SOL    HW116235   1.852   1.803   7.592  0.9080 -0.7461 -1.0662
 1533SOL    HW216236   1.854   1.926   7.664 -1.1302 -1.2641  1.0934
 1534SOL     OW16237   1.836   4.063   3.452 -0.4019 -0.1072 -0.2433
 1534SOL    HW116238   1.920   4.024   3.429 -1.1407  0.2924 -3.6130
 1534SOL    HW216239   1.781   3.985   3.452  1.9355 -1.7560  0.9453
 1535SOL     OW16240   2.519   1.191   0.181 -0.4157  0.1408  0.0552
 1535SOL    HW116241   2.535   1.192   0.276 -0.9003  1.2878  0.1222
 1535SOL    HW216242   2.577   1.117   0.163  1.8339  1.6509  1.0559
 1536SOL     OW16243   2.568   0.943   1.047 -0.0644  0.1335 -0.2126
 1536SOL    HW116244   2.644   0.999   1.033  1.5098 -1.3151  2.4406
 1536SOL    HW216245   2.604   0.855   1.041  0.5170  0.5500 -2.5844
 1537SOL     OW16246   3.703   1.813   0.503 -0.1178 -0.1709 -0.1552
 1537SOL    HW116247   3.712   1.784   0.412  0.9299  0.3971 -0.2257
 1537SOL    HW216248   3.732   1.739   0.555 -0.5834 -1.1922 -1.3384
 1538SOL     OW16249   1.733   1.405  13.912  0.4024  0.6390  0.3534
 1538SOL    HW116250   1.700   1.404  14.002  0.2340 -1.6632  0.2691
 1538SOL    HW216251   1.724   1.311  13.899 -0.3927  0.7793 -0.0802
 1539SOL     OW16252   0.719   3.295   3.205  0.3066  0.3330  0.7798
 1539SOL    HW116253   0.807   3.257   3.203 -0.4889 -1.4879  0.5542
 1539SOL    HW216254   0.685   3.264   3.121 -0.0376  1.6519  0.4274
 1540SOL     OW16255   2.599   0.111   4.572  0.3669 -0.2197 -0.0151
 1540SOL    HW116256   2.590   0.017   4.556  1.8532 -0.4948  0.8004
 1540SOL    HW216257   2.675   0.117   4.629  1.0593 -0.5165 -0.9055
 1541SOL     OW16258   3.792   4.068   3.201 -0.8545 -0.3385  0.6462
 1541SOL    HW116259   3.819   4.023   3.281  0.1549 -1.3653 -0.2761
 1541SOL    HW216260   3.814   4.157   3.229  1.4268 -0.9149  0.6273
 1542SOL     OW16261   1.623   1.144  12.409  0.4345  0.0695 -0.3293
 1542SOL    HW116262   1.673   1.204  12.464  0.0296 -0.6640  0.8553
 1542SOL    HW216263   1.633   1.070  12.470  0.4715  0.6696  0.3948
 1543SOL     OW16264   2.200   0.445   7.296  0.0714 -0.2915 -0.4998
 1543SOL    HW116265   2.117   0.490   7.315  0.1705 -0.5043  0.4582
 1543SOL    HW216266   2.231   0.405   7.377 -0.9646 -1.1599 -0.5305
 1544SOL     OW16267   2.076   1.380   4.859 -0.0203  0.5668 -0.1987
 1544SOL    HW116268   2.001   1.402   4.804 -0.6918  2.2067  1.3492
 1544SOL    HW216269   2.101   1.294   4.827 -0.4286  0.7038 -0.8831
 1545SOL     OW16270   4.222   1.082  14.909  0.2638 -0.1845  0.2547
 1545SOL    HW116271   4.204   1.170  14.875  0.4500  0.0328  0.7110
 1545SOL    HW216272   4.259   1.027  14.840 -1.2072 -0.9120  0.0396
 1546SOL     OW16273   0.712   3.394   4.809 -0.2814  0.6348 -0.4600
 1546SOL    HW116274   0.647   3.336   4.769  2.3580 -0.9246 -2.5122
 1546SOL    HW216275   0.676   3.473   4.771 -0.6747 -0.0061 -1.4346
 1547SOL     OW16276   1.623   0.092  14.503  0.1277  0.3831 -0.1896
 1547SOL    HW116277   1.675   0.156  14.454 -0.8557  2.2796  1.2658
 1547SOL    HW216278   1.626   0.136  14.587  1.5437  0.3899 -0.2428
 1548SOL     OW16279   3.420   3.360   4.538  0.0531  0.4700 -0.0541
 1548SOL    HW116280   3.513   3.371   4.520  0.4596 -1.0855  1.0618
 1548SOL    HW216281   3.415   3.383   4.631 -1.0782 -0.3212  0.0841
 1549SOL     OW16282   1.221   4.677   5.835 -0.1615  0.8241  0.5471
 1549SOL    HW116283   1.276   4.607   5.800 -0.3981  0.4075  0.9939
 1549SOL    HW216284   1.291   4.729   5.875 -0.3196  0.8690  0.7647
 1550SOL     OW16285   2.460   2.935   4.332 -0.4255  0.0467 -0.5148
 1550SOL    HW116286   2.394   2.866   4.337  0.9465 -1.1775  0.9822
 1550SOL    HW216287   2.404   3.012   4.334  0.2943  0.5647  0.1211
 1551SOL     OW16288   1.580   1.851   5.146  0.4727  0.5670  0.4729
 1551SOL    HW116289   1.643   1.907   5.193 -0.2699  0.9181  1.0625
 1551SOL    HW216290   1.616   1.872   5.060 -1.4720 -0.2590 -0.5346
 1552SOL     OW16291   1.094   0.258   8.692 -0.2346  0.1354 -0.0502
 1552SOL    HW116292   1.044   0.310   8.754  0.6295  1.2211 -0.2646
 1552SOL    HW216293   1.102   0.186   8.755  0.3293  0.4062  0.1886
 1553SOL     OW16294   1.425   2.104   4.640  0.3443  0.3667  0.7417
 1553SOL    HW116295   1.500   2.053   4.609 -1.0996 -2.3394  1.6133
 1553SOL    HW216296   1.437   2.088   4.734 -1.0604  1.3328  1.0798
 1554SOL     OW16297   0.558   2.075  13.752  0.2406 -0.7134 -0.3950
 1554SOL    HW116298   0.589   2.047  13.666 -1.6692 -1.8243 -0.7257
 1554SOL    HW216299   0.598   2.010  13.811 -2.4703  0.0702  2.3385
 1555SOL     OW16300   0.852   3.869   5.300  0.1702  0.2439 -0.0879
 1555SOL    HW116301   0.761   3.890   5.279 -0.3912  1.0889  3.2188
 1555SOL    HW216302   0.863   3.778   5.271  0.2108  0.3169 -0.3000
 1556SOL     OW16303   3.458   1.463   8.157  0.4203  0.2814  0.5548
 1556SOL    HW116304   3.460   1.389   8.216  1.2070  1.2965  1.7957
 1556SOL    HW216305   3.527   1.512   8.201 -0.0194 -1.9178  3.6067
 1557SOL     OW16306   2.997   1.287  13.971 -0.2832  0.2414  0.1833
 1557SOL    HW116307   3.006   1.213  14.030  2.3204  0.0922 -0.4126
 1557SOL    HW216308   2.903   1.286  13.951 -0.2921  0.1052  0.2337
 1558SOL     OW16309   3.676   1.310   6.098 -0.4798  0.2342  0.2625
 1558SOL    HW116310   3.639   1.396   6.121  1.2917  0.6658  1.4908
 1558SOL    HW216311   3.678   1.260   6.179 -1.0710  0.6649  0.5437
 1559SOL     OW16312   0.825   1.557   8.990 -0.0738  0.4800 -0.1937
 1559SOL    HW116313   0.840   1.642   8.948  0.0223 -0.8807 -2.9034
 1559SOL    HW216314   0.914   1.522   8.992 -0.3222 -0.0545  1.3127
 1560SOL     OW16315   3.535   4.377   6.641 -0.3689  0.3975 -0.4191
 1560SOL    HW116316   3.507   4.408   6.554 -0.7442 -1.0150 -0.7994
 1560SOL    HW216317   3.537   4.283   6.626 -2.3707  1.0296 -4.6290
 1561SOL     OW16318   4.213   4.076   5.725 -0.2476  0.0181  0.0864
 1561SOL    HW116319   4.308   4.061   5.724 -0.1215  0.8742 -1.1875
 1561SOL    HW216320   4.215   4.132   5.803  1.2636  0.4270 -0.2449
 1562SOL     OW16321   2.176   1.968   8.996 -0.8667 -0.4568 -0.0483
 1562SOL    HW116322   2.103   1.968   8.934  0.9433 -0.4112 -2.1855
 1562SOL    HW216323   2.207   1.878   8.983 -0.0785 -0.1227 -0.5052
 1563SOL     OW16324   4.049   4.044   5.050  0.1036  0.0122  0.5908
 1563SOL    HW116325   4.100   4.122   5.029 -0.3455  1.0445  3.3709
 1563SOL    HW216326   4.006   4.014   4.970 -1.8540 -0.7994  1.9656
 1564SOL     OW16327   1.195   2.252  11.906 -0.2298  0.2932  0.5826
 1564SOL    HW116328   1.244   2.334  11.914 -0.0264  0.3648 -1.3730
 1564SOL    HW216329   1.262   2.189  11.931 -0.0165  0.0006 -0.7570
 1565SOL     OW16330   4.319   4.155   1.990  0.5514  0.2457 -0.2446
 1565SOL    HW116331   4.372   4.110   1.924 -0.8642 -2.4410  0.4454
 1565SOL    HW216332   4.384   4.199   2.044  1.5549  0.1378 -1.3494
 1566SOL     OW16333   0.582   3.320  17.487  0.2786  0.1057 -0.1703
 1566SOL    HW116334   0.672   3.296  17.506  1.2124  1.0236 -3.4600
 1566SOL    HW216335   0.577   3.408  17.523  0.7741 -0.1533  0.5415
 1567SOL     OW16336   2.392   0.506   8.126  0.0465 -0.3872 -0.7393
 1567SOL    HW116337   2.467   0.565   8.115 -0.1540 -0.0220 -0.1564
 1567SOL    HW216338   2.365   0.552   8.205  3.1320 -1.8676  1.1797
 1568SOL     OW16339   1.235   4.513   6.190 -0.2300 -0.1883  0.3985
 1568SOL    HW116340   1.251   4.455   6.264  0.1525 -3.3898 -2.1672
 1568SOL    HW216341   1.269   4.446   6.131  2.1893  0.8169  0.6066
 1569SOL     OW16342   4.707   4.269   0.641  0.5630  0.3572 -0.1327
 1569SOL    HW116343   0.062   4.238   0.638  0.6406  0.4113  1.5332
 1569SOL    HW216344   4.715   4.312   0.726 -1.9656  0.7409 -0.0735
 1570SOL     OW16345   4.326   2.264   7.616  0.3362 -0.4261  0.3021
 1570SOL    HW116346   4.234   2.261   7.588  0.2848 -0.9017  0.5314
 1570SOL    HW216347   4.367   2.277   7.530 -1.1767  2.0013 -0.0556
 1571SOL     OW16348   2.709   2.707   6.658 -0.0154  0.5835  0.1291
 1571SOL    HW116349   2.776   2.727   6.593  0.1423 -0.6719 -0.0984
 1571SOL    HW216350   2.746   2.624   6.689 -0.2433  0.0603 -1.0387
 1572SOL     OW16351   0.600   3.439  16.083  0.5648 -0.6248 -0.3461
 1572SOL    HW116352   0.639   3.508  16.137 -0.5816  0.1095 -0.4606
 1572SOL    HW216353   0.677   3.385  16.063  0.5834 -2.1395  3.9233
 1573SOL     OW16354   1.336   1.853   8.048  0.1782 -0.0652 -0.1439
 1573SOL    HW116355   1.254   1.805   8.037  0.1677  0.3220 -1.7003
 1573SOL    HW216356   1.401   1.807   7.996  2.4666  1.1673  1.6430
 1574SOL     OW16357   3.052   1.236  15.232  0.1114 -0.9566 -0.1062
 1574SOL    HW116358   3.104   1.286  15.169 -0.7281  1.4692  1.1414
 1574SOL    HW216359   3.061   1.149  15.192  0.1912 -1.7322  1.5799
 1575SOL     OW16360   0.181   1.824   5.071 -0.4027  0.5516 -0.5420
 1575SOL    HW116361   0.189   1.729   5.069 -2.6603  0.3229  1.5423
 1575SOL    HW216362   0.120   1.835   4.999 -3.0889  1.4850  1.8692
 1576SOL     OW16363   0.496   2.206  12.377 -0.5447 -0.0743 -0.2466
 1576SOL    HW116364   0.551   2.162  12.443  1.1563 -1.9230 -2.8755
 1576SOL    HW216365   0.512   2.143  12.306  1.3175 -0.1433  0.2211
 1577SOL     OW16366   1.422   4.041   2.874  0.1021 -0.0223 -0.4643
 1577SOL    HW116367   1.516   4.060   2.872  0.0134  0.4443 -0.1583
 1577SOL    HW216368   1.406   4.016   2.965  1.7310  1.0106  0.1142
 1578SOL     OW16369   1.557   3.866  13.138  0.4242 -0.2841  0.1611
 1578SOL    HW116370   1.559   3.775  13.110  0.2630  0.6582 -2.9413
 1578SOL    HW216371   1.646   3.865  13.174 -0.0628 -0.7314  1.3364
 1579SOL     OW16372   0.446   2.193   3.394 -0.1248  0.2532 -0.4821
 1579SOL    HW116373   0.475   2.111   3.355  0.2969  0.3708 -0.4227
 1579SOL    HW216374   0.437   2.249   3.317 -2.2248 -1.4351 -1.4593
 1580SOL     OW16375   2.398   4.160   1.373  0.9367 -0.8753  0.3136
 1580SOL    HW116376   2.455   4.236   1.385 -0.2765  0.2470 -0.8988
 1580SOL    HW216377   2.318   4.210   1.356  1.2696 -0.4432  0.0135
 1581SOL     OW16378   0.424   2.638   8.899  0.3397  0.0714 -0.5472
 1581SOL    HW116379   0.477   2.675   8.829  1.3034  0.1310  0.2228
 1581SOL    HW216380   0.397   2.557   8.855 -1.4699  0.1113  0.5128
 1582SOL     OW16381   3.134   0.171   1.768  0.7901 -0.2069  0.3627
 1582SOL    HW116382   3.056   0.123   1.796  1.1393 -1.0292 -0.0520
 1582SOL    HW216383   3.080   0.230   1.716  0.5631  0.4108  1.2949
 1583SOL     OW16384   0.777   2.551  17.468 -0.6175 -0.1442  0.1495
 1583SOL    HW116385   0.769   2.636  17.424  0.0756 -0.1514  0.0051
 1583SOL    HW216386   0.726   2.489  17.415 -1.4192  0.3066  0.3900
 1584SOL     OW16387   3.368   2.447   1.951 -0.3014  0.8951 -0.0797
 1584SOL    HW116388   3.407   2.381   2.009 -2.4199  0.5864  0.9803
 1584SOL    HW216389   3.397   2.409   1.868  1.9699 -0.5558  1.3673
 1585SOL     OW16390   1.153   3.364   8.268 -0.2278 -0.1535 -0.1184
 1585SOL    HW116391   1.197   3.285   8.299 -0.3383 -1.0800 -2.3027
 1585SOL    HW216392   1.119   3.393   8.353 -0.2966 -0.9676  0.1282
 1586SOL     OW16393   4.487   1.362  14.766 -0.2302 -0.2933  0.2673
 1586SOL    HW116394   4.484   1.312  14.848 -2.4878 -0.5831  0.0171
 1586SOL    HW216395   4.565   1.327  14.723  0.7906  0.1638  1.7606
 1587SOL     OW16396   4.573   4.116   7.438 -0.0857  0.7346  0.4802
 1587SOL    HW116397   4.601   4.116   7.347 -1.2734 -1.0350  0.1217
 1587SOL    HW216398   4.479   4.109   7.420  0.1359  2.9402 -1.5258
 1588SOL     OW16399   4.556   2.598   3.395  0.9085  0.0554  0.7120
 1588SOL    HW116400   4.573   2.566   3.306  0.6195 -3.3072  1.9002
 1588SOL    HW216401   4.646   2.609   3.426  1.5138 -0.7701 -0.7703
 1589SOL     OW16402   0.389   0.443   2.213  0.0216 -0.6542 -0.1811
 1589SOL    HW116403   0.444   0.417   2.287  0.5336 -0.2161 -0.4086
 1589SOL    HW216404   0.420   0.379   2.149 -2.0791 -2.0273  0.1558
 1590SOL     OW16405   3.725   1.379   8.382  0.2031  0.0755 -0.3402
 1590SOL    HW116406   3.737   1.439   8.307 -1.3131 -1.3212 -1.6958
 1590SOL    HW216407   3.632   1.359   8.376 -0.1641  2.1060 -1.4802
 1591SOL     OW16408   4.267   1.598   3.790 -0.3679  0.1470 -0.1100
 1591SOL    HW116409   4.278   1.604   3.885  0.6646 -4.0277  0.0238
 1591SOL    HW216410   4.282   1.506   3.770  1.0720  0.5875 -1.0322
 1592SOL     OW16411   3.435   2.004   2.822 -0.3041  0.1500 -0.4074
 1592SOL    HW116412   3.339   2.013   2.826 -0.1913  0.3650  1.7448
 1592SOL    HW216413   3.452   1.979   2.913 -3.4851  0.7332  0.3842
 1593SOL     OW16414   0.996   1.209   4.637 -0.0545  0.1063  0.0945
 1593SOL    HW116415   0.943   1.190   4.714 -0.4793 -2.8919 -0.9392
 1593SOL    HW216416   1.051   1.284   4.662  0.6616 -0.6860  0.8985
 1594SOL     OW16417   2.617   1.044   5.817 -0.0589 -0.3013  0.1183
 1594SOL    HW116418   2.558   0.971   5.799  0.1448 -0.0006 -1.7548
 1594SOL    HW216419   2.565   1.096   5.878 -0.5416 -2.1336  1.2606
 1595SOL     OW16420   0.812   2.746   5.842  0.0484  0.2952  0.3116
 1595SOL    HW116421   0.860   2.705   5.915 -0.2170  1.0101  0.8828
 1595SOL    HW216422   0.864   2.824   5.828 -0.1749  0.3163 -0.4169
 1596SOL     OW16423   3.416   0.369   3.733 -0.6197  0.3517 -0.6795
 1596SOL    HW116424   3.414   0.345   3.825 -0.0521  0.2704 -0.6869
 1596SOL    HW216425   3.510   0.378   3.718 -0.3987  0.3613  0.7449
 1597SOL     OW16426   4.590   2.818   4.023 -0.4429 -0.1665 -0.0755
 1597SOL    HW116427   4.543   2.897   4.051 -0.1843 -0.0439  0.0210
 1597SOL    HW216428   4.522   2.779   3.970 -0.0989 -1.9259  0.7926
 1598SOL     OW16429   2.894   4.296   2.328  0.8500 -0.2468 -0.5164
 1598SOL    HW116430   2.940   4.245   2.261 -0.2583  0.3345 -1.7182
 1598SOL    HW216431   2.933   4.256   2.405  0.9887 -1.1447 -1.0564
 1599SOL     OW16432   1.560   0.229   4.420 -0.1543  0.0880 -0.4148
 1599SOL    HW116433   1.486   0.232   4.358 -2.3232 -1.0481  2.1128
 1599SOL    HW216434   1.620   0.164   4.384 -1.2109 -1.4552  0.6285
 1600SOL     OW16435   1.701   2.819   3.462 -0.0380  0.1574  0.5375
 1600SOL    HW116436   1.680   2.902   3.503 -0.9631  0.5629 -0.7357
 1600SOL    HW216437   1.743   2.840   3.379  0.9128 -1.0376  0.7109
 1601SOL     OW16438   2.850   0.774   4.621  0.7690  0.1765  0.5131
 1601SOL    HW116439   2.925   0.832   4.629  0.2656  0.7124  1.3842
 1601SOL    HW216440   2.883   0.691   4.656 -0.9971 -0.7993 -0.1175
 1602SOL     OW16441   1.223   0.590   2.251 -0.3525  0.4650 -0.3130
 1602SOL    HW116442   1.293   0.524   2.258  1.1979  2.1269  0.0217
 1602SOL    HW216443   1.259   0.641   2.324  0.4796  1.7798 -1.6405
 1603SOL     OW16444   3.977   4.705   7.393 -0.1045  0.1592  0.1603
 1603SOL    HW116445   4.018   0.031   7.332 -1.1814 -1.2011 -1.8992
 1603SOL    HW216446   4.018   0.003   7.474  0.6735 -2.0232  0.6672
 1604SOL     OW16447   2.053   3.075   5.418  0.5473 -0.3217 -0.2261
 1604SOL    HW116448   1.975   3.118   5.383  1.0476 -0.7983 -1.9181
 1604SOL    HW216449   2.042   3.097   5.511  0.8659 -0.3580 -0.1794
 1605SOL     OW16450   4.076   0.184   7.252 -0.1516  0.1733 -0.4121
 1605SOL    HW116451   4.168   0.158   7.247 -0.2964 -0.7379  1.5550
 1605SOL    HW216452   4.084   0.261   7.308  1.4208 -0.1934 -0.1282
 1606SOL     OW16453   2.680   4.213   7.841 -0.2670  0.1740  0.4736
 1606SOL    HW116454   2.641   4.267   7.773  0.4311 -2.6159 -2.1014
 1606SOL    HW216455   2.601   4.195   7.893 -1.0441  2.9220  0.2365
 1607SOL     OW16456   0.369   3.587   5.688 -0.4039 -0.0389 -0.2255
 1607SOL    HW116457   0.282   3.621   5.663 -0.4397  0.1550  0.1550
 1607SOL    HW216458   0.372   3.523   5.617  0.5803 -0.8275  0.5288
 1608SOL     OW16459   1.978   3.363  17.463 -0.6939  0.0622 -0.0407
 1608SOL    HW116460   2.018   3.431  17.409 -1.4369 -1.0922 -2.0208
 1608SOL    HW216461   1.910   3.332  17.404  0.1901 -1.4095 -0.2820
 1609SOL     OW16462   1.638   0.928  14.807  0.2427  0.0502 -0.0746
 1609SOL    HW116463   1.705   0.996  14.812 -2.8111  3.1331 -0.9062
 1609SOL    HW216464   1.570   0.968  14.861 -0.2308 -0.7111 -0.1008
 1610SOL     OW16465   0.292   3.249   8.124 -0.0607  0.2215  0.5790
 1610SOL    HW116466   0.305   3.234   8.030 -0.0939  0.8301  0.4782
 1610SOL    HW216467   0.236   3.173   8.141  0.2781 -0.5892 -1.8423
 1611SOL     OW16468   1.060   2.360  16.030  0.2640 -0.2393  0.5431
 1611SOL    HW116469   0.991   2.343  15.966  0.9341 -0.2643 -0.1763
 1611SOL    HW216470   1.044   2.290  16.093  1.5842  0.3269  1.5172
 1612SOL     OW16471   0.471   0.693  14.450 -0.3223  0.3853 -0.7404
 1612SOL    HW116472   0.390   0.650  14.422  0.3174 -1.1006 -0.3081
 1612SOL    HW216473   0.441   0.749  14.521 -0.0294  0.5272 -0.7304
 1613SOL     OW16474   1.905   0.539  17.618  0.2010 -0.3615 -0.2072
 1613SOL    HW116475   1.936   0.627  17.596 -2.1851  0.2884 -0.9606
 1613SOL    HW216476   1.890   0.495  17.535  0.0359 -0.5362 -0.0849
 1614SOL     OW16477   2.009   1.486  14.317  0.5490 -0.0728 -0.8524
 1614SOL    HW116478   1.949   1.465  14.388  1.5271 -1.5552 -0.4535
 1614SOL    HW216479   2.018   1.404  14.268 -0.6239 -0.5343 -0.2811
 1615SOL     OW16480   1.373   2.482  11.829 -0.0646  0.0282 -1.0173
 1615SOL    HW116481   1.416   2.563  11.804 -0.2988 -0.6060 -3.4961
 1615SOL    HW216482   1.343   2.508  11.917  2.0745 -5.2321  1.2712
 1616SOL     OW16483   1.960   4.537   5.732 -0.0146 -0.1113  0.3615
 1616SOL    HW116484   1.935   4.628   5.745 -1.1720 -0.3022 -0.5889
 1616SOL    HW216485   1.903   4.509   5.660  1.1117 -1.7443  0.0965
 1617SOL     OW16486   3.439   4.586  16.234  0.5144  0.4227  0.2263
 1617SOL    HW116487   3.465   4.548  16.318 -0.8122 -0.8220  0.0820
 1617SOL    HW216488   3.521   4.621  16.200  1.2970 -2.1150 -0.4854
 1618SOL     OW16489   0.968   2.458   4.310 -0.0500  0.3421 -0.8673
 1618SOL    HW116490   0.980   2.468   4.405 -0.2447 -2.4063 -0.5604
 1618SOL    HW216491   1.019   2.380   4.290 -1.6225 -0.5879 -1.2795
 1619SOL     OW16492   1.938   1.013   3.988 -0.2562 -0.2678 -0.2169
 1619SOL    HW116493   1.946   0.923   3.956 -2.9501 -0.4268 -0.4392
 1619SOL    HW216494   2.031   1.036   3.990 -0.2594 -0.2826  0.0260
 1620SOL     OW16495   0.607   0.944  17.483  0.3329 -0.0031 -0.1473
 1620SOL    HW116496   0.577   0.857  17.456 -0.3607 -0.2365  1.3168
 1620SOL    HW216497   0.526   0.987  17.512  0.7931  1.6477 -1.3196
 1621SOL     OW16498   0.178   2.518  12.436  0.0821 -0.0635 -0.1948
 1621SOL    HW116499   0.082   2.515  12.427  0.1537 -2.8494 -0.2063
 1621SOL    HW216500   0.197   2.594  12.382  0.0418 -0.4537 -0.7636
 1622SOL     OW16501   3.811   2.190   2.688  0.1158 -0.5732 -0.0776
 1622SOL    HW116502   3.734   2.134   2.681  1.6045 -2.4807 -1.3213
 1622SOL    HW216503   3.843   2.174   2.777 -1.3798  0.2033  0.5839
 1623SOL     OW16504   2.284   0.506  16.395 -0.1077  0.1949 -0.1476
 1623SOL    HW116505   2.254   0.483  16.483  3.8999 -0.6900  0.9771
 1623SOL    HW216506   2.222   0.577  16.378  0.3865  0.6614  0.0459
 1624SOL     OW16507   2.356   2.229   9.537 -0.0293 -0.4810  0.0810
 1624SOL    HW116508   2.406   2.287   9.481 -2.4843  1.6975  0.1352
 1624SOL    HW216509   2.349   2.272   9.623  1.6166  0.0165 -0.0509
 1625SOL     OW16510   4.254   2.022   5.459  0.0947 -0.5649 -0.6923
 1625SOL    HW116511   4.213   2.107   5.474 -0.6939 -1.2473  0.9698
 1625SOL    HW216512   4.329   2.041   5.402  0.5430  0.9816  0.4234
 1626SOL     OW16513   0.180   2.035   3.148  0.2488 -0.4136  0.5328
 1626SOL    HW116514   0.162   2.074   3.062  0.1952  0.0341  0.7456
 1626SOL    HW216515   0.274   2.043   3.160  0.3435  1.4825 -1.4473
 1627SOL     OW16516   2.821   3.284   3.487  0.6746 -0.0843  0.1699
 1627SOL    HW116517   2.843   3.223   3.558  1.4387 -0.2903 -0.2517
 1627SOL    HW216518   2.726   3.298   3.493  0.3431 -1.6969 -1.2500
 1628SOL     OW16519   2.296   3.146   5.316  0.0748 -0.2290  0.5543
 1628SOL    HW116520   2.226   3.084   5.334 -0.2970  0.2337  0.6927
 1628SOL    HW216521   2.340   3.108   5.239  0.4453 -3.1396  2.2027
 1629SOL     OW16522   0.170   0.552   3.874  0.3585 -0.1004 -0.3939
 1629SOL    HW116523   0.254   0.528   3.836  0.9595 -1.7234  1.9179
 1629SOL    HW216524   0.113   0.565   3.799  1.3117  0.3067 -1.0376
 1630SOL     OW16525   0.221   0.510   2.425  0.2993 -0.8333  0.5910
 1630SOL    HW116526   0.135   0.550   2.408  1.5274  1.4143 -0.2939
 1630SOL    HW216527   0.252   0.481   2.340  2.5880 -0.8084  1.4139
 1631SOL     OW16528   3.354   0.778   1.955  0.4206  0.0611  0.2837
 1631SOL    HW116529   3.398   0.694   1.971 -0.4750 -0.5658 -0.5547
 1631SOL    HW216530   3.430   0.836   1.958  0.1637  0.4188 -0.2360
 1632SOL     OW16531   3.403   2.636   4.395 -0.6028  0.1983 -0.3561
 1632SOL    HW116532   3.424   2.548   4.363  0.0595 -0.1736  1.1041
 1632SOL    HW216533   3.357   2.614   4.476  2.5247 -0.0167  1.3544
 1633SOL     OW16534   3.074   1.327   0.518  0.0845 -0.3178 -0.3794
 1633SOL    HW116535   3.166   1.339   0.493 -0.3778 -1.4344 -2.6302
 1633SOL    HW216536   3.052   1.419   0.526  1.3794 -0.1044  0.6983
 1634SOL     OW16537   2.999   2.235   2.086 -0.3657  0.0759 -0.2358
 1634SOL    HW116538   2.963   2.154   2.049 -2.7568  1.2839 -0.5642
 1634SOL    HW216539   3.058   2.245   2.011 -1.2573 -1.8199 -1.1869
 1635SOL     OW16540   1.392   2.046   3.520 -0.5122 -0.3507  0.1885
 1635SOL    HW116541   1.457   2.088   3.463 -0.7567 -1.5720 -0.9828
 1635SOL    HW216542   1.413   2.060   3.613 -2.5085  1.5576  0.3413
 1636SOL     OW16543   1.342   2.069  11.391 -0.2037  0.2618  0.0221
 1636SOL    HW116544   1.264   2.070  11.445  0.3880 -0.0074  0.8902
 1636SOL    HW216545   1.405   2.039  11.457 -0.0210  0.6296  0.0150
 1637SOL     OW16546   3.816   0.379   5.476 -0.2238  0.2309 -0.2056
 1637SOL    HW116547   3.848   0.460   5.516  0.8360 -1.1770  1.8255
 1637SOL    HW216548   3.891   0.326   5.505 -0.0957 -0.2627 -1.4673
 1638SOL     OW16549   4.396   4.615   6.712 -0.1789  0.3551  0.1224
 1638SOL    HW116550   4.383   4.577   6.625  0.8431 -1.6308  0.8292
 1638SOL    HW216551   4.310   4.595   6.749  0.5581  0.9897  2.1413
 1639SOL     OW16552   1.690   3.308   7.433  1.0227 -0.0470  0.1653
 1639SOL    HW116553   1.722   3.358   7.358 -0.1227  1.2734  0.5594
 1639SOL    HW216554   1.665   3.376   7.496  0.8181 -0.2598  0.3128
 1640SOL     OW16555   2.263   0.941   7.020 -0.3750 -0.6276 -0.4576
 1640SOL    HW116556   2.261   0.876   7.091  0.3119  1.4275  1.4615
 1640SOL    HW216557   2.188   0.905   6.974  0.1478 -0.6061 -1.3285
 1641SOL     OW16558   1.365   2.752   4.615 -0.3457 -0.1612 -0.0869
 1641SOL    HW116559   1.401   2.663   4.624  0.2258  0.1734  0.9063
 1641SOL    HW216560   1.287   2.750   4.671 -0.6861  0.7908 -0.5369
 1642SOL     OW16561   1.744   0.341   9.033 -0.9446  0.5271 -0.2107
 1642SOL    HW116562   1.658   0.355   9.073  0.2658  3.4258  1.3269
 1642SOL    HW216563   1.724   0.371   8.944  0.2736 -1.0417 -1.0210
 1643SOL     OW16564   4.702   3.859   9.537  0.2604 -0.1268  0.2301
 1643SOL    HW116565   4.624   3.818   9.573  0.2342 -1.7820 -1.6949
 1643SOL    HW216566   4.664   3.943   9.513 -0.0714 -1.0766 -2.5144
 1644SOL     OW16567   4.180   4.454   2.599  0.0397 -0.1745 -0.8313
 1644SOL    HW116568   4.157   4.473   2.690  0.1455 -1.6076 -0.5079
 1644SOL    HW216569   4.222   4.368   2.603 -0.5841 -0.4658 -0.6432
 1645SOL     OW16570   0.755   2.749   7.808  0.2608 -0.9654  0.2249
 1645SOL    HW116571   0.779   2.787   7.893 -1.0835  0.2922  0.0442
 1645SOL    HW216572   0.775   2.657   7.822 -0.7705 -1.2147  0.0203
 1646SOL     OW16573   0.064   4.331  17.388 -0.3732  0.4728  0.0635
 1646SOL    HW116574   0.097   4.395  17.325  2.4911 -1.9527 -0.9044
 1646SOL    HW216575   0.104   4.254  17.347  2.4690  1.5003  0.9097
 1647SOL     OW16576   1.246   4.135   2.457 -0.1672  0.0474 -0.6552
 1647SOL    HW116577   1.172   4.149   2.517  1.4457 -0.1940  1.3679
 1647SOL    HW216578   1.278   4.224   2.446  0.5291 -0.0727  0.5177
 1648SOL     OW16579   0.595   1.943   5.358 -0.3765  0.2551  0.4692
 1648SOL    HW116580   0.615   1.960   5.449 -0.9573  1.2422  0.4148
 1648SOL    HW216581   0.502   1.962   5.343 -0.0511  2.5994  1.4872
 1649SOL     OW16582   1.658   0.585   3.662 -0.2857 -0.4850  0.0766
 1649SOL    HW116583   1.736   0.637   3.682  0.4330 -1.2717 -0.6573
 1649SOL    HW216584   1.702   0.507   3.628  1.0740  0.0589  0.5793
 1650SOL     OW16585   2.640   2.215   4.380 -0.3675 -0.1545  0.0696
 1650SOL    HW116586   2.647   2.121   4.397  0.1964 -0.2762 -0.8257
 1650SOL    HW216587   2.547   2.222   4.397 -0.1848 -3.3707  2.3467
 1651SOL     OW16588   3.300   3.672   1.135 -0.5082  0.6278 -0.2027
 1651SOL    HW116589   3.346   3.694   1.216  1.2937 -0.9715 -0.7685
 1651SOL    HW216590   3.342   3.590   1.108 -2.6748 -0.6212  0.1855
 1652SOL     OW16591   1.493   4.568   4.589  0.1387  0.0796 -0.3205
 1652SOL    HW116592   1.485   4.532   4.677 -0.8070 -0.0565 -0.4620
 1652SOL    HW216593   1.411   4.535   4.552 -0.8425  2.6245 -0.4508
 1653SOL     OW16594   0.001   1.509   6.816 -0.3328 -0.1622 -0.2983
 1653SOL    HW116595   0.080   1.520   6.869  0.2095 -0.2516 -1.0916
 1653SOL    HW216596   0.016   1.576   6.749 -0.8513  0.9141  0.6690
 1654SOL     OW16597   3.474   3.106   4.753  0.4737 -0.2936  0.1378
 1654SOL    HW116598   3.417   3.030   4.768  1.1012 -0.8404 -0.2231
 1654SOL    HW216599   3.425   3.183   4.781  0.0949 -1.3333  2.3789
 1655SOL     OW16600   4.514   4.386  16.553 -0.5471  0.0757  0.5385
 1655SOL    HW116601   4.447   4.336  16.600 -1.4513  0.3651 -0.4542
 1655SOL    HW216602   4.533   4.464  16.606  0.4158 -0.1437  0.5252
 1656SOL     OW16603   3.857   0.061   6.682  1.0713 -0.2493  0.1430
 1656SOL    HW116604   3.905   0.027   6.607 -1.3834 -0.4982 -1.2932
 1656SOL    HW216605   3.863   4.728   6.749 -3.8456 -2.0020 -1.2226
 1657SOL     OW16606   3.894   0.452   7.994  0.3983 -0.4037  0.4632
 1657SOL    HW116607   3.910   0.501   7.913  1.8562 -1.8526 -0.1288
 1657SOL    HW216608   3.980   0.409   7.999  2.1926  3.3223  2.0408
 1658SOL     OW16609   2.781   1.105   4.094  0.1572  0.7237  0.0203
 1658SOL    HW116610   2.728   1.160   4.036 -0.0778  0.2270 -0.2300
 1658SOL    HW216611   2.772   1.151   4.178 -0.8840 -1.0019  0.8554
 1659SOL     OW16612   0.186   2.057  11.460  0.2367  0.3895  0.2458
 1659SOL    HW116613   0.269   2.026  11.497 -0.1264 -0.2518  0.5271
 1659SOL    HW216614   0.133   2.011  11.524  1.6811 -1.5124  0.0966
 1660SOL     OW16615   4.525   1.038   2.237 -0.5360  0.1211  0.1826
 1660SOL    HW116616   4.445   1.043   2.185 -0.3267 -0.6239 -0.2151
 1660SOL    HW216617   4.593   1.010   2.176 -1.7480 -0.7476 -0.7660
 1661SOL     OW16618   1.093   1.283   5.929  0.1210  0.1774 -0.0861
 1661SOL    HW116619   1.117   1.208   5.984  1.0182 -0.2975 -1.1170
 1661SOL    HW216620   0.999   1.296   5.938 -0.0305  0.3012 -1.7629
 1662SOL     OW16621   1.503   2.057   4.915  0.3636  0.4369  0.1795
 1662SOL    HW116622   1.557   2.125   4.955 -1.4776  2.1904 -0.2955
 1662SOL    HW216623   1.450   2.032   4.990  0.4168  2.3969  0.8810
 1663SOL     OW16624   2.662   0.448   0.627 -0.1395  0.3988 -0.1990
 1663SOL    HW116625   2.726   0.502   0.580  0.7471 -0.4777  0.0099
 1663SOL    HW216626   2.708   0.365   0.626 -1.1213 -0.1398 -0.2157
 1664SOL     OW16627   2.876   4.108   2.817  0.0455 -0.2967 -0.1026
 1664SOL    HW116628   2.946   4.069   2.868  0.8755 -0.6591 -1.5056
 1664SOL    HW216629   2.816   4.035   2.801 -0.9103  0.2996  0.7820
 1665SOL     OW16630   2.517   1.140  11.966 -0.0060 -0.0975  0.3550
 1665SOL    HW116631   2.553   1.054  11.945  0.5009 -0.1893  1.6043
 1665SOL    HW216632   2.596   1.192  11.950  0.7441 -0.6813  2.1593
 1666SOL     OW16633   3.821   2.984   9.817  0.9674 -0.5335 -0.4947
 1666SOL    HW116634   3.744   2.996   9.762 -0.3117  1.4207  1.6988
 1666SOL    HW216635   3.858   2.897   9.799 -0.4656 -0.8887 -1.7253
 1667SOL     OW16636   2.523   1.121   8.078  0.1165 -0.5297  0.0526
 1667SOL    HW116637   2.516   1.065   8.156  0.4160 -1.1118 -0.3414
 1667SOL    HW216638   2.429   1.117   8.061  0.5872  2.4489 -3.1490
 1668SOL     OW16639   4.522   2.148  12.433 -0.5847  0.5244 -0.3029
 1668SOL    HW116640   4.563   2.068  12.467 -0.5499  0.0348 -1.5043
 1668SOL    HW216641   4.591   2.192  12.385 -0.9342  0.4950 -0.8295
 1669SOL     OW16642   1.784   4.177   7.236 -0.1157 -0.1353 -0.3234
 1669SOL    HW116643   1.717   4.162   7.303  0.8452 -0.7949  0.4953
 1669SOL    HW216644   1.855   4.131   7.280  0.4200  0.6396 -0.3855
 1670SOL     OW16645   4.404   3.510   1.267 -0.4120 -0.2326 -0.5057
 1670SOL    HW116646   4.473   3.544   1.210 -1.3771 -0.5589 -1.8728
 1670SOL    HW216647   4.339   3.579   1.258 -0.7567 -0.6486 -1.2118
 1671SOL     OW16648   4.193   1.056   4.059  0.1638 -0.2894 -0.3975
 1671SOL    HW116649   4.145   1.087   4.135  0.5498  1.6938 -0.9585
 1671SOL    HW216650   4.125   1.040   3.994  1.7978 -1.2445 -1.8912
 1672SOL     OW16651   1.879   1.462  12.988 -0.2375  0.0302  0.2572
 1672SOL    HW116652   1.886   1.553  13.017  2.4546 -0.6096  1.5961
 1672SOL    HW216653   1.806   1.475  12.928 -1.4380 -0.6245  1.5725
 1673SOL     OW16654   2.172   1.216   4.249  0.1067 -0.1190 -0.0537
 1673SOL    HW116655   2.192   1.234   4.157 -0.5323  0.8763 -0.0033
 1673SOL    HW216656   2.249   1.172   4.284  1.4891 -0.8393 -4.0270
 1674SOL     OW16657   3.764   4.437   6.104 -0.4563  0.3736  0.0436
 1674SOL    HW116658   3.859   4.436   6.098 -0.3791  1.4200  1.2633
 1674SOL    HW216659   3.763   4.510   6.165  0.0593  0.1015  0.3776
 1675SOL     OW16660   2.040   0.072  10.299 -0.7361  0.2952 -0.8072
 1675SOL    HW116661   1.989   0.011  10.352 -0.7671 -0.7379 -2.0441
 1675SOL    HW216662   1.981   0.114  10.236 -1.2498 -0.0395 -0.5519
 1676SOL     OW16663   3.782   3.977   2.407  0.2127  0.2821  0.3289
 1676SOL    HW116664   3.774   4.070   2.388  1.5090  0.7437  2.0417
 1676SOL    HW216665   3.841   3.940   2.341 -0.4969  1.7226 -1.1153
 1677SOL     OW16666   0.352   2.931  11.746  0.1691  0.5433  0.6940
 1677SOL    HW116667   0.278   2.918  11.805  1.2445 -1.7802  1.5120
 1677SOL    HW216668   0.332   3.019  11.714 -1.5588  0.6184  1.9895
 1678SOL     OW16669   2.000   3.482  17.690 -0.6125 -0.0204  0.8892
 1678SOL    HW116670   1.988   3.435  17.607 -2.5257  3.2726 -0.6923
 1678SOL    HW216671   1.992   3.401   0.001 -1.3917 -0.0588  0.7140
 1679SOL     OW16672   0.872   1.440  17.130  0.2413 -0.1941  0.9399
 1679SOL    HW116673   0.861   1.372  17.064 -0.1546 -0.5521  1.3780
 1679SOL    HW216674   0.918   1.504  17.076 -0.5513  1.3217  2.0511
 1680SOL     OW16675   1.292   0.624   7.664  0.0665  0.1743 -0.5599
 1680SOL    HW116676   1.294   0.530   7.646 -0.8380 -0.2453  1.5586
 1680SOL    HW216677   1.199   0.635   7.685  0.5049 -1.5363  2.3196
 1681SOL     OW16678   0.404   0.761   7.918  0.7667  0.0831 -0.1935
 1681SOL    HW116679   0.363   0.679   7.945  0.0591 -0.3625 -2.6047
 1681SOL    HW216680   0.485   0.757   7.969  1.5676  0.9288 -1.3996
 1682SOL     OW16681   4.130   1.289  17.692  0.1368 -0.1282 -0.1618
 1682SOL    HW116682   4.162   1.233   0.022  0.7914 -0.0690 -0.4098
 1682SOL    HW216683   4.071   1.231  17.645 -0.0664  0.8492 -1.1106
 1683SOL     OW16684   1.305   2.495  15.678  0.1176 -0.4189 -0.2252
 1683SOL    HW116685   1.209   2.498  15.676  0.0940  0.9355  2.5552
 1683SOL    HW216686   1.321   2.587  15.656 -0.5639 -0.2400  0.0189
 1684SOL     OW16687   3.980   0.869   6.353 -0.5393 -0.6758 -0.0357
 1684SOL    HW116688   3.955   0.780   6.377 -1.1876 -0.5303 -0.1730
 1684SOL    HW216689   3.984   0.868   6.257 -0.0256 -2.1592  0.0159
 1685SOL     OW16690   3.002   2.829   1.088 -0.1802 -0.5133 -0.5455
 1685SOL    HW116691   3.023   2.750   1.138 -2.0280 -0.6628 -0.0041
 1685SOL    HW216692   2.909   2.846   1.097 -0.2851 -0.7464 -1.1859
 1686SOL     OW16693   0.507   0.404   7.636 -0.2758 -0.1977  0.1186
 1686SOL    HW116694   0.446   0.447   7.695  1.0920 -0.2292  1.5514
 1686SOL    HW216695   0.458   0.348   7.576 -0.5181  1.5294 -1.2957
 1687SOL     OW16696   2.009   2.534   4.773  0.4522 -0.4146  0.1051
 1687SOL    HW116697   2.075   2.486   4.725  0.1127 -0.0200 -0.7555
 1687SOL    HW216698   2.052   2.613   4.806  1.1460 -1.0144  0.6298
 1688SOL     OW16699   0.103   4.152  10.768  0.4247  0.0070 -0.0284
 1688SOL    HW116700   0.190   4.187  10.751 -0.0432  0.7539 -0.8604
 1688SOL    HW216701   0.052   4.184  10.694  1.5757  0.5393 -0.5839
 1689SOL     OW16702   0.480   4.204  13.100  0.1888 -0.1526 -0.6133
 1689SOL    HW116703   0.515   4.273  13.044  1.3893  0.1536  0.5091
 1689SOL    HW216704   0.492   4.247  13.185 -0.3872  0.0148 -0.6172
 1690SOL     OW16705   0.283   0.270   8.614 -0.5358  0.2056 -0.2825
 1690SOL    HW116706   0.301   0.318   8.695 -0.3008  1.4660 -1.0835
 1690SOL    HW216707   0.240   0.196   8.656  1.7749 -0.9004  0.1238
 1691SOL     OW16708   3.426   1.477  16.339  0.1627  0.2110 -0.0800
 1691SOL    HW116709   3.389   1.548  16.287  0.1285  1.1616  1.2454
 1691SOL    HW216710   3.514   1.478  16.303  0.0949 -2.6403 -0.3831
 1692SOL     OW16711   0.422   4.090   4.216 -0.7012  0.5348  0.7357
 1692SOL    HW116712   0.416   4.101   4.311  0.2923  0.5039  0.8028
 1692SOL    HW216713   0.357   4.024   4.190 -1.7192  1.0071  2.0487
 1693SOL     OW16714   0.294   1.255   5.673 -0.5913  0.3063 -0.0915
 1693SOL    HW116715   0.273   1.200   5.748 -3.5795 -0.8793 -1.7935
 1693SOL    HW216716   0.216   1.276   5.622 -0.1790  0.5425 -0.6248
 1694SOL     OW16717   2.400   4.664  13.094 -0.4767  0.1815 -0.4190
 1694SOL    HW116718   2.437   4.708  13.171  0.8798  1.5487 -1.8469
 1694SOL    HW216719   2.485   4.636  13.059  0.1111  1.2113  0.2002
 1695SOL     OW16720   1.923   4.067   5.038  0.0309 -0.4267  0.6607
 1695SOL    HW116721   1.833   4.083   5.009  0.1030 -0.2029  0.5607
 1695SOL    HW216722   1.919   3.974   5.063 -1.0275 -1.5011 -3.6066
 1696SOL     OW16723   2.268   3.378   2.824 -0.7128 -0.4367  0.1079
 1696SOL    HW116724   2.279   3.336   2.909  0.8409  1.1909  0.7244
 1696SOL    HW216725   2.181   3.351   2.795 -0.6947  0.0687 -0.4132
 1697SOL     OW16726   0.096   4.367   6.595 -0.5492  0.1427 -0.0722
 1697SOL    HW116727   0.069   4.289   6.645 -4.1726  1.5171  0.1581
 1697SOL    HW216728   0.161   4.339   6.531  1.2687  3.1902  0.4534
 1698SOL     OW16729   2.100   4.621   2.377 -0.2954  0.3323  0.3553
 1698SOL    HW116730   2.174   4.572   2.341 -0.9937 -1.3471  1.2386
 1698SOL    HW216731   2.050   4.555   2.424 -1.0102  0.5330 -0.1175
 1699SOL     OW16732   0.190   3.930   6.103 -0.2539  0.2134  0.4327
 1699SOL    HW116733   0.186   3.838   6.077 -3.4969  0.2156  0.9528
 1699SOL    HW216734   0.183   3.972   6.017  0.4960  0.9559  0.7348
 1700SOL     OW16735   3.149   4.605   6.472 -0.3946 -0.2221  0.1375
 1700SOL    HW116736   3.155   4.674   6.406 -1.2029 -1.1133 -0.8708
 1700SOL    HW216737   3.158   4.522   6.425  1.3231 -1.4251  2.5647
 1701SOL     OW16738   3.156   2.040   4.076 -0.0469  0.4062  0.2913
 1701SOL    HW116739   3.101   2.015   4.002 -0.8432 -0.5338  1.2101
 1701SOL    HW216740   3.104   2.007   4.149  2.3538 -3.3480  0.3388
 1702SOL     OW16741   2.515   1.083   6.564  0.3015 -0.1384 -0.1998
 1702SOL    HW116742   2.605   1.091   6.532  0.3491  2.3391  0.5607
 1702SOL    HW216743   2.529   1.019   6.633 -0.5143 -1.6291 -1.4208
 1703SOL     OW16744   0.577   2.287  17.389  0.2128  0.2205 -0.1393
 1703SOL    HW116745   0.529   2.271  17.307 -2.2987 -1.2021  1.6079
 1703SOL    HW216746   0.598   2.198  17.417  0.2950  0.2485 -0.1119
 1704SOL     OW16747   0.558   1.830   9.691 -0.6043 -0.1301 -0.0353
 1704SOL    HW116748   0.569   1.912   9.643  0.7372  0.1348  0.7415
 1704SOL    HW216749   0.554   1.867   9.779 -1.0606  1.2497 -0.6365
 1705SOL     OW16750   2.590   1.594   6.533 -0.7320 -0.2381  0.0106
 1705SOL    HW116751   2.573   1.504   6.561  1.1969 -1.0202 -1.3136
 1705SOL    HW216752   2.653   1.573   6.464 -1.2702  1.2084 -0.9185
 1706SOL     OW16753   3.456   2.381   2.406  0.3942 -0.6748  0.1692
 1706SOL    HW116754   3.424   2.300   2.444 -2.4954  0.2807 -0.2092
 1706SOL    HW216755   3.532   2.401   2.461 -1.2130  1.9094  1.4785
 1707SOL     OW16756   2.541   2.074  16.234  0.4853  0.0088 -0.3261
 1707SOL    HW116757   2.450   2.094  16.253  0.7711  1.1925 -0.2527
 1707SOL    HW216758   2.577   2.096  16.320 -1.6666  1.1305  0.2773
 1708SOL     OW16759   1.817   3.376   9.075  0.3773  0.1021 -0.2681
 1708SOL    HW116760   1.807   3.281   9.081 -0.4660  0.2501  0.5266
 1708SOL    HW216761   1.841   3.395   9.165  1.5823  2.6242 -1.1056
 1709SOL     OW16762   3.653   0.107   8.298 -0.0203 -0.0210  0.1400
 1709SOL    HW116763   3.694   0.193   8.299  0.6106 -0.3236  0.4324
 1709SOL    HW216764   3.612   0.122   8.213  2.8231  2.8041 -0.7100
 1710SOL     OW16765   0.389   3.524  13.691 -0.4917  0.0803 -0.0880
 1710SOL    HW116766   0.405   3.609  13.732 -0.7364 -0.7006  1.6624
 1710SOL    HW216767   0.473   3.478  13.698 -0.6296 -0.4399 -1.8985
 1711SOL     OW16768   3.671   4.572  17.145 -0.0557 -0.5975  0.1936
 1711SOL    HW116769   3.717   4.489  17.153  0.3215 -0.1607  2.3737
 1711SOL    HW216770   3.642   4.557  17.055 -1.7666  0.7329  0.5256
 1712SOL     OW16771   1.434   1.167   5.058 -0.2773  0.1031 -0.4670
 1712SOL    HW116772   1.518   1.151   5.016 -0.3273 -0.6475 -0.2789
 1712SOL    HW216773   1.374   1.100   5.025 -1.8232  1.7790 -1.0533
 1713SOL     OW16774   4.577   4.502  16.319 -0.0620  0.2700  0.1172
 1713SOL    HW116775   4.542   4.434  16.261  0.1179  0.1551  0.1410
 1713SOL    HW216776   4.590   4.447  16.397  2.0289 -0.7090 -0.9052
 1714SOL     OW16777   1.550   1.494  12.592  0.9056  0.0867 -0.6565
 1714SOL    HW116778   1.595   1.409  12.595 -0.3813 -0.6062 -1.4725
 1714SOL    HW216779   1.568   1.524  12.503 -1.4198 -0.3284 -1.2507
 1715SOL     OW16780   4.039   1.059  14.567 -0.4487  0.0853  0.6091
 1715SOL    HW116781   4.015   1.133  14.623 -2.0906 -0.0766  0.1284
 1715SOL    HW216782   3.993   1.073  14.485 -0.0020 -0.4958  0.2599
 1716SOL     OW16783   2.177   3.303   4.154  0.5414 -0.3783 -0.8919
 1716SOL    HW116784   2.130   3.319   4.072 -1.4090  0.4513  0.3746
 1716SOL    HW216785   2.144   3.379   4.202  0.8245  0.3650 -1.8785
 1717SOL     OW16786   0.235   0.196  14.046 -1.1573 -0.4138  0.5629
 1717SOL    HW116787   0.240   0.283  14.005 -3.9861 -0.3277  0.4077
 1717SOL    HW216788   0.285   0.204  14.127 -0.6155  2.2839 -0.0381
 1718SOL     OW16789   2.564   1.276   2.216 -0.8091 -0.0310 -0.1704
 1718SOL    HW116790   2.495   1.262   2.150 -0.7554  1.3496 -0.5149
 1718SOL    HW216791   2.565   1.191   2.260  0.6498  0.3405  0.5029
 1719SOL     OW16792   2.603   1.938   4.244 -0.1204 -0.3323 -0.2086
 1719SOL    HW116793   2.623   1.845   4.230  0.9149  0.0765 -1.4149
 1719SOL    HW216794   2.638   1.979   4.165 -0.0223  1.7645  0.9368
 1720SOL     OW16795   4.090   3.376  16.027  0.4732 -0.3053  0.9867
 1720SOL    HW116796   3.998   3.377  15.999  0.5713 -1.1447  0.6216
 1720SOL    HW216797   4.134   3.405  15.947  2.6813 -0.8266  2.0264
 1721SOL     OW16798   3.060   4.007   4.527 -0.3688  0.7564  0.3544
 1721SOL    HW116799   3.142   4.019   4.574 -0.2014 -1.1939  0.5525
 1721SOL    HW216800   3.021   4.095   4.519 -0.7499  0.5478 -0.1279
 1722SOL     OW16801   4.130   3.922   0.329 -0.0831 -0.4828  0.2235
 1722SOL    HW116802   4.153   4.005   0.372 -2.1184  0.7607 -1.0776
 1722SOL    HW216803   4.078   3.955   0.256 -0.5637  0.9198  1.1858
 1723SOL     OW16804   1.503   4.650   4.248 -0.2996  0.4027  0.0639
 1723SOL    HW116805   1.578   4.591   4.244  0.5789  1.5434 -0.6475
 1723SOL    HW216806   1.436   4.598   4.292  0.4802  0.3007  1.1349
 1724SOL     OW16807   0.720   3.364   3.505  0.2648 -1.4127  0.0724
 1724SOL    HW116808   0.635   3.331   3.534  0.0056  1.5538  2.5690
 1724SOL    HW216809   0.710   3.356   3.410 -1.8981  2.8225 -0.0685
 1725SOL     OW16810   0.603   0.820  16.657  0.0934  0.1154 -0.3669
 1725SOL    HW116811   0.584   0.909  16.688  0.2929  0.3208 -0.8426
 1725SOL    HW216812   0.577   0.823  16.565 -1.6377 -1.2961  0.0906
 1726SOL     OW16813   0.664   2.445   9.988  0.1387  0.1132 -0.6743
 1726SOL    HW116814   0.723   2.436   9.913  1.7623 -1.6147  0.8065
 1726SOL    HW216815   0.626   2.357   9.999  3.2143 -0.9658  1.3932
 1727SOL     OW16816   4.032   2.079  15.046  0.0486  0.1095 -0.0429
 1727SOL    HW116817   3.999   2.097  14.958  2.1223 -4.9178 -1.7814
 1727SOL    HW216818   4.000   2.157  15.092 -0.4217  0.2589 -0.6192
 1728SOL     OW16819   4.060   4.151   4.204  0.0955 -0.4859  0.3267
 1728SOL    HW116820   4.113   4.075   4.229 -1.1836 -1.0960  1.1844
 1728SOL    HW216821   4.035   4.183   4.291  0.0729  1.9129 -0.5570
 1729SOL     OW16822   2.308   4.616   6.306 -0.2092  0.2858  0.1252
 1729SOL    HW116823   2.365   4.556   6.353 -0.0583  0.8604  0.6786
 1729SOL    HW216824   2.341   4.697   6.344  2.0382 -0.9235  0.7359
 1730SOL     OW16825   4.709   1.192   5.083 -0.2140  0.0803 -0.0693
 1730SOL    HW116826   4.642   1.249   5.120  0.1538  1.4503 -1.5229
 1730SOL    HW216827   4.692   1.211   4.991 -0.9996 -0.0277  0.0538
 1731SOL     OW16828   4.069   0.205   3.333 -0.0918 -0.1929  0.3613
 1731SOL    HW116829   4.053   0.175   3.422  0.7051  1.6489  1.1302
 1731SOL    HW216830   4.155   0.246   3.343  0.2025 -1.1456  1.7529
 1732SOL     OW16831   0.395   1.125  14.785  0.2136 -0.0906 -0.0822
 1732SOL    HW116832   0.463   1.192  14.776 -0.9859  1.6039  3.1740
 1732SOL    HW216833   0.319   1.183  14.782 -0.6020 -1.1409  0.3784
 1733SOL     OW16834   2.810   1.480  10.616 -0.5452 -0.3003 -0.0434
 1733SOL    HW116835   2.836   1.565  10.581  0.7468 -0.9290 -0.6512
 1733SOL    HW216836   2.718   1.489  10.594 -0.2879  0.9612 -0.6269
 1734SOL     OW16837   2.797   1.732   3.302  0.0042  0.4195  0.0679
 1734SOL    HW116838   2.865   1.713   3.237 -0.2584 -0.0310 -0.0765
 1734SOL    HW216839   2.765   1.643   3.316  0.0834  0.7196  2.0483
 1735SOL     OW16840   2.130   1.192   8.364 -0.1050 -0.6438  0.2935
 1735SOL    HW116841   2.210   1.153   8.399 -0.5517 -0.3828  1.6290
 1735SOL    HW216842   2.134   1.279   8.404 -2.4210 -0.6348  0.4681
 1736SOL     OW16843   1.356   3.118   6.520  0.1655  0.2991 -0.7616
 1736SOL    HW116844   1.302   3.126   6.599 -0.3047 -1.5695 -0.9109
 1736SOL    HW216845   1.382   3.209   6.504 -0.0377  0.4140 -0.4540
 1737SOL     OW16846   0.483   4.221   5.842 -0.3185 -0.1752 -0.2642
 1737SOL    HW116847   0.482   4.315   5.827  1.0537 -0.2660 -0.9587
 1737SOL    HW216848   0.528   4.226   5.927  0.8146 -0.5399 -0.8427
 1738SOL     OW16849   2.227   2.935  12.730 -0.4585 -0.2432  0.5209
 1738SOL    HW116850   2.176   2.854  12.735  0.7854 -0.8976  2.9140
 1738SOL    HW216851   2.246   2.931  12.636 -0.0546  3.4290  0.4704
 1739SOL     OW16852   0.379   3.433   6.539  0.2665  0.1224 -0.2507
 1739SOL    HW116853   0.315   3.504   6.545 -0.4141 -0.6187  1.2144
 1739SOL    HW216854   0.447   3.465   6.599 -0.3060  0.2585  0.3185
 1740SOL     OW16855   1.451   0.150   8.109 -0.1468 -0.2852  0.2496
 1740SOL    HW116856   1.518   0.101   8.061 -0.7939 -0.7612 -0.1701
 1740SOL    HW216857   1.424   0.217   8.047  0.5284  0.6441  0.9555
 1741SOL     OW16858   4.338   0.453   3.672 -0.0617 -0.4985 -0.3744
 1741SOL    HW116859   4.325   0.543   3.702 -0.4323 -0.8061  0.3787
 1741SOL    HW216860   4.385   0.413   3.745 -0.7822  0.3996  0.5992
 1742SOL     OW16861   1.533   4.610  10.910 -0.2307 -0.6947  0.2790
 1742SOL    HW116862   1.500   4.581  10.995 -1.0243 -2.5309 -0.6596
 1742SOL    HW216863   1.533   4.530  10.857 -0.6528  0.0837 -0.8862
 1743SOL     OW16864   3.448   1.695  17.610  1.0722 -0.2593  0.0471
 1743SOL    HW116865   3.489   1.629  17.555 -0.0313 -1.0793  0.2083
 1743SOL    HW216866   3.513   1.765  17.603  0.7392  0.1200  0.7641
 1744SOL     OW16867   2.989   3.410   8.008 -0.1647  0.2527 -0.2548
 1744SOL    HW116868   3.068   3.464   8.000 -1.2985  1.8365 -0.8323
 1744SOL    HW216869   2.939   3.466   8.067 -3.5922 -1.2491 -1.7207
 1745SOL     OW16870   0.925   2.700   8.407 -0.2799 -0.5068 -0.8063
 1745SOL    HW116871   0.989   2.751   8.457  0.4025 -0.8485 -1.3402
 1745SOL    HW216872   0.989   2.633   8.382 -0.4068 -0.7244 -0.5561
 1746SOL     OW16873   4.033   0.293  12.021 -0.1963 -0.4358  0.4370
 1746SOL    HW116874   4.099   0.223  12.026  0.0540  0.0192  3.4657
 1746SOL    HW216875   4.065   0.343  12.096 -1.3359  0.7519  0.1323
 1747SOL     OW16876   1.661   3.930   8.477 -0.2372 -0.0260 -0.8608
 1747SOL    HW116877   1.575   3.919   8.518 -1.1814  0.1334 -2.8246
 1747SOL    HW216878   1.635   3.988   8.405 -0.2041 -0.1634 -0.9825
 1748SOL     OW16879   1.300   3.783   9.485  0.1054  0.3617 -0.7576
 1748SOL    HW116880   1.214   3.822   9.467 -0.8886 -1.5368 -0.1644
 1748SOL    HW216881   1.287   3.767   9.579  0.0609  1.4857 -0.5745
 1749SOL     OW16882   4.338   2.973  12.741 -0.0722 -0.2079 -0.1696
 1749SOL    HW116883   4.431   2.993  12.732 -0.8514  2.9498 -1.1022
 1749SOL    HW216884   4.343   2.906  12.809  1.3940 -0.9674 -1.0509
 1750SOL     OW16885   2.432   0.143   3.186 -0.5639  0.1912 -0.3379
 1750SOL    HW116886   2.463   0.081   3.253  1.9279  0.4780 -1.2211
 1750SOL    HW216887   2.518   0.181   3.167 -1.3354  1.4147 -1.3245
 1751SOL     OW16888   4.279   2.299   1.563 -0.6822 -0.4503 -0.5069
 1751SOL    HW116889   4.323   2.218   1.590 -1.7866  0.0445  2.6864
 1751SOL    HW216890   4.352   2.357   1.583 -3.0185  1.1508  3.2591
 1752SOL     OW16891   3.708   1.004  16.018 -0.2150  0.3021 -0.0713
 1752SOL    HW116892   3.773   0.935  16.006  0.7291  1.1709  0.0892
 1752SOL    HW216893   3.696   1.002  16.113  2.1642  1.3353  0.2568
 1753SOL     OW16894   2.073   1.201   3.342 -0.4931 -0.4259 -0.3200
 1753SOL    HW116895   1.990   1.154   3.338 -1.1713  0.8695 -1.1475
 1753SOL    HW216896   2.062   1.245   3.258  0.7801  0.8064  0.1525
 1754SOL     OW16897   3.273   3.238   6.361  0.8300 -0.4183  0.0483
 1754SOL    HW116898   3.186   3.227   6.400  0.3006 -0.3999 -1.1239
 1754SOL    HW216899   3.276   3.162   6.304  3.1219 -0.6058  0.4414
 1755SOL     OW16900   4.500   3.186   6.820 -0.2364  0.5910 -0.0817
 1755SOL    HW116901   4.410   3.159   6.802 -1.0844  3.2677  0.0568
 1755SOL    HW216902   4.509   3.245   6.895  1.5679 -0.4823  0.5363
 1756SOL     OW16903   4.436   0.535   7.267 -0.4819 -0.0791  0.3537
 1756SOL    HW116904   4.452   0.573   7.180 -0.0702  1.1427  0.9646
 1756SOL    HW216905   4.513   0.479   7.278 -1.2083 -1.4398 -1.3931
 1757SOL     OW16906   3.624   1.482   3.021 -0.2359 -0.1965  0.6545
 1757SOL    HW116907   3.592   1.568   2.994  2.6371  0.7386  0.2896
 1757SOL    HW216908   3.560   1.475   3.092 -0.4952  1.2599  0.5699
 1758SOL     OW16909   0.972   4.218   6.519  0.1437  0.1058 -0.1485
 1758SOL    HW116910   1.043   4.249   6.575 -1.1807  0.8435  1.1146
 1758SOL    HW216911   0.900   4.271   6.553 -0.1252  0.9173 -1.9873
 1759SOL     OW16912   0.290   2.434   3.753 -0.6491  0.2476 -0.4127
 1759SOL    HW116913   0.271   2.363   3.815  0.1416  2.1139  1.9496
 1759SOL    HW216914   0.269   2.383   3.675  0.7593  0.1455 -0.7191
 1760SOL     OW16915   0.455   2.778   0.298 -0.7249 -0.0243 -0.2741
 1760SOL    HW116916   0.442   2.711   0.231 -2.0301  0.8231 -0.8430
 1760SOL    HW216917   0.547   2.802   0.288 -1.2702  2.2510  0.3259
 1761SOL     OW16918   2.288   0.983   4.549 -0.0463  0.2049 -0.4918
 1761SOL    HW116919   2.335   0.905   4.522  1.3498  1.2747 -1.1905
 1761SOL    HW216920   2.309   1.035   4.471  2.1576  0.3536  0.1923
 1762SOL     OW16921   4.052   3.734   3.024  0.3134  0.8534  0.2315
 1762SOL    HW116922   3.999   3.814   3.023 -1.1490 -0.1141  0.2626
 1762SOL    HW216923   4.127   3.778   2.984  0.3981  0.2272 -0.2891
 1763SOL     OW16924   1.418   3.117   3.075  0.1079  0.3771  0.2719
 1763SOL    HW116925   1.378   3.104   2.989  1.8033 -0.9417 -0.3204
 1763SOL    HW216926   1.342   3.099   3.130  0.5515  1.6737  1.3138
 1764SOL     OW16927   0.859   4.338  16.146  0.0271  0.4404 -0.2089
 1764SOL    HW116928   0.899   4.417  16.182 -0.8462  0.2126  1.2707
 1764SOL    HW216929   0.802   4.310  16.218  0.0947 -3.0709 -1.5207
 1765SOL     OW16930   0.005   3.605   1.373  0.3577  0.1648 -0.1264
 1765SOL    HW116931   4.692   3.576   1.296 -0.6915 -1.4322  1.1207
 1765SOL    HW216932   0.063   3.531   1.391  0.6192  0.0587 -1.3955
 1766SOL     OW16933   1.829   1.130   6.170 -0.2442  0.6518 -0.6387
 1766SOL    HW116934   1.791   1.165   6.251  0.9199  1.0131 -0.2509
 1766SOL    HW216935   1.890   1.076   6.220  0.7457  0.1961 -2.3437
 1767SOL     OW16936   0.823   1.267   3.065 -0.2395  0.2530 -0.3878
 1767SOL    HW116937   0.858   1.228   2.984  0.8271  1.2922 -0.4335
 1767SOL    HW216938   0.763   1.197   3.090 -1.8623  1.6113 -0.5569
 1768SOL     OW16939   2.971   3.778  13.495 -0.0205 -0.5191 -0.0716
 1768SOL    HW116940   2.877   3.770  13.480  0.4282 -0.4147 -2.8619
 1768SOL    HW216941   2.990   3.697  13.543  1.3447  0.0818  0.4232
 1769SOL     OW16942   0.089   3.577   9.079 -0.3270  0.1387 -0.0869
 1769SOL    HW116943   0.034   3.577   9.157  2.1322  0.0371  1.6559
 1769SOL    HW216944   0.052   3.522   9.009  1.3888 -1.6665  0.4439
 1770SOL     OW16945   4.006   0.695   0.296 -0.0254  0.3845  0.1126
 1770SOL    HW116946   3.925   0.746   0.304 -0.5382 -0.3772 -0.2515
 1770SOL    HW216947   3.990   0.647   0.215 -0.8121 -0.0496  0.5324
 1771SOL     OW16948   2.257   3.339  10.967 -0.2048 -0.5644 -0.3166
 1771SOL    HW116949   2.209   3.406  11.016  1.5052  0.2595  0.2396
 1771SOL    HW216950   2.306   3.393  10.904 -0.9669 -0.2894 -0.6715
 1772SOL     OW16951   2.192   1.962  14.613 -0.3138  0.2667  0.7601
 1772SOL    HW116952   2.260   1.895  14.621  3.3177  3.7659 -1.0917
 1772SOL    HW216953   2.256   2.032  14.608 -0.1362  0.0306 -0.4088
 1773SOL     OW16954   3.730   1.227   3.025  0.0684 -0.4012 -0.1809
 1773SOL    HW116955   3.818   1.212   3.059  0.0424  0.6436  0.3515
 1773SOL    HW216956   3.721   1.322   3.036 -1.8163 -0.6073  0.0758
 1774SOL     OW16957   2.140   4.075   4.851  0.2870 -0.3800  0.0298
 1774SOL    HW116958   2.045   4.064   4.842  0.0529  1.8757 -0.3024
 1774SOL    HW216959   2.145   4.068   4.947 -1.2541  1.7329  0.2728
 1775SOL     OW16960   1.892   4.158   2.358 -1.0017  0.0741  0.0870
 1775SOL    HW116961   1.901   4.086   2.295  4.4517 -0.2179  1.1965
 1775SOL    HW216962   1.880   4.114   2.442  1.3791 -1.0217 -0.1358
 1776SOL     OW16963   2.105   1.229   2.095  0.1893  0.2121  0.0857
 1776SOL    HW116964   2.073   1.229   2.185 -0.2598  2.2678 -0.0854
 1776SOL    HW216965   2.047   1.160   2.062  0.4526 -0.2766  0.6327
 1777SOL     OW16966   2.198   3.585  11.054 -0.3962  0.2802 -0.3513
 1777SOL    HW116967   2.151   3.655  11.100 -1.3256 -0.1005 -0.7239
 1777SOL    HW216968   2.286   3.613  11.078 -0.0161 -1.4779  0.2596
 1778SOL     OW16969   0.358   2.846   4.586 -0.1825  0.1361 -0.3075
 1778SOL    HW116970   0.316   2.774   4.633  0.0324  0.5582  0.5257
 1778SOL    HW216971   0.290   2.892   4.538  0.0704  2.4518  1.5612
 1779SOL     OW16972   2.859   4.169   2.021 -0.1798 -0.4230 -0.1028
 1779SOL    HW116973   2.914   4.240   1.988 -1.6477  1.4145  1.4265
 1779SOL    HW216974   2.778   4.220   2.027  0.2695  0.6030 -2.7686
 1780SOL     OW16975   4.676   3.973   7.665  0.2419  0.1053 -0.6770
 1780SOL    HW116976   4.633   3.971   7.751 -0.8508 -1.3782 -1.2540
 1780SOL    HW216977   4.606   4.004   7.608 -0.3934  0.9492  0.5555
 1781SOL     OW16978   2.709   2.005   7.120  0.2301 -1.2653  0.0216
 1781SOL    HW116979   2.647   2.054   7.174 -0.1406 -0.8823 -0.7356
 1781SOL    HW216980   2.655   1.979   7.045  2.3608 -3.9244 -0.5736
 1782SOL     OW16981   3.267   2.091  11.782 -0.6168  0.0111 -0.1197
 1782SOL    HW116982   3.184   2.045  11.766 -1.3552  0.7543  1.6193
 1782SOL    HW216983   3.268   2.096  11.878 -1.3949  1.2945 -0.1878
 1783SOL     OW16984   0.240   4.647   2.970  0.1760 -0.2187  0.6327
 1783SOL    HW116985   0.203   4.669   3.056 -1.2433  0.7804 -0.2237
 1783SOL    HW216986   0.264   4.554   2.973  0.1539 -0.2558 -0.3135
 1784SOL     OW16987   3.825   0.787  13.609  0.2666 -0.0837 -0.1586
 1784SOL    HW116988   3.873   0.717  13.566  2.5188  1.6023 -0.3998
 1784SOL    HW216989   3.798   0.734  13.683  0.9139 -1.2474 -0.7631
 1785SOL     OW16990   2.713   0.984   6.741 -0.1393 -0.1331 -0.7234
 1785SOL    HW116991   2.802   0.987   6.775 -0.5189 -1.3216  0.4039
 1785SOL    HW216992   2.660   0.980   6.821  0.0135  1.4429 -0.5555
 1786SOL     OW16993   2.135   1.824   4.824 -0.0610 -0.0147  0.1934
 1786SOL    HW116994   2.190   1.767   4.878 -0.1788  1.0984  1.4605
 1786SOL    HW216995   2.091   1.873   4.893  0.0366 -0.6681  0.7248
 1787SOL     OW16996   0.790   2.187   8.413  0.1676 -0.0515 -0.1255
 1787SOL    HW116997   0.731   2.171   8.487 -0.2857 -2.8685 -1.1018
 1787SOL    HW216998   0.725   2.207   8.345 -0.7621  2.1761  1.4094
 1788SOL     OW16999   4.698   4.379   6.337 -0.7903  0.0805 -0.7468
 1788SOL    HW117000   4.714   4.286   6.324 -0.0063  0.1116 -0.0055
 1788SOL    HW217001   0.034   4.392   6.399  0.6172 -1.3927 -2.0730
 1789SOL     OW17002   2.718   4.706   9.275  0.1032  0.2005  0.5954
 1789SOL    HW117003   2.673   4.689   9.357 -0.0752  0.8132  0.6201
 1789SOL    HW217004   2.670   4.650   9.213  0.4313  1.6929 -1.0264
 1790SOL     OW17005   3.285   2.118   7.121 -0.4008  0.0590  0.2346
 1790SOL    HW117006   3.328   2.146   7.040  0.2493  0.9768  0.9132
 1790SOL    HW217007   3.282   2.023   7.111 -0.8739  0.2086 -1.1323
 1791SOL     OW17008   0.429   0.335   3.108  0.3097  0.2078 -0.0879
 1791SOL    HW117009   0.449   0.427   3.123  0.1493 -0.0313  1.6075
 1791SOL    HW217010   0.463   0.299   3.190 -1.2011 -1.6965 -0.2797
 1792SOL     OW17011   0.927   3.600   2.570 -0.2401 -0.5353  0.8477
 1792SOL    HW117012   0.837   3.588   2.599 -0.4643  2.9976  1.5927
 1792SOL    HW217013   0.949   3.690   2.594 -0.9704  0.0560 -0.6990
 1793SOL     OW17014   0.018   0.707   0.457 -0.3772 -0.0069  0.0122
 1793SOL    HW117015   4.669   0.710   0.412 -1.9920 -1.8319  2.9051
 1793SOL    HW217016   0.073   0.681   0.383  3.4259  1.5241  2.2488
 1794SOL     OW17017   1.047   3.497   4.660  0.3456 -0.0088 -0.1193
 1794SOL    HW117018   0.974   3.558   4.673  0.7970  0.2394  1.2292
 1794SOL    HW217019   1.010   3.440   4.592  2.6682  1.2670 -2.4616
 1795SOL     OW17020   3.133   4.026   8.488  0.2355 -0.0112  0.1558
 1795SOL    HW117021   3.111   4.120   8.490  2.2042  0.4610 -0.6339
 1795SOL    HW217022   3.227   4.022   8.505 -0.0408  0.1649  1.7380
 1796SOL     OW17023   0.762   3.537   9.080 -0.8881  1.0503  0.0227
 1796SOL    HW117024   0.751   3.556   8.987  1.5078  0.3494 -0.4079
 1796SOL    HW217025   0.856   3.524   9.093 -0.7568  0.5860 -1.3911
 1797SOL     OW17026   3.174   3.325   5.579 -0.0987 -0.0961  0.0759
 1797SOL    HW117027   3.178   3.234   5.609 -0.9911  0.1137  0.8293
 1797SOL    HW217028   3.265   3.340   5.554  0.0592 -1.2288 -0.0420
 1798SOL     OW17029   2.976   2.280   8.478 -0.3780 -0.7277 -0.3577
 1798SOL    HW117030   3.021   2.308   8.558  0.2846 -0.7083 -0.7389
 1798SOL    HW217031   2.964   2.366   8.438  0.7659 -0.6782 -0.6105
 1799SOL     OW17032   3.418   0.513  10.723 -0.1543 -0.3878  0.2356
 1799SOL    HW117033   3.498   0.515  10.669 -0.5541 -0.3464 -0.3597
 1799SOL    HW217034   3.417   0.603  10.753 -0.4301 -0.5975  0.8584
 1800SOL     OW17035   2.317   1.848   3.970 -0.3115 -0.2361 -0.1893
 1800SOL    HW117036   2.313   1.903   4.049 -1.2905 -0.2713 -0.2124
 1800SOL    HW217037   2.256   1.778   3.995 -0.0757 -0.0311  0.9633
 1801SOL     OW17038   2.256   0.854   8.666 -0.1679 -0.1999 -0.1955
 1801SOL    HW117039   2.338   0.812   8.691  0.5872  1.0665 -0.4943
 1801SOL    HW217040   2.262   0.935   8.716  1.4257 -1.8369  2.2257
 1802SOL     OW17041   0.744   4.683   4.531  0.9153  0.5729  0.5327
 1802SOL    HW117042   0.694   0.025   4.555 -1.8469  0.0042 -3.4589
 1802SOL    HW217043   0.677   4.614   4.534  2.2387 -0.7555 -0.1211
 1803SOL     OW17044   0.831   1.355   3.782 -0.3195 -0.2878 -0.2071
 1803SOL    HW117045   0.910   1.364   3.728  0.3376  0.2078  0.8270
 1803SOL    HW217046   0.796   1.269   3.759  1.7295 -1.1303 -0.2387
 1804SOL     OW17047   0.643   0.737   3.854 -0.6640 -0.3149  0.2360
 1804SOL    HW117048   0.677   0.816   3.898 -1.6023  0.3128 -0.1737
 1804SOL    HW217049   0.599   0.779   3.781  0.3647  0.5002  0.0790
 1805SOL     OW17050   1.159   2.485   7.471  0.4960 -0.3904  0.2765
 1805SOL    HW117051   1.246   2.469   7.508  0.6637 -2.5254 -1.0384
 1805SOL    HW217052   1.119   2.541   7.538 -0.5742 -0.3082 -0.4330
 1806SOL     OW17053   2.122   3.204   3.663 -0.1380  0.2445 -0.2772
 1806SOL    HW117054   2.192   3.255   3.622  0.7902 -3.0244 -2.7028
 1806SOL    HW217055   2.169   3.121   3.666 -2.8217 -1.2543 -0.1102
 1807SOL     OW17056   2.861   1.782   7.517 -0.0774  0.2829 -0.0639
 1807SOL    HW117057   2.811   1.705   7.490  1.6008 -0.4683 -1.0862
 1807SOL    HW217058   2.809   1.810   7.592  0.4830 -1.8623  1.1297
 1808SOL     OW17059   1.459   2.438   5.739 -0.2008  0.0141  0.0257
 1808SOL    HW117060   1.489   2.354   5.705 -1.9508 -0.7838  0.4345
 1808SOL    HW217061   1.490   2.441   5.830 -0.4275  0.0963  0.1013
 1809SOL     OW17062   2.927   4.628   4.692  0.6026  0.2170  0.3993
 1809SOL    HW117063   2.857   4.593   4.637  1.7346 -1.5027  0.0585
 1809SOL    HW217064   2.872   4.648   4.768  0.0026  1.3447 -0.3287
 1810SOL     OW17065   2.569   3.318   7.400 -0.0893 -0.5204 -0.0305
 1810SOL    HW117066   2.549   3.244   7.457 -1.2577 -1.3331 -1.4960
 1810SOL    HW217067   2.515   3.296   7.324  0.3977  0.3417 -0.6255
 1811SOL     OW17068   3.700   0.685   5.163 -0.2344  0.1331 -0.0589
 1811SOL    HW117069   3.765   0.633   5.116  0.6771  1.8691 -0.7164
 1811SOL    HW217070   3.700   0.636   5.245  1.4277  0.4651  0.1300
 1812SOL     OW17071   3.138   3.228  17.185  0.5695  0.2224  0.1251
 1812SOL    HW117072   3.208   3.277  17.227 -0.7332  1.4976  0.7991
 1812SOL    HW217073   3.174   3.212  17.097 -0.7359 -1.5791 -0.0794
 1813SOL     OW17074   3.246   1.407  15.867 -0.1475  0.0245  0.2878
 1813SOL    HW117075   3.303   1.429  15.793  1.0196 -1.2339  0.8165
 1813SOL    HW217076   3.156   1.426  15.840  0.3497 -0.2669 -1.5527
 1814SOL     OW17077   3.698   2.820   0.780 -0.1459  0.6317  0.4491
 1814SOL    HW117078   3.743   2.898   0.813 -0.2229  0.7615  0.2434
 1814SOL    HW217079   3.609   2.840   0.807 -0.9811 -1.9123 -0.4467
 1815SOL     OW17080   2.526   4.389   1.425 -0.1121 -0.1005 -0.1725
 1815SOL    HW117081   2.490   4.466   1.470  2.1609  2.2080 -2.2739
 1815SOL    HW217082   2.575   4.374   1.506 -0.3680  3.8099  0.7197
 1816SOL     OW17083   4.605   3.901  15.093 -0.6303  0.3703 -0.3300
 1816SOL    HW117084   4.651   3.881  15.175 -0.9421  1.8590  0.2145
 1816SOL    HW217085   4.674   3.942  15.042  0.5801 -2.6160 -1.0691
 1817SOL     OW17086   4.336   0.097   0.967  0.0854  0.3452  0.3558
 1817SOL    HW117087   4.327   0.139   0.881  1.3808 -0.1910 -0.0343
 1817SOL    HW217088   4.271   0.145   1.019  3.4620  3.1396  1.9408
 1818SOL     OW17089   2.950   4.310   5.516 -0.5335  0.3339  0.2325
 1818SOL    HW117090   2.993   4.345   5.594 -0.1627 -0.7558  0.5161
 1818SOL    HW217091   2.879   4.266   5.563  0.1775 -0.0331  0.9714
 1819SOL     OW17092   4.345   1.470  15.773 -0.0340  0.2051 -0.4351
 1819SOL    HW117093   4.301   1.406  15.716 -1.5040  1.6851 -0.9783
 1819SOL    HW217094   4.331   1.548  15.720 -1.5601  1.1295  1.3400
 1820SOL     OW17095   2.455   3.756  12.430 -0.6637 -0.1283  0.0924
 1820SOL    HW117096   2.373   3.803  12.442  0.5509  1.5293  1.9267
 1820SOL    HW217097   2.523   3.823  12.420  1.2945 -2.0968  0.2574
 1821SOL     OW17098   4.662   2.811   5.751 -0.0089 -0.2923 -0.1205
 1821SOL    HW117099   4.730   2.870   5.719  1.5004 -0.9410  1.8909
 1821SOL    HW217100   4.592   2.875   5.751  0.5722  0.3294 -1.3796
 1822SOL     OW17101   1.156   4.107   5.005  0.7131  0.8678 -0.0463
 1822SOL    HW117102   1.179   4.077   4.917  1.9344  1.0577  0.2044
 1822SOL    HW217103   1.204   4.039   5.054 -1.0717  0.0099  0.4948
 1823SOL     OW17104   2.521   0.011  13.396  0.2118  0.7421 -0.0760
 1823SOL    HW117105   2.563   0.051  13.473 -1.3399  1.6803  0.2839
 1823SOL    HW217106   2.431   4.734  13.428  0.3045  0.3495  0.0401
 1824SOL     OW17107   2.204   4.239   7.873  0.1325  0.1171 -0.4883
 1824SOL    HW117108   2.178   4.270   7.786 -0.9276  0.9139  0.1109
 1824SOL    HW217109   2.125   4.215   7.921 -1.4015  0.8342 -2.6171
 1825SOL     OW17110   3.759   3.162  15.648  0.6358 -0.8905 -0.0855
 1825SOL    HW117111   3.712   3.244  15.634 -2.2024 -2.3630  0.9739
 1825SOL    HW217112   3.700   3.121  15.711  0.2191  1.1453  0.8449
 1826SOL     OW17113   1.777   1.905   8.263 -0.6214  0.0477 -0.4885
 1826SOL    HW117114   1.819   1.829   8.303 -1.4280 -0.4798 -0.6472
 1826SOL    HW217115   1.852   1.947   8.222 -0.8701 -0.9439 -1.9360
 1827SOL     OW17116   1.651   1.737  16.542 -0.0180 -0.7864  0.5939
 1827SOL    HW117117   1.688   1.661  16.497  0.2412  0.1871 -0.8644
 1827SOL    HW217118   1.671   1.808  16.480 -1.4423  0.3238  1.4218
 1828SOL     OW17119   4.428   4.132   6.721  0.0465 -0.1145  0.1248
 1828SOL    HW117120   4.408   4.100   6.809  1.0609  1.4177  0.9277
 1828SOL    HW217121   4.360   4.199   6.713 -1.5899 -1.6560  1.2181
 1829SOL     OW17122   0.573   4.278   6.097  0.4868  0.0288  0.6220
 1829SOL    HW117123   0.602   4.187   6.107  0.2795  0.2217  2.9458
 1829SOL    HW217124   0.483   4.271   6.127 -0.0532 -0.1713 -1.0135
 1830SOL     OW17125   2.570   0.079  16.256  0.1540 -1.0978 -0.3161
 1830SOL    HW117126   2.656   0.121  16.247 -0.0308 -1.0846 -2.1440
 1830SOL    HW217127   2.536   0.084  16.166  1.2008 -0.7577 -0.6953
 1831SOL     OW17128   4.669   1.389  15.582  0.1164  0.0595  0.2890
 1831SOL    HW117129   4.581   1.416  15.556 -0.2552  1.4983  3.1005
 1831SOL    HW217130   4.671   1.328  15.508  1.4847  0.2684  0.1485
 1832SOL     OW17131   0.530   0.078   5.596 -0.3806 -0.1799 -0.0866
 1832SOL    HW117132   0.583   0.057   5.672  0.6059 -2.6040 -1.4355
 1832SOL    HW217133   0.584   0.054   5.520  0.5654  1.1320  0.1877
 1833SOL     OW17134   0.003   3.372   1.605 -0.0244 -0.0361 -0.2915
 1833SOL    HW117135   4.651   3.373   1.567  0.5487  0.4210 -1.6116
 1833SOL    HW217136   0.024   3.279   1.611  0.0479 -0.2018 -3.1353
 1834SOL     OW17137   3.473   1.289   7.385  0.0189 -0.2351 -0.5397
 1834SOL    HW117138   3.478   1.290   7.480  0.7776 -3.4563 -0.5671
 1834SOL    HW217139   3.489   1.195   7.377  0.8583 -0.3875  2.8318
 1835SOL     OW17140   3.745   3.819   3.822 -0.3541 -0.1025  0.1919
 1835SOL    HW117141   3.715   3.800   3.911 -0.1323 -0.3985  0.2028
 1835SOL    HW217142   3.819   3.761   3.809 -0.9045 -0.1803 -2.6536
 1836SOL     OW17143   1.185   4.365   1.534  0.5075  0.1801 -0.2578
 1836SOL    HW117144   1.111   4.423   1.554  1.0570  0.2640  1.5592
 1836SOL    HW217145   1.174   4.335   1.444 -1.2206 -0.8636  0.3081
 1837SOL     OW17146   0.092   3.501   4.535  0.0918  0.4998  0.3182
 1837SOL    HW117147   0.137   3.579   4.567  4.7318 -1.4096 -1.5952
 1837SOL    HW217148   0.161   3.447   4.497 -1.2151 -1.4118  0.6500
 1838SOL     OW17149   3.335   2.138   6.608  0.0046  0.0793  0.4878
 1838SOL    HW117150   3.244   2.164   6.593  0.5329  1.5566 -0.1845
 1838SOL    HW217151   3.323   2.054   6.652  2.2503 -1.2607 -1.4242
 1839SOL     OW17152   4.422   2.370   7.092  0.2333  0.2748  0.0430
 1839SOL    HW117153   4.428   2.465   7.087  0.5286  0.2566  0.0008
 1839SOL    HW217154   4.506   2.334   7.062  0.3660 -0.1802  0.9515
 1840SOL     OW17155   1.889   3.759   8.050 -0.0646 -0.2228 -0.7973
 1840SOL    HW117156   1.825   3.690   8.066  0.9046 -0.3546  2.6400
 1840SOL    HW217157   1.967   3.705   8.046  1.0704  1.2347  1.4405
 1841SOL     OW17158   2.181   3.724   3.798  0.3325  0.2699  0.2991
 1841SOL    HW117159   2.208   3.807   3.760  0.0861 -0.4825 -1.5292
 1841SOL    HW217160   2.266   3.680   3.805  0.9717  1.3564 -0.7151
 1842SOL     OW17161   3.351   1.171  13.786  0.2656  0.4575  0.2050
 1842SOL    HW117162   3.387   1.227  13.855  1.0388 -2.1637  1.9203
 1842SOL    HW217163   3.306   1.100  13.831  0.3629 -0.7293 -1.5714
 1843SOL     OW17164   0.399   1.928   3.272 -0.0382 -0.2654 -0.4030
 1843SOL    HW117165   0.367   1.855   3.218 -1.2313  1.0185 -1.4324
 1843SOL    HW217166   0.341   1.931   3.348  1.2226  1.2698  0.4782
 1844SOL     OW17167   0.947   3.625   5.469 -0.2111  0.5530 -0.1473
 1844SOL    HW117168   0.875   3.642   5.529  1.0989  0.2553  1.5189
 1844SOL    HW217169   0.945   3.529   5.465  2.0137  0.4984  0.1081
 1845SOL     OW17170   1.848   0.687   5.474  0.3025  0.2275  0.4040
 1845SOL    HW117171   1.820   0.763   5.524  3.2177  1.5204  0.1223
 1845SOL    HW217172   1.899   0.651   5.547  0.0282  2.5537  1.7576
 1846SOL     OW17173   4.313   1.122  11.197 -0.0515 -0.6139  0.3116
 1846SOL    HW117174   4.390   1.131  11.253  0.2142  1.1996 -0.3426
 1846SOL    HW217175   4.252   1.112  11.270 -1.2115 -1.0631 -0.6975
 1847SOL     OW17176   0.128   4.348   3.249 -0.1585 -0.2559 -0.2383
 1847SOL    HW117177   0.143   4.325   3.341 -1.9042 -2.5238 -0.5330
 1847SOL    HW217178   0.175   4.272   3.214  0.9182 -0.9537  2.7062
 1848SOL     OW17179   4.482   3.601   4.121  0.0753  0.8635  0.2046
 1848SOL    HW117180   4.425   3.524   4.124  2.1607 -0.6598  0.1505
 1848SOL    HW217181   4.532   3.582   4.041 -0.8946 -0.6339 -0.0508
 1849SOL     OW17182   0.887   1.393  13.060  0.2360  0.1400 -0.3702
 1849SOL    HW117183   0.910   1.480  13.028 -2.3105  0.3047 -1.7530
 1849SOL    HW217184   0.795   1.401  13.087  0.1831 -0.7021 -0.2909
 1850SOL     OW17185   4.011   4.032   5.323 -0.3546 -0.1834  0.0182
 1850SOL    HW117186   3.990   4.032   5.230 -1.4911  1.1523  0.2672
 1850SOL    HW217187   4.102   4.057   5.310 -0.5546 -0.0556 -1.1034
 1851SOL     OW17188   4.196   3.406  17.226  0.3639 -0.0890  0.1724
 1851SOL    HW117189   4.261   3.462  17.183 -0.8728  1.5504  0.4336
 1851SOL    HW217190   4.228   3.320  17.198  1.4221  0.0604  0.9146
 1852SOL     OW17191   2.662   3.192   3.250  0.7195 -0.2612  0.0764
 1852SOL    HW117192   2.724   3.160   3.316  0.7728 -0.2770  0.0182
 1852SOL    HW217193   2.719   3.215   3.178 -0.2869  1.3896 -0.1850
 1853SOL     OW17194   4.580   0.945   6.352 -0.3353  0.4313  0.3464
 1853SOL    HW117195   4.656   0.957   6.409 -0.6619  3.6347  0.0857
 1853SOL    HW217196   4.567   1.035   6.324  2.5071  1.0974  1.1754
 1854SOL     OW17197   4.615   0.040   3.151  0.0975 -0.4370 -0.3091
 1854SOL    HW117198   4.529   0.032   3.110  0.3445 -3.7717 -0.2431
 1854SOL    HW217199   4.655   4.689   3.146  0.3087 -0.2342 -2.0290
 1855SOL     OW17200   1.410   4.389   7.261 -0.0415 -0.0892 -0.1497
 1855SOL    HW117201   1.349   4.349   7.199 -1.5792  0.0928  1.2281
 1855SOL    HW217202   1.400   4.344   7.345 -0.9817 -0.2045 -0.3249
 1856SOL     OW17203   3.621   1.034  14.510  0.2949 -0.4394  0.1991
 1856SOL    HW117204   3.640   0.941  14.499  0.3797 -0.4529  0.4656
 1856SOL    HW217205   3.653   1.063  14.425  0.5672  1.1363  0.8259
 1857SOL     OW17206   0.530   2.676  11.701 -0.1319 -0.5076 -0.0609
 1857SOL    HW117207   0.453   2.733  11.703  0.9031  0.8836 -0.1582
 1857SOL    HW217208   0.591   2.722  11.758 -1.3828 -0.3384  1.1502
 1858SOL     OW17209   2.329   4.547  13.707  0.0470 -0.0817 -0.1963
 1858SOL    HW117210   2.288   4.612  13.764 -0.9806 -0.9880  0.0913
 1858SOL    HW217211   2.309   4.581  13.620 -2.6443  0.6730  0.7279
 1859SOL     OW17212   3.586   1.106   1.166 -0.3607 -0.0036 -0.0851
 1859SOL    HW117213   3.572   1.049   1.091 -0.1641 -0.2804  0.0926
 1859SOL    HW217214   3.573   1.045   1.238 -1.2175 -1.3964 -1.4247
 1860SOL     OW17215   3.087   0.785   5.324 -0.0042 -0.0417  0.2384
 1860SOL    HW117216   3.034   0.841   5.267  0.1714 -0.8681 -0.7273
 1860SOL    HW217217   3.052   0.696   5.320  0.3499 -0.1499 -0.5081
 1861SOL     OW17218   1.053   1.988   6.881  0.1059  0.0528  0.1979
 1861SOL    HW117219   1.093   1.965   6.797 -1.2718 -0.5297 -0.3017
 1861SOL    HW217220   0.991   2.055   6.855 -1.0613 -1.0282  0.2036
 1862SOL     OW17221   3.402   4.532  16.699  0.2765 -0.3321  0.3992
 1862SOL    HW117222   3.344   4.608  16.690  3.1516  1.5569 -1.7767
 1862SOL    HW217223   3.360   4.483  16.627 -0.3263 -2.0286  1.9187
 1863SOL     OW17224   2.739   1.172  10.592  0.1102  0.2182 -0.0041
 1863SOL    HW117225   2.772   1.259  10.617  0.3167  0.8336 -2.4334
 1863SOL    HW217226   2.787   1.109  10.646 -0.8697 -0.5559 -0.0303
 1864SOL     OW17227   2.084   3.365  12.612 -0.2583  0.2602  0.1788
 1864SOL    HW117228   1.990   3.368  12.593 -0.1844  0.1568 -0.1982
 1864SOL    HW217229   2.120   3.418  12.541 -0.2548  1.4794  1.0927
 1865SOL     OW17230   0.129   2.644   0.216  0.4175  0.0482 -0.1713
 1865SOL    HW117231   0.122   2.558   0.175  0.7988  0.1507 -0.4479
 1865SOL    HW217232   0.166   2.624   0.303 -0.8752 -0.3354  0.2938
 1866SOL     OW17233   0.332   1.179   7.688  0.7368 -0.5708  0.1076
 1866SOL    HW117234   0.424   1.167   7.710  0.8566  1.1452  0.5813
 1866SOL    HW217235   0.342   1.215   7.600 -3.1388  0.6955  0.2047
 1867SOL     OW17236   1.873   2.060   7.353  0.0402  0.0628  0.6156
 1867SOL    HW117237   1.872   2.013   7.437  0.6887  0.9780  1.1294
 1867SOL    HW217238   1.871   2.150   7.383  1.5343  0.2663  0.1120
 1868SOL     OW17239   0.075   2.832   7.739  0.2431 -0.2033  1.1743
 1868SOL    HW117240   0.145   2.897   7.735 -0.4165  0.5101  1.0242
 1868SOL    HW217241   0.123   2.755   7.711 -1.3116 -1.4388  1.9262
 1869SOL     OW17242   1.106   1.863  16.426 -0.8120  0.1509  0.4400
 1869SOL    HW117243   1.200   1.875  16.443 -0.6340 -0.1229 -0.3495
 1869SOL    HW217244   1.064   1.857  16.512 -0.8091  0.2206  0.4465
 1870SOL     OW17245   2.186   0.660   0.357 -0.1509 -0.0250  0.0539
 1870SOL    HW117246   2.124   0.720   0.316 -1.1076 -1.5713 -0.7801
 1870SOL    HW217247   2.131   0.582   0.366 -0.0375  0.0088  0.9892
 1871SOL     OW17248   1.491   3.729   1.832 -0.2158 -0.4108  0.1921
 1871SOL    HW117249   1.548   3.749   1.907  0.5955 -0.9882 -0.2668
 1871SOL    HW217250   1.541   3.775   1.764 -0.5116 -0.8672 -0.3363
 1872SOL     OW17251   2.510   3.946   6.091  0.5834  0.3673  0.4825
 1872SOL    HW117252   2.437   3.936   6.030 -0.2079 -1.4612  1.7556
 1872SOL    HW217253   2.466   3.949   6.176  0.8387  1.1607  0.5908
 1873SOL     OW17254   0.667   0.186   7.414 -0.4523  0.0698 -0.1632
 1873SOL    HW117255   0.672   0.120   7.483  1.0818 -0.5831 -0.8719
 1873SOL    HW217256   0.606   0.138   7.357 -0.5169  2.6151 -2.2190
 1874SOL     OW17257   0.951   3.278  15.728 -0.0939 -0.1833 -0.1307
 1874SOL    HW117258   1.000   3.209  15.772  0.6834  0.9794  0.8360
 1874SOL    HW217259   0.947   3.237  15.642 -2.2218 -2.9635  1.3242
 1875SOL     OW17260   0.113   3.390   1.862  0.4639 -0.3203  0.3402
 1875SOL    HW117261   0.077   3.392   1.773 -2.4536  0.3231  1.5172
 1875SOL    HW217262   0.108   3.298   1.886 -0.7633 -0.4990 -0.5782
 1876SOL     OW17263   2.393   4.115   8.198  0.3168 -0.2132  0.1633
 1876SOL    HW117264   2.355   4.092   8.283  2.2846  0.4922  1.2365
 1876SOL    HW217265   2.485   4.099   8.220  0.5749  0.6488 -0.2940
 1877SOL     OW17266   0.045   0.536   4.891 -0.2242 -0.0998 -0.1551
 1877SOL    HW117267   0.034   0.452   4.936  0.0133  0.8453  1.6582
 1877SOL    HW217268   0.091   0.595   4.951 -1.5301  0.8203 -0.0617
 1878SOL     OW17269   3.678   1.008   6.308 -0.0909 -0.1448 -0.1328
 1878SOL    HW117270   3.621   0.962   6.370 -0.8421 -0.3550 -0.9868
 1878SOL    HW217271   3.707   1.076   6.369 -0.4399 -0.6554  0.6039
 1879SOL     OW17272   2.019   4.597   6.268 -0.2148  0.0530  0.4362
 1879SOL    HW117273   1.961   4.598   6.192  0.0127  1.5746  0.2761
 1879SOL    HW217274   2.074   4.522   6.246  1.4575  1.7385 -1.1614
 1880SOL     OW17275   1.933   4.295   1.933 -0.3156 -0.1829  0.3476
 1880SOL    HW117276   1.956   4.351   1.859 -0.1003 -1.7375 -0.7570
 1880SOL    HW217277   1.968   4.341   2.010  2.1594 -1.0831 -0.2255
 1881SOL     OW17278   0.769   2.033   2.427  0.0769 -0.0842  0.5558
 1881SOL    HW117279   0.718   1.974   2.482  1.7547 -1.8017  0.2948
 1881SOL    HW217280   0.840   2.058   2.486 -0.8502  2.0659  0.7467
 1882SOL     OW17281   2.415   0.118  17.092  0.7075 -0.4858  0.1989
 1882SOL    HW117282   2.469   0.162  17.157 -0.7174  1.4585  0.0851
 1882SOL    HW217283   2.388   0.037  17.135 -1.5982 -0.1036 -0.5436
 1883SOL     OW17284   2.572   2.092  11.532  0.1871 -0.3943 -0.1648
 1883SOL    HW117285   2.519   2.054  11.462 -0.6314 -0.5384  0.5318
 1883SOL    HW217286   2.510   2.162  11.551 -1.3667 -1.6810 -0.5019
 1884SOL     OW17287   0.602   2.084   3.602 -0.2604  0.3908 -0.4405
 1884SOL    HW117288   0.553   2.004   3.616  2.1572 -1.5212 -2.8822
 1884SOL    HW217289   0.560   2.142   3.538 -1.9648  0.4232  0.6974
 1885SOL     OW17290   2.891   0.084  10.711  0.3448  0.2872 -0.1333
 1885SOL    HW117291   2.969   0.119  10.755  0.1696  0.8974 -0.3069
 1885SOL    HW217292   2.933   0.050  10.632 -1.7876  2.7138 -2.3072
 1886SOL     OW17293   0.799   4.693  12.220 -0.0201 -0.1218  0.9286
 1886SOL    HW117294   0.754   0.033  12.260 -0.3593  0.5111 -0.6685
 1886SOL    HW217295   0.880   4.690  12.270 -0.2265  2.1310  1.3962
 1887SOL     OW17296   4.609   0.812  14.891 -0.8195  0.1797  0.0715
 1887SOL    HW117297   4.634   0.856  14.810  1.3753 -0.7397  0.2473
 1887SOL    HW217298   4.527   0.764  14.881  0.2963 -1.8342  0.4591
 1888SOL     OW17299   2.117   2.518   0.264 -0.7503 -0.1495 -0.2727
 1888SOL    HW117300   2.077   2.478   0.187 -0.7409 -1.8679  0.6142
 1888SOL    HW217301   2.198   2.550   0.224  0.1385  1.4825  2.8415
 1889SOL     OW17302   2.235   1.762   8.499  0.0932 -0.0813  0.3244
 1889SOL    HW117303   2.266   1.844   8.538  0.3879  0.8693 -1.9030
 1889SOL    HW217304   2.283   1.695   8.548 -1.4238 -1.1204  0.4026
 1890SOL     OW17305   3.871   1.421   6.831  0.6305  0.3155  0.0813
 1890SOL    HW117306   3.955   1.462   6.852  1.4039 -1.9185  1.3979
 1890SOL    HW217307   3.836   1.404   6.919  1.3728 -0.5575  0.2108
 1891SOL     OW17308   2.200   4.305   9.173 -0.7557 -0.3434 -0.4011
 1891SOL    HW117309   2.125   4.353   9.208 -0.0434  0.1171  0.4487
 1891SOL    HW217310   2.225   4.366   9.104 -0.7050 -0.5347 -0.5538
 1892SOL     OW17311   4.352   0.083   4.506  0.3228 -0.0084  0.5649
 1892SOL    HW117312   4.385   0.171   4.524  0.4661 -0.1665  1.0847
 1892SOL    HW217313   4.434   0.033   4.507  0.0703 -0.4328  0.0962
 1893SOL     OW17314   2.654   1.598   3.035  0.2688  0.0453 -0.2643
 1893SOL    HW117315   2.736   1.636   3.004 -1.3952  3.0206 -0.9991
 1893SOL    HW217316   2.605   1.581   2.955  0.6930 -1.4714 -0.2137
 1894SOL     OW17317   1.108   3.442   1.415 -0.5625  0.2591  0.3058
 1894SOL    HW117318   1.091   3.439   1.321 -2.2084  2.4947  0.5234
 1894SOL    HW217319   1.183   3.500   1.422  0.6226 -0.7349 -4.2114
 1895SOL     OW17320   2.440   2.818  16.630  0.8955 -0.4983  0.2365
 1895SOL    HW117321   2.372   2.751  16.643  0.4440 -0.0903 -0.0489
 1895SOL    HW217322   2.516   2.759  16.623  1.0879 -0.0963 -0.9153
 1896SOL     OW17323   2.926   4.245   7.001  0.0728  0.2224  0.2678
 1896SOL    HW117324   2.841   4.251   6.956  0.0772  0.4173  0.2821
 1896SOL    HW217325   2.950   4.156   6.978 -1.9318 -0.5543  1.2214
 1897SOL     OW17326   1.947   1.246  14.175  0.7945 -0.2016  0.4007
 1897SOL    HW117327   1.856   1.241  14.145  1.0412 -0.1311 -0.3659
 1897SOL    HW217328   1.982   1.273  14.090  3.0298  0.5487  1.5618
 1898SOL     OW17329   0.039   3.338   7.599  0.0460  0.5416 -0.4205
 1898SOL    HW117330   0.076   3.357   7.513 -2.3747  1.1593 -1.3229
 1898SOL    HW217331   0.091   3.401   7.648 -0.5716 -0.1217  1.0984
 1899SOL     OW17332   3.975   1.128  11.896 -0.3384  0.2803  0.2143
 1899SOL    HW117333   3.885   1.142  11.924  0.0010  1.3480  0.7535
 1899SOL    HW217334   3.958   1.087  11.811 -2.0076  1.9704 -0.2510
 1900SOL     OW17335   4.645   3.597   9.288 -0.4697  0.2547  0.0013
 1900SOL    HW117336   4.598   3.535   9.233 -0.2366  1.7476 -1.9019
 1900SOL    HW217337   4.595   3.676   9.265  2.0607  2.5903  2.3688
 1901SOL     OW17338   1.710   4.631   2.840  0.2845 -0.4698 -0.1670
 1901SOL    HW117339   1.804   4.624   2.822  0.1587  1.0662 -1.4922
 1901SOL    HW217340   1.709   4.629   2.936 -0.3982 -1.6587 -0.1998
 1902SOL     OW17341   3.064   0.077   6.304  0.1556  0.6961  0.6141
 1902SOL    HW117342   3.131   0.067   6.235 -0.1057 -1.7935  0.7110
 1902SOL    HW217343   3.002   0.009   6.277 -1.9761  3.0959 -0.4762
 1903SOL     OW17344   0.568   4.141  14.937 -0.3575 -0.6074  0.0360
 1903SOL    HW117345   0.613   4.163  15.019 -1.9953  2.1297  0.2089
 1903SOL    HW217346   0.640   4.120  14.878  0.5858  2.0263  0.2436
 1904SOL     OW17347   3.829   1.734   6.829  0.6889  0.5604  0.0223
 1904SOL    HW117348   3.858   1.731   6.920  1.9251  1.0483 -0.3552
 1904SOL    HW217349   3.895   1.673   6.798 -0.6739 -0.4331 -0.8750
 1905SOL     OW17350   0.885   0.786   6.593 -0.3095 -0.4058 -0.3246
 1905SOL    HW117351   0.897   0.750   6.681 -1.0102 -1.9912 -0.8688
 1905SOL    HW217352   0.792   0.810   6.594  0.1077  1.1615 -0.0713
 1906SOL     OW17353   4.447   1.411  11.886  0.1939  0.1215 -0.8010
 1906SOL    HW117354   4.427   1.405  11.979  2.7466  1.9504 -0.1343
 1906SOL    HW217355   4.362   1.441  11.852 -0.3044 -0.1143  0.2227
 1907SOL     OW17356   3.253   4.331   8.058  0.0208 -0.2289 -0.2719
 1907SOL    HW117357   3.219   4.371   7.978 -0.0213  2.2665  1.0018
 1907SOL    HW217358   3.345   4.347   8.039 -0.4331  1.2916 -1.1553
 1908SOL     OW17359   0.146   2.411   2.629 -0.5128  0.2724 -0.2193
 1908SOL    HW117360   0.129   2.438   2.719  2.2524 -1.3422  0.8105
 1908SOL    HW217361   0.121   2.489   2.581 -2.7821 -1.5250 -1.9318
 1909SOL     OW17362   1.694   2.771  15.529 -0.0249  0.2744 -0.2024
 1909SOL    HW117363   1.744   2.690  15.522 -1.7725 -0.7386 -0.8183
 1909SOL    HW217364   1.757   2.823  15.579  0.2948  0.3316 -0.6632
 1910SOL     OW17365   3.498   2.685   8.159  0.5320  0.4082  0.5801
 1910SOL    HW117366   3.465   2.702   8.071  2.0101  1.5268  0.2314
 1910SOL    HW217367   3.566   2.752   8.165  1.4180 -0.4142 -0.4491
 1911SOL     OW17368   3.506   0.348  14.026  0.8323  0.1271 -0.2408
 1911SOL    HW117369   3.463   0.311  13.949 -0.9375  0.6437  0.4750
 1911SOL    HW217370   3.494   0.288  14.100  0.7285  1.1246  0.5628
 1912SOL     OW17371   1.372   1.556  14.066 -0.0727  0.5496  0.1706
 1912SOL    HW117372   1.332   1.639  14.037 -1.3511 -0.0374  0.2616
 1912SOL    HW217373   1.465   1.578  14.058  0.0750  0.8291  2.5764
 1913SOL     OW17374   2.859   3.686  17.292  0.6258  0.3860  0.7117
 1913SOL    HW117375   2.865   3.594  17.266 -1.9193  0.4797 -0.1739
 1913SOL    HW217376   2.899   3.686  17.379  1.5442  2.4337  0.3017
 1914SOL     OW17377   0.067   1.734   2.420  0.6827 -0.2142  0.0313
 1914SOL    HW117378   4.721   1.759   2.376 -0.1857  0.7631  2.2146
 1914SOL    HW217379   0.052   1.760   2.511 -0.4630 -0.0266 -0.2080
 1915SOL     OW17380   0.841   4.312   7.340  0.1906  1.1021 -0.0727
 1915SOL    HW117381   0.910   4.377   7.352  0.5457  0.7735 -0.3392
 1915SOL    HW217382   0.777   4.379   7.366 -0.7668 -0.7076  2.2725
 1916SOL     OW17383   1.022   1.633  11.728 -0.1643  0.1864  0.2026
 1916SOL    HW117384   0.982   1.718  11.711  1.7499  1.2211  0.9591
 1916SOL    HW217385   1.071   1.627  11.646 -2.3941 -0.4549 -1.0786
 1917SOL     OW17386   3.592   1.674   5.719 -0.1671 -0.2311 -0.1535
 1917SOL    HW117387   3.519   1.669   5.657 -0.8539  2.0518  0.4642
 1917SOL    HW217388   3.644   1.599   5.694 -0.4512  0.0904 -1.7322
 1918SOL     OW17389   4.368   1.039   7.501  0.1608 -0.2783  0.5053
 1918SOL    HW117390   4.451   1.059   7.544 -0.1192 -0.1501  0.9911
 1918SOL    HW217391   4.313   1.037   7.579  1.4061  0.5426  1.3910
 1919SOL     OW17392   0.695   3.927   3.157 -0.5533  0.5442  0.3459
 1919SOL    HW117393   0.773   3.981   3.141 -0.5886  1.2295  2.5342
 1919SOL    HW217394   0.690   3.945   3.251  1.1973  1.7028  0.2027
 1920SOL     OW17395   1.099   2.173   1.723 -0.2912  0.7345  0.8017
 1920SOL    HW117396   1.063   2.119   1.794  0.4848  0.6575  1.1406
 1920SOL    HW217397   1.030   2.238   1.731 -1.7536 -0.7070 -0.1000
 1921SOL     OW17398   0.475   3.904  11.950 -0.3575 -0.1147 -0.4064
 1921SOL    HW117399   0.457   3.829  12.006 -2.2355 -0.5279 -1.5744
 1921SOL    HW217400   0.442   3.974  12.006  0.5817  1.2195 -1.5200
 1922SOL     OW17401   1.597   4.151   7.553  0.2449 -0.2388 -0.2214
 1922SOL    HW117402   1.512   4.195   7.559 -0.0395 -0.9943  1.1172
 1922SOL    HW217403   1.576   4.090   7.482 -2.3652 -0.1159  0.4477
 1923SOL     OW17404   1.334   3.501   5.607 -0.1382  0.1425 -0.5495
 1923SOL    HW117405   1.309   3.415   5.574  1.9641 -1.5804  2.4276
 1923SOL    HW217406   1.252   3.517   5.653 -0.8180 -2.2500 -0.9245
 1924SOL     OW17407   1.530   1.310   6.563  0.5305  0.0987  0.2606
 1924SOL    HW117408   1.467   1.246   6.595 -0.9135  0.7990 -1.1960
 1924SOL    HW217409   1.490   1.388   6.600 -2.0729 -0.5972 -1.1178
 1925SOL     OW17410   1.714   2.599   4.496 -0.6810  0.1570  0.3886
 1925SOL    HW117411   1.787   2.539   4.514 -3.4613 -3.4629 -0.2440
 1925SOL    HW217412   1.758   2.682   4.484 -0.0576 -0.0055  1.5091
 1926SOL     OW17413   0.660   1.613   4.853 -0.2161  0.0675 -0.3070
 1926SOL    HW117414   0.589   1.553   4.828  0.0188 -0.2385 -0.2422
 1926SOL    HW217415   0.714   1.548   4.897  1.0563  1.6579  0.4808
 1927SOL     OW17416   0.319   2.166  12.591  0.2899 -0.2210 -0.2321
 1927SOL    HW117417   0.322   2.248  12.641 -2.2749 -1.1367  1.4293
 1927SOL    HW217418   0.386   2.185  12.525 -0.6160  1.0284 -0.7774
 1928SOL     OW17419   3.091   2.890   3.879  0.1516  0.3188  0.6420
 1928SOL    HW117420   3.134   2.857   3.958  0.5380 -1.5231 -0.3252
 1928SOL    HW217421   3.023   2.939   3.924  0.5994  1.2383  0.3316
 1929SOL     OW17422   4.301   0.351   5.039  0.9865  0.1519  0.0226
 1929SOL    HW117423   4.219   0.354   4.991  0.6701 -0.6312  0.5046
 1929SOL    HW217424   4.338   0.271   5.001  0.3966 -0.5518  0.9196
 1930SOL     OW17425   2.678   1.248   3.900 -0.0865 -0.6286 -0.6667
 1930SOL    HW117426   2.644   1.242   3.811  0.2229 -2.1642 -0.6788
 1930SOL    HW217427   2.747   1.315   3.892 -1.8927  1.6075  2.2391
 1931SOL     OW17428   2.398   3.151   2.486  0.2338  0.2823  0.2881
 1931SOL    HW117429   2.465   3.129   2.422  1.6590 -0.1710  1.9443
 1931SOL    HW217430   2.351   3.206   2.423  0.8431  1.1929  0.6203
 1932SOL     OW17431   2.944   3.380   7.336  0.6189  0.0691  0.4961
 1932SOL    HW117432   2.984   3.363   7.250 -1.2643  0.4845 -0.4633
 1932SOL    HW217433   2.904   3.296   7.359 -0.5681  1.0425  1.9630
 1933SOL     OW17434   4.315   2.107   4.111  0.3431  0.2796  0.8042
 1933SOL    HW117435   4.383   2.101   4.044 -2.0417  0.5298 -1.6518
 1933SOL    HW217436   4.272   2.186   4.077 -0.0455 -0.1125  0.3945
 1934SOL     OW17437   4.482   2.577   0.725 -0.0123 -0.0617  0.0811
 1934SOL    HW117438   4.512   2.571   0.634  2.6790  0.5533  0.9477
 1934SOL    HW217439   4.387   2.575   0.708 -0.2769  0.3315  1.4714
 1935SOL     OW17440   3.044   3.601   1.185  0.3664  0.0776  0.2032
 1935SOL    HW117441   3.033   3.579   1.092 -0.7282  0.3972  0.2511
 1935SOL    HW217442   3.139   3.614   1.183  0.3955 -0.3135 -0.8798
 1936SOL     OW17443   3.213   2.229   7.670 -0.1332 -0.0284 -0.4086
 1936SOL    HW117444   3.128   2.248   7.709  0.9559  0.3777  1.7905
 1936SOL    HW217445   3.199   2.186   7.586 -1.1927 -2.3672  0.9687
 1937SOL     OW17446   1.728   0.153   6.073 -0.5238 -0.4010 -0.1107
 1937SOL    HW117447   1.718   0.221   6.006  0.7259  1.9192  2.0732
 1937SOL    HW217448   1.734   0.208   6.151 -0.8041 -1.6982  0.8138
 1938SOL     OW17449   3.262   1.701   3.990  0.7489 -0.6942 -0.4569
 1938SOL    HW117450   3.270   1.655   3.906  1.2445 -0.5588 -0.4794
 1938SOL    HW217451   3.170   1.691   4.016  0.3963  3.4567 -0.1548
 1939SOL     OW17452   1.832   1.330   5.091 -0.1752 -0.2729  0.9889
 1939SOL    HW117453   1.907   1.389   5.092 -1.3693  1.2835  0.1635
 1939SOL    HW217454   1.750   1.377   5.075 -0.5491 -0.6123  1.9242
 1940SOL     OW17455   4.649   0.482   4.120  0.0507  0.0969  0.3258
 1940SOL    HW117456   4.647   0.539   4.197  1.5098  1.4049 -0.5941
 1940SOL    HW217457   0.007   0.459   4.124  0.9994  4.2659  1.3265
 1941SOL     OW17458   2.027   0.637   8.093  0.4354  0.1264 -0.3233
 1941SOL    HW117459   2.028   0.728   8.063 -0.5473 -1.6007 -5.7146
 1941SOL    HW217460   1.934   0.616   8.098  0.4037  0.6863  1.2622
 1942SOL     OW17461   1.263   0.072  10.979 -0.1401  0.4871  0.1193
 1942SOL    HW117462   1.277   0.091  10.886  0.4315  1.6289  0.4292
 1942SOL    HW217463   1.313   0.144  11.018 -2.7218  1.7242  1.1123
 1943SOL     OW17464   2.623   1.160  10.351 -0.5387 -0.0979  0.0340
 1943SOL    HW117465   2.647   1.174  10.442  1.5717  0.5568 -0.6381
 1943SOL    HW217466   2.659   1.071  10.348 -0.5150 -0.0484 -1.0799
 1944SOL     OW17467   0.077   3.721   3.379 -0.1140 -0.6280  0.1641
 1944SOL    HW117468   0.111   3.745   3.293 -0.2566 -3.1597 -0.6023
 1944SOL    HW217469   0.005   3.661   3.361 -0.8559  0.0339  0.9027
 1945SOL     OW17470   1.699   3.126   0.936 -0.4971 -0.0439  0.1431
 1945SOL    HW117471   1.637   3.119   0.864 -0.0279 -0.4936 -0.2144
 1945SOL    HW217472   1.720   3.034   0.952  0.1662  0.4071  1.8549
 1946SOL     OW17473   2.260   4.061   5.473  0.6904 -0.4603 -0.3262
 1946SOL    HW117474   2.317   4.000   5.427  0.9231 -0.6627  0.2375
 1946SOL    HW217475   2.209   4.085   5.396  1.3201 -1.2833 -0.9957
 1947SOL     OW17476   2.401   0.928  17.614  0.5981 -0.0969 -0.3120
 1947SOL    HW117477   2.315   0.970  17.619  0.6538  0.2962 -2.6809
 1947SOL    HW217478   2.410   0.890  17.701 -0.4802 -0.5729 -0.3989
 1948SOL     OW17479   4.722   1.552   5.006  0.1872 -1.0124 -0.3227
 1948SOL    HW117480   0.062   1.495   4.989 -0.3325 -1.3541 -1.4492
 1948SOL    HW217481   4.687   1.568   4.918 -0.4262  1.2304  0.3328
 1949SOL     OW17482   0.149   2.130   1.642 -0.2951 -0.4332  0.3677
 1949SOL    HW117483   0.088   2.196   1.675 -0.4505  0.1111 -1.0002
 1949SOL    HW217484   0.122   2.116   1.551  1.8835  0.1311 -0.3611
 1950SOL     OW17485   4.185   3.453   2.094 -0.1806 -0.2212  0.0904
 1950SOL    HW117486   4.248   3.382   2.090 -1.2550 -0.9765 -3.1522
 1950SOL    HW217487   4.115   3.421   2.038  1.9436  0.5901 -3.0026
 1951SOL     OW17488   0.063   3.121   4.039  0.2819  0.3302 -0.2968
 1951SOL    HW117489   0.147   3.119   4.085 -0.1359 -1.8858  0.3770
 1951SOL    HW217490   0.069   3.058   3.968 -1.3401 -0.4087  0.2050
 1952SOL     OW17491   3.940   1.093   1.886 -0.1710 -0.1211  0.4730
 1952SOL    HW117492   3.959   1.014   1.835  1.8927 -0.9537  2.5338
 1952SOL    HW217493   3.846   1.077   1.895 -0.2302  0.1654  0.3662
 1953SOL     OW17494   1.397   0.394   2.267  0.6359 -0.0016  0.2763
 1953SOL    HW117495   1.469   0.395   2.331 -0.9429  0.8588  2.0252
 1953SOL    HW217496   1.347   0.316   2.293 -1.0665  0.6154 -1.1702
 1954SOL     OW17497   1.288   2.688  16.135 -0.1321 -0.0699  0.0591
 1954SOL    HW117498   1.243   2.724  16.212  0.9962  1.3645  0.0404
 1954SOL    HW217499   1.365   2.641  16.169 -0.5148 -2.4308 -2.3993
 1955SOL     OW17500   0.255   2.159   8.227  0.7257 -0.2345  0.5956
 1955SOL    HW117501   0.268   2.066   8.244 -3.0135 -1.1423 -1.3592
 1955SOL    HW217502   0.342   2.178   8.193  0.8303  1.0691  1.6002
 1956SOL     OW17503   3.756   3.891   1.171 -0.3380  0.2027 -0.3400
 1956SOL    HW117504   3.693   3.819   1.174 -1.1642  0.8687 -1.6733
 1956SOL    HW217505   3.699   3.959   1.133  1.2904  2.3381  1.0423
 1957SOL     OW17506   2.738   2.641   5.023  0.4311  0.0330  0.1178
 1957SOL    HW117507   2.704   2.637   5.112  3.0701 -0.6183  1.1013
 1957SOL    HW217508   2.807   2.707   5.036 -2.0058  2.7311 -0.7392
 1958SOL     OW17509   0.926   2.813   1.593  0.3063 -0.4651 -0.4669
 1958SOL    HW117510   0.856   2.833   1.531 -0.1137  0.4657  0.3090
 1958SOL    HW217511   1.004   2.816   1.537 -0.4761  1.6910 -1.4213
 1959SOL     OW17512   3.289   2.802  15.091  0.3511  0.1316  0.3271
 1959SOL    HW117513   3.263   2.756  15.171  1.8274 -0.2672  0.5836
 1959SOL    HW217514   3.253   2.888  15.115 -1.7403 -0.9953  1.2545
 1960SOL     OW17515   2.474   1.221   7.161 -0.0204  0.2270  0.2221
 1960SOL    HW117516   2.424   1.298   7.188 -0.7904  0.0939 -0.8477
 1960SOL    HW217517   2.552   1.260   7.122  0.7162 -0.9895  0.4682
 1961SOL     OW17518   0.297   4.466  10.589  0.3622  0.0009 -0.1908
 1961SOL    HW117519   0.307   4.541  10.531 -0.1777  1.1621  1.1946
 1961SOL    HW217520   0.205   4.440  10.579  0.3556  0.4293 -1.1640
 1962SOL     OW17521   0.156   3.618   7.244  0.2412 -0.1308 -0.4354
 1962SOL    HW117522   0.211   3.617   7.322  0.6094 -0.9744 -0.7010
 1962SOL    HW217523   0.109   3.538   7.269 -0.4643  1.1128  2.1765
 1963SOL     OW17524   1.265   2.572   2.696  0.5669  0.4140  0.3386
 1963SOL    HW117525   1.330   2.634   2.664 -0.7353  1.6170  0.0018
 1963SOL    HW217526   1.269   2.601   2.787  0.3858 -0.2536  0.5547
 1964SOL     OW17527   4.534   0.267  16.380 -0.0507  0.1064  0.3392
 1964SOL    HW117528   4.514   0.180  16.416  1.4853  0.0793  1.1232
 1964SOL    HW217529   4.560   0.323  16.452 -0.1582  0.6992 -0.0855
 1965SOL     OW17530   0.198   0.965   7.805  0.4561  0.0135  0.0227
 1965SOL    HW117531   0.243   1.037   7.761  0.6054 -0.7331 -1.0356
 1965SOL    HW217532   0.259   0.894   7.823  0.9369  0.7759  1.3997
 1966SOL     OW17533   1.914   3.535  14.432  0.1364  0.1355  0.2271
 1966SOL    HW117534   1.954   3.463  14.383 -0.0492 -0.3829  0.8356
 1966SOL    HW217535   1.911   3.602  14.363  1.0522 -3.2665 -3.1337
 1967SOL     OW17536   3.932   2.000   6.794 -0.4663 -0.1791  0.4897
 1967SOL    HW117537   3.922   1.905   6.798 -0.2851 -0.2545 -0.8758
 1967SOL    HW217538   3.901   2.018   6.883 -1.0581  1.3126 -0.0146
 1968SOL     OW17539   4.519   0.462   0.031 -0.5226 -0.2303 -0.3661
 1968SOL    HW117540   4.499   0.370   0.049  0.3508 -0.6450 -1.4825
 1968SOL    HW217541   4.580   0.453  17.698 -0.9285 -0.7643 -0.6388
 1969SOL     OW17542   4.204   1.432   2.996  0.5658  0.3657  0.2808
 1969SOL    HW117543   4.232   1.345   3.021  1.5233  0.0881 -1.8009
 1969SOL    HW217544   4.209   1.482   3.078 -3.9967  2.7835 -0.8518
 1970SOL     OW17545   3.952   2.038   7.204  0.6430  0.1146 -0.3069
 1970SOL    HW117546   3.997   2.122   7.213  1.5288 -0.5282  1.2867
 1970SOL    HW217547   4.023   1.998   7.153 -0.4545 -0.6988 -1.1929
 1971SOL     OW17548   1.643   3.812   2.035 -0.1410 -0.1323  0.1585
 1971SOL    HW117549   1.570   3.861   2.073 -0.1413  0.5117 -0.6624
 1971SOL    HW217550   1.662   3.762   2.114  1.6580  0.8100  0.3159
 1972SOL     OW17551   1.880   0.824   3.172 -0.3422 -0.0106  0.0778
 1972SOL    HW117552   1.944   0.767   3.216 -1.3382 -0.7444  0.5802
 1972SOL    HW217553   1.832   0.850   3.251 -0.8077 -1.8418  0.4023
 1973SOL     OW17554   2.796   0.362  13.314 -0.0476 -0.5158 -0.0686
 1973SOL    HW117555   2.864   0.308  13.356  1.7235  0.0681 -2.1692
 1973SOL    HW217556   2.851   0.425  13.268 -1.9128 -0.3243 -2.0473
 1974SOL     OW17557   3.692   1.649   2.514  0.0636 -0.3002 -0.4179
 1974SOL    HW117558   3.729   1.709   2.577  2.0414 -1.0790 -0.8433
 1974SOL    HW217559   3.721   1.560   2.534  2.2410 -0.0571 -2.4434
 1975SOL     OW17560   3.139   4.349   6.334 -0.6225 -0.4350  0.0566
 1975SOL    HW117561   3.088   4.291   6.277  2.2596 -1.8451 -1.0294
 1975SOL    HW217562   3.110   4.315   6.419  0.4704 -0.6297  0.3518
 1976SOL     OW17563   0.810   2.872  13.348  0.2049  0.1250 -0.2238
 1976SOL    HW117564   0.837   2.821  13.272  1.2612  0.3473 -0.0034
 1976SOL    HW217565   0.895   2.912  13.368 -0.4953  0.8180  1.3521
 1977SOL     OW17566   0.715   1.990   1.041  0.0072 -0.0603 -0.4032
 1977SOL    HW117567   0.798   1.944   1.056  0.8874  1.4193 -0.7819
 1977SOL    HW217568   0.723   1.993   0.946  0.2821  1.0247 -0.3497
 1978SOL     OW17569   3.666   1.295   1.370 -0.4192  0.2465  0.2146
 1978SOL    HW117570   3.609   1.228   1.332  0.7102 -0.8216  0.3971
 1978SOL    HW217571   3.624   1.380   1.361 -0.3347  0.0021 -2.3410
 1979SOL     OW17572   2.859   2.006   2.349  0.3038 -0.5028  0.3936
 1979SOL    HW117573   2.813   1.961   2.278  1.1180  0.6140 -0.8572
 1979SOL    HW217574   2.813   2.090   2.347  2.0292  0.4490 -0.0243
 1980SOL     OW17575   3.725   3.191  16.474  0.0889  0.3480 -0.3879
 1980SOL    HW117576   3.795   3.125  16.473 -1.1448 -0.9755  0.7523
 1980SOL    HW217577   3.742   3.217  16.565 -2.0973 -1.9529  0.6984
 1981SOL     OW17578   1.600   3.533   8.481  0.6109 -0.2720  0.3541
 1981SOL    HW117579   1.671   3.597   8.471 -0.7514  1.1634 -0.2122
 1981SOL    HW217580   1.641   3.466   8.534  3.3756  1.7157  0.7028
 1982SOL     OW17581   2.906   3.848  11.424  0.1488  0.1643  0.7061
 1982SOL    HW117582   2.867   3.849  11.337 -0.4684 -1.9533  0.9631
 1982SOL    HW217583   2.958   3.768  11.431 -1.5094 -0.8020  2.0353
 1983SOL     OW17584   1.930   1.282   4.371  0.0851 -0.3623 -0.1234
 1983SOL    HW117585   1.889   1.196   4.362  1.7984 -1.1480 -0.4431
 1983SOL    HW217586   2.014   1.271   4.327 -0.1414  0.0781 -0.6595
 1984SOL     OW17587   1.152   0.058   6.718  0.3156  0.3109  0.5396
 1984SOL    HW117588   1.142   4.729   6.647  1.2552  0.0174  0.6800
 1984SOL    HW217589   1.063   0.080   6.746 -0.9142 -0.4827 -2.6629
 1985SOL     OW17590   2.172   2.754   4.862 -0.1831 -0.3305 -0.0427
 1985SOL    HW117591   2.243   2.700   4.895 -0.1731 -0.8449 -0.9125
 1985SOL    HW217592   2.133   2.804   4.935 -1.2342  0.0636 -0.8729
 1986SOL     OW17593   0.556   0.768   8.856 -0.1370 -0.1896  0.2345
 1986SOL    HW117594   0.599   0.743   8.774  0.0966 -0.2760  0.3839
 1986SOL    HW217595   0.478   0.816   8.829 -0.5657 -0.6866  0.5899
 1987SOL     OW17596   4.587   4.428   6.071  0.2846  0.4276  0.5500
 1987SOL    HW117597   4.636   4.361   6.022 -0.9687 -1.3944  1.8095
 1987SOL    HW217598   4.571   4.392   6.158  1.7879 -0.1660  0.5935
 1988SOL     OW17599   4.478   4.721   6.993  0.5818  0.1992 -0.6668
 1988SOL    HW117600   4.392   4.685   6.973  0.3577 -0.4022  1.3506
 1988SOL    HW217601   4.483   4.697   7.086  0.3234 -0.5273 -0.8422
 1989SOL     OW17602   0.361   3.622  13.289 -0.0015  0.4541  0.2965
 1989SOL    HW117603   0.301   3.560  13.331 -0.0167 -1.3119 -2.3777
 1989SOL    HW217604   0.324   3.631  13.202  0.3269  0.2929  0.1396
 1990SOL     OW17605   3.276   2.988   8.008  0.5472 -0.2691  0.3232
 1990SOL    HW117606   3.367   2.975   7.982 -0.3936 -0.3148 -2.8517
 1990SOL    HW217607   3.298   3.072   8.050 -1.1239  0.2125  0.2398
 1991SOL     OW17608   4.352   0.203   5.732  0.0457  0.0950  0.3012
 1991SOL    HW117609   4.295   0.280   5.737  0.3009  0.4612 -2.0912
 1991SOL    HW217610   4.424   0.237   5.785  0.6785  0.0260 -0.5160
 1992SOL     OW17611   2.937   2.569   3.144 -1.3650 -0.0743  0.0904
 1992SOL    HW117612   2.918   2.476   3.132  0.4474 -0.1739 -2.0353
 1992SOL    HW217613   2.851   2.611   3.146 -0.7121  1.1932  1.0397
 1993SOL     OW17614   2.888   0.277   3.259  0.1741 -0.4964 -0.4581
 1993SOL    HW117615   2.875   0.266   3.353 -1.5216  0.1391 -0.6194
 1993SOL    HW217616   2.969   0.327   3.255 -0.3882  0.5468  1.2448
 1994SOL     OW17617   2.175   1.139   5.859  0.0426  0.2845 -0.2444
 1994SOL    HW117618   2.083   1.113   5.852  1.5288 -3.6237 -5.0747
 1994SOL    HW217619   2.215   1.058   5.889  0.2867  0.3290 -0.4465
 1995SOL     OW17620   1.528   1.628   7.193 -0.0118  0.1408  0.4571
 1995SOL    HW117621   1.584   1.665   7.262  0.8900 -1.3055  0.4873
 1995SOL    HW217622   1.464   1.699   7.183 -0.0483  0.2680  1.5888
 1996SOL     OW17623   2.184   0.299  13.652 -0.1881 -0.1431 -0.0716
 1996SOL    HW117624   2.093   0.284  13.628 -0.2839  0.4453 -0.0732
 1996SOL    HW217625   2.200   0.215  13.696  1.8330  0.8559  1.1048
 1997SOL     OW17626   0.869   0.676  11.423 -0.1810  0.4498  0.1284
 1997SOL    HW117627   0.944   0.639  11.378 -2.7256 -2.9241 -1.3837
 1997SOL    HW217628   0.915   0.709  11.501  0.3712 -2.4508  1.0379
 1998SOL     OW17629   2.318   3.207  14.104 -0.3542 -0.3294 -0.1592
 1998SOL    HW117630   2.375   3.137  14.072  0.3498 -0.5970  1.6761
 1998SOL    HW217631   2.351   3.222  14.193 -1.2663 -0.4484  0.2096
 1999SOL     OW17632   1.402   0.468   9.943  0.1874  0.2554 -0.5076
 1999SOL    HW117633   1.453   0.472   9.863 -1.7597  1.8012 -1.6921
 1999SOL    HW217634   1.348   0.390   9.928  1.7396 -0.3833 -2.6653
 2000SOL     OW17635   3.275   2.712   7.942  0.3283  0.2455 -0.5458
 2000SOL    HW117636   3.260   2.806   7.950  0.6353  0.2313  0.1659
 2000SOL    HW217637   3.359   2.719   7.897  2.0223  0.4249  2.6679
 2001SOL     OW17638   0.901   1.933  17.339 -0.6420 -1.0968  0.1082
 2001SOL    HW117639   0.945   1.944  17.423 -2.1197  2.9743  0.3699
 2001SOL    HW217640   0.967   1.922  17.271 -0.2499  1.8196  0.0007
 2002SOL     OW17641   3.191   3.785   8.274  0.4487 -0.7570 -0.2730
 2002SOL    HW117642   3.256   3.827   8.331  2.6300  0.4875 -3.6731
 2002SOL    HW217643   3.185   3.849   8.202  1.5265  0.1832  0.4634
 2003SOL     OW17644   2.987   3.680   7.094  0.4851  0.4719 -0.4720
 2003SOL    HW117645   2.939   3.670   7.177  0.7350  0.8346 -0.2860
 2003SOL    HW217646   2.994   3.587   7.072  1.4102  0.3702  0.2432
 2004SOL     OW17647   0.400   4.094   3.587 -0.4609  0.1196 -0.3516
 2004SOL    HW117648   0.379   4.004   3.562  0.3131  0.2308 -1.3641
 2004SOL    HW217649   0.426   4.107   3.679  0.2375 -1.0076 -0.3934
 2005SOL     OW17650   0.750   1.876   8.712  0.1608  0.2261 -0.0990
 2005SOL    HW117651   0.816   1.828   8.762 -1.0935 -2.4017 -0.9492
 2005SOL    HW217652   0.806   1.930   8.655  0.6576 -0.2322 -0.0411
 2006SOL     OW17653   2.354   2.949   5.655  0.0532 -0.6436  0.1400
 2006SOL    HW117654   2.427   2.996   5.616 -1.4813  1.2417 -0.4399
 2006SOL    HW217655   2.342   3.018   5.721 -1.9932  0.0861 -0.9936
 2007SOL     OW17656   3.559   3.832   1.870 -0.5686  0.2197  0.5679
 2007SOL    HW117657   3.553   3.796   1.958 -0.3083 -1.0799  0.0456
 2007SOL    HW217658   3.518   3.917   1.888  1.5330  0.8033  2.6426
 2008SOL     OW17659   0.257   0.485   7.906  0.4739  0.6376  0.2347
 2008SOL    HW117660   0.229   0.394   7.895  2.9992 -0.2116  0.9112
 2008SOL    HW217661   0.228   0.501   7.996  0.5864  2.0330  0.0272
 2009SOL     OW17662   3.983   1.469   9.988  0.6864  0.5019  0.1115
 2009SOL    HW117663   4.064   1.518   9.977  0.1892  1.5228  1.0171
 2009SOL    HW217664   3.929   1.508   9.919  1.9075  2.0560  0.0523
 2010SOL     OW17665   3.036   1.618  10.788 -0.2867  0.0263  0.3836
 2010SOL    HW117666   2.976   1.625  10.862 -0.4667  1.3604  0.1254
 2010SOL    HW217667   2.995   1.677  10.724  0.3638 -0.5324 -0.5437
 2011SOL     OW17668   2.105   2.162  10.228  0.0173  0.0920  0.0023
 2011SOL    HW117669   2.182   2.106  10.237  0.7336  1.3013  1.2815
 2011SOL    HW217670   2.088   2.206  10.311 -2.4704  0.4221 -0.6551
 2012SOL     OW17671   3.122   0.620   4.424 -0.3589 -0.3997 -0.1665
 2012SOL    HW117672   3.034   0.594   4.394 -0.2782  0.8398 -1.4698
 2012SOL    HW217673   3.099   0.655   4.510  0.8605 -0.1486  0.0495
 2013SOL     OW17674   0.906   4.363   4.067 -0.2090 -0.1146 -0.3206
 2013SOL    HW117675   0.961   4.391   3.994  2.0541 -0.0635  1.3898
 2013SOL    HW217676   0.883   4.449   4.103  0.7351  0.5779 -1.3456
 2014SOL     OW17677   3.038   0.319   0.896 -0.3729  0.1028  0.4272
 2014SOL    HW117678   3.079   0.239   0.863 -1.9406 -0.1812 -0.7731
 2014SOL    HW217679   3.101   0.339   0.966 -1.6566  0.6855  1.4169
 2015SOL     OW17680   0.401   2.402   2.409  0.0835  0.5283  0.3467
 2015SOL    HW117681   0.344   2.457   2.355  1.7878 -0.2106 -2.1897
 2015SOL    HW217682   0.466   2.381   2.341 -0.2332  2.8293 -0.6590
 2016SOL     OW17683   1.010   0.240   1.934 -0.0678  0.4915 -0.9976
 2016SOL    HW117684   0.959   0.277   2.007  0.5714  1.3335 -0.9813
 2016SOL    HW217685   0.990   0.311   1.873  0.9421  0.0359 -1.8493
 2017SOL     OW17686   0.929   2.741   4.730  0.3390  0.1417 -0.3933
 2017SOL    HW117687   0.928   2.669   4.793  0.8053  0.3504 -0.1465
 2017SOL    HW217688   1.006   2.784   4.768  1.1075 -1.1361 -0.5180
 2018SOL     OW17689   3.833   4.428   5.141 -0.0438 -0.1988  0.2703
 2018SOL    HW117690   3.810   4.478   5.063 -0.0669  1.3145  1.2566
 2018SOL    HW217691   3.761   4.365   5.137 -1.8127  1.7021  2.4030
 2019SOL     OW17692   0.177   1.750   8.687  0.2644 -0.0585  0.2983
 2019SOL    HW117693   0.196   1.663   8.720 -1.1352  0.3942  2.3154
 2019SOL    HW217694   0.158   1.729   8.596 -1.3561  1.9785  0.1514
 2020SOL     OW17695   3.351   1.651   0.115  0.4322 -0.0897 -0.3242
 2020SOL    HW117696   3.421   1.627   0.054 -1.2050  0.3825 -2.3945
 2020SOL    HW217697   3.316   1.730   0.076  0.8409 -1.6078 -3.7318
 2021SOL     OW17698   4.283   3.835   3.388  0.0297 -0.2059  0.3817
 2021SOL    HW117699   4.331   3.816   3.307 -0.8569  1.8661 -0.6234
 2021SOL    HW217700   4.213   3.770   3.383 -2.2903  2.1788  1.3579
 2022SOL     OW17701   2.161   0.829   2.227  0.4480 -0.1350 -0.6837
 2022SOL    HW117702   2.226   0.807   2.160  0.5641 -0.9368 -0.3131
 2022SOL    HW217703   2.147   0.743   2.266 -0.8662 -0.6820 -2.3108
 2023SOL     OW17704   0.768   2.478   8.483  0.1807  0.1239 -0.3385
 2023SOL    HW117705   0.817   2.410   8.436 -1.7167 -0.0560 -2.0469
 2023SOL    HW217706   0.835   2.547   8.475 -0.5297  0.8476 -0.0488
 2024SOL     OW17707   2.373   4.724   8.751 -0.1718  0.0370 -0.4048
 2024SOL    HW117708   2.429   0.061   8.778  0.1493 -1.6210  3.3604
 2024SOL    HW217709   2.310   0.034   8.695  1.2021  1.7268 -0.5849
 2025SOL     OW17710   0.958   2.359   1.447 -0.1439  0.1120 -0.4162
 2025SOL    HW117711   1.024   2.416   1.406 -1.1500 -0.5950 -3.0276
 2025SOL    HW217712   0.986   2.272   1.419  2.6800  0.6807  0.6424
 2026SOL     OW17713   1.323   1.125   2.242  0.1184 -0.1031 -0.3628
 2026SOL    HW117714   1.378   1.047   2.244 -0.4721 -0.4527  2.7628
 2026SOL    HW217715   1.236   1.086   2.251  0.2985 -0.4763 -0.2586
 2027SOL     OW17716   2.447   3.741   7.474  0.1611 -0.3699  0.5995
 2027SOL    HW117717   2.375   3.679   7.483  1.2058 -1.8543 -1.1073
 2027SOL    HW217718   2.411   3.809   7.531  1.3198  0.2898  0.5463
 2028SOL     OW17719   2.991   4.533   2.203  0.1026 -0.1947  0.1325
 2028SOL    HW117720   2.960   4.462   2.258  0.5204 -0.7144 -0.2937
 2028SOL    HW217721   2.999   4.496   2.115  1.3907 -2.5126  1.2238
 2029SOL     OW17722   3.416   2.548   1.075  0.3778 -0.0571  0.2279
 2029SOL    HW117723   3.460   2.623   1.117 -1.2508  0.7500  0.4883
 2029SOL    HW217724   3.352   2.534   1.145 -2.1426  0.9551 -1.9086
 2030SOL     OW17725   2.788   4.324  11.913 -0.5029  0.3535  0.0025
 2030SOL    HW117726   2.757   4.331  12.003 -0.8652  2.1654 -0.2594
 2030SOL    HW217727   2.880   4.299  11.924 -0.7162  0.0949  1.1918
 2031SOL     OW17728   0.516   1.908   8.276  0.1533  0.4263 -0.4158
 2031SOL    HW117729   0.584   1.866   8.329  0.7813  2.7648  0.6542
 2031SOL    HW217730   0.569   1.939   8.203  1.2601 -1.7743 -0.5197
 2032SOL     OW17731   2.376   2.467  12.139 -0.2840  0.1050 -0.2675
 2032SOL    HW117732   2.282   2.452  12.148  0.2407 -2.7941  0.2063
 2032SOL    HW217733   2.404   2.380  12.164  0.4863  0.2467 -0.6477
 2033SOL     OW17734   4.448   2.566   4.564  0.2871  0.0655 -0.2171
 2033SOL    HW117735   4.463   2.643   4.618 -0.7189 -1.1414  1.7798
 2033SOL    HW217736   4.527   2.518   4.590  0.8926  2.2176  1.9277
 2034SOL     OW17737   0.956   2.647   2.117  0.1029 -0.4395 -0.5738
 2034SOL    HW117738   1.012   2.724   2.100 -2.4870  0.8242 -3.3037
 2034SOL    HW217739   0.979   2.601   2.037  2.3835  0.7520 -0.6153
 2035SOL     OW17740   4.407   3.305   5.827  0.4282 -0.0171  0.5836
 2035SOL    HW117741   4.403   3.395   5.794 -0.9723 -0.3209 -0.0794
 2035SOL    HW217742   4.438   3.327   5.915 -0.4771  0.3184  0.8209
 2036SOL     OW17743   2.464   4.065   3.954  0.1131  0.2124 -0.1052
 2036SOL    HW117744   2.502   4.016   3.881  0.1222  1.4826 -0.9478
 2036SOL    HW217745   2.538   4.035   4.007 -0.7730  0.4724  1.2884
 2037SOL     OW17746   4.249   3.331  12.227 -0.2556 -0.0417 -0.5719
 2037SOL    HW117747   4.158   3.338  12.253  0.1409  0.3264  0.7072
 2037SOL    HW217748   4.272   3.298  12.314 -1.3839  1.5377  0.3206
 2038SOL     OW17749   3.193   0.452  11.190 -0.2873  0.3141  0.1606
 2038SOL    HW117750   3.180   0.370  11.143  3.9151  0.3425 -1.1118
 2038SOL    HW217751   3.123   0.504  11.152 -1.6404 -1.9745 -0.4589
 2039SOL     OW17752   2.290   2.141   8.161  0.3135 -0.3357  0.0076
 2039SOL    HW117753   2.309   2.228   8.125  0.1279 -0.6697 -0.9129
 2039SOL    HW217754   2.375   2.096   8.158  0.5154 -0.0092  0.9394
 2040SOL     OW17755   3.887   4.120   0.961  0.2876 -0.6120  0.0706
 2040SOL    HW117756   3.798   4.134   0.995 -0.4668 -2.6640 -1.0739
 2040SOL    HW217757   3.871   4.104   0.867 -0.4244 -0.7035  0.2058
 2041SOL     OW17758   1.094   0.335   7.256  0.0814  0.0671 -0.6843
 2041SOL    HW117759   1.081   0.250   7.215 -0.7363 -1.1656  2.1526
 2041SOL    HW217760   1.009   0.372   7.234  1.2643  2.5656 -1.1311
 2042SOL     OW17761   1.648   0.271  14.704  0.2891  0.1241 -0.0976
 2042SOL    HW117762   1.734   0.235  14.727  1.0247  1.3267 -1.0348
 2042SOL    HW217763   1.629   0.326  14.780  1.8607  2.4647 -1.3976
 2043SOL     OW17764   2.268   3.258  10.149  0.1583  0.3560  0.0076
 2043SOL    HW117765   2.201   3.200  10.111  0.3165  1.6496 -2.2150
 2043SOL    HW217766   2.320   3.292  10.076 -1.2195  2.6263  0.1071
 2044SOL     OW17767   1.541   0.395   6.528 -0.6896 -0.6550 -0.4668
 2044SOL    HW117768   1.470   0.379   6.465  0.2116 -1.7943 -1.2118
 2044SOL    HW217769   1.555   0.488   6.508 -0.6110 -0.6502 -0.3882
 2045SOL     OW17770   4.136   0.787   7.037 -0.7183 -0.4512 -0.0645
 2045SOL    HW117771   4.075   0.861   7.035  1.2628  1.1251 -0.9931
 2045SOL    HW217772   4.106   0.747   6.956 -1.3411  1.1646 -0.6295
 2046SOL     OW17773   2.624   0.370   5.314 -0.2054  0.0511 -0.2350
 2046SOL    HW117774   2.551   0.312   5.292  0.3643 -1.6913  2.3994
 2046SOL    HW217775   2.693   0.317   5.275 -1.1354 -0.8230 -0.6910
 2047SOL     OW17776   0.172   4.356   3.721 -0.1307  0.0525  0.1325
 2047SOL    HW117777   0.135   4.285   3.773 -2.4865 -0.0787 -1.7346
 2047SOL    HW217778   0.103   4.422   3.724  0.9425  1.0951  2.0537
 2048SOL     OW17779   0.995   3.998  12.715 -0.2634  0.1717  0.6790
 2048SOL    HW117780   0.979   3.915  12.760  0.4314 -0.4232 -0.1693
 2048SOL    HW217781   0.996   4.055  12.792 -0.2269  0.6941  0.2870
 2049SOL     OW17782   0.939   4.110   2.609 -0.9274  0.2253 -0.3738
 2049SOL    HW117783   0.907   4.189   2.566 -0.4894  0.3603 -0.4494
 2049SOL    HW217784   0.930   4.138   2.700 -0.3922 -2.1795  0.4235
 2050SOL     OW17785   0.459   3.623   3.116  0.2678 -0.4290  0.3152
 2050SOL    HW117786   0.452   3.718   3.124 -2.2537 -0.1879 -4.3545
 2050SOL    HW217787   0.379   3.602   3.067  1.5502 -3.3178 -0.5532
 2051SOL     OW17788   2.115   0.137   1.606 -0.5595 -0.3012  0.1129
 2051SOL    HW117789   2.070   0.058   1.576  1.4479  0.0349 -3.7283
 2051SOL    HW217790   2.189   0.144   1.546  0.0098  0.0337  0.8555
 2052SOL     OW17791   3.584   1.979   5.750  0.2021  0.0642  0.0052
 2052SOL    HW117792   3.492   1.995   5.729 -0.3824 -1.5521  1.3187
 2052SOL    HW217793   3.569   1.935   5.834  3.4153  3.2754  2.2276
 2053SOL     OW17794   3.838   0.541  13.461 -0.4287 -0.1981 -0.7778
 2053SOL    HW117795   3.775   0.543  13.389  0.0732  0.1654 -1.2142
 2053SOL    HW217796   3.779   0.504  13.526 -0.5519  0.8248 -0.2976
 2054SOL     OW17797   2.007   1.342  13.940  0.6595 -0.1195  0.4075
 2054SOL    HW117798   1.920   1.379  13.930  0.4741 -0.4944  0.6632
 2054SOL    HW217799   2.029   1.308  13.853  1.0636  2.1381 -0.3858
 2055SOL     OW17800   3.989   1.874   1.365 -0.1902 -0.5184 -0.5538
 2055SOL    HW117801   3.975   1.804   1.429 -0.2584  2.0473  2.2092
 2055SOL    HW217802   3.898   1.891   1.340 -0.1830  1.4108  0.7272
 2056SOL     OW17803   4.169   2.788   1.977 -0.3890 -0.0828 -0.1285
 2056SOL    HW117804   4.091   2.810   2.026  0.3631  0.2136  0.9367
 2056SOL    HW217805   4.165   2.692   1.971  1.1627 -0.1744  0.1269
 2057SOL     OW17806   0.240   2.324   6.076  0.9484 -0.0136  0.0233
 2057SOL    HW117807   0.238   2.419   6.082  1.4340 -0.0110  0.1212
 2057SOL    HW217808   0.314   2.325   6.016 -0.3674  2.6389 -1.5773
 2058SOL     OW17809   4.225   4.566  13.680 -0.2770  0.3153 -0.1486
 2058SOL    HW117810   4.313   4.551  13.713 -1.0407 -2.7014  0.4867
 2058SOL    HW217811   4.225   4.644  13.624 -0.3299  1.2514  1.1695
 2059SOL     OW17812   0.136   4.276   4.572  0.2598 -0.8119 -0.0537
 2059SOL    HW117813   0.127   4.366   4.540  3.0660 -0.5703 -0.1536
 2059SOL    HW217814   0.174   4.296   4.657  1.1436  1.0092 -0.8789
 2060SOL     OW17815   1.407   1.917  11.628  0.1155  0.1055  0.0984
 2060SOL    HW117816   1.454   1.998  11.649 -0.1557  0.1195  0.6575
 2060SOL    HW217817   1.390   1.884  11.716  1.0216  3.1738  1.4287
 2061SOL     OW17818   2.626   1.716   6.855 -0.5227  0.4234  0.3169
 2061SOL    HW117819   2.578   1.653   6.909 -1.0333  0.9323  0.4500
 2061SOL    HW217820   2.611   1.804   6.888  0.1556  0.3200  0.8863
 2062SOL     OW17821   3.623   2.763   1.761 -0.1091 -0.4223  0.7115
 2062SOL    HW117822   3.612   2.690   1.700  2.6917 -1.2193  1.1894
 2062SOL    HW217823   3.718   2.760   1.767 -0.0225 -0.4216 -0.6151
 2063SOL     OW17824   0.817   2.018   7.895 -0.2399 -0.2689 -0.4977
 2063SOL    HW117825   0.722   2.018   7.881 -0.3968  1.9089  0.5913
 2063SOL    HW217826   0.818   1.934   7.941 -3.0049 -0.3272 -0.5115
 2064SOL     OW17827   2.002   3.067  17.490 -0.4018  0.0061 -0.1259
 2064SOL    HW117828   2.078   3.037  17.441  0.0096  1.5457 -0.4383
 2064SOL    HW217829   2.025   3.160  17.501  1.7605 -0.4420 -0.9194
 2065SOL     OW17830   3.993   3.656  13.336  0.2868 -0.6836 -0.2859
 2065SOL    HW117831   3.947   3.631  13.416 -0.3925  1.5081  0.0017
 2065SOL    HW217832   3.925   3.707  13.293  0.8457  0.9071  0.7249
 2066SOL     OW17833   0.961   0.081   3.511 -0.5264 -0.0019  0.1337
 2066SOL    HW117834   0.896   0.132   3.461 -0.5609  0.9086  1.1044
 2066SOL    HW217835   1.032   0.075   3.447  0.3509  0.5844  1.0627
 2067SOL     OW17836   3.029   4.269   8.233  0.1793  0.2036  0.3762
 2067SOL    HW117837   2.939   4.267   8.203  0.5806  0.2095 -0.8302
 2067SOL    HW217838   3.085   4.299   8.162 -2.5447  1.6317 -1.1364
 2068SOL     OW17839   0.019   0.641  11.077 -0.0419  0.3164 -0.3875
 2068SOL    HW117840   0.033   0.635  11.171  1.1089 -0.2535 -0.5931
 2068SOL    HW217841   0.112   0.635  11.054 -0.1203 -3.0479  0.1433
 2069SOL     OW17842   3.920   1.002  11.664 -0.0188  0.6238  0.5020
 2069SOL    HW117843   3.967   0.954  11.597 -0.7577 -0.0377  0.4624
 2069SOL    HW217844   3.853   0.940  11.691  0.5382  1.2170  3.2839
 2070SOL     OW17845   2.717   1.903   0.564 -0.0786  0.1846  0.3561
 2070SOL    HW117846   2.699   1.908   0.470 -0.9085  0.9987  0.5582
 2070SOL    HW217847   2.782   1.973   0.575 -1.7315  1.7240  0.2870
 2071SOL     OW17848   2.275   0.384   6.647 -0.3509  0.3003  0.9030
 2071SOL    HW117849   2.264   0.292   6.623 -0.5807  0.7238 -0.6500
 2071SOL    HW217850   2.371   0.388   6.655 -0.4656  0.8448  1.9783
 2072SOL     OW17851   4.321   3.159   4.622  0.0010  0.0079  0.6230
 2072SOL    HW117852   4.275   3.229   4.575  2.6578  0.7219 -0.9268
 2072SOL    HW217853   4.341   3.208   4.703 -1.0188  0.3192  0.6903
 2073SOL     OW17854   3.586   1.957   1.182 -0.3369 -0.2338  0.6245
 2073SOL    HW117855   3.630   1.935   1.100 -0.8977  0.3377  0.1643
 2073SOL    HW217856   3.646   2.012   1.232  2.1572 -1.3141 -1.1617
 2074SOL     OW17857   0.242   2.701   5.334 -0.2006 -0.0522  0.3505
 2074SOL    HW117858   0.219   2.785   5.375  3.1762  2.6429 -3.2009
 2074SOL    HW217859   0.251   2.745   5.249  1.1801  0.9348  0.9925
 2075SOL     OW17860   0.042   3.699   3.727  0.2133  0.2968  0.8027
 2075SOL    HW117861   4.717   3.773   3.716 -0.5856 -0.6894 -1.4515
 2075SOL    HW217862   0.112   3.748   3.771  0.2430  1.1309 -0.1734
 2076SOL     OW17863   3.494   1.975   9.344 -0.3150  0.3278  0.1059
 2076SOL    HW117864   3.539   1.902   9.387 -2.9502 -0.4028  1.6051
 2076SOL    HW217865   3.561   1.997   9.279 -1.3476  2.0566 -0.3702
 2077SOL     OW17866   3.610   0.243   1.789 -0.2980  0.2017 -0.1511
 2077SOL    HW117867   3.530   0.220   1.835  1.8076 -0.9918  2.8827
 2077SOL    HW217868   3.658   0.161   1.784 -0.8646 -0.1366 -0.0226
 2078SOL     OW17869   2.683   1.942  10.015  0.3086  0.2279 -0.2125
 2078SOL    HW117870   2.669   1.948   9.921  3.4722 -0.3202 -0.7177
 2078SOL    HW217871   2.733   2.020  10.039  1.3516 -0.6189  0.3496
 2079SOL     OW17872   2.991   3.959   7.081  0.2092 -0.2115  0.1656
 2079SOL    HW117873   3.085   3.942   7.086  0.4929  0.8350 -1.7641
 2079SOL    HW217874   2.958   3.870   7.065 -1.8147  1.0637 -2.6559
 2080SOL     OW17875   4.403   0.104   3.622  0.3056  0.4196  0.5606
 2080SOL    HW117876   4.401   0.098   3.717  2.6157  1.9309  0.7060
 2080SOL    HW217877   4.494   0.075   3.610  0.3418  1.1486 -0.8610
 2081SOL     OW17878   1.424   3.988   2.117  0.0054  0.2371  0.1469
 2081SOL    HW117879   1.480   4.019   2.189  0.4111 -0.7696  0.2717
 2081SOL    HW217880   1.350   4.049   2.122 -0.0982  0.1303 -0.0725
 2082SOL     OW17881   3.396   4.212  14.550  0.2378  0.5393  0.0887
 2082SOL    HW117882   3.475   4.158  14.545  1.0007  1.6916 -0.3200
 2082SOL    HW217883   3.336   4.159  14.602  0.6060 -0.7916 -0.8250
 2083SOL     OW17884   2.382   2.327  16.633  0.3906  0.5867  0.5761
 2083SOL    HW117885   2.388   2.381  16.712  2.0547  0.6426  0.4087
 2083SOL    HW217886   2.423   2.385  16.569  1.5251 -1.4234 -0.5062
 2084SOL     OW17887   2.395   3.619   8.673  0.1387  0.2433 -0.4955
 2084SOL    HW117888   2.489   3.637   8.676  0.6844 -2.4339 -1.8952
 2084SOL    HW217889   2.384   3.583   8.585  1.3422  0.3058 -0.6763
 2085SOL     OW17890   0.898   0.293  13.174  0.3675 -0.4635 -0.2684
 2085SOL    HW117891   0.805   0.269  13.178  0.1905  0.0082 -1.7848
 2085SOL    HW217892   0.893   0.363  13.239 -0.2907  0.5440 -1.4015
 2086SOL     OW17893   3.840   1.153   9.966 -0.5955 -0.3908  0.6481
 2086SOL    HW117894   3.768   1.210   9.940 -0.2051  0.5210  1.5989
 2086SOL    HW217895   3.916   1.210   9.955 -2.1874  1.5289 -0.3042
 2087SOL     OW17896   1.495   4.634  14.627  0.5535  0.2683  0.4924
 2087SOL    HW117897   1.407   4.639  14.589  0.9380 -2.0382 -0.7237
 2087SOL    HW217898   1.537   4.691  14.562 -1.1885  0.2514 -0.6479
 2088SOL     OW17899   2.474   1.981   8.850  0.6278 -0.2654  0.1920
 2088SOL    HW117900   2.493   1.938   8.933 -0.5077 -1.9421 -0.4280
 2088SOL    HW217901   2.379   1.972   8.842  0.7216 -0.5060 -0.6424
 2089SOL     OW17902   4.517   1.640   6.149 -0.4114 -0.2841 -0.7219
 2089SOL    HW117903   4.531   1.634   6.244 -1.9863  0.0497 -0.4704
 2089SOL    HW217904   4.436   1.691   6.149 -0.2214  0.0213 -0.1023
 2090SOL     OW17905   1.766   0.372   4.031 -0.9745  0.0732 -0.2434
 2090SOL    HW117906   1.720   0.295   3.997 -1.7570  1.0343 -1.3618
 2090SOL    HW217907   1.792   0.345   4.119  0.3078  0.0077 -0.6391
 2091SOL     OW17908   1.191   0.647   5.374  0.3757 -0.2287 -0.0754
 2091SOL    HW117909   1.140   0.728   5.369  2.2881  1.1286  2.5972
 2091SOL    HW217910   1.218   0.636   5.283 -0.7139 -0.8010 -0.3314
 2092SOL     OW17911   3.587   2.160   4.898  0.0769 -0.7419  0.1244
 2092SOL    HW117912   3.624   2.245   4.923  0.6725  0.0609 -3.6183
 2092SOL    HW217913   3.576   2.172   4.804  2.5026 -1.8166 -0.3082
 2093SOL     OW17914   1.460   0.428  13.501  0.2412  0.3731 -0.1542
 2093SOL    HW117915   1.490   0.402  13.414  1.4316 -1.4966  0.8065
 2093SOL    HW217916   1.458   0.341  13.543 -0.2345  1.1846  1.4995
 2094SOL     OW17917   0.589   3.696  10.277  0.4277  0.0886  0.1628
 2094SOL    HW117918   0.516   3.678  10.218 -0.1186 -0.2939  0.9483
 2094SOL    HW217919   0.652   3.635  10.238 -1.7424 -0.5623 -2.3410
 2095SOL     OW17920   4.435   1.123   0.674 -0.4457  0.4288 -0.4580
 2095SOL    HW117921   4.404   1.044   0.719 -1.5726  0.1836 -1.6891
 2095SOL    HW217922   4.469   1.089   0.591 -1.5970 -1.0603 -0.3163
 2096SOL     OW17923   1.571   3.395   2.315  0.3296  1.1515  0.3482
 2096SOL    HW117924   1.541   3.473   2.267 -1.2020  0.6297  0.4351
 2096SOL    HW217925   1.627   3.431   2.383  0.8641  0.3057  0.3556
 2097SOL     OW17926   0.214   1.141  11.631 -0.2808  0.1518 -0.0880
 2097SOL    HW117927   0.290   1.194  11.653 -0.7684  0.9658 -0.3589
 2097SOL    HW217928   0.176   1.136  11.718  0.3706 -0.8731  0.1368
 2098SOL     OW17929   3.237   3.711  16.302 -0.0658 -0.0346  0.1688
 2098SOL    HW117930   3.160   3.748  16.259  0.5760  0.5539 -0.4780
 2098SOL    HW217931   3.228   3.618  16.284 -0.9930 -0.0181  0.5222
 2099SOL     OW17932   2.527   1.932   3.408 -0.4811 -0.2007 -0.1984
 2099SOL    HW117933   2.545   1.953   3.499  0.6483 -0.5376 -0.3389
 2099SOL    HW217934   2.523   1.836   3.404  0.5039 -0.2105 -0.9293
 2100SOL     OW17935   4.541   2.407  11.943 -0.2035 -0.4034  0.1530
 2100SOL    HW117936   4.596   2.372  11.873  0.5359  1.8775 -0.3872
 2100SOL    HW217937   4.489   2.470  11.893  1.7319  1.4175  0.4334
 2101SOL     OW17938   3.184   3.088  16.768  0.0050 -0.1346  0.5061
 2101SOL    HW117939   3.188   3.109  16.674 -0.2899  1.0188  0.7568
 2101SOL    HW217940   3.235   3.007  16.768 -0.7760 -0.6208  1.1443
 2102SOL     OW17941   0.653   0.817   9.517  0.2361  0.1580  0.1168
 2102SOL    HW117942   0.573   0.764   9.510  2.3985 -2.8829 -1.5567
 2102SOL    HW217943   0.616   0.878   9.581 -3.0519 -2.7037  0.9597
 2103SOL     OW17944   1.535   1.378   4.790 -0.1364  1.0306 -0.0649
 2103SOL    HW117945   1.586   1.297   4.797 -0.4562  0.9448  1.2610
 2103SOL    HW217946   1.600   1.432   4.835 -1.1656  1.5010  0.8580
 2104SOL     OW17947   1.059   0.731   8.791 -0.0895 -0.0664  0.3983
 2104SOL    HW117948   1.005   0.665   8.747  0.5437 -0.6747  0.5286
 2104SOL    HW217949   1.005   0.756   8.866  0.8318  4.9806 -0.6279
 2105SOL     OW17950   2.803   3.332   3.066  0.0884 -0.5585  0.1865
 2105SOL    HW117951   2.816   3.261   3.003  0.0710 -1.1548  0.8643
 2105SOL    HW217952   2.735   3.373   3.012 -0.2922  0.9032  1.7807
 2106SOL     OW17953   4.144   1.104   2.478 -0.0906 -0.0573  0.4126
 2106SOL    HW117954   4.185   1.187   2.453  2.2606 -1.7251 -1.2556
 2106SOL    HW217955   4.061   1.136   2.513 -0.6027 -1.1825  0.2160
 2107SOL     OW17956   2.110   2.564   6.574 -0.7227 -0.6131  0.7419
 2107SOL    HW117957   2.192   2.525   6.606  1.3841  0.8597 -2.7472
 2107SOL    HW217958   2.146   2.622   6.506 -3.4863 -0.1413 -0.2903
 2108SOL     OW17959   3.597   1.795  15.226 -0.2363  0.2588 -0.2511
 2108SOL    HW117960   3.679   1.820  15.182  0.0792  0.7318  0.6212
 2108SOL    HW217961   3.615   1.712  15.270  0.4799  0.7106  0.3050
 2109SOL     OW17962   2.398   0.466   8.955 -0.2549  0.0154  0.1190
 2109SOL    HW117963   2.372   0.558   8.952  0.2990  0.1695 -0.0511
 2109SOL    HW217964   2.490   0.486   8.936 -1.6616  2.8094 -3.5377
 2110SOL     OW17965   4.522   4.153   5.508  0.2601 -0.3067  0.2675
 2110SOL    HW117966   4.473   4.216   5.561 -0.9342 -0.4499 -0.6435
 2110SOL    HW217967   4.449   4.117   5.457 -0.7244 -1.1800  2.3004
 2111SOL     OW17968   1.511   4.031   2.535 -0.1601 -0.2267 -0.4649
 2111SOL    HW117969   1.456   3.998   2.606 -0.6767 -3.4114 -2.3362
 2111SOL    HW217970   1.440   4.076   2.488  0.2490  0.4234 -0.4556
 2112SOL     OW17971   0.033   1.906  10.495  0.1192 -0.2605  0.0561
 2112SOL    HW117972   0.062   1.957  10.419 -0.1583  0.9816  0.7805
 2112SOL    HW217973   4.674   1.897  10.481  0.5326 -1.8426 -1.6454
 2113SOL     OW17974   2.218   3.711   5.228  0.3007 -0.3598  0.1627
 2113SOL    HW117975   2.165   3.714   5.308 -1.4840  0.9763 -1.0762
 2113SOL    HW217976   2.293   3.659   5.257  0.0066 -0.6159  0.4544
 2114SOL     OW17977   1.695   3.569   3.599  0.0006  0.2912  0.4428
 2114SOL    HW117978   1.789   3.568   3.617  0.1174  2.9936 -0.0499
 2114SOL    HW217979   1.673   3.662   3.596 -3.9660 -0.6746 -0.6852
 2115SOL     OW17980   3.883   0.170   5.913  0.2859 -0.5602 -0.4663
 2115SOL    HW117981   3.888   0.102   5.845  1.2185 -1.3561  0.4070
 2115SOL    HW217982   3.973   0.199   5.925  0.1942 -0.1888 -0.6980
 2116SOL     OW17983   3.605   0.509   2.313 -0.3731 -0.0060 -0.2402
 2116SOL    HW117984   3.669   0.530   2.381 -0.0702  0.4985 -0.6803
 2116SOL    HW217985   3.588   0.418   2.335  2.2499 -0.4905 -0.2730
 2117SOL     OW17986   3.659   1.872  13.319 -0.0275  0.8002  0.1740
 2117SOL    HW117987   3.634   1.958  13.354  0.8304  0.4233  1.7218
 2117SOL    HW217988   3.571   1.852  13.285 -0.9972 -0.7630  3.5825
 2118SOL     OW17989   1.083   3.339   6.486 -0.0008  0.2982  0.7048
 2118SOL    HW117990   1.063   3.271   6.422  0.2395  0.8770  0.0019
 2118SOL    HW217991   1.179   3.341   6.480  0.0246  0.2804  1.1469
 2119SOL     OW17992   2.219   0.909   8.417  0.8425 -1.0007 -0.1338
 2119SOL    HW117993   2.251   0.996   8.443  1.0211 -1.1874  0.2636
 2119SOL    HW217994   2.204   0.873   8.504 -0.0695  1.2208  0.6475
 2120SOL     OW17995   3.929   1.522  10.398  0.3559  0.1460 -0.0931
 2120SOL    HW117996   3.952   1.532  10.490 -1.5306 -0.1649  0.4230
 2120SOL    HW217997   3.847   1.572  10.399 -0.4962 -1.2514  0.2928
 2121SOL     OW17998   2.473   0.959   9.343  0.5937  0.5229  0.4964
 2121SOL    HW117999   2.491   0.866   9.330  0.0605  0.5733 -0.5938
 2121SOL    HW218000   2.564   0.990   9.344  0.5329  0.7445 -0.7465
 2122SOL     OW18001   0.367   1.936  12.423 -0.3368  0.2440 -0.3559
 2122SOL    HW118002   0.354   2.013  12.477  1.0400 -0.1415  0.5230
 2122SOL    HW218003   0.461   1.917  12.431 -0.6327 -0.0597  2.4421
 2123SOL     OW18004   3.240   3.024   2.734  0.2696  0.5356  0.2771
 2123SOL    HW118005   3.290   2.950   2.700 -1.0965 -1.1482  1.9108
 2123SOL    HW218006   3.193   3.050   2.655  1.0013 -0.3067 -0.4347
 2124SOL     OW18007   1.587   0.923   3.983  0.6116 -0.1955 -0.4572
 2124SOL    HW118008   1.575   0.831   3.959  2.2771 -0.3110 -0.8326
 2124SOL    HW218009   1.650   0.935   3.912 -0.5201 -0.8779 -1.5835
 2125SOL     OW18010   2.182   0.074   6.086  0.0674 -0.0205 -0.1556
 2125SOL    HW118011   2.202   4.727   6.131  1.5795  0.7517  0.5617
 2125SOL    HW218012   2.172   0.126   6.165 -1.0058  1.9868 -1.6198
 2126SOL     OW18013   3.151   1.226   4.035 -0.0584 -0.3432  0.3516
 2126SOL    HW118014   3.093   1.161   4.076 -0.5123  0.1589  0.5140
 2126SOL    HW218015   3.239   1.210   4.068  0.2343 -0.0704 -0.2914
 2127SOL     OW18016   2.314   1.604   1.634  0.0303 -0.1298  0.2498
 2127SOL    HW118017   2.370   1.617   1.711  2.4909 -0.2800 -1.5449
 2127SOL    HW218018   2.329   1.686   1.588 -0.7947  1.0087  2.0092
 2128SOL     OW18019   2.671   1.084   2.920 -0.1912 -0.2131  0.5214
 2128SOL    HW118020   2.709   1.165   2.952 -0.2287 -0.1360  0.3710
 2128SOL    HW218021   2.605   1.071   2.988  0.8192 -1.2999  1.2756
 2129SOL     OW18022   3.748   0.982  10.148  0.6104 -0.2359 -0.9720
 2129SOL    HW118023   3.809   0.966  10.220  0.0956 -1.9956 -0.9287
 2129SOL    HW218024   3.799   1.029  10.082 -0.6689  2.1695 -0.2511
 2130SOL     OW18025   3.284   0.148   9.158 -0.2527  0.7794 -0.5199
 2130SOL    HW118026   3.250   0.131   9.246  2.3347 -1.5385  0.0231
 2130SOL    HW218027   3.205   0.124   9.109  1.3631 -1.3780 -2.0960
 2131SOL     OW18028   4.256   1.066   4.417  0.5053  0.3127 -0.3201
 2131SOL    HW118029   4.318   1.055   4.345  0.1722  1.9211 -0.8358
 2131SOL    HW218030   4.293   0.993   4.468 -0.0755  0.0227 -0.3104
 2132SOL     OW18031   4.235   3.956   1.569 -0.2003  0.5494  0.1943
 2132SOL    HW118032   4.265   3.966   1.659 -2.1160  3.2598  0.5569
 2132SOL    HW218033   4.259   3.868   1.539 -2.1152 -0.1414  0.6806
 2133SOL     OW18034   1.172   1.969   8.847 -0.2460  0.1732 -0.1396
 2133SOL    HW118035   1.251   2.001   8.891  0.4533 -1.3631 -0.2919
 2133SOL    HW218036   1.192   1.964   8.753  0.3530 -1.0175  0.0496
 2134SOL     OW18037   4.435   3.977   3.942 -0.1225 -0.1575  0.3141
 2134SOL    HW118038   4.387   4.059   3.952 -0.6588 -0.7857  3.0278
 2134SOL    HW218039   4.409   3.942   4.027 -0.7052  0.3184  0.3278
 2135SOL     OW18040   0.620   1.376   3.625  0.5469 -0.1250  0.3705
 2135SOL    HW118041   0.680   1.396   3.697  0.3783  0.6036  0.3157
 2135SOL    HW218042   0.620   1.281   3.635 -2.7432 -0.1452  0.2126
 2136SOL     OW18043   2.695   1.831   2.131 -0.7569 -0.1158  0.1806
 2136SOL    HW118044   2.732   1.743   2.133 -1.4985 -0.4848 -2.0341
 2136SOL    HW218045   2.607   1.818   2.165 -0.5500 -1.1105  0.3429
 2137SOL     OW18046   0.143   4.188  13.333  0.2423 -0.3494  0.1854
 2137SOL    HW118047   0.192   4.170  13.254 -0.7785 -0.4231 -0.4311
 2137SOL    HW218048   0.201   4.239  13.390 -2.3566  2.4000  0.4094
 2138SOL     OW18049   3.579   3.403  15.711 -0.2972 -0.3872  0.5580
 2138SOL    HW118050   3.637   3.462  15.759 -1.5617 -0.2904  1.9411
 2138SOL    HW218051   3.496   3.420  15.755 -0.6727  0.4570 -0.4647
 2139SOL     OW18052   3.400   3.934   7.349 -0.5125  0.0605 -0.0428
 2139SOL    HW118053   3.455   3.885   7.410 -0.4169 -0.3000 -0.4230
 2139SOL    HW218054   3.451   4.014   7.334  0.6863 -0.6946  0.0737
 2140SOL     OW18055   2.961   0.173   7.613 -0.7499  0.2252 -0.6000
 2140SOL    HW118056   2.975   0.184   7.707  0.9314  0.2473 -0.8498
 2140SOL    HW218057   2.993   0.257   7.578 -0.9774  1.2880  1.7381
 2141SOL     OW18058   3.534   3.482   5.831  0.0225 -0.2099  0.3855
 2141SOL    HW118059   3.444   3.454   5.847 -0.6728  1.7246 -0.2397
 2141SOL    HW218060   3.557   3.429   5.755  0.2523  0.6833 -0.1700
 2142SOL     OW18061   4.005   1.481  13.543  0.3950 -0.3596 -0.5370
 2142SOL    HW118062   3.954   1.402  13.524 -0.8005  0.8176 -2.2243
 2142SOL    HW218063   4.054   1.456  13.621 -1.5976  0.8279  1.0718
 2143SOL     OW18064   1.740   3.086   1.942  0.6195 -0.0823  0.2294
 2143SOL    HW118065   1.672   3.107   1.878 -1.7204 -1.1773  2.3982
 2143SOL    HW218066   1.691   3.130   2.011 -0.1393  1.0478 -1.0140
 2144SOL     OW18067   3.179   1.624  12.237  0.6406  0.0097  0.2264
 2144SOL    HW118068   3.150   1.627  12.145 -1.3524 -1.3463  0.8234
 2144SOL    HW218069   3.094   1.611  12.280  0.3738  1.2237  0.0616
 2145SOL     OW18070   3.817   1.374  17.101 -0.5233  0.3655  0.2565
 2145SOL    HW118071   3.862   1.447  17.143  0.4553  0.3755 -0.7818
 2145SOL    HW218072   3.858   1.377  17.014 -0.4092 -0.5527  0.2803
 2146SOL     OW18073   2.000   3.794   8.411  0.9928  0.2364 -0.0139
 2146SOL    HW118074   2.028   3.771   8.500  0.8903  0.1102 -0.0142
 2146SOL    HW218075   1.907   3.781   8.427  1.1081 -0.9077 -0.2286
 2147SOL     OW18076   2.233   1.010  11.106 -0.3046  0.4797 -0.5884
 2147SOL    HW118077   2.329   1.010  11.107 -0.2989 -2.0148 -1.2035
 2147SOL    HW218078   2.221   1.073  11.035  0.8631  0.6883 -0.6045
 2148SOL     OW18079   1.980   0.573   4.965 -0.4476  0.8627 -0.5968
 2148SOL    HW118080   1.926   0.647   4.993  1.1564  2.1033 -0.8222
 2148SOL    HW218081   2.050   0.618   4.919 -0.5026  1.7101  0.1443
 2149SOL     OW18082   2.261   3.472  15.955 -0.0118 -0.1898 -0.5330
 2149SOL    HW118083   2.351   3.440  15.949 -0.2882 -0.7666 -1.5709
 2149SOL    HW218084   2.261   3.538  16.024  0.0796 -1.2576  0.4979
 2150SOL     OW18085   1.137   2.811   1.387  0.1291  0.1577  0.0136
 2150SOL    HW118086   1.186   2.879   1.433  0.1137 -0.2396  0.6230
 2150SOL    HW218087   1.117   2.853   1.304 -1.3246  0.3757  0.4756
 2151SOL     OW18088   1.968   0.155   9.037 -0.4836 -0.3628 -0.1183
 2151SOL    HW118089   1.903   0.214   9.000 -0.9599 -0.6431  0.2599
 2151SOL    HW218090   1.996   0.100   8.963 -0.1007  0.1590 -0.3624
 2152SOL     OW18091   3.470   3.485   3.271 -0.0882 -0.1426 -0.1196
 2152SOL    HW118092   3.389   3.465   3.223 -0.8760 -2.2253  2.1129
 2152SOL    HW218093   3.532   3.423   3.235 -0.0601 -1.8434  2.8605
 2153SOL     OW18094   4.116   3.661   4.354  0.5651 -0.1084 -0.2645
 2153SOL    HW118095   4.207   3.664   4.327  0.0020  3.2534 -1.7855
 2153SOL    HW218096   4.072   3.713   4.287 -0.7218  0.4571  0.9971
 2154SOL     OW18097   1.160   4.273  16.169  0.8099  0.2521  0.3523
 2154SOL    HW118098   1.083   4.232  16.130  1.1507 -1.0936  1.0844
 2154SOL    HW218099   1.109   4.323  16.232 -0.0982 -0.6595  0.3364
 2155SOL     OW18100   4.528   2.371  13.719 -0.1820  0.3411  0.4286
 2155SOL    HW118101   4.613   2.330  13.730  0.4560  1.9769  1.6269
 2155SOL    HW218102   4.556   2.450  13.673  2.4889 -1.5419 -1.1710
 2156SOL     OW18103   4.176   1.648   7.129  0.9026 -0.2422 -0.8084
 2156SOL    HW118104   4.221   1.669   7.210  0.5569  0.7584 -0.8731
 2156SOL    HW218105   4.245   1.627   7.066 -0.7093 -0.9625 -2.3157
 2157SOL     OW18106   0.322   3.753   4.295  0.0569 -0.1986 -0.0863
 2157SOL    HW118107   0.238   3.757   4.341 -0.2742  0.4807 -0.7643
 2157SOL    HW218108   0.319   3.840   4.256  1.9246 -0.7230 -1.4205
 2158SOL     OW18109   4.008   3.172  12.281 -0.0372 -0.2313  0.2581
 2158SOL    HW118110   4.045   3.089  12.312  0.1174 -0.2642 -0.0137
 2158SOL    HW218111   3.918   3.139  12.273 -1.2174  2.5098  2.2896
 2159SOL     OW18112   4.101   4.311   9.448  0.4786 -0.0620 -0.5401
 2159SOL    HW118113   4.182   4.276   9.483  1.1018  2.2987  0.4001
 2159SOL    HW218114   4.050   4.340   9.524 -1.4035 -2.7329 -0.7859
 2160SOL     OW18115   1.751   1.262   6.741 -0.3489  0.2566  0.5008
 2160SOL    HW118116   1.705   1.225   6.817 -1.5670  0.2019 -0.2710
 2160SOL    HW218117   1.687   1.290   6.676 -0.0038  1.7590  0.8106
 2161SOL     OW18118   3.743   3.826   4.171  0.0560 -0.5016 -0.6012
 2161SOL    HW118119   3.719   3.914   4.143  0.6301 -0.5030 -1.1041
 2161SOL    HW218120   3.838   3.831   4.182 -0.0333  0.8819 -0.5244
 2162SOL     OW18121   0.768   3.251   1.389  0.0927  0.5245 -0.3054
 2162SOL    HW118122   0.831   3.224   1.456 -0.6629  0.3083  0.3161
 2162SOL    HW218123   0.770   3.345   1.404 -3.7575  0.1396  2.5677
 2163SOL     OW18124   4.353   0.656   6.480 -0.1250 -0.3176 -0.3734
 2163SOL    HW118125   4.300   0.639   6.403 -1.3580 -1.7915  0.8131
 2163SOL    HW218126   4.344   0.752   6.483  0.7074 -0.2740  0.8153
 2164SOL     OW18127   2.499   2.542   9.151  0.0407 -0.2147  0.0114
 2164SOL    HW118128   2.424   2.589   9.188 -0.1920 -0.4895 -0.1132
 2164SOL    HW218129   2.569   2.597   9.186 -1.9761  2.8208 -0.6144
 2165SOL     OW18130   3.560   1.811   7.188 -0.6505  0.1170  0.1269
 2165SOL    HW118131   3.566   1.896   7.145  1.6291 -0.7997 -1.3010
 2165SOL    HW218132   3.555   1.758   7.108 -0.7213 -0.0101  0.2147
 2166SOL     OW18133   3.092   4.268  12.209  0.4607  0.1208 -0.1259
 2166SOL    HW118134   3.060   4.339  12.264 -1.9881 -2.3364  1.6519
 2166SOL    HW218135   3.125   4.199  12.266 -0.0422  0.0646  0.0977
 2167SOL     OW18136   0.642   4.346  16.311  0.2379  0.2943 -0.5889
 2167SOL    HW118137   0.604   4.418  16.262  0.6316  0.4525 -0.6664
 2167SOL    HW218138   0.567   4.286  16.305  0.5287 -0.2548  1.0169
 2168SOL     OW18139   3.789   1.626   2.241 -0.3948 -0.1285 -0.4311
 2168SOL    HW118140   3.799   1.531   2.241  0.3676 -0.0570 -2.6370
 2168SOL    HW218141   3.759   1.638   2.331  0.9253 -0.4415  0.0428
 2169SOL     OW18142   0.951   4.108  11.103  0.4760  0.3252 -0.4261
 2169SOL    HW118143   0.857   4.093  11.093  0.6519 -0.5708 -0.7572
 2169SOL    HW218144   0.955   4.161  11.183  0.9996  0.0359 -0.2520
 2170SOL     OW18145   3.002   0.805   1.548 -0.3401 -0.0059  0.2326
 2170SOL    HW118146   2.918   0.849   1.558  0.2538  1.1388  0.2265
 2170SOL    HW218147   3.029   0.792   1.639  2.5758  0.8341 -0.5287
 2171SOL     OW18148   1.057   0.532   3.704  0.1989  0.0300 -0.9105
 2171SOL    HW118149   0.984   0.548   3.763 -0.7887 -3.0206 -1.2642
 2171SOL    HW218150   1.132   0.552   3.760 -0.9085 -2.3385  1.4090
 2172SOL     OW18151   1.711   1.409   8.382 -0.0916  0.2928 -0.3420
 2172SOL    HW118152   1.618   1.419   8.361  0.5291  2.5853 -2.0230
 2172SOL    HW218153   1.729   1.317   8.363  3.2959  0.4661  1.9930
 2173SOL     OW18154   1.767   0.057  15.770  0.0535  0.0017 -0.0091
 2173SOL    HW118155   1.675   0.030  15.764 -0.8142  3.2379 -1.1345
 2173SOL    HW218156   1.755   0.141  15.727 -0.9654 -0.2953 -0.2975
 2174SOL     OW18157   0.991   3.742  10.980 -0.1080  0.7878 -0.2435
 2174SOL    HW118158   0.956   3.699  10.902  1.3551  0.4570 -0.7288
 2174SOL    HW218159   0.922   3.720  11.043  0.2247  0.2782 -0.0480
 2175SOL     OW18160   0.147   0.950  17.697 -0.2533  0.2326 -0.3014
 2175SOL    HW118161   0.234   0.986  17.677  0.3606 -0.5589  1.0050
 2175SOL    HW218162   0.171   0.882   0.019 -1.2640  0.6523  0.5373
 2176SOL     OW18163   2.107   2.668   1.901 -0.0739  0.4056  0.2810
 2176SOL    HW118164   2.024   2.691   1.859 -0.7734 -1.2661  0.7761
 2176SOL    HW218165   2.174   2.715   1.851 -1.2549  2.5045  0.6727
 2177SOL     OW18166   2.866   2.199  16.784  0.2670 -0.1645  0.3283
 2177SOL    HW118167   2.961   2.205  16.770  0.2218  1.2277  0.6467
 2177SOL    HW218168   2.846   2.250  16.706 -1.4031 -1.3555 -0.0159
 2178SOL     OW18169   1.879   3.217  15.218 -0.2876  0.5382  0.3239
 2178SOL    HW118170   1.899   3.275  15.144 -1.4756  2.6260  1.6377
 2178SOL    HW218171   1.843   3.139  15.177 -2.2701  0.9741  1.2727
 2179SOL     OW18172   3.188   3.597   8.049 -0.3427  0.1780  0.4376
 2179SOL    HW118173   3.147   3.641   7.975 -0.8513 -0.9736  0.0280
 2179SOL    HW218174   3.184   3.666   8.114  0.3010  0.5147  0.1295
 2180SOL     OW18175   0.090   3.330  13.249  0.2841  0.4397 -0.8175
 2180SOL    HW118176   0.072   3.263  13.315  2.4217  0.2025 -0.4753
 2180SOL    HW218177   0.130   3.400  13.302  0.3258 -1.3264  1.4775
 2181SOL     OW18178   4.335   4.352   3.328  0.2452 -0.3147 -0.1701
 2181SOL    HW118179   4.321   4.258   3.338  1.2557 -0.2877  1.4831
 2181SOL    HW218180   4.299   4.375   3.243 -0.4283  0.2590  0.2683
 2182SOL     OW18181   2.655   2.836   9.049 -0.0660 -0.5640 -0.1096
 2182SOL    HW118182   2.636   2.842   9.142  1.5847  1.8618  0.0691
 2182SOL    HW218183   2.570   2.851   9.010  0.1446  0.2666 -0.2376
 2183SOL     OW18184   1.158   3.823   2.265 -0.1620 -0.0242 -0.0236
 2183SOL    HW118185   1.068   3.827   2.299 -0.6673 -0.6304 -1.2762
 2183SOL    HW218186   1.163   3.908   2.222 -0.0908  0.4180  0.8557
 2184SOL     OW18187   0.593   0.266   4.198  0.0333 -0.0660 -0.4022
 2184SOL    HW118188   0.678   0.222   4.201  0.4173  0.6720 -0.6095
 2184SOL    HW218189   0.539   0.188   4.216  0.1304 -0.5283 -2.1293
 2185SOL     OW18190   3.369   3.349   3.727  0.5537  0.7996  0.3069
 2185SOL    HW118191   3.407   3.331   3.641 -0.7849 -0.3721 -0.0400
 2185SOL    HW218192   3.293   3.402   3.701 -1.4823 -1.8552  0.9498
 2186SOL     OW18193   0.028   3.387   5.711  0.2103 -0.4186 -0.7267
 2186SOL    HW118194   4.696   3.351   5.654  0.8003 -0.7935 -1.1851
 2186SOL    HW218195   0.098   3.322   5.700  0.5834 -0.3977  1.4445
 2187SOL     OW18196   2.420   2.802  17.584 -0.2807 -1.2440  0.0319
 2187SOL    HW118197   2.426   2.741  17.510 -0.0612  0.1894 -1.1358
 2187SOL    HW218198   2.329   2.831  17.582  0.1034  0.0806  2.2049
 2188SOL     OW18199   3.628   0.681   7.112  0.1814 -0.1730 -0.6737
 2188SOL    HW118200   3.699   0.618   7.098 -0.7897 -1.2021 -0.9272
 2188SOL    HW218201   3.676   0.760   7.087 -0.6603  1.0114  1.4056
 2189SOL     OW18202   2.594   2.994   3.451  0.5476 -0.3447  0.0443
 2189SOL    HW118203   2.603   3.034   3.538 -0.5042 -0.3346  0.1442
 2189SOL    HW218204   2.682   3.000   3.413 -0.4158 -0.1294 -2.1564
 2190SOL     OW18205   0.437   2.071   7.102 -0.7307 -0.2546  0.2371
 2190SOL    HW118206   0.511   2.021   7.135  0.7650  1.1395 -1.0340
 2190SOL    HW218207   0.482   2.143   7.060 -0.4833 -0.0749  0.8081
 2191SOL     OW18208   1.055   4.536   8.387  0.3469 -0.2892 -0.2384
 2191SOL    HW118209   1.114   4.586   8.331 -0.6587 -1.0892 -1.9851
 2191SOL    HW218210   1.050   4.602   8.456  2.3328  2.3759 -2.6567
 2192SOL     OW18211   2.243   3.298   1.393  0.5075 -0.3134 -0.2553
 2192SOL    HW118212   2.260   3.375   1.447 -1.1815  1.3840 -2.1290
 2192SOL    HW218213   2.324   3.299   1.344  1.4485 -0.8783  1.2899
 2193SOL     OW18214   0.273   0.485  16.854  0.4442 -0.0881 -0.6618
 2193SOL    HW118215   0.296   0.556  16.794  1.3711  0.8709  0.8272
 2193SOL    HW218216   0.272   0.410  16.794 -3.6550 -0.2626 -0.4082
 2194SOL     OW18217   3.568   0.625   4.052 -0.0963  0.0337 -0.2248
 2194SOL    HW118218   3.506   0.664   4.114 -2.0859 -1.0476 -1.5396
 2194SOL    HW218219   3.606   0.702   4.010  1.3877 -0.7274 -0.2579
 2195SOL     OW18220   0.627   1.171   3.938  0.2541  0.1081 -0.2593
 2195SOL    HW118221   0.552   1.111   3.936  0.9397 -0.7281 -1.1227
 2195SOL    HW218222   0.579   1.248   3.966  0.3977  0.5367 -1.2000
 2196SOL     OW18223   3.985   1.557   5.225  0.6759  0.2640  0.1565
 2196SOL    HW118224   3.942   1.594   5.303  0.0275 -0.6592  0.2428
 2196SOL    HW218225   4.073   1.587   5.247  0.7882 -1.2527  1.8690
 2197SOL     OW18226   4.249   0.794   0.314 -0.3561  0.0242  0.3895
 2197SOL    HW118227   4.221   0.886   0.311  0.1849  0.1887  0.3357
 2197SOL    HW218228   4.159   0.761   0.310 -0.0344 -0.4125 -3.1130
 2198SOL     OW18229   0.867   3.475   7.385  0.6674 -0.4455  0.6284
 2198SOL    HW118230   0.814   3.418   7.440 -2.0703  2.1167  0.5982
 2198SOL    HW218231   0.837   3.563   7.408 -1.4225 -1.4215  1.6287
 2199SOL     OW18232   1.182   2.359   3.853 -0.1343 -0.2586 -0.0345
 2199SOL    HW118233   1.211   2.272   3.880  0.7467  0.2122  0.5274
 2199SOL    HW218234   1.123   2.381   3.926 -1.1848 -2.3008 -0.2730
 2200SOL     OW18235   3.852   0.322   4.210 -0.0666 -0.1713  0.2229
 2200SOL    HW118236   3.834   0.344   4.118 -0.7331 -2.2982 -0.1665
 2200SOL    HW218237   3.883   0.232   4.199  2.4151  0.9980 -2.4941
 2201SOL     OW18238   3.307   3.282   6.938  0.3951  0.2058  0.3719
 2201SOL    HW118239   3.392   3.290   6.982  0.7756  1.1651 -0.5396
 2201SOL    HW218240   3.336   3.305   6.850 -0.5455  1.1858  0.3281
 2202SOL     OW18241   4.047   4.150   6.215 -0.2584 -0.4337  0.0837
 2202SOL    HW118242   4.026   4.233   6.258  1.8882 -0.3418  0.9719
 2202SOL    HW218243   4.046   4.087   6.287 -0.7106 -2.6772 -1.9028
 2203SOL     OW18244   0.041   3.398   8.887  0.3708 -0.4143 -0.3811
 2203SOL    HW118245   0.006   3.361   8.805 -2.8425  0.0906  0.7902
 2203SOL    HW218246   0.073   3.316   8.924  0.6937  0.4668  1.2780
 2204SOL     OW18247   3.869   1.215   2.537 -0.5614  0.0103 -0.2511
 2204SOL    HW118248   3.806   1.176   2.597 -1.4026  0.8857 -0.5689
 2204SOL    HW218249   3.880   1.299   2.581 -2.5037 -0.9209  1.9990
 2205SOL     OW18250   3.857   0.954   4.537 -0.5010  0.3173  0.1643
 2205SOL    HW118251   3.808   0.932   4.616  0.0077 -2.1282 -0.1936
 2205SOL    HW218252   3.894   1.041   4.555 -0.4027  0.1013  1.0300
 2206SOL     OW18253   0.757   4.406   1.757 -0.7317 -0.0322  0.3451
 2206SOL    HW118254   0.672   4.444   1.737 -0.1705  0.4738 -1.0892
 2206SOL    HW218255   0.755   4.418   1.852  1.2655  1.3828  0.2246
 2207SOL     OW18256   0.655   1.005   0.984 -0.5701 -0.3826 -0.2701
 2207SOL    HW118257   0.688   1.026   0.897  2.5178 -0.9134  0.7705
 2207SOL    HW218258   0.739   0.986   1.026 -0.2564  0.5044 -0.5082
 2208SOL     OW18259   4.372   2.131  13.784 -0.1913 -0.0747  0.6684
 2208SOL    HW118260   4.400   2.222  13.776  0.3115 -0.1576  1.5007
 2208SOL    HW218261   4.404   2.112  13.696  0.5800 -2.0907  1.3950
 2209SOL     OW18262   4.531   0.728   7.419  0.0805  0.1175  0.2795
 2209SOL    HW118263   4.482   0.652   7.388  0.4464 -0.4835  1.1548
 2209SOL    HW218264   4.470   0.794   7.386  0.3949 -0.4083 -1.3304
 2210SOL     OW18265   0.338   3.999   0.855 -0.0157  0.0749  0.6576
 2210SOL    HW118266   0.267   4.010   0.919 -0.0474 -0.6113  0.7317
 2210SOL    HW218267   0.400   3.936   0.891  1.1635  1.5970  1.2740
 2211SOL     OW18268   3.287   0.867   5.987 -0.1361  0.7042 -0.1746
 2211SOL    HW118269   3.357   0.815   5.948 -1.6035 -1.5752  0.2445
 2211SOL    HW218270   3.213   0.849   5.929  0.5219 -0.3264 -0.6781
 2212SOL     OW18271   2.496   4.136   7.612  0.2550  0.3816  0.3411
 2212SOL    HW118272   2.513   4.206   7.550 -2.5808  0.6318 -0.1249
 2212SOL    HW218273   2.469   4.182   7.692 -2.9878 -0.1352 -0.4485
 2213SOL     OW18274   1.641   0.560  13.233  0.2546  0.4373 -0.5555
 2213SOL    HW118275   1.677   0.495  13.174  1.2075  2.3439 -2.0925
 2213SOL    HW218276   1.694   0.540  13.310 -0.7656 -0.5794 -0.1373
 2214SOL     OW18277   2.319   4.380   4.134 -0.1171  0.3429  0.1719
 2214SOL    HW118278   2.259   4.451   4.111 -0.5135 -0.2751 -0.6967
 2214SOL    HW218279   2.396   4.410   4.084  0.1189 -0.5394 -0.0028
 2215SOL     OW18280   1.625   3.528  14.150  0.4905  0.0175  0.0132
 2215SOL    HW118281   1.671   3.476  14.085 -0.5712 -0.1203 -0.6270
 2215SOL    HW218282   1.537   3.490  14.143  1.0528 -1.4055  0.6519
 2216SOL     OW18283   2.894   1.517   0.600 -0.2990  0.0998 -0.7154
 2216SOL    HW118284   2.963   1.578   0.626 -0.3812 -0.4711  0.8304
 2216SOL    HW218285   2.817   1.574   0.605  0.2150  0.6992  0.4032
 2217SOL     OW18286   1.110   0.413  16.539  0.5085  0.1900  0.1629
 2217SOL    HW118287   1.102   0.505  16.513 -0.3344 -0.2960 -1.2665
 2217SOL    HW218288   1.058   0.423  16.619 -1.4111 -0.7046 -0.9648
 2218SOL     OW18289   0.063   0.791   7.373  0.7081 -0.0196 -0.4786
 2218SOL    HW118290   0.079   0.808   7.466  0.0866 -2.1869  0.0205
 2218SOL    HW218291   4.703   0.789   7.382  0.6450  1.9941 -0.5335
 2219SOL     OW18292   1.681   3.980  13.627  0.2958 -0.0392 -0.3192
 2219SOL    HW118293   1.610   4.001  13.567 -0.5526  1.8595  1.3519
 2219SOL    HW218294   1.629   3.947  13.700  1.7359 -0.3917  0.5465
 2220SOL     OW18295   0.632   2.092   5.078 -0.3046  0.1584  0.3036
 2220SOL    HW118296   0.538   2.076   5.091  0.2564 -1.3245  2.5705
 2220SOL    HW218297   0.670   2.004   5.078  1.7796  1.0508  0.8877
 2221SOL     OW18298   4.092   4.600   8.116  0.6176 -0.0900  0.0510
 2221SOL    HW118299   4.029   4.633   8.180 -1.3611  1.4006 -2.6456
 2221SOL    HW218300   4.088   4.659   8.041 -0.4185  0.5683  0.6170
 2222SOL     OW18301   4.697   4.031  16.244 -0.8635 -0.2147 -0.1140
 2222SOL    HW118302   4.637   3.958  16.258 -0.5920 -0.1524  1.4676
 2222SOL    HW218303   4.668   4.098  16.306 -2.8065 -0.9557 -0.2183
 2223SOL     OW18304   0.660   2.707   7.110 -0.1979  0.0666  0.1382
 2223SOL    HW118305   0.589   2.649   7.080  0.4046 -0.1329 -0.9236
 2223SOL    HW218306   0.720   2.700   7.036  1.4431 -4.7194  1.9087
 2224SOL     OW18307   2.753   0.304   6.575 -0.1383  0.3373  0.6242
 2224SOL    HW118308   2.843   0.273   6.571  0.4108  2.2048 -1.8037
 2224SOL    HW218309   2.714   0.260   6.499 -1.3437  1.1365  0.7698
 2225SOL     OW18310   3.059   1.007   3.245 -0.0634  0.0861  0.1147
 2225SOL    HW118311   3.125   0.943   3.218  0.3787 -0.0642  1.5343
 2225SOL    HW218312   3.011   1.029   3.166 -0.4519  1.0252  0.6133
 2226SOL     OW18313   1.002   0.911   5.361  0.2529  0.1890  0.2098
 2226SOL    HW118314   0.946   0.917   5.438 -1.3494 -0.8979 -0.8755
 2226SOL    HW218315   1.070   0.977   5.370  0.9925 -0.2086 -2.3972
 2227SOL     OW18316   3.273   0.092   4.736  0.0610  0.5060 -0.4869
 2227SOL    HW118317   3.254   0.151   4.809  1.1896 -3.2536  2.8294
 2227SOL    HW218318   3.272   0.009   4.784 -1.1531  0.1466 -1.1319
 2228SOL     OW18319   4.501   4.574   6.442 -0.4667  0.4473 -0.2511
 2228SOL    HW118320   4.550   4.625   6.506 -0.4221  1.7835 -1.3645
 2228SOL    HW218321   4.573   4.532   6.394  0.0427  1.4344 -0.3377
 2229SOL     OW18322   3.218   2.643   6.310 -0.1268 -0.5847  0.7583
 2229SOL    HW118323   3.229   2.716   6.372 -1.7407 -1.0823  1.6360
 2229SOL    HW218324   3.305   2.603   6.321  0.1662  0.4982  2.5006
 2230SOL     OW18325   0.554   0.288   2.821 -0.0134 -0.0862  0.2852
 2230SOL    HW118326   0.545   0.193   2.823 -0.9249 -0.0868 -3.2834
 2230SOL    HW218327   0.474   0.302   2.770 -1.6229 -3.0149  2.0427
 2231SOL     OW18328   1.472   0.662   6.727  0.3162 -0.0972 -0.2192
 2231SOL    HW118329   1.448   0.707   6.808  0.2805 -0.3929 -0.0633
 2231SOL    HW218330   1.383   0.629   6.714  0.0024  0.0634  1.5018
 2232SOL     OW18331   2.993   1.751   0.795 -0.2126 -0.5678  0.3409
 2232SOL    HW118332   2.977   1.781   0.705 -1.1734  1.5865  1.2296
 2232SOL    HW218333   2.913   1.774   0.841 -0.3346  2.2753 -1.2900
 2233SOL     OW18334   0.318   2.855   4.037 -0.6236 -0.3281  0.2476
 2233SOL    HW118335   0.243   2.861   4.097 -0.9986  1.0585 -0.3643
 2233SOL    HW218336   0.280   2.878   3.952  1.2085  1.2552 -0.1238
 2234SOL     OW18337   1.990   4.034   8.285 -0.0313  0.3770  0.6837
 2234SOL    HW118338   1.986   3.951   8.332  1.2437  1.0509  1.9724
 2234SOL    HW218339   1.896   4.054   8.279 -0.0350  0.5766  1.4172
 2235SOL     OW18340   3.238   4.588  10.586  0.2076  0.0060  0.0542
 2235SOL    HW118341   3.259   4.678  10.560 -0.6666 -0.2919 -1.7269
 2235SOL    HW218342   3.164   4.611  10.642 -0.6484 -0.4274 -0.8889
 2236SOL     OW18343   4.268   4.515  15.168  0.0429 -0.5342  0.3084
 2236SOL    HW118344   4.328   4.528  15.240 -0.9601 -2.0662  1.4123
 2236SOL    HW218345   4.180   4.502  15.203 -0.0665 -1.0734 -0.1637
 2237SOL     OW18346   3.034   0.696   1.067  0.6955  0.2487  0.4087
 2237SOL    HW118347   3.097   0.690   1.138 -0.5362 -2.3746  1.2980
 2237SOL    HW218348   2.973   0.625   1.089 -0.9878  1.5631  0.0333
 2238SOL     OW18349   1.072   3.036   5.608 -0.0482  0.0954 -0.0371
 2238SOL    HW118350   1.091   2.947   5.638  1.5290  0.0035 -1.2915
 2238SOL    HW218351   1.142   3.045   5.543 -0.1088 -1.7413 -0.3604
 2239SOL     OW18352   1.032   0.955   1.966  0.7067  0.7276 -0.2180
 2239SOL    HW118353   0.984   0.941   2.048 -0.2005  1.0253 -0.7025
 2239SOL    HW218354   0.980   1.026   1.928  0.6149  0.2818 -0.9207
 2240SOL     OW18355   0.109   1.200   8.327  0.0177  0.0362  0.2304
 2240SOL    HW118356   0.200   1.172   8.317 -0.2867 -0.3569 -1.5686
 2240SOL    HW218357   0.066   1.119   8.351  3.0817 -1.3023  1.2223
 2241SOL     OW18358   3.570   1.554  13.642  0.3247 -0.0895 -0.2358
 2241SOL    HW118359   3.617   1.530  13.722 -1.8627  0.3798  1.1967
 2241SOL    HW218360   3.556   1.477  13.588 -0.6065 -2.3765  3.2619
 2242SOL     OW18361   4.097   3.429   9.713 -0.1201  0.4529  0.0421
 2242SOL    HW118362   4.093   3.411   9.620 -1.9233 -2.2592  0.6458
 2242SOL    HW218363   4.040   3.361   9.750  1.8418 -1.2363 -0.0675
 2243SOL     OW18364   3.326   3.457  16.710  0.7059 -0.2744  0.2159
 2243SOL    HW118365   3.262   3.416  16.652 -0.5420  2.2813 -0.2211
 2243SOL    HW218366   3.266   3.502  16.770  0.7363  0.9289 -0.6708
 2244SOL     OW18367   4.455   4.457   2.374  0.6436 -0.1711 -0.1012
 2244SOL    HW118368   4.395   4.521   2.337  1.9841  1.0905 -0.0712
 2244SOL    HW218369   4.402   4.407   2.436  0.2757  0.4168  0.0581
 2245SOL     OW18370   0.399   3.525  15.574  0.2146 -0.0969  0.3380
 2245SOL    HW118371   0.433   3.591  15.634 -1.0816  0.1894  0.7604
 2245SOL    HW218372   0.440   3.448  15.613 -1.8918 -0.5051  1.7572
 2246SOL     OW18373   4.708   2.162   4.749 -0.0015 -0.1115 -0.4114
 2246SOL    HW118374   0.067   2.170   4.739  0.2818 -1.9319  0.8949
 2246SOL    HW218375   4.706   2.079   4.701  2.2726 -0.1239 -0.4746
 2247SOL     OW18376   3.385   1.098   4.108  0.2846  0.0828 -0.0988
 2247SOL    HW118377   3.410   1.095   4.200  1.3740  0.4469 -0.3797
 2247SOL    HW218378   3.470   1.094   4.065  0.9433  0.6735  1.1568
 2248SOL     OW18379   1.349   2.305  15.484 -0.0468 -0.1551  0.6134
 2248SOL    HW118380   1.351   2.387  15.534 -0.7413  0.8603 -0.9900
 2248SOL    HW218381   1.387   2.333  15.400 -0.9727 -0.0084  0.2428
 2249SOL     OW18382   0.166   3.710  12.020  0.0626 -0.2845 -0.0466
 2249SOL    HW118383   0.169   3.697  11.925 -2.4603  2.3134 -0.5121
 2249SOL    HW218384   0.259   3.721  12.036 -0.4710  1.2138  2.0378
 2250SOL     OW18385   1.436   0.039   6.457  0.0235  0.6113 -0.0818
 2250SOL    HW118386   1.395   4.713   6.519  1.0190 -0.5194 -0.5404
 2250SOL    HW218387   1.486   4.712   6.404 -0.8773 -0.4829  0.3506
 2251SOL     OW18388   3.426   3.932   4.121 -0.1682 -0.1326  0.4376
 2251SOL    HW118389   3.386   4.019   4.121  1.5892  0.6717 -0.2629
 2251SOL    HW218390   3.517   3.956   4.136  0.3719 -0.2947 -2.5005
 2252SOL     OW18391   1.361   0.449   4.130  0.4076  0.6473  0.0163
 2252SOL    HW118392   1.429   0.389   4.099 -0.5357 -0.7006  0.5808
 2252SOL    HW218393   1.296   0.424   4.064 -0.8890 -0.2318  1.6470
 2253SOL     OW18394   2.865   3.925   5.251 -0.2538 -0.2342  0.4447
 2253SOL    HW118395   2.814   3.945   5.329 -0.1426  1.5623  0.0477
 2253SOL    HW218396   2.845   3.831   5.247  0.7121 -0.4076 -0.5085
 2254SOL     OW18397   0.879   1.705   2.483  0.1637  0.1822  0.6501
 2254SOL    HW118398   0.917   1.775   2.536  1.4267 -0.4087  0.5321
 2254SOL    HW218399   0.808   1.670   2.537  0.8149 -0.8768  0.8186
 2255SOL     OW18400   4.115   1.231   5.395 -0.3496 -0.4854 -0.1178
 2255SOL    HW118401   4.179   1.166   5.422  0.8553 -0.2055 -2.2747
 2255SOL    HW218402   4.120   1.293   5.467  0.5868  0.1491 -0.7219
 2256SOL     OW18403   0.074   3.516   6.860  0.6591 -0.1411  0.0719
 2256SOL    HW118404   0.139   3.587   6.861  0.4105  0.0772  1.1465
 2256SOL    HW218405   0.034   3.527   6.946 -0.7341 -0.7503 -0.5014
 2257SOL     OW18406   0.879   1.305  16.906 -0.2291 -0.0538  0.6344
 2257SOL    HW118407   0.809   1.322  16.844 -0.2546 -0.1568  0.6352
 2257SOL    HW218408   0.918   1.224  16.873  2.2468  1.5671 -0.4579
 2258SOL     OW18409   0.874   3.088   9.429  0.5799  0.2049  1.0562
 2258SOL    HW118410   0.844   3.006   9.390  1.0474 -0.1036  1.3351
 2258SOL    HW218411   0.958   3.096   9.384  0.6217 -0.0210  1.0922
 2259SOL     OW18412   0.473   3.991   6.158  0.2524  0.5247 -0.1169
 2259SOL    HW118413   0.551   3.949   6.123  1.2282  1.2762  1.1902
 2259SOL    HW218414   0.399   3.945   6.117  0.5864 -0.3622  0.2710
 2260SOL     OW18415   0.064   0.894   3.836 -0.3489  0.0943  0.4299
 2260SOL    HW118416   0.137   0.908   3.895 -0.3578  0.4934  0.3456
 2260SOL    HW218417   0.098   0.934   3.756  0.2742 -1.7467 -0.2359
 2261SOL     OW18418   2.307   4.442   8.743  0.1642 -0.7719  0.3333
 2261SOL    HW118419   2.282   4.463   8.833  2.3869  0.9239  0.5472
 2261SOL    HW218420   2.345   4.524   8.712 -0.5977 -0.0762  1.2369
 2262SOL     OW18421   4.733   3.190   3.412 -0.3454  0.4312  0.1867
 2262SOL    HW118422   0.054   3.201   3.335  1.7538 -4.4037  1.0380
 2262SOL    HW218423   4.673   3.263   3.397  1.2173  1.9928  1.6485
 2263SOL     OW18424   1.400   1.168   7.915  0.6413 -0.2120  0.3451
 2263SOL    HW118425   1.318   1.191   7.958  0.7037  0.5623  0.0569
 2263SOL    HW218426   1.367   1.113   7.844  3.4392 -2.7984  1.0677
 2264SOL     OW18427   2.148   3.282  15.328  0.7228 -0.2012 -0.1600
 2264SOL    HW118428   2.070   3.241  15.291 -0.5932  1.7361  0.4793
 2264SOL    HW218429   2.114   3.357  15.378  1.4629  0.0628 -0.0578
 2265SOL     OW18430   0.311   2.876   9.007 -0.7318 -0.4778 -0.8144
 2265SOL    HW118431   0.291   2.924   8.926 -1.6644 -0.2078 -0.4142
 2265SOL    HW218432   0.330   2.794   8.961  2.0035  0.1362 -0.7970
 2266SOL     OW18433   1.429   4.400   8.454 -0.2824 -0.2870  0.5426
 2266SOL    HW118434   1.475   4.467   8.506  0.0858  0.3186 -0.5678
 2266SOL    HW218435   1.362   4.364   8.511  1.3372 -4.6206 -0.3054
 2267SOL     OW18436   1.201   3.841   1.871  0.0070  0.3719  0.4588
 2267SOL    HW118437   1.288   3.841   1.911  0.4333  2.0898 -0.4430
 2267SOL    HW218438   1.223   3.908   1.806  0.7004  0.2948  0.6073
 2268SOL     OW18439   3.854   1.305  12.603 -0.1247 -0.1875 -0.4397
 2268SOL    HW118440   3.876   1.392  12.568 -1.8294  1.0144  1.5002
 2268SOL    HW218441   3.775   1.314  12.657  1.1693 -0.0171  1.4195
 2269SOL     OW18442   2.983   1.910   0.313 -0.3208 -0.1431  0.4609
 2269SOL    HW118443   2.997   1.973   0.243  0.0253  1.5528  2.0605
 2269SOL    HW218444   3.050   1.957   0.363 -1.5972  0.9304  1.1582
 2270SOL     OW18445   1.104   4.594   2.036 -0.0087  0.3168  0.2904
 2270SOL    HW118446   1.168   4.524   2.025  1.6799  1.3236  3.6836
 2270SOL    HW218447   1.081   4.568   2.125 -0.5740  2.8229  0.8757
 2271SOL     OW18448   1.715   3.270  17.663 -0.2193  1.0151 -0.0103
 2271SOL    HW118449   1.781   3.228  17.717  0.1764  0.4697 -0.9180
 2271SOL    HW218450   1.704   3.203  17.595 -0.4125 -0.1732  1.1915
 2272SOL     OW18451   1.960   2.871   2.090  0.1991 -0.0430  0.0576
 2272SOL    HW118452   1.906   2.868   2.170  1.2949 -0.8704  0.7650
 2272SOL    HW218453   1.891   2.882   2.026 -2.2160 -2.2069  2.2780
 2273SOL     OW18454   4.341   0.835   8.262  0.3204 -0.3275 -0.4111
 2273SOL    HW118455   4.430   0.840   8.296  0.2731 -0.3146 -0.2882
 2273SOL    HW218456   4.298   0.778   8.325  0.0350 -0.6358 -0.8858
 2274SOL     OW18457   3.583   4.029   3.721 -0.1143 -0.0241 -0.3481
 2274SOL    HW118458   3.631   4.108   3.747 -1.1481  0.1023  1.1442
 2274SOL    HW218459   3.634   3.956   3.755 -0.2219 -0.5960 -1.4171
 2275SOL     OW18460   4.594   3.568  12.674  0.1437 -0.2376  0.1262
 2275SOL    HW118461   4.650   3.637  12.710  0.1919  0.7169 -1.8048
 2275SOL    HW218462   4.601   3.571  12.579  2.3635  0.5880  0.3075
 2276SOL     OW18463   4.594   2.911   6.830  0.2267  0.3637  0.3487
 2276SOL    HW118464   4.533   2.863   6.773 -1.1795  3.1859 -0.4826
 2276SOL    HW218465   4.542   2.991   6.840  0.5269  0.7328 -1.0354
 2277SOL     OW18466   4.470   1.508   3.405 -0.0957 -0.3450  0.0430
 2277SOL    HW118467   4.471   1.414   3.425  1.7947 -0.0204  1.5096
 2277SOL    HW218468   4.530   1.540   3.472  1.4133  0.2570 -1.6027
 2278SOL     OW18469   1.207   1.746  13.960 -0.0766 -0.1228  0.2021
 2278SOL    HW118470   1.178   1.704  13.879  0.6372 -3.5254  1.7349
 2278SOL    HW218471   1.156   1.827  13.951 -1.0734 -0.7293  0.3988
 2279SOL     OW18472   0.841   4.215   2.885 -0.0614  0.4483  0.8814
 2279SOL    HW118473   0.832   4.144   2.948  1.4220 -1.1701 -0.7179
 2279SOL    HW218474   0.913   4.263   2.925 -0.4462  1.1630  0.7163
 2280SOL     OW18475   4.164   3.185   5.808  0.3499 -0.6271  0.4361
 2280SOL    HW118476   4.120   3.215   5.887 -0.7405  2.3707 -1.2730
 2280SOL    HW218477   4.243   3.239   5.815 -0.7986  1.1648 -0.1391
 2281SOL     OW18478   2.976   3.983   7.708 -0.2580  0.9791 -0.0052
 2281SOL    HW118479   2.893   4.015   7.675 -1.0326 -0.7464  0.2443
 2281SOL    HW218480   3.029   3.973   7.630 -1.0075  1.0693 -0.5224
 2282SOL     OW18481   2.837   3.642   5.259 -0.2748 -0.3672  0.0855
 2282SOL    HW118482   2.847   3.565   5.314  0.3162  0.1735  0.7317
 2282SOL    HW218483   2.805   3.596   5.181 -1.2761  0.5920 -0.0750
 2283SOL     OW18484   3.466   0.592   0.857 -0.5306 -0.0141 -0.2856
 2283SOL    HW118485   3.441   0.643   0.780  1.5689 -1.5858 -2.0315
 2283SOL    HW218486   3.475   0.506   0.815  2.5418 -0.1948  0.7072
 2284SOL     OW18487   4.720   1.666   8.139 -0.3023  0.5580  0.5856
 2284SOL    HW118488   0.063   1.682   8.087 -1.2967  0.8952 -0.7949
 2284SOL    HW218489   4.687   1.584   8.102  1.4648 -0.1970  0.6856
 2285SOL     OW18490   1.851   2.545   6.620 -0.5927  0.2038 -0.6494
 2285SOL    HW118491   1.824   2.453   6.618 -0.3374  0.1360 -1.0092
 2285SOL    HW218492   1.946   2.548   6.608 -0.4309  2.7858  1.0814
 2286SOL     OW18493   1.055   1.598   8.742 -0.1634  0.1789 -0.2158
 2286SOL    HW118494   1.079   1.546   8.665 -1.1276  0.7075 -0.8817
 2286SOL    HW218495   0.972   1.626   8.703  0.9600  1.8788 -1.3613
 2287SOL     OW18496   4.183   1.820   7.852 -0.0522 -0.4710 -0.7286
 2287SOL    HW118497   4.249   1.807   7.920 -0.5656  1.9072  0.2225
 2287SOL    HW218498   4.178   1.732   7.814  0.0546 -0.4868 -0.7065
 2288SOL     OW18499   3.094   0.560   9.834  0.5273 -0.4763  0.2233
 2288SOL    HW118500   3.078   0.648   9.800 -0.8687 -1.5805 -1.9066
 2288SOL    HW218501   3.003   0.536   9.819  0.3416  0.5223 -0.2737
 2289SOL     OW18502   4.328   3.992   7.887  0.3218  0.3270 -0.4574
 2289SOL    HW118503   4.237   3.976   7.911  0.7130  2.0052  2.2129
 2289SOL    HW218504   4.330   3.932   7.812  0.4777 -1.2019  0.7611
 2290SOL     OW18505   0.144   2.466  17.580 -0.1663  0.6428  0.0207
 2290SOL    HW118506   0.162   2.372  17.577  3.2960  1.2980 -0.8666
 2290SOL    HW218507   0.110   2.471  17.669 -1.4803 -1.3798 -0.3642
 2291SOL     OW18508   0.730   3.060  11.082  0.0148  0.5933 -0.3115
 2291SOL    HW118509   0.635   3.046  11.074  0.3138 -0.3662 -2.3706
 2291SOL    HW218510   0.736   3.056  11.177  1.2511  0.0145 -0.4230
 2292SOL     OW18511   0.486   1.808   5.791  0.9883 -0.5645  0.2439
 2292SOL    HW118512   0.526   1.877   5.844  2.1419 -1.0564  0.0041
 2292SOL    HW218513   0.440   1.867   5.732  1.4401 -1.4441 -0.9937
 2293SOL     OW18514   1.322   4.240   3.901 -0.3064 -0.0591 -0.6841
 2293SOL    HW118515   1.332   4.284   3.985  0.2065 -1.8050  0.1903
 2293SOL    HW218516   1.308   4.153   3.940  0.7961  0.3971  0.7157
 2294SOL     OW18517   4.020   2.757   0.938  0.4111 -0.4229 -0.2916
 2294SOL    HW118518   3.956   2.686   0.927  0.9627 -1.5922  4.1544
 2294SOL    HW218519   4.097   2.716   0.897  1.9811  0.2304  2.0426
 2295SOL     OW18520   0.420   0.943  14.585  0.1098  0.1659 -0.3265
 2295SOL    HW118521   0.433   1.015  14.647 -0.2190 -1.0709  1.1491
 2295SOL    HW218522   0.328   0.953  14.558 -0.1516 -2.1758 -0.2642
 2296SOL     OW18523   0.379   3.523   9.496 -0.1040 -0.1988  0.1517
 2296SOL    HW118524   0.298   3.572   9.489  0.7176  0.9516 -1.0279
 2296SOL    HW218525   0.362   3.445   9.443  0.0163  0.7970 -1.3401
 2297SOL     OW18526   1.542   4.280  16.343 -0.1045 -0.1414 -0.4017
 2297SOL    HW118527   1.514   4.302  16.255  1.6259  1.3594 -0.5651
 2297SOL    HW218528   1.545   4.363  16.390  2.3528 -2.9480  4.4877
 2298SOL     OW18529   4.188   0.369   7.922  0.1694  0.2360  0.1166
 2298SOL    HW118530   4.266   0.381   7.866  0.6320 -0.2478  0.6577
 2298SOL    HW218531   4.210   0.439   7.983 -2.4048  0.3560  0.9047
 2299SOL     OW18532   1.220   0.121   4.925 -0.3916  0.3218  0.1222
 2299SOL    HW118533   1.311   0.103   4.902 -0.0213  1.4468  0.7195
 2299SOL    HW218534   1.201   0.208   4.890 -1.1028 -0.0126 -0.3348
 2300SOL     OW18535   3.657   1.635  15.479 -0.1099  0.1790  0.5314
 2300SOL    HW118536   3.607   1.639  15.561  2.1699 -0.1122  1.9374
 2300SOL    HW218537   3.709   1.558  15.499  1.0834  0.7521 -0.3464
 2301SOL     OW18538   4.411   4.588  11.579  0.0052  0.8943 -0.0783
 2301SOL    HW118539   4.471   4.515  11.567  2.0862  2.0544  3.2984
 2301SOL    HW218540   4.467   4.657  11.544  1.9654 -0.1960  0.8856
 2302SOL     OW18541   4.026   3.355   4.824  0.2983 -0.4002  0.1107
 2302SOL    HW118542   3.980   3.318   4.900 -3.1665 -0.5765 -2.1051
 2302SOL    HW218543   3.987   3.314   4.747  1.4685  2.4337 -1.9761
 2303SOL     OW18544   3.759   2.986   7.746 -0.7553 -0.3005  0.4558
 2303SOL    HW118545   3.684   2.961   7.691 -2.1537  0.8699  1.8092
 2303SOL    HW218546   3.819   2.995   7.673 -1.1634  1.1425  0.3038
 2304SOL     OW18547   1.841   2.105  17.473 -0.0420  0.3734  0.1347
 2304SOL    HW118548   1.930   2.075  17.456 -0.7468 -0.7657 -1.4437
 2304SOL    HW218549   1.811   2.023  17.512 -0.7178  0.1244 -0.9311
 2305SOL     OW18550   4.524   1.846   9.280 -0.0109 -0.0779  0.1815
 2305SOL    HW118551   4.560   1.890   9.203  1.7889 -1.3108  0.3107
 2305SOL    HW218552   4.434   1.876   9.293  0.2040  0.4945  0.3299
 2306SOL     OW18553   3.217   2.831   9.213 -0.0964  0.5042 -1.3094
 2306SOL    HW118554   3.162   2.771   9.262  0.5961  1.4645  0.6615
 2306SOL    HW218555   3.205   2.798   9.124  1.7737 -1.0563 -0.9873
 2307SOL     OW18556   3.628   3.593   4.018 -0.0905  0.0243 -0.7312
 2307SOL    HW118557   3.662   3.641   4.094 -0.8443 -1.9056  0.8213
 2307SOL    HW218558   3.537   3.621   4.003  0.0778  2.3550  2.5252
 2308SOL     OW18559   4.511   2.629   9.158  0.0788  0.0066  0.2980
 2308SOL    HW118560   4.441   2.654   9.097 -0.6319  1.6976  1.7925
 2308SOL    HW218561   4.584   2.689   9.141  1.3787 -1.7830 -0.4024
 2309SOL     OW18562   0.361   1.803   2.027 -0.7107  0.6140 -0.7861
 2309SOL    HW118563   0.418   1.798   2.105  1.4435  1.0803 -2.3199
 2309SOL    HW218564   0.339   1.896   2.024 -2.3040  0.1840 -2.1419
 2310SOL     OW18565   2.949   2.686   7.634 -0.3728  0.0136 -0.4837
 2310SOL    HW118566   2.925   2.699   7.543  0.4122  0.4895 -0.6197
 2310SOL    HW218567   3.043   2.701   7.631 -0.1731 -0.9639  0.7614
 2311SOL     OW18568   3.251   0.144  14.073  0.0504 -0.2757 -0.3630
 2311SOL    HW118569   3.241   0.228  14.117 -1.3442  0.2946 -1.7945
 2311SOL    HW218570   3.300   0.163  13.993  0.9250 -2.4162 -0.3432
 2312SOL     OW18571   0.363   2.722   8.547  0.5446 -0.7182  0.1186
 2312SOL    HW118572   0.356   2.634   8.510  0.6384 -0.3942 -0.6567
 2312SOL    HW218573   0.348   2.773   8.468  0.9144 -2.8259 -1.2984
 2313SOL     OW18574   0.205   2.984   2.925  0.0838 -0.0033 -0.5138
 2313SOL    HW118575   0.161   2.905   2.893  0.7289 -0.0113 -1.4037
 2313SOL    HW218576   0.267   2.948   2.988 -0.0350 -1.9061 -1.4597
 2314SOL     OW18577   2.997   4.519  14.665  0.0433 -0.3900 -0.0179
 2314SOL    HW118578   3.015   4.591  14.605 -2.4548 -0.5470 -0.9719
 2314SOL    HW218579   2.999   4.562  14.751 -0.9172  1.8128 -1.0764
 2315SOL     OW18580   1.502   2.349   1.161 -0.0577 -0.1063  0.3585
 2315SOL    HW118581   1.583   2.356   1.210 -0.2930 -1.5186  0.9449
 2315SOL    HW218582   1.436   2.355   1.230 -1.2660 -0.7704 -0.7191
 2316SOL     OW18583   3.857   0.129   8.049  0.0174  0.5490 -0.4306
 2316SOL    HW118584   3.872   0.219   8.080 -1.6473  0.7199 -0.1220
 2316SOL    HW218585   3.797   0.105   8.119  3.3263  0.5796  2.3882
 2317SOL     OW18586   2.633   2.484  16.931 -0.5982  0.0090  0.2797
 2317SOL    HW118587   2.645   2.565  16.981 -1.3160  0.8610 -0.9369
 2317SOL    HW218588   2.608   2.415  16.993 -0.4143 -0.3064  0.0035
 2318SOL     OW18589   4.218   1.669   2.109  0.1046  0.0846 -0.1692
 2318SOL    HW118590   4.171   1.588   2.088 -1.0311  1.0998 -1.5880
 2318SOL    HW218591   4.157   1.705   2.173  0.1413 -1.0434  0.5096
 2319SOL     OW18592   0.768   1.061   4.550 -0.0563  0.0840 -0.3593
 2319SOL    HW118593   0.711   1.138   4.540  0.6182  0.7286  0.7457
 2319SOL    HW218594   0.853   1.101   4.567 -0.2466 -0.4692  1.8787
 2320SOL     OW18595   3.994   1.893   6.337 -0.1993 -0.3847 -0.2316
 2320SOL    HW118596   4.081   1.859   6.317 -0.4287  0.1560 -2.1189
 2320SOL    HW218597   3.968   1.822   6.395 -0.3292 -1.0747 -1.1364
 2321SOL     OW18598   4.712   4.579   4.598 -0.5790 -0.2671  0.0951
 2321SOL    HW118599   4.686   4.660   4.554 -1.1314  0.1503  1.1766
 2321SOL    HW218600   0.071   4.584   4.611 -0.6731  1.3789  0.1833
 2322SOL     OW18601   1.352   2.275   4.129  0.3927 -0.5348  0.3080
 2322SOL    HW118602   1.426   2.275   4.069  1.1357 -0.7596  1.2157
 2322SOL    HW218603   1.391   2.352   4.170  0.1362  0.0588 -0.5670
 2323SOL     OW18604   0.976   3.685   6.075 -0.0922 -0.2059 -0.0128
 2323SOL    HW118605   0.972   3.596   6.111 -1.4473  0.4791  1.5438
 2323SOL    HW218606   0.906   3.678   6.009  0.9992 -0.5078 -1.1287
 2324SOL     OW18607   2.318   2.064   0.183  0.5123 -0.1444  0.5353
 2324SOL    HW118608   2.352   1.980   0.152  0.2322  0.6304 -1.8785
 2324SOL    HW218609   2.362   2.084   0.266 -0.0023  0.0198  0.7681
 2325SOL     OW18610   0.586   4.636   8.191  0.3867  0.1058 -0.2678
 2325SOL    HW118611   0.508   4.581   8.184  0.4023 -0.0026  0.4298
 2325SOL    HW218612   0.653   4.574   8.221  0.8071 -0.1121 -1.6894
 2326SOL     OW18613   4.165   1.989  13.452 -0.4161  0.1819  0.4013
 2326SOL    HW118614   4.072   1.981  13.433 -0.9815  0.5720  3.1452
 2326SOL    HW218615   4.188   1.896  13.456 -0.6961  0.1069  0.2618
 2327SOL     OW18616   0.162   2.874  12.574 -0.1762 -0.4116  0.1930
 2327SOL    HW118617   0.089   2.934  12.557 -1.8962 -2.6075 -0.1349
 2327SOL    HW218618   0.120   2.813  12.635 -0.3353 -1.4571 -0.9596
 2328SOL     OW18619   0.324   2.389   8.782 -0.0317 -0.4759  0.4598
 2328SOL    HW118620   0.416   2.410   8.766 -0.2953 -0.0037 -0.4694
 2328SOL    HW218621   0.317   2.342   8.699 -2.8924 -0.7400  0.8455
 2329SOL     OW18622   0.920   1.939   6.085  0.2342 -0.4022 -0.2760
 2329SOL    HW118623   0.951   1.959   5.997  1.7632 -1.9580 -0.0745
 2329SOL    HW218624   0.958   1.851   6.087 -0.0760 -0.4494  2.8862
 2330SOL     OW18625   1.295   2.194   5.808  0.1299  0.1557  0.0261
 2330SOL    HW118626   1.272   2.188   5.715 -2.3322  0.5578  0.6285
 2330SOL    HW218627   1.256   2.280   5.826  0.1234  0.0158  0.6496
 2331SOL     OW18628   0.773   0.997   0.727 -0.4982  0.4380 -0.5133
 2331SOL    HW118629   0.739   1.071   0.677 -0.3452  2.1210  1.8998
 2331SOL    HW218630   0.866   1.022   0.733 -0.7315  0.8449  1.2242
 2332SOL     OW18631   3.666   2.228   3.486  0.0856 -0.1790  0.0433
 2332SOL    HW118632   3.683   2.243   3.579  0.0349  0.4461 -0.0452
 2332SOL    HW218633   3.573   2.252   3.486  0.2042  0.3001  0.6117
 2333SOL     OW18634   0.036   1.384   8.069  0.0572 -0.0860 -0.6082
 2333SOL    HW118635   0.124   1.372   8.105 -0.4199  0.4543  0.7515
 2333SOL    HW218636   4.713   1.353   8.139  0.7225  1.3826  0.5838
 2334SOL     OW18637   1.583   2.529   1.404 -0.4491 -0.3608  0.1298
 2334SOL    HW118638   1.639   2.453   1.390 -0.2476 -0.4141  1.2212
 2334SOL    HW218639   1.621   2.599   1.351 -0.2731 -0.3949  0.2107
 2335SOL     OW18640   2.680   4.499   6.049  0.2394 -0.2754 -0.0563
 2335SOL    HW118641   2.627   4.452   6.114  0.7724 -1.1236 -0.2373
 2335SOL    HW218642   2.616   4.567   6.026 -0.4877 -1.6905 -2.1495
 2336SOL     OW18643   4.570   3.141  13.556  0.5391  0.3365  0.4907
 2336SOL    HW118644   4.535   3.219  13.513 -0.8283 -1.5563 -1.8152
 2336SOL    HW218645   4.511   3.068  13.539  1.3177 -0.1512 -0.1156
 2337SOL     OW18646   0.685   3.031  14.060  0.2037  0.3770 -0.0437
 2337SOL    HW118647   0.693   2.942  14.025  0.1341 -0.4357  2.0120
 2337SOL    HW218648   0.597   3.040  14.097  0.5288  1.2648  0.4947
 2338SOL     OW18649   3.556   1.564   6.567 -0.1330  0.0231  0.4727
 2338SOL    HW118650   3.534   1.649   6.530 -1.5307 -0.5588 -0.0132
 2338SOL    HW218651   3.472   1.519   6.557  1.1463 -1.9896 -1.2884
 2339SOL     OW18652   0.492   3.129   1.517 -0.0147 -0.6051  0.4418
 2339SOL    HW118653   0.536   3.160   1.596 -0.0424 -1.3302  0.7358
 2339SOL    HW218654   0.566   3.108   1.460 -0.3851 -1.1188  0.1509
 2340SOL     OW18655   2.852   0.526   4.753 -0.2365  0.5173 -1.3118
 2340SOL    HW118656   2.872   0.433   4.744 -2.6772 -0.0349 -1.1092
 2340SOL    HW218657   2.763   0.518   4.788 -0.4658  1.2297 -1.7215
 2341SOL     OW18658   0.808   3.285  16.025 -0.0487  0.3384  0.1676
 2341SOL    HW118659   0.831   3.264  15.934  0.2733 -0.8514  0.5267
 2341SOL    HW218660   0.891   3.260  16.063  0.6194  1.8679 -0.2918
 2342SOL     OW18661   4.346   2.986   1.600  0.3549  0.0476 -0.5717
 2342SOL    HW118662   4.405   3.028   1.663 -2.4941  0.4352  1.8454
 2342SOL    HW218663   4.344   3.045   1.525 -0.8522  1.2044  0.3606
 2343SOL     OW18664   2.961   3.738  17.560 -0.2790  0.5522 -0.3953
 2343SOL    HW118665   2.869   3.741  17.586 -0.3908 -1.3099 -0.5662
 2343SOL    HW218666   2.991   3.819  17.602 -1.4828  1.0450 -0.4968
 2344SOL     OW18667   3.750   4.654   6.287  0.1450 -0.1996 -0.0922
 2344SOL    HW118668   3.670   4.701   6.309  0.3330 -0.1098  0.3971
 2344SOL    HW218669   3.811   4.725   6.265  0.3228  0.3859  2.2979
 2345SOL     OW18670   3.762   0.882   1.567  0.4752 -0.5648  0.5568
 2345SOL    HW118671   3.746   0.849   1.655 -1.3440 -3.7157 -0.9598
 2345SOL    HW218672   3.746   0.808   1.509  0.9103  0.1256 -0.4579
 2346SOL     OW18673   1.127   4.352   7.935  0.0577  0.5221  0.8171
 2346SOL    HW118674   1.188   4.425   7.946 -0.0324  0.6402  0.5315
 2346SOL    HW218675   1.175   4.280   7.976 -0.0738 -0.9098 -1.5505
 2347SOL     OW18676   2.081   0.663   8.560  0.0631  0.1961  0.4678
 2347SOL    HW118677   2.125   0.725   8.617  0.8629 -1.9715  2.1961
 2347SOL    HW218678   2.006   0.718   8.537  0.7660  1.2199  0.6495
 2348SOL     OW18679   0.536   4.501  12.499  0.4019  0.2179 -0.0958
 2348SOL    HW118680   0.542   4.419  12.547  2.5792 -0.7926 -2.0756
 2348SOL    HW218681   0.583   4.492  12.416 -0.7694 -0.6405 -0.6548
 2349SOL     OW18682   3.782   2.477   9.810 -0.5060 -0.1647  0.0894
 2349SOL    HW118683   3.718   2.489   9.740 -2.5657  0.6823  2.1423
 2349SOL    HW218684   3.722   2.463   9.884 -1.4285 -0.0831 -0.6500
 2350SOL     OW18685   0.146   4.730   5.389  0.1027  0.3894 -0.0291
 2350SOL    HW118686   0.066   4.694   5.351  1.3904 -1.7380 -0.7203
 2350SOL    HW218687   0.162   4.678   5.467  2.2034  0.0678 -0.6708
 2351SOL     OW18688   4.199   2.252  12.009 -0.5851 -0.5662  0.1923
 2351SOL    HW118689   4.275   2.196  11.992 -0.3786 -0.3057  0.2433
 2351SOL    HW218690   4.185   2.225  12.100 -1.1634 -1.9656 -0.3063
 2352SOL     OW18691   3.026   4.553   9.554 -0.0681 -0.0523 -0.2894
 2352SOL    HW118692   2.960   4.512   9.498  0.6046 -0.7818 -0.5429
 2352SOL    HW218693   3.064   4.609   9.486  1.4300 -1.5413 -0.6954
 2353SOL     OW18694   4.250   3.125   6.203  0.2767  0.3356  0.0705
 2353SOL    HW118695   4.259   3.082   6.118 -0.9728 -2.2208  1.2116
 2353SOL    HW218696   4.193   3.197   6.176 -0.9221 -0.3234  0.8175
 2354SOL     OW18697   4.045   2.167  14.761 -0.2751  0.0922 -0.2874
 2354SOL    HW118698   3.966   2.219  14.766 -1.6813 -1.8774 -2.0024
 2354SOL    HW218699   4.046   2.122  14.677  3.2727  1.0834 -0.7782
 2355SOL     OW18700   2.460   2.226   6.553 -0.2723  0.3393 -0.1993
 2355SOL    HW118701   2.493   2.300   6.603  3.0722 -0.6745 -0.9533
 2355SOL    HW218702   2.462   2.157   6.620  1.6919  0.5836 -0.0173
 2356SOL     OW18703   0.894   0.490   5.014  0.2226 -0.9141  0.2716
 2356SOL    HW118704   0.934   0.481   5.101 -1.6500  0.0565  1.2276
 2356SOL    HW218705   0.843   0.570   5.027 -1.3758 -1.4032 -2.9934
 2357SOL     OW18706   3.798   3.884   7.362 -0.6383 -0.4945  0.1712
 2357SOL    HW118707   3.717   3.844   7.333 -1.7260  0.0313  2.4670
 2357SOL    HW218708   3.787   3.884   7.457  2.4613 -3.5144  0.5277
 2358SOL     OW18709   0.502   3.734  13.011  0.1522  0.0418 -0.5496
 2358SOL    HW118710   0.417   3.710  13.047 -0.5239  1.3405 -1.2620
 2358SOL    HW218711   0.525   3.657  12.959 -0.3656  0.8041 -1.9085
 2359SOL     OW18712   1.985   2.053   0.190 -0.1426 -0.4777 -0.2662
 2359SOL    HW118713   2.066   2.078   0.146 -1.1062  1.6046 -0.8440
 2359SOL    HW218714   1.938   2.129   0.156  1.9110  0.8192 -0.1910
 2360SOL     OW18715   0.797   4.150   2.044 -0.1755  0.2251 -0.2921
 2360SOL    HW118716   0.849   4.132   2.122 -0.2159  0.8998 -0.1051
 2360SOL    HW218717   0.712   4.181   2.077 -1.3009 -1.7694 -1.3760
 2361SOL     OW18718   0.210   3.860  14.009 -0.4309 -0.5291 -0.0684
 2361SOL    HW118719   0.247   3.948  14.005  0.0097 -0.5839  2.4172
 2361SOL    HW218720   0.123   3.875  13.972  0.1566  1.0917 -0.7989
 2362SOL     OW18721   3.107   1.316   6.471  0.5960  0.4660 -0.0958
 2362SOL    HW118722   3.131   1.344   6.382  0.5634  1.8609  0.3397
 2362SOL    HW218723   3.031   1.370   6.494  2.6249  3.7566 -1.0587
 2363SOL     OW18724   0.846   1.859   1.674  0.2130 -0.4206  0.1912
 2363SOL    HW118725   0.782   1.878   1.605 -0.4905  0.3445  1.0486
 2363SOL    HW218726   0.845   1.763   1.669  2.5459 -0.3126 -2.2047
 2364SOL     OW18727   4.735   1.779   2.675 -0.7743 -0.5291 -0.3780
 2364SOL    HW118728   0.074   1.728   2.706 -1.6174 -1.8392 -0.4885
 2364SOL    HW218729   4.664   1.751   2.734 -0.8290  0.5875  0.0854
 2365SOL     OW18730   1.636   3.735   9.087 -0.5774  0.2210 -0.0727
 2365SOL    HW118731   1.722   3.748   9.127 -1.7891  3.7663  1.3180
 2365SOL    HW218732   1.575   3.785   9.140  0.8556  1.8627  0.0288
 2366SOL     OW18733   4.704   2.592   7.070 -0.2295  0.2127 -0.1156
 2366SOL    HW118734   0.040   2.606   7.008  2.0839 -2.0136  2.0430
 2366SOL    HW218735   4.669   2.505   7.049  1.6051 -0.8165  1.0631
 2367SOL     OW18736   2.034   4.488   3.578  0.2730 -0.1804 -0.0330
 2367SOL    HW118737   2.013   4.466   3.669  2.3336  0.9137  0.7195
 2367SOL    HW218738   1.949   4.500   3.536  0.6909 -0.9793 -1.1013
 2368SOL     OW18739   0.644   1.834   3.347 -0.5552 -0.0069 -0.2882
 2368SOL    HW118740   0.670   1.765   3.285 -1.7061 -1.2715  0.6337
 2368SOL    HW218741   0.553   1.849   3.320 -0.6301 -1.3445 -0.7982
 2369SOL     OW18742   2.394   1.107   4.335  0.5763 -0.1156 -0.5174
 2369SOL    HW118743   2.455   1.049   4.290 -0.5141 -0.6755 -1.2574
 2369SOL    HW218744   2.463   1.164   4.370  0.4750 -0.4112  0.1672
 2370SOL     OW18745   3.134   2.771   1.663 -0.0876  0.2427 -0.6191
 2370SOL    HW118746   3.203   2.824   1.624 -0.9330  1.5628 -0.3114
 2370SOL    HW218747   3.071   2.834   1.697  0.3953  0.5703 -0.3370
 2371SOL     OW18748   3.077   1.129   7.076  0.1214  0.2305  0.1010
 2371SOL    HW118749   3.033   1.161   7.155  0.2504  2.0229 -0.5528
 2371SOL    HW218750   3.005   1.089   7.028  2.1094 -2.1599 -0.8770
 2372SOL     OW18751   4.336   3.943   6.927  0.3786  0.0921 -0.1683
 2372SOL    HW118752   4.264   3.952   6.989  0.1348 -0.4416 -0.3721
 2372SOL    HW218753   4.307   3.866   6.877  1.2687  0.5694 -1.4149
 2373SOL     OW18754   2.964   2.517   8.296  0.7449  0.7495  0.3484
 2373SOL    HW118755   2.997   2.563   8.218  1.0860 -0.2650 -0.1050
 2373SOL    HW218756   3.053   2.504   8.330  0.6542 -0.6797  0.0346
 2374SOL     OW18757   3.430   1.002   0.939  0.4012 -0.1034 -0.1501
 2374SOL    HW118758   3.459   1.007   0.848 -0.2740  1.0206 -0.3043
 2374SOL    HW218759   3.341   0.970   0.924  1.0823 -2.2951  0.4530
 2375SOL     OW18760   1.117   1.101  10.013 -0.5591 -0.5454 -0.1210
 2375SOL    HW118761   1.148   1.163   9.948 -1.9452 -0.4628 -0.6857
 2375SOL    HW218762   1.189   1.039  10.001  0.7796  0.5727  2.1642
 2376SOL     OW18763   1.773   3.714   7.489 -0.1204  0.5009  0.2553
 2376SOL    HW118764   1.833   3.694   7.417 -1.4317 -0.1156 -0.6666
 2376SOL    HW218765   1.819   3.688   7.569 -1.0132  1.7104  1.1527
 2377SOL     OW18766   4.583   0.040   8.396  0.1277  0.4040  0.4134
 2377SOL    HW118767   4.528   4.704   8.363  2.9494 -1.8773  0.7115
 2377SOL    HW218768   4.661   4.728   8.423 -1.0156 -3.0186 -2.4014
 2378SOL     OW18769   4.216   1.479   1.165  0.1095  0.3628  0.1581
 2378SOL    HW118770   4.262   1.437   1.093 -1.2630  1.8523 -1.5785
 2378SOL    HW218771   4.281   1.546   1.190  0.4509 -0.1827  0.7491
 2379SOL     OW18772   3.235   3.855   7.125  0.2731 -0.3257 -0.3497
 2379SOL    HW118773   3.269   3.858   7.215 -0.3245  1.2610 -0.1874
 2379SOL    HW218774   3.224   3.760   7.120  1.1260 -0.2947 -2.4389
 2380SOL     OW18775   3.550   4.673   7.285 -0.6011 -0.0378 -0.1970
 2380SOL    HW118776   3.571   0.022   7.324 -2.9383  0.1716  0.6076
 2380SOL    HW218777   3.478   4.700   7.228 -0.9131 -0.7350 -0.1356
 2381SOL     OW18778   2.568   3.520   8.966 -0.2610  0.7653  0.3587
 2381SOL    HW118779   2.616   3.442   8.993 -0.2953  0.4654 -0.4487
 2381SOL    HW218780   2.479   3.492   8.990 -0.1057 -0.9072 -0.9674
 2382SOL     OW18781   1.413   2.856   5.692 -0.8857  0.2786 -0.1380
 2382SOL    HW118782   1.463   2.785   5.650 -0.3665  1.6155 -1.7376
 2382SOL    HW218783   1.466   2.870   5.771 -0.0376  2.6343 -1.1363
 2383SOL     OW18784   2.782   2.093   1.533  1.0199  0.3902 -0.1336
 2383SOL    HW118785   2.854   2.114   1.474 -0.7119  0.7626 -2.0880
 2383SOL    HW218786   2.731   2.174   1.528 -0.2834 -0.3469  1.1407
 2384SOL     OW18787   3.586   3.652  12.314  0.5907 -0.2823 -0.2692
 2384SOL    HW118788   3.645   3.640  12.240  1.3032 -2.6352  0.6693
 2384SOL    HW218789   3.579   3.747  12.324  0.1807 -0.3126 -0.2883
 2385SOL     OW18790   4.567   0.746   0.077 -0.2576  0.2577 -0.0959
 2385SOL    HW118791   4.588   0.668   0.025  1.1523  0.5619  0.0095
 2385SOL    HW218792   4.581   0.812   0.009  0.3976  1.6141  1.3786
 2386SOL     OW18793   0.168   1.731  11.533 -0.0760 -0.1988  0.2956
 2386SOL    HW118794   0.122   1.647  11.537  0.5414 -0.5172  0.6995
 2386SOL    HW218795   0.249   1.707  11.488 -0.3944  0.1724 -0.4661
 2387SOL     OW18796   1.261   4.490   2.909  0.7637  0.1838  0.9628
 2387SOL    HW118797   1.200   4.449   2.847  1.6240  2.6029 -1.4536
 2387SOL    HW218798   1.343   4.502   2.861  0.8068  1.8028  1.4397
 2388SOL     OW18799   3.605   3.300   6.949 -0.1741 -0.1822  0.1453
 2388SOL    HW118800   3.646   3.341   7.025 -0.3601  2.1179 -1.0074
 2388SOL    HW218801   3.670   3.315   6.880 -0.0411 -2.5705 -0.2587
 2389SOL     OW18802   1.795   2.108   4.413  0.5406 -0.0175 -0.0452
 2389SOL    HW118803   1.736   2.057   4.359  1.5814 -0.0778 -1.1258
 2389SOL    HW218804   1.883   2.084   4.383  1.6982  3.1230  0.8324
 2390SOL     OW18805   0.186   0.603   3.207  0.1636  0.7008  0.9775
 2390SOL    HW118806   0.230   0.601   3.122 -1.7587  1.7599 -0.0435
 2390SOL    HW218807   0.198   0.697   3.216  1.9262  0.3458  2.3006
 2391SOL     OW18808   3.931   2.329   6.083 -0.0305 -0.2285 -0.3298
 2391SOL    HW118809   3.925   2.311   6.177 -1.4573 -0.8315 -0.5358
 2391SOL    HW218810   4.021   2.360   6.087 -0.7465  1.8212 -0.4331
 2392SOL     OW18811   0.687   4.429   2.068 -0.4235  0.2438  0.1196
 2392SOL    HW118812   0.620   4.364   2.089  0.8102 -1.5840 -1.6348
 2392SOL    HW218813   0.637   4.500   2.027 -0.6659  0.1470  0.2456
 2393SOL     OW18814   3.839   2.964   1.278  0.6201  0.0993  0.1346
 2393SOL    HW118815   3.910   2.956   1.214 -0.0275 -1.5328 -0.3775
 2393SOL    HW218816   3.819   2.873   1.298  0.2371  0.1408 -0.0757
 2394SOL     OW18817   1.780   0.623   4.140  0.4406 -0.0478 -0.2349
 2394SOL    HW118818   1.710   0.679   4.106 -0.3130 -0.0518  1.3138
 2394SOL    HW218819   1.746   0.545   4.097  0.0619  0.4459 -0.8372
 2395SOL     OW18820   4.275   4.117   4.629  0.1780 -0.7841 -0.2403
 2395SOL    HW118821   4.221   4.190   4.599  0.5519 -0.4323 -0.0693
 2395SOL    HW218822   4.356   4.161   4.656 -0.8426  1.3205 -0.6383
 2396SOL     OW18823   1.142   1.254   3.081  0.3256 -0.3108 -0.2250
 2396SOL    HW118824   1.148   1.307   3.001  0.1012 -1.4029 -0.9738
 2396SOL    HW218825   1.064   1.200   3.076  0.5167 -0.5793 -0.3181
 2397SOL     OW18826   2.090   3.348   7.348  0.4103  0.0584 -0.0297
 2397SOL    HW118827   2.062   3.257   7.339  0.8188  0.1763 -2.2987
 2397SOL    HW218828   2.014   3.403   7.331  0.3506  0.5217  1.6790
 2398SOL     OW18829   3.986   4.149  12.766  0.1157  0.2686 -0.2169
 2398SOL    HW118830   3.909   4.104  12.799  0.3173 -1.4305 -2.1058
 2398SOL    HW218831   3.983   4.222  12.829  2.6550  0.9627 -0.8865
 2399SOL     OW18832   2.902   2.790   9.390 -0.2409  0.3708  0.2462
 2399SOL    HW118833   2.955   2.712   9.374 -0.5070  0.3761 -0.6863
 2399SOL    HW218834   2.899   2.835   9.305  0.9800 -0.5044 -0.2602
 2400SOL     OW18835   4.142   4.323   8.622 -0.0826 -0.2929  0.5462
 2400SOL    HW118836   4.180   4.347   8.538 -3.2463  1.3403 -0.4014
 2400SOL    HW218837   4.190   4.240   8.635  2.0914  0.3386 -3.5372
 2401SOL     OW18838   2.815   3.920  15.923  0.3226 -0.8307 -0.1287
 2401SOL    HW118839   2.784   4.005  15.954  0.8161 -1.2625  1.5672
 2401SOL    HW218840   2.855   3.940  15.839  0.3325  1.7777  0.5184
 2402SOL     OW18841   2.709   0.263   2.814 -0.3225 -0.4541 -0.2959
 2402SOL    HW118842   2.723   0.182   2.765  0.7611  0.2286 -1.1107
 2402SOL    HW218843   2.705   0.238   2.906 -1.7111 -0.3236 -0.3198
 2403SOL     OW18844   3.067   1.383   7.910  0.0606 -0.0335  0.0541
 2403SOL    HW118845   3.130   1.437   7.957 -0.3155  0.7766 -0.3679
 2403SOL    HW218846   3.062   1.306   7.966 -2.3352 -0.3704 -0.6126
 2404SOL     OW18847   0.773   1.306   7.572  0.2012 -0.1417  0.4293
 2404SOL    HW118848   0.831   1.382   7.577  0.4091 -0.3420  1.1279
 2404SOL    HW218849   0.701   1.326   7.512  0.5358 -1.3884 -0.3743
 2405SOL     OW18850   3.433   1.921   6.028  0.1729 -0.0752 -0.1119
 2405SOL    HW118851   3.388   1.997   5.990  0.3966  0.4976  0.7445
 2405SOL    HW218852   3.511   1.970   6.057 -0.7821  0.7653  1.0450
 2406SOL     OW18853   2.885   0.007   5.735  0.2309  0.2071  0.4888
 2406SOL    HW118854   2.849   0.088   5.698 -1.4773 -1.2498 -1.0509
 2406SOL    HW218855   2.839   4.673   5.687  1.0120  0.7832 -1.0944
 2407SOL     OW18856   3.134   0.593  17.255  0.1272  0.4197  0.5707
 2407SOL    HW118857   3.077   0.516  17.250  2.8956 -1.5366 -1.0326
 2407SOL    HW218858   3.087   0.657  17.308  1.1746  1.1125  0.6600
 2408SOL     OW18859   1.527   1.008  17.191 -0.4313  0.4467 -0.2893
 2408SOL    HW118860   1.583   0.942  17.232  1.4713  1.4041 -1.3206
 2408SOL    HW218861   1.583   1.075  17.150  0.5420 -0.6875 -0.8185
 2409SOL     OW18862   2.948   2.642   7.105  0.6764 -0.4188 -0.1147
 2409SOL    HW118863   3.019   2.581   7.082  0.0050 -1.3513  0.2842
 2409SOL    HW218864   2.982   2.721   7.062 -1.2178 -0.2025 -1.2036
 2410SOL     OW18865   0.134   0.892  14.905 -0.4784 -0.7547  0.7437
 2410SOL    HW118866   0.157   0.829  14.974  2.6485  1.2561  1.5166
 2410SOL    HW218867   0.039   0.885  14.911 -0.6041 -0.8330 -1.5325
 2411SOL     OW18868   4.481   1.224  15.000  0.2517  0.3525  0.7956
 2411SOL    HW118869   4.386   1.212  15.001  0.2647  0.1745 -0.2629
 2411SOL    HW218870   4.507   1.145  15.047 -2.3319 -0.8057  0.2490
 2412SOL     OW18871   2.208   3.488   6.719  0.1845  0.6465 -0.2020
 2412SOL    HW118872   2.230   3.548   6.648  0.7212  0.0065 -0.5751
 2412SOL    HW218873   2.132   3.448   6.677 -0.2239  0.0186  1.1388
 2413SOL     OW18874   2.098   3.072   4.230 -0.9077  0.0338  0.4758
 2413SOL    HW118875   2.113   3.163   4.205 -2.2647  0.3308  0.7290
 2413SOL    HW218876   2.015   3.061   4.184 -0.3986  0.1322 -0.4717
 2414SOL     OW18877   0.609   3.185   3.000  0.2624  0.3337  0.0740
 2414SOL    HW118878   0.580   3.093   2.998 -1.2555  0.8518 -2.0306
 2414SOL    HW218879   0.620   3.203   2.907  0.2155 -1.4617 -0.2813
 2415SOL     OW18880   3.810   3.390  14.201  0.5000  0.3419 -0.0758
 2415SOL    HW118881   3.855   3.425  14.125 -1.2683  1.7670 -0.4491
 2415SOL    HW218882   3.880   3.410  14.264 -0.2110  0.6844  0.6061
 2416SOL     OW18883   3.799   3.066   8.376  0.5167  0.1971 -0.3324
 2416SOL    HW118884   3.892   3.047   8.364  0.7525  0.3539  1.1863
 2416SOL    HW218885   3.775   3.025   8.459  0.9827 -0.4862 -0.5399
 2417SOL     OW18886   4.079   4.536   2.841  0.0299  0.0946  0.1085
 2417SOL    HW118887   3.991   4.561   2.810 -0.1833 -0.2029  0.4802
 2417SOL    HW218888   4.122   4.622   2.838 -2.2728  1.2370 -0.9419
 2418SOL     OW18889   4.622   4.098   8.413  0.1957  0.7337  0.6164
 2418SOL    HW118890   4.628   4.010   8.448 -1.5010 -0.3676 -1.9036
 2418SOL    HW218891   4.614   4.092   8.318  1.5859  2.7865  0.3641
 2419SOL     OW18892   0.186   1.956   3.432 -0.5430 -0.5110  0.3359
 2419SOL    HW118893   0.142   1.973   3.349 -1.2019  3.5008  1.4733
 2419SOL    HW218894   0.140   2.028   3.476  2.8582  2.3240 -0.7482
 2420SOL     OW18895   1.720   2.784   3.929 -0.3586 -0.4676 -0.3363
 2420SOL    HW118896   1.673   2.861   3.897 -0.8783 -1.3507 -1.7185
 2420SOL    HW218897   1.727   2.790   4.024 -0.2832  1.9127 -0.4992
 2421SOL     OW18898   3.991   1.328  10.220  0.1557  0.4403  0.3644
 2421SOL    HW118899   3.994   1.365  10.132  0.7664 -0.7569 -0.1212
 2421SOL    HW218900   3.956   1.409  10.256 -2.8517  0.9938 -3.7788
 2422SOL     OW18901   0.256   2.204   8.588 -0.0437 -0.5317 -0.0308
 2422SOL    HW118902   0.248   2.144   8.662 -1.1979 -1.9818 -1.3443
 2422SOL    HW218903   0.311   2.141   8.542 -0.2253 -0.0777 -0.8810
 2423SOL     OW18904   3.219   1.640   9.053  0.5192  0.0986  0.1380
 2423SOL    HW118905   3.236   1.593   8.972  2.6928  1.1316  0.0088
 2423SOL    HW218906   3.207   1.568   9.115  2.7787 -0.2060  0.2273
 2424SOL     OW18907   2.480   1.026   2.355 -0.1204 -0.6231 -0.0076
 2424SOL    HW118908   2.501   0.979   2.435  0.2649 -0.0722  0.2204
 2424SOL    HW218909   2.473   0.952   2.295  0.8570  0.0610 -0.9924
 2425SOL     OW18910   2.466   4.524   1.828  0.0494  0.5036  0.0772
 2425SOL    HW118911   2.549   4.513   1.780  0.9469  2.3234  1.2403
 2425SOL    HW218912   2.439   4.613   1.806 -1.0574  0.3491  0.7991
 2426SOL     OW18913   4.330   3.632   7.438  0.1276  0.3989  0.2579
 2426SOL    HW118914   4.308   3.642   7.531  0.6188 -0.5593  0.4838
 2426SOL    HW218915   4.324   3.537   7.427 -2.1189  0.6103 -0.2975
 2427SOL     OW18916   1.181   0.746  17.544 -0.2041  0.1135 -0.2188
 2427SOL    HW118917   1.266   0.783  17.521  0.4418 -1.3838 -0.2609
 2427SOL    HW218918   1.200   0.676  17.607  0.1270  0.3366 -0.0690
 2428SOL     OW18919   1.373   3.991   8.295  0.4811  0.1910 -0.2899
 2428SOL    HW118920   1.353   3.902   8.324  0.3363 -0.0333 -1.0588
 2428SOL    HW218921   1.299   4.036   8.336  2.3220  0.3710  2.8046
 2429SOL     OW18922   0.308   1.020   8.207  0.1226  0.7660 -0.1698
 2429SOL    HW118923   0.238   0.973   8.162 -0.5127 -1.6170  3.3131
 2429SOL    HW218924   0.382   1.022   8.146 -0.0740  0.2484 -0.4282
 2430SOL     OW18925   0.060   4.272   5.980  0.2967 -0.2504  0.4195
 2430SOL    HW118926   0.134   4.212   5.970  0.4084  0.3239 -2.1537
 2430SOL    HW218927   0.102   4.350   5.945 -0.0852  0.1330  0.8057
 2431SOL     OW18928   0.424   3.116   4.950 -0.0390  0.0407  0.0535
 2431SOL    HW118929   0.508   3.082   4.980  0.7164  1.3365 -0.5693
 2431SOL    HW218930   0.447   3.164   4.870  1.5469 -0.1204  0.4143
 2432SOL     OW18931   3.515   3.292   7.882  0.3703  0.1703  0.3201
 2432SOL    HW118932   3.576   3.326   7.817 -0.2640 -0.5841 -0.6626
 2432SOL    HW218933   3.440   3.342   7.850 -1.8732 -2.8513  0.8725
 2433SOL     OW18934   3.731   1.885  14.765  0.2836 -0.0432 -0.1189
 2433SOL    HW118935   3.735   1.789  14.767  0.4891 -0.0386 -0.3043
 2433SOL    HW218936   3.742   1.898  14.859 -1.8824 -2.5203  0.5125
 2434SOL     OW18937   3.827   0.664   2.864  0.0856  0.7160  0.1913
 2434SOL    HW118938   3.783   0.705   2.938 -1.5305  2.3962 -1.6894
 2434SOL    HW218939   3.863   0.748   2.835 -0.1585  0.7049 -0.1490
 2435SOL     OW18940   3.157   2.460   7.051  0.0040  0.3466 -0.0176
 2435SOL    HW118941   3.237   2.483   7.099  0.8716 -0.2081 -1.2114
 2435SOL    HW218942   3.194   2.468   6.963 -1.1402  0.5675 -0.4801
 2436SOL     OW18943   4.242   1.641   5.541 -0.0673 -0.5386 -0.0227
 2436SOL    HW118944   4.231   1.711   5.476  1.7921  0.6902  0.9982
 2436SOL    HW218945   4.174   1.662   5.605 -0.3243  1.0924 -0.8151
 2437SOL     OW18946   1.320   3.742   8.789 -0.4390  0.5806 -0.0242
 2437SOL    HW118947   1.343   3.797   8.714 -0.4877  0.6821  0.0356
 2437SOL    HW218948   1.225   3.747   8.797 -0.5295  2.2107 -2.3387
 2438SOL     OW18949   2.992   4.300  13.478  0.1862 -0.0015 -0.3184
 2438SOL    HW118950   3.005   4.207  13.497 -1.9024 -0.0803  0.6907
 2438SOL    HW218951   2.904   4.301  13.443  0.1033  0.6366 -0.0919
 2439SOL     OW18952   0.857   1.513   5.369  0.4007  0.3929 -0.7833
 2439SOL    HW118953   0.783   1.544   5.317 -0.8843  0.6781  1.2033
 2439SOL    HW218954   0.829   1.427   5.401  1.9137 -0.1107 -0.8314
 2440SOL     OW18955   0.844   2.179   7.230 -0.3129 -0.8731  0.4587
 2440SOL    HW118956   0.901   2.164   7.305 -1.2678  0.6432  1.4665
 2440SOL    HW218957   0.914   2.194   7.166 -0.3442 -0.5088  0.5104
 2441SOL     OW18958   1.085   0.181   6.994 -0.0850  0.5437  0.5157
 2441SOL    HW118959   1.124   0.269   6.988 -1.0085  0.9118 -0.0945
 2441SOL    HW218960   1.127   0.129   6.925  1.3101 -2.2117  3.4270
 2442SOL     OW18961   1.518   1.232   0.487 -0.8447  0.3515 -0.2582
 2442SOL    HW118962   1.569   1.285   0.425  2.1173 -0.1840  1.7189
 2442SOL    HW218963   1.525   1.144   0.452  1.9418  0.1242  0.9089
 2443SOL     OW18964   2.658   4.156   8.755  0.5881  0.5410 -0.5065
 2443SOL    HW118965   2.648   4.246   8.727  0.5179  0.5319 -0.5117
 2443SOL    HW218966   2.682   4.122   8.669  2.4724 -1.4640  0.8087
 2444SOL     OW18967   3.131   4.721   5.571 -0.0737 -0.3000  0.3297
 2444SOL    HW118968   3.072   4.704   5.645  0.2607 -0.6130  0.5220
 2444SOL    HW218969   3.187   0.057   5.601 -0.3064  0.7289 -1.6688
 2445SOL     OW18970   2.504   2.829  14.913 -0.1496  0.1216  0.1371
 2445SOL    HW118971   2.483   2.795  14.826 -0.0880 -2.4218  1.1201
 2445SOL    HW218972   2.534   2.919  14.900  0.4446  0.2281  2.2247
 2446SOL     OW18973   2.647   2.360   8.523  0.0391 -0.0401  0.1143
 2446SOL    HW118974   2.653   2.420   8.448 -2.5853 -1.0062 -0.8470
 2446SOL    HW218975   2.702   2.417   8.577 -2.8356  2.3954  0.4791
 2447SOL     OW18976   0.219   3.479  13.473 -0.3946  0.3886 -1.0549
 2447SOL    HW118977   0.271   3.474  13.554 -0.5014 -0.7416 -1.0475
 2447SOL    HW218978   0.142   3.525  13.507  0.0463 -0.1312  0.6903
 2448SOL     OW18979   1.143   0.023   8.862  0.6702  0.3217  0.7051
 2448SOL    HW118980   1.113   4.695   8.797 -2.2563  1.7591  0.6730
 2448SOL    HW218981   1.134   4.710   8.945  0.2325  0.6392  0.8415
 2449SOL     OW18982   0.782   3.770   4.947  0.4810 -0.0772 -0.2445
 2449SOL    HW118983   0.715   3.710   4.916  0.7787 -0.0631 -0.9283
 2449SOL    HW218984   0.816   3.716   5.019  0.0548 -1.8491 -1.3772
 2450SOL     OW18985   4.437   4.384   4.267 -0.0771 -0.0231  0.0424
 2450SOL    HW118986   4.359   4.435   4.286 -0.8925 -1.5213  0.7644
 2450SOL    HW218987   4.463   4.364   4.357  0.3737  0.7184  0.0772
 2451SOL     OW18988   2.870   2.865   6.448  0.1585  0.0870  0.2661
 2451SOL    HW118989   2.921   2.785   6.438  1.9355  1.3289 -0.5386
 2451SOL    HW218990   2.910   2.916   6.377  0.4383  0.3520  0.6131
 2452SOL     OW18991   3.828   2.732  11.340 -0.2994  0.1195 -0.2801
 2452SOL    HW118992   3.783   2.785  11.406 -0.3345 -0.2150 -0.0362
 2452SOL    HW218993   3.921   2.742  11.361 -0.3305 -0.7552  0.2697
 2453SOL     OW18994   2.635   0.411   7.642 -0.9645 -0.2320  0.1552
 2453SOL    HW118995   2.583   0.463   7.581 -0.7047 -0.8855 -0.6250
 2453SOL    HW218996   2.653   0.330   7.594  3.4708  1.7746 -1.6020
 2454SOL     OW18997   1.465   1.798  15.502  1.0450  0.0940 -0.0625
 2454SOL    HW118998   1.463   1.715  15.455  0.2134 -0.4464  0.9422
 2454SOL    HW218999   1.377   1.805  15.538 -0.1688 -0.3000 -2.9485
 2455SOL     OW19000   0.983   0.197   2.706 -0.3208  0.2312 -0.5056
 2455SOL    HW119001   0.979   0.240   2.620  0.2911 -1.4253 -1.3451
 2455SOL    HW219002   1.025   0.266   2.758  1.7057 -2.7840  1.7768
 2456SOL     OW19003   2.111   1.615   4.007  0.4412  0.3434  0.6072
 2456SOL    HW119004   2.146   1.533   3.974  0.8268  0.4545  0.7436
 2456SOL    HW219005   2.017   1.597   4.013  0.2007  1.8365  1.2516
 2457SOL     OW19006   1.314   0.232   7.861  0.0447  0.6122 -0.3776
 2457SOL    HW119007   1.312   0.285   7.782 -1.3695 -1.5635 -1.8048
 2457SOL    HW219008   1.221   0.214   7.877  0.0440  0.6646 -0.3223
 2458SOL     OW19009   2.242   2.905  12.436 -0.2268 -0.3336 -0.0076
 2458SOL    HW119010   2.156   2.879  12.403  0.2275 -2.9989  0.8313
 2458SOL    HW219011   2.301   2.875  12.367  1.2637 -0.2692  1.2173
 2459SOL     OW19012   2.502   3.599   5.304 -0.3206  0.3113  0.0021
 2459SOL    HW119013   2.544   3.604   5.218  1.3216 -0.1354  0.7786
 2459SOL    HW219014   2.521   3.509   5.330  0.6751 -0.0523 -1.9720
 2460SOL     OW19015   3.455   3.981  14.247  0.3428  0.3046 -0.4708
 2460SOL    HW119016   3.514   3.907  14.260 -1.8915 -1.7520 -1.8862
 2460SOL    HW219017   3.522   4.040  14.213  0.9255 -0.5167 -0.7510
 2461SOL     OW19018   1.275   1.532  17.164  0.4303  0.3734  0.1853
 2461SOL    HW119019   1.224   1.497  17.091  1.7449 -0.9095 -0.1178
 2461SOL    HW219020   1.265   1.468  17.235  1.9905 -0.1302 -0.0610
 2462SOL     OW19021   3.195   1.722  17.494  0.6776 -0.0361  0.6855
 2462SOL    HW119022   3.285   1.712  17.526  0.4985  0.2361  1.2711
 2462SOL    HW219023   3.220   1.805  17.453  0.2450 -0.1297  0.2373
 2463SOL     OW19024   4.426   0.688   5.850  0.2060  0.0125 -0.7267
 2463SOL    HW119025   4.495   0.626   5.871  0.5317  0.5891 -0.0819
 2463SOL    HW219026   4.432   0.687   5.754 -0.3158  3.3789 -0.7947
 2464SOL     OW19027   3.273   1.011   4.907  0.2470 -0.1779  0.5123
 2464SOL    HW119028   3.232   1.098   4.909 -0.8453 -0.7069  1.3706
 2464SOL    HW219029   3.194   0.964   4.881 -0.0297 -0.0550  1.1284
 2465SOL     OW19030   4.477   3.640   9.022 -0.3221  0.9397 -0.0952
 2465SOL    HW119031   4.439   3.582   8.955  0.3959 -0.8346  1.0276
 2465SOL    HW219032   4.486   3.572   9.088  0.0597  0.3013 -0.7932
 2466SOL     OW19033   3.821   1.296   8.625  0.1026 -0.3088  0.0323
 2466SOL    HW119034   3.790   1.334   8.543 -1.7476 -0.9875  0.4133
 2466SOL    HW219035   3.743   1.282   8.679 -1.5373 -0.8755 -2.4485
 2467SOL     OW19036   3.081   3.695   6.115 -0.5186  0.5970 -0.1734
 2467SOL    HW119037   3.042   3.780   6.138 -3.9503 -0.1245 -3.3579
 2467SOL    HW219038   3.038   3.642   6.182 -2.7639  0.8339 -1.4507
 2468SOL     OW19039   3.902   2.686   2.565  0.0069 -0.6714  0.2962
 2468SOL    HW119040   3.841   2.643   2.625  0.0357 -1.2818 -0.1091
 2468SOL    HW219041   3.853   2.746   2.508 -0.2984 -1.9660 -0.7987
 2469SOL     OW19042   4.265   0.812   0.606 -0.1971 -0.3610 -0.0134
 2469SOL    HW119043   4.319   0.768   0.540  1.1995  0.3502  0.6546
 2469SOL    HW219044   4.314   0.814   0.688 -2.7942 -0.5461  1.5573
 2470SOL     OW19045   3.868   1.232  11.089 -0.0751 -0.0674 -0.2201
 2470SOL    HW119046   3.950   1.282  11.083  0.1792 -0.4205  0.2323
 2470SOL    HW219047   3.812   1.301  11.123  0.9702  1.4417 -1.6049
 2471SOL     OW19048   3.004   2.087   5.793 -0.2347  0.3385 -0.5318
 2471SOL    HW119049   2.918   2.049   5.812 -0.5286  1.8132  1.1810
 2471SOL    HW219050   3.007   2.075   5.698  0.3850  0.2503 -0.4973
 2472SOL     OW19051   3.846   4.426  14.106 -0.0697  0.0832 -0.0837
 2472SOL    HW119052   3.888   4.478  14.036  0.4872 -2.6765 -1.8069
 2472SOL    HW219053   3.799   4.363  14.052  1.3864 -1.8280  0.8789
 2473SOL     OW19054   3.387   1.864   4.645 -0.1100 -0.3760 -0.4055
 2473SOL    HW119055   3.433   1.805   4.704  1.8826  2.4186  0.8166
 2473SOL    HW219056   3.389   1.810   4.566 -1.5186 -2.0488  0.6954
 2474SOL     OW19057   1.811   4.076   0.758 -0.5806  0.4712  0.1535
 2474SOL    HW119058   1.757   4.133   0.704  0.2861  1.6986  0.5770
 2474SOL    HW219059   1.859   4.022   0.695 -0.2560 -2.2470  2.7049
 2475SOL     OW19060   2.382   4.324   7.038 -0.1377  0.3709  0.7782
 2475SOL    HW119061   2.344   4.242   7.008  1.4152 -0.2010  0.3932
 2475SOL    HW219062   2.319   4.389   7.006  1.1447  1.1891 -0.0929
 2476SOL     OW19063   0.313   1.577   7.444 -0.0224  0.2851 -0.0794
 2476SOL    HW119064   0.268   1.577   7.528 -0.6766 -0.1665 -0.4241
 2476SOL    HW219065   0.403   1.567   7.475  1.2838  1.1072 -3.5587
 2477SOL     OW19066   0.563   2.009  12.190  0.0255  0.0567 -0.2275
 2477SOL    HW119067   0.656   1.988  12.189  0.1635  0.5899  2.1702
 2477SOL    HW219068   0.539   1.921  12.219  0.3242  0.7328  2.0040
 2478SOL     OW19069   4.382   0.790   4.076  0.3159  0.0870  0.2275
 2478SOL    HW119070   4.293   0.773   4.108 -0.2348 -1.5894 -2.2458
 2478SOL    HW219071   4.427   0.731   4.136 -0.4200  0.8489  1.5319
 2479SOL     OW19072   4.125   1.413   2.134  0.0002 -0.0916 -0.6691
 2479SOL    HW119073   4.197   1.407   2.197 -0.8099  0.6143  0.3074
 2479SOL    HW219074   4.077   1.332   2.153 -0.8368  0.8236  1.0438
 2480SOL     OW19075   0.444   1.259   8.890 -0.0980 -0.3646  0.1776
 2480SOL    HW119076   0.533   1.290   8.905  0.2121 -1.5788  0.9367
 2480SOL    HW219077   0.412   1.256   8.980  0.3718 -0.8824  0.3323
 2481SOL     OW19078   0.864   2.616   6.646 -0.5778 -0.3706 -0.1095
 2481SOL    HW119079   0.951   2.589   6.616 -0.7143 -1.9652  0.9106
 2481SOL    HW219080   0.803   2.561   6.597 -2.7900  1.3837  0.7093
 2482SOL     OW19081   2.712   2.307   6.468  0.0425  0.4788 -0.8041
 2482SOL    HW119082   2.763   2.234   6.501 -0.9799  0.0985 -0.0549
 2482SOL    HW219083   2.625   2.280   6.498 -0.4789  2.3377 -0.6140
 2483SOL     OW19084   3.144   2.380   8.663  0.0031 -0.0070 -0.2627
 2483SOL    HW119085   3.139   2.346   8.752 -1.0889  0.8782  0.0121
 2483SOL    HW219086   3.179   2.468   8.678 -0.3634 -0.3840  2.7537
 2484SOL     OW19087   2.497   2.387   4.930  0.1762 -0.4343  0.3597
 2484SOL    HW119088   2.584   2.348   4.926  1.1627  1.8855 -0.5032
 2484SOL    HW219089   2.513   2.469   4.975 -1.2818 -1.2375  2.3409
 2485SOL     OW19090   2.598   4.197   3.187 -0.0284  0.7924  0.0409
 2485SOL    HW119091   2.539   4.136   3.231  1.2871 -0.2795  0.3307
 2485SOL    HW219092   2.578   4.185   3.094  0.3218 -1.0691  0.1978
 2486SOL     OW19093   2.285   0.752   7.878 -0.2976  0.3232  0.5275
 2486SOL    HW119094   2.377   0.745   7.904 -0.6785 -0.8734  1.5420
 2486SOL    HW219095   2.244   0.773   7.961 -0.0100  0.6625  0.5856
 2487SOL     OW19096   4.302   4.092  14.514 -0.1288 -0.1496  0.7108
 2487SOL    HW119097   4.226   4.035  14.525  0.0097  0.0429  2.7487
 2487SOL    HW219098   4.370   4.043  14.560 -1.3490 -1.8824  0.6572
 2488SOL     OW19099   2.951   3.196   6.614 -0.1122  0.3203  0.2065
 2488SOL    HW119100   3.033   3.173   6.657  1.6256  1.8223 -2.3030
 2488SOL    HW219101   2.902   3.114   6.623 -1.5654  1.2793  1.0347
 2489SOL     OW19102   0.842   1.581   8.220  0.0252  0.1270  0.0253
 2489SOL    HW119103   0.760   1.563   8.267 -0.6979 -0.2320 -1.3843
 2489SOL    HW219104   0.872   1.661   8.263  0.7117  0.0393 -0.2963
 2490SOL     OW19105   1.092   0.633   8.462  0.1865 -0.0003  0.1526
 2490SOL    HW119106   1.142   0.595   8.390  2.7164  1.7841  0.9669
 2490SOL    HW219107   1.006   0.649   8.421 -0.3947  0.3364  1.5119
 2491SOL     OW19108   3.736   0.419   3.972  0.3403  0.6809  0.0642
 2491SOL    HW119109   3.691   0.502   3.987  0.5289  0.8096 -0.0916
 2491SOL    HW219110   3.781   0.430   3.888  0.7374 -1.6304 -0.0344
 2492SOL     OW19111   1.709   3.513   1.902  0.0911  0.3053 -0.4888
 2492SOL    HW119112   1.699   3.430   1.948  1.1446  2.0013  2.8112
 2492SOL    HW219113   1.770   3.559   1.960 -1.5881  0.5370  1.0935
 2493SOL     OW19114   1.060   0.296   4.587  0.3716  0.7302 -0.0511
 2493SOL    HW119115   1.083   0.331   4.674 -0.9785 -1.6617  1.2628
 2493SOL    HW219116   1.077   0.369   4.527 -1.2218  0.6164 -0.6169
 2494SOL     OW19117   4.272   1.910   6.640  0.1902  0.4664 -0.2252
 2494SOL    HW119118   4.282   1.885   6.732 -1.9410  0.1812 -0.0779
 2494SOL    HW219119   4.273   2.006   6.638  1.2055  0.4474 -0.6517
 2495SOL     OW19120   1.861   1.650   8.329 -0.5153 -0.6579 -0.0491
 2495SOL    HW119121   1.883   1.630   8.238  0.3637  0.7474 -0.1476
 2495SOL    HW219122   1.815   1.568   8.347  2.6984 -2.6399 -0.8251
 2496SOL     OW19123   4.371   2.763   2.867  0.6136 -0.4925 -0.1501
 2496SOL    HW119124   4.299   2.747   2.806  0.2144 -0.6263  0.3534
 2496SOL    HW219125   4.331   2.720   2.943  1.9429 -1.2492  0.1351
 2497SOL     OW19126   4.067   1.102   6.431  0.2981 -0.2949  0.2170
 2497SOL    HW119127   4.099   1.109   6.341  2.5398  0.7862  1.0994
 2497SOL    HW219128   4.021   1.019   6.420  2.4340 -1.4475 -0.1677
 2498SOL     OW19129   4.647   0.211   1.594 -0.2792 -0.1816 -0.8538
 2498SOL    HW119130   4.665   0.216   1.500 -1.8398 -1.7913 -1.2397
 2498SOL    HW219131   4.603   0.294   1.608  1.8777  0.7930  0.2353
 2499SOL     OW19132   0.332   4.297  10.333 -0.1633 -1.0132 -0.5061
 2499SOL    HW119133   0.369   4.270  10.417  1.5980  0.0414 -0.9434
 2499SOL    HW219134   0.358   4.388  10.320 -1.1185 -0.4807  1.4170
 2500SOL     OW19135   3.357   2.108  10.568  0.0175  0.3464  0.4295
 2500SOL    HW119136   3.385   2.017  10.563  1.9123  0.8453  2.3285
 2500SOL    HW219137   3.326   2.105  10.658  1.3658  0.0872  0.8725
 2501SOL     OW19138   2.024   3.318   3.921  0.4500 -0.3254 -0.9109
 2501SOL    HW119139   2.026   3.323   3.826  1.0892  0.5605 -0.8596
 2501SOL    HW219140   1.944   3.362   3.950  1.0981 -1.3152  2.4570
 2502SOL     OW19141   1.904   3.143   3.357 -0.3046 -0.0739  0.3551
 2502SOL    HW119142   1.837   3.122   3.292 -1.0757  0.4732  0.9848
 2502SOL    HW219143   1.848   3.175   3.428 -1.9468  0.5876 -1.2432
 2503SOL     OW19144   3.297   0.931  15.889  0.8599 -0.4303  0.6448
 2503SOL    HW119145   3.273   1.012  15.843 -0.0577 -0.7963  0.4783
 2503SOL    HW219146   3.326   0.967  15.973 -0.0354  1.3298  0.2080
 2504SOL     OW19147   3.662   0.742  11.261  0.2366 -0.5067  0.3447
 2504SOL    HW119148   3.628   0.654  11.244  0.7796 -0.6704  0.1219
 2504SOL    HW219149   3.697   0.761  11.174 -0.3761  0.1388  0.2380
 2505SOL     OW19150   1.594   4.252   0.984  0.5228 -0.0572  0.7645
 2505SOL    HW119151   1.689   4.259   0.996  0.6178  2.7681 -1.6143
 2505SOL    HW219152   1.561   4.333   0.947  0.6504 -1.8687 -3.3231
 2506SOL     OW19153   3.920   1.717  10.193 -0.4514  0.6521 -0.1159
 2506SOL    HW119154   3.862   1.741  10.121 -0.9138 -1.9680 -0.5936
 2506SOL    HW219155   3.891   1.631  10.224 -0.1937  0.6953  0.2570
 2507SOL     OW19156   1.808   3.186   5.278 -0.0688 -0.4248  0.3267
 2507SOL    HW119157   1.732   3.168   5.333  1.3017  1.5947  2.9015
 2507SOL    HW219158   1.794   3.136   5.197 -4.0800  2.6482 -0.8525
 2508SOL     OW19159   2.211   0.652   0.650 -0.1124  0.5170 -0.0304
 2508SOL    HW119160   2.273   0.579   0.653 -0.4281  0.3749  3.5665
 2508SOL    HW219161   2.222   0.669   0.557  2.6428 -0.6907  0.0833
 2509SOL     OW19162   1.591   3.390   5.160  0.3315  0.5706 -0.0679
 2509SOL    HW119163   1.565   3.321   5.221  0.4916  0.1929 -0.4280
 2509SOL    HW219164   1.670   3.413   5.209  1.2196 -0.2841 -1.0998
 2510SOL     OW19165   3.007   0.235   4.264 -0.4090 -0.6703  0.4055
 2510SOL    HW119166   3.096   0.255   4.235 -1.1609  0.0473 -1.3779
 2510SOL    HW219167   2.987   0.180   4.188  1.4573  0.9355 -1.2236
 2511SOL     OW19168   4.710   2.026   3.649  0.0069  0.1800  0.1984
 2511SOL    HW119169   4.703   1.931   3.656  0.4892  0.1447  0.1926
 2511SOL    HW219170   4.725   2.064   3.735  0.3675 -1.8413  1.0221
 2512SOL     OW19171   3.902   3.848   2.204  0.2359  0.8538  0.7089
 2512SOL    HW119172   3.883   3.828   2.112  1.5671  1.3536  0.3319
 2512SOL    HW219173   3.985   3.894   2.202  1.3415 -1.2723 -2.2424
 2513SOL     OW19174   0.096   3.133   1.955  0.2175  0.0724  0.2089
 2513SOL    HW119175   0.159   3.061   1.963 -0.7967 -1.1359 -2.3889
 2513SOL    HW219176   0.088   3.160   2.046 -0.2415  0.2920  0.1044
 2514SOL     OW19177   3.754   2.063   5.568  0.0798 -0.5217 -0.9714
 2514SOL    HW119178   3.742   2.149   5.609 -0.1330  0.2430 -2.6701
 2514SOL    HW219179   3.716   2.009   5.638 -1.6849  0.2265 -1.3642
 2515SOL     OW19180   1.330   1.381  10.242 -0.4519  0.0918 -0.1744
 2515SOL    HW119181   1.327   1.369  10.337 -1.1910 -0.0986 -0.2285
 2515SOL    HW219182   1.251   1.339  10.209 -1.1516 -0.2452  1.8862
 2516SOL     OW19183   1.304   0.721   8.953  0.0548 -0.5873  0.1686
 2516SOL    HW119184   1.227   0.716   8.896 -2.0925 -0.2030  3.0561
 2516SOL    HW219185   1.345   0.793   8.904 -1.3234 -0.1468 -0.3383
 2517SOL     OW19186   1.529   3.192  10.031  0.2254  0.4093  0.5321
 2517SOL    HW119187   1.602   3.192  10.093  1.4877  0.4301 -0.9481
 2517SOL    HW219188   1.517   3.100  10.010  0.0087  0.6505 -0.4275
 2518SOL     OW19189   3.913   2.453  12.034  0.1788 -0.1784 -0.0518
 2518SOL    HW119190   3.845   2.442  12.101  0.1865  0.9412  0.1386
 2518SOL    HW219191   3.913   2.546  12.014 -1.9023  0.1688  1.6005
 2519SOL     OW19192   1.762   0.527   6.187 -0.6214  0.0267  0.1071
 2519SOL    HW119193   1.667   0.523   6.193 -0.8007  2.0924 -1.3955
 2519SOL    HW219194   1.776   0.461   6.255 -0.5977  1.4589  1.4917
 2520SOL     OW19195   2.794   0.206   0.566 -0.3399 -0.3198  0.3338
 2520SOL    HW119196   2.775   0.118   0.534  0.7423 -0.7836  0.9563
 2520SOL    HW219197   2.816   0.183   0.657 -0.1721 -0.5081  0.2450
 2521SOL     OW19198   1.946   1.005   8.204 -0.0491 -0.1806  0.7234
 2521SOL    HW119199   1.861   0.983   8.244  0.1481 -1.1350  0.6115
 2521SOL    HW219200   1.985   1.052   8.277  0.8739 -0.4561  0.4113
 2522SOL     OW19201   1.327   2.700   2.962  0.9617  0.3986  0.1163
 2522SOL    HW119202   1.288   2.659   3.039 -1.0599  1.9402 -0.0950
 2522SOL    HW219203   1.421   2.701   2.981  1.0947  0.1965 -0.5515
 2523SOL     OW19204   2.866   0.778  16.855 -1.2858  0.0256  0.3560
 2523SOL    HW119205   2.883   0.783  16.761 -0.0970  0.3201  0.5824
 2523SOL    HW219206   2.915   0.697  16.873 -0.5431  0.5232  0.5485
 2524SOL     OW19207   1.385   3.485  16.982  0.0651  0.1720  0.0468
 2524SOL    HW119208   1.341   3.560  16.943  1.8618  2.1332  1.7385
 2524SOL    HW219209   1.341   3.417  16.931  1.3780 -0.1352 -0.6659
 2525SOL     OW19210   3.015   0.406   3.923  0.2644 -0.5030 -0.4781
 2525SOL    HW119211   3.090   0.395   3.981 -2.3714  1.3458  3.3353
 2525SOL    HW219212   2.971   0.478   3.967  1.1762 -0.3322  0.1421
 2526SOL     OW19213   0.079   3.060   8.125  0.1564 -0.4316 -0.1256
 2526SOL    HW119214   0.112   2.991   8.067 -0.6623 -0.7261 -0.2288
 2526SOL    HW219215   0.067   3.016   8.209 -1.5103 -0.4531 -0.3861
 2527SOL     OW19216   0.381   3.662   9.205 -0.6718  0.1824 -0.3095
 2527SOL    HW119217   0.335   3.743   9.229 -2.9901 -1.1934 -0.0848
 2527SOL    HW219218   0.310   3.620   9.157 -2.0879 -0.0703  2.0120
 2528SOL     OW19219   3.391   1.780   6.474 -0.3012 -0.4507 -0.2413
 2528SOL    HW119220   3.385   1.875   6.467  1.8163 -0.3019 -0.0711
 2528SOL    HW219221   3.370   1.749   6.386 -0.9134  0.6770 -0.4927
 2529SOL     OW19222   0.326   0.368  16.182 -0.1272  0.2404 -0.8320
 2529SOL    HW119223   0.235   0.359  16.212 -0.2237  0.8323 -0.9296
 2529SOL    HW219224   0.354   0.277  16.176  1.9607  0.8417 -0.1707
 2530SOL     OW19225   0.412   1.117   1.592  0.2913 -0.2173 -1.1030
 2530SOL    HW119226   0.465   1.107   1.671 -0.9310 -1.2403 -0.4108
 2530SOL    HW219227   0.417   1.213   1.589  2.7567 -0.3001 -0.2042
 2531SOL     OW19228   1.252   2.648   5.060 -0.5894  0.6517  0.4953
 2531SOL    HW119229   1.216   2.577   5.113 -0.9652  0.9242  0.6061
 2531SOL    HW219230   1.332   2.606   5.028 -0.3718  0.0416  1.8310
 2532SOL     OW19231   2.250   1.575   6.441 -0.1390 -0.1194 -0.5300
 2532SOL    HW119232   2.290   1.661   6.421  1.8308 -0.8179  0.3756
 2532SOL    HW219233   2.325   1.529   6.478 -0.1671  0.1555 -0.1299
 2533SOL     OW19234   2.781   0.607   5.312  0.0001 -0.6799  0.0582
 2533SOL    HW119235   2.720   0.534   5.321 -1.6541  0.4244 -2.2391
 2533SOL    HW219236   2.754   0.631   5.223  1.4417  1.4146  0.1747
 2534SOL     OW19237   3.998   1.474   8.438 -0.4179 -0.5464 -0.1229
 2534SOL    HW119238   4.019   1.384   8.461 -0.7881 -0.4404  0.6344
 2534SOL    HW219239   3.906   1.458   8.414 -0.1609 -0.3111 -1.2875
 2535SOL     OW19240   3.569   0.868   3.049 -0.0057 -0.2122 -0.0576
 2535SOL    HW119241   3.662   0.845   3.055  0.1935  0.1639 -1.9792
 2535SOL    HW219242   3.576   0.929   2.976  0.7036 -1.6252 -1.1744
 2536SOL     OW19243   1.741   2.320   2.722 -0.2116 -0.0721 -0.4311
 2536SOL    HW119244   1.699   2.392   2.770  4.7288  1.5896  1.5039
 2536SOL    HW219245   1.810   2.371   2.680  0.4470 -0.1143  0.5839
 2537SOL     OW19246   3.253   2.511  13.812  0.7402  0.6058 -0.2067
 2537SOL    HW119247   3.293   2.544  13.892 -1.5595  1.5806  0.5443
 2537SOL    HW219248   3.162   2.531  13.836  0.7511 -0.9282  1.1547
 2538SOL     OW19249   3.062   1.747   0.513  0.4773  0.2730  0.4689
 2538SOL    HW119250   3.127   1.696   0.465 -0.3192 -0.5972  0.3045
 2538SOL    HW219251   3.014   1.781   0.438  2.9512  1.6869 -0.4509
 2539SOL     OW19252   0.904   0.813   9.010  0.0426 -0.1700  0.4152
 2539SOL    HW119253   0.812   0.840   9.001  0.1164  0.6338  1.9834
 2539SOL    HW219254   0.926   0.844   9.098  0.2136  1.2531 -0.1303
 2540SOL     OW19255   3.565   4.059   3.015 -0.1620 -0.0021 -0.1399
 2540SOL    HW119256   3.491   4.112   3.045  1.9120  2.2873  0.9514
 2540SOL    HW219257   3.616   4.057   3.096 -0.3868 -0.3147 -0.0093
 2541SOL     OW19258   0.469   4.042   3.847 -0.2464 -0.0911  0.8404
 2541SOL    HW119259   0.534   3.972   3.846 -0.3902 -0.2076  0.0093
 2541SOL    HW219260   0.512   4.107   3.902 -0.4361  1.4514 -0.8552
 2542SOL     OW19261   1.638   1.616   2.199 -0.2453  0.0955  0.4706
 2542SOL    HW119262   1.553   1.582   2.226  0.6332 -1.6975  0.9200
 2542SOL    HW219263   1.619   1.646   2.110  0.5823 -0.4613  0.1080
 2543SOL     OW19264   4.021   1.386  14.605  0.8318 -0.1710 -0.3185
 2543SOL    HW119265   4.022   1.473  14.645 -1.4095  0.1749 -1.0021
 2543SOL    HW219266   3.950   1.354  14.661  0.7213  0.0616 -0.3253
 2544SOL     OW19267   2.219   2.741   5.829  0.2255 -0.2695 -0.4154
 2544SOL    HW119268   2.263   2.800   5.768 -1.0105  0.2850 -0.7598
 2544SOL    HW219269   2.284   2.674   5.854 -0.8493 -1.4409 -0.7762
 2545SOL     OW19270   2.445   1.268   7.492 -0.2220 -0.0874 -0.0175
 2545SOL    HW119271   2.518   1.289   7.550  0.1255 -0.7014 -0.2380
 2545SOL    HW219272   2.373   1.296   7.548  0.6347  3.9034 -0.9349
 2546SOL     OW19273   4.719   2.320   8.585  0.4094  0.1286  0.2526
 2546SOL    HW119274   4.682   2.239   8.620  0.9897 -0.0623  0.4332
 2546SOL    HW219275   0.061   2.287   8.540  1.1703 -1.2745  2.5465
 2547SOL     OW19276   4.063   3.889   5.589  0.0436 -0.2996  0.1722
 2547SOL    HW119277   4.047   3.934   5.507  0.2478 -0.9586 -0.2279
 2547SOL    HW219278   4.113   3.955   5.637 -2.1724  0.2844  1.6668
 2548SOL     OW19279   3.854   2.152   5.895  0.2338  0.8159  0.2149
 2548SOL    HW119280   3.926   2.100   5.860  0.0073 -0.4787  1.7036
 2548SOL    HW219281   3.902   2.212   5.952  0.2599  1.6725 -0.7017
 2549SOL     OW19282   2.956   0.538  16.989  0.0817  0.1022  0.1671
 2549SOL    HW119283   3.018   0.485  17.038 -2.0527 -3.3925 -0.8950
 2549SOL    HW219284   2.898   0.465  16.964  0.8290  0.3884 -2.4246
 2550SOL     OW19285   0.457   1.078  16.610  0.0537  0.3532 -1.1212
 2550SOL    HW119286   0.367   1.106  16.593  0.6412  1.5572 -2.2653
 2550SOL    HW219287   0.469   1.002  16.552  2.2612  1.0751 -1.6100
 2551SOL     OW19288   4.201   1.202   7.669 -0.7179  0.6842  0.2223
 2551SOL    HW119289   4.166   1.249   7.593 -1.3512  0.4278  0.3588
 2551SOL    HW219290   4.292   1.231   7.662 -1.4973  2.9215 -0.4400
 2552SOL     OW19291   2.148   3.872   6.732  0.5004 -0.0115 -0.0572
 2552SOL    HW119292   2.181   3.917   6.809 -1.2041  1.2207 -0.0233
 2552SOL    HW219293   2.060   3.852   6.764  0.0084  2.2239  0.0439
 2553SOL     OW19294   2.505   3.925   3.722 -0.0259  0.3147  0.0191
 2553SOL    HW119295   2.600   3.914   3.721 -0.0665 -0.0777  0.3951
 2553SOL    HW219296   2.515   3.988   3.650  1.8356 -1.8411 -1.6185
 2554SOL     OW19297   1.687   1.266   0.746 -1.1314  0.0438  0.6262
 2554SOL    HW119298   1.674   1.240   0.655 -0.6741 -1.5064  1.0126
 2554SOL    HW219299   1.745   1.197   0.777 -1.7452 -0.4120  0.7705
 2555SOL     OW19300   3.578   4.206   0.717  0.2535  0.4033 -0.4349
 2555SOL    HW119301   3.548   4.181   0.804  2.3902  0.9032  0.4581
 2555SOL    HW219302   3.510   4.165   0.664  0.1314 -1.4828  1.1665
 2556SOL     OW19303   3.011   3.244   4.221  0.1530  0.5655 -0.3599
 2556SOL    HW119304   3.104   3.224   4.228  0.4796  2.0135 -0.7043
 2556SOL    HW219305   3.011   3.296   4.302 -1.0376 -0.7152  0.4766
 2557SOL     OW19306   3.370   4.449   6.847 -0.0635 -0.1594 -0.4675
 2557SOL    HW119307   3.301   4.385   6.827 -0.3541 -0.0430  0.1532
 2557SOL    HW219308   3.419   4.423   6.769 -0.1376 -0.8879 -0.2735
 2558SOL     OW19309   1.706   3.375   7.816  0.1687 -0.5606  0.3268
 2558SOL    HW119310   1.625   3.424   7.798 -0.9245 -1.8963  1.6376
 2558SOL    HW219311   1.695   3.364   7.911 -0.5027  1.7414  0.5282
 2559SOL     OW19312   4.106   3.562   9.119  0.1649  0.1435 -0.4904
 2559SOL    HW119313   4.058   3.594   9.196  1.0141  0.8674 -0.2643
 2559SOL    HW219314   4.141   3.648   9.098 -0.2406  1.0283  2.3472
 2560SOL     OW19315   2.596   1.837   6.119  0.0546  0.0781 -0.3853
 2560SOL    HW119316   2.592   1.743   6.130 -0.4424  0.0315 -0.9362
 2560SOL    HW219317   2.673   1.847   6.064  1.3125  0.7617  1.5309
 2561SOL     OW19318   4.200   4.068  12.058 -0.6145 -0.0969  0.2388
 2561SOL    HW119319   4.262   4.130  12.019  0.1786 -0.0047  1.6430
 2561SOL    HW219320   4.265   4.013  12.102 -2.6626 -2.5493  0.2314
 2562SOL     OW19321   0.385   2.787  14.028  1.1686  0.5649 -0.1282
 2562SOL    HW119322   0.327   2.789  14.104  1.6890  2.7866  0.2026
 2562SOL    HW219323   0.467   2.777  14.076  0.3709  0.4368  1.1945
 2563SOL     OW19324   1.873   4.735   9.624  0.2426  0.3538  0.3053
 2563SOL    HW119325   1.953   0.001   9.571 -0.0297  0.3006 -0.1114
 2563SOL    HW219326   1.876   4.644   9.653  1.3907  0.4288  0.4198
 2564SOL     OW19327   3.446   1.666  13.986 -0.1441 -0.0333  0.4017
 2564SOL    HW119328   3.430   1.708  13.902  0.1537  0.6591  0.6960
 2564SOL    HW219329   3.526   1.619  13.965  1.0836  2.2723 -0.0195
 2565SOL     OW19330   2.874   2.316  10.401  0.2345 -0.1929 -0.0802
 2565SOL    HW119331   2.947   2.262  10.428  1.5523  3.1436  3.0555
 2565SOL    HW219332   2.924   2.395  10.379  2.4351 -1.6388 -0.1599
 2566SOL     OW19333   2.570   0.008   3.373  0.6959 -0.1968  0.0037
 2566SOL    HW119334   2.644   4.699   3.333  0.0764  0.1702 -1.5823
 2566SOL    HW219335   2.587   0.006   3.467  0.5602 -0.3205  0.0255
 2567SOL     OW19336   0.345   2.926   8.745  0.1503 -0.8114 -0.1233
 2567SOL    HW119337   0.356   2.856   8.681  0.5203  0.0739 -1.0237
 2567SOL    HW219338   0.276   2.979   8.706  0.8778  0.4806  0.3210
 2568SOL     OW19339   0.214   1.091  16.518  0.7327  0.0850  0.2715
 2568SOL    HW119340   0.173   1.077  16.433 -1.7472 -1.9087  1.8032
 2568SOL    HW219341   0.222   1.002  16.552 -2.5200  0.2721  1.5132
 2569SOL     OW19342   2.523   3.076   3.926  0.0932  0.0087 -0.3477
 2569SOL    HW119343   2.594   3.058   3.988 -0.1272  2.7138  0.7007
 2569SOL    HW219344   2.482   3.144   3.979  0.5747  0.1157 -0.1086
 2570SOL     OW19345   1.732   4.532   4.881 -0.2233  0.1971 -0.1981
 2570SOL    HW119346   1.695   4.453   4.841  0.2007  0.1241 -0.4478
 2570SOL    HW219347   1.730   4.499   4.970  0.0023  0.1404 -0.2148
 2571SOL     OW19348   1.337   1.686  13.036  0.6223  0.4082  0.0599
 2571SOL    HW119349   1.382   1.604  13.012 -0.3233 -0.3570  0.8968
 2571SOL    HW219350   1.397   1.735  13.093 -0.5131  1.5960  0.2062
 2572SOL     OW19351   2.374   0.765  16.834  0.2514 -0.3805  0.4235
 2572SOL    HW119352   2.450   0.712  16.857  1.5885  0.2615 -2.4383
 2572SOL    HW219353   2.365   0.826  16.907  1.1123 -0.5709  0.6952
 2573SOL     OW19354   3.273   1.217   3.116  0.3079 -0.0963 -0.2876
 2573SOL    HW119355   3.284   1.273   3.193 -1.8918  2.7481 -2.0203
 2573SOL    HW219356   3.204   1.159   3.148  0.1512 -0.1900 -0.7975
 2574SOL     OW19357   0.021   2.454   6.181  0.4147  0.6291  0.6239
 2574SOL    HW119358   4.694   2.492   6.119 -0.1669  1.0681  1.4720
 2574SOL    HW219359   0.056   2.381   6.130  1.1324  1.2058  0.2746
 2575SOL     OW19360   1.664   2.438   3.449 -0.1352 -0.4124 -0.1627
 2575SOL    HW119361   1.632   2.518   3.491  2.5973  0.7721 -0.3384
 2575SOL    HW219362   1.667   2.472   3.360  2.2987  0.4386  0.2369
 2576SOL     OW19363   0.753   1.156   4.262  0.6046 -0.3285 -0.2012
 2576SOL    HW119364   0.769   1.221   4.193 -0.3781  0.7294  0.5752
 2576SOL    HW219365   0.835   1.165   4.312  1.5991 -2.0683 -1.5409
 2577SOL     OW19366   3.845   1.860   3.686  0.0686  0.7996 -0.4030
 2577SOL    HW119367   3.863   1.953   3.701  1.1207  0.5214  0.0878
 2577SOL    HW219368   3.926   1.818   3.718 -0.4052 -0.2097 -0.5358
 2578SOL     OW19369   3.260   4.159  14.132  0.5350  0.5866  0.0028
 2578SOL    HW119370   3.319   4.100  14.179  0.6604  0.2860 -0.5284
 2578SOL    HW219371   3.256   4.241  14.181  0.7293 -0.6131  1.9987
 2579SOL     OW19372   2.961   3.293   5.194 -0.5099 -0.0194 -0.6291
 2579SOL    HW119373   3.023   3.363   5.214  2.1945 -1.8483 -2.6290
 2579SOL    HW219374   2.897   3.303   5.264  0.5422 -2.6927  0.6679
 2580SOL     OW19375   0.007   0.620   6.039  0.2127 -0.3074 -0.0171
 2580SOL    HW119376   0.091   0.661   6.018 -0.0361  0.2629  0.1018
 2580SOL    HW219377   0.022   0.554   6.107  0.0495 -0.5341 -0.2013
 2581SOL     OW19378   1.068   4.407   4.345  0.9101 -0.4012 -0.0579
 2581SOL    HW119379   0.999   4.468   4.319 -0.2012 -1.8341 -0.5125
 2581SOL    HW219380   1.108   4.382   4.262  0.7921  0.8574 -0.4949
 2582SOL     OW19381   2.358   0.238   9.371 -1.1784 -0.0795 -0.5016
 2582SOL    HW119382   2.326   0.250   9.281  0.1489 -0.8757 -1.0876
 2582SOL    HW219383   2.368   0.143   9.368 -2.4939 -0.2707  1.5047
 2583SOL     OW19384   3.333   0.850  13.045  0.1540  0.1566 -0.1926
 2583SOL    HW119385   3.359   0.923  13.100 -1.3201 -0.5133  1.3850
 2583SOL    HW219386   3.350   0.783  13.111  0.0203 -0.6412 -0.9681
 2584SOL     OW19387   3.897   2.231   5.438 -0.0502  0.0867 -0.3246
 2584SOL    HW119388   3.837   2.171   5.483  0.3003 -0.0698 -0.0668
 2584SOL    HW219389   3.968   2.230   5.503 -0.2928 -0.5210 -0.0672
 2585SOL     OW19390   0.050   3.827  15.273  0.5808 -0.5903  0.4834
 2585SOL    HW119391   0.140   3.837  15.304  0.5254  0.3153  0.3450
 2585SOL    HW219392   0.035   3.752  15.330 -3.0516 -0.0297  0.2576
 2586SOL     OW19393   4.607   4.330   3.641 -0.3436  0.3823 -0.4701
 2586SOL    HW119394   4.592   4.411   3.592 -1.0344 -0.5936 -1.8744
 2586SOL    HW219395   4.597   4.266   3.570  1.2915 -0.5577  0.1352
 2587SOL     OW19396   1.731   0.261  16.629  0.1937 -0.1387  0.3214
 2587SOL    HW119397   1.691   0.331  16.578  0.0648  0.7119  1.6207
 2587SOL    HW219398   1.726   0.193  16.561 -0.5988  1.5918 -1.3445
 2588SOL     OW19399   0.316   2.829   0.529 -0.4922  0.1281 -0.5668
 2588SOL    HW119400   0.287   2.739   0.517  1.7015 -0.4705 -1.3594
 2588SOL    HW219401   0.382   2.834   0.461  0.7183 -1.2979  0.5167
 2589SOL     OW19402   4.265   0.644   8.481  0.0063  0.2941  0.3190
 2589SOL    HW119403   4.173   0.618   8.479 -0.1292  0.8638 -0.9566
 2589SOL    HW219404   4.302   0.568   8.527 -1.3424 -1.0714 -0.8650
 2590SOL     OW19405   0.402   1.707   3.537 -0.1418 -0.0665 -0.1808
 2590SOL    HW119406   0.330   1.770   3.532 -0.5270 -0.4887  0.1122
 2590SOL    HW219407   0.407   1.685   3.630 -1.7304 -0.1105 -0.1035
 2591SOL     OW19408   1.464   0.292  17.179  0.2724 -0.0136 -0.1263
 2591SOL    HW119409   1.500   0.223  17.234  1.1564  1.7290  1.5122
 2591SOL    HW219410   1.429   0.351  17.246  1.3879 -0.1015  0.5244
 2592SOL     OW19411   4.082   3.921   7.033 -0.4940  0.0242  0.6499
 2592SOL    HW119412   4.025   3.981   7.081  0.3069 -0.2841  2.0031
 2592SOL    HW219413   4.084   3.854   7.101  1.9072 -0.4618  0.1134
 2593SOL     OW19414   1.554   4.322   8.238  0.1156 -0.3651  0.2707
 2593SOL    HW119415   1.637   4.370   8.248 -0.0515  0.0009 -0.1023
 2593SOL    HW219416   1.505   4.376   8.300 -1.9387 -1.1264 -0.6988
 2594SOL     OW19417   2.405   1.983   7.520 -0.8068  0.4799  0.2555
 2594SOL    HW119418   2.314   1.964   7.544 -1.0510  0.0952 -0.9560
 2594SOL    HW219419   2.425   2.048   7.587 -1.0085  1.2512 -0.4313
 2595SOL     OW19420   0.441   2.583   0.120  0.5013 -0.0218 -0.5314
 2595SOL    HW119421   0.430   2.588   0.025 -1.3030  1.3427 -0.2562
 2595SOL    HW219422   0.523   2.534   0.130  0.2876 -0.4056 -0.6540
 2596SOL     OW19423   0.741   4.307   3.681 -0.2343  0.5640 -0.0829
 2596SOL    HW119424   0.647   4.317   3.671 -0.5561 -2.2153 -0.0620
 2596SOL    HW219425   0.760   4.257   3.601 -2.0519 -1.3920  0.6863
 2597SOL     OW19426   3.270   4.532  10.157  0.2529 -0.5331  0.3787
 2597SOL    HW119427   3.323   4.611  10.170  0.0329 -0.1818 -0.9020
 2597SOL    HW219428   3.267   4.504  10.249  0.2317 -1.1701  0.1858
 2598SOL     OW19429   3.494   3.556   4.916 -0.1393 -0.0126 -0.3322
 2598SOL    HW119430   3.460   3.577   4.829 -0.5706 -3.8164 -1.0681
 2598SOL    HW219431   3.413   3.536   4.961  0.8264 -2.6141  0.2454
 2599SOL     OW19432   0.654   4.365   5.509 -0.6474  0.6354 -0.0522
 2599SOL    HW119433   0.735   4.404   5.541  1.0888 -2.0836 -1.0887
 2599SOL    HW219434   0.695   4.322   5.434 -0.8950  0.0693  0.1354
 2600SOL     OW19435   4.451   0.297  11.842 -0.1757  0.0090  0.7987
 2600SOL    HW119436   4.415   0.384  11.858 -1.3599 -0.6077  1.4964
 2600SOL    HW219437   4.517   0.284  11.910 -0.6593 -0.4395  1.1769
 2601SOL     OW19438   2.040   1.561   1.621  0.3621  0.3848 -0.0405
 2601SOL    HW119439   2.041   1.489   1.558  0.2252 -0.1415  0.5551
 2601SOL    HW219440   2.132   1.577   1.640  0.6115  1.2770 -2.0477
 2602SOL     OW19441   3.922   3.543   8.207  0.4789  0.6055  0.9913
 2602SOL    HW119442   3.850   3.593   8.168  1.0696 -0.0878 -1.0193
 2602SOL    HW219443   3.878   3.499   8.279  2.1718 -2.4127  0.1956
 2603SOL     OW19444   3.699   3.861  14.284 -0.0329 -0.1931 -0.3076
 2603SOL    HW119445   3.744   3.909  14.353 -1.9389 -0.2354  0.9547
 2603SOL    HW219446   3.767   3.795  14.269  0.6190 -0.2614  2.9854
 2604SOL     OW19447   0.700   2.723   6.378  0.2911 -0.0421 -0.4168
 2604SOL    HW119448   0.728   2.753   6.292  1.5148 -0.5982 -0.2156
 2604SOL    HW219449   0.625   2.779   6.393  0.0619 -0.1456 -1.1936
 2605SOL     OW19450   2.927   3.956  13.188 -0.2682 -0.2179 -0.6483
 2605SOL    HW119451   3.002   3.936  13.243 -0.5199  2.5968  0.6901
 2605SOL    HW219452   2.974   4.001  13.118  2.0084  0.7856  1.5283
 2606SOL     OW19453   2.411   4.654   8.006  0.2061  0.3287 -0.0061
 2606SOL    HW119454   2.332   4.618   7.966 -0.7684  1.3156  0.9903
 2606SOL    HW219455   2.442   4.570   8.038 -1.6760 -0.1558  0.5425
 2607SOL     OW19456   0.894   4.720   7.755  0.1416  0.2075 -0.3968
 2607SOL    HW119457   0.909   4.700   7.663 -0.9809 -4.0336  0.3317
 2607SOL    HW219458   0.808   4.678   7.762  0.2288  0.0092 -0.5300
 2608SOL     OW19459   1.061   1.141   8.533 -0.0207  0.3620  0.3906
 2608SOL    HW119460   1.102   1.079   8.594 -1.1096 -0.4700  0.2781
 2608SOL    HW219461   0.988   1.175   8.585  0.1629  2.7425 -0.9456
 2609SOL     OW19462   2.614   4.715  11.366 -0.1862  0.1101  0.1693
 2609SOL    HW119463   2.619   4.620  11.352 -0.1906  0.3485 -1.5264
 2609SOL    HW219464   2.576   0.011  11.284  1.3368  1.6115  0.0368
 2610SOL     OW19465   2.996   1.777   9.092 -0.3589 -0.0988  0.4944
 2610SOL    HW119466   2.982   1.790   8.998 -0.7993  0.4598  0.6359
 2610SOL    HW219467   3.072   1.720   9.086  0.3199  0.7744  0.6543
 2611SOL     OW19468   1.886   1.705  14.617  0.4595  0.1023  0.8182
 2611SOL    HW119469   1.968   1.688  14.663  0.0276 -0.2489  1.4556
 2611SOL    HW219470   1.850   1.616  14.610  0.5342 -0.1411  3.3307
 2612SOL     OW19471   4.013   1.160   1.415 -0.4181  0.0451  0.1587
 2612SOL    HW119472   4.023   1.068   1.441  0.8724  0.4740  1.2039
 2612SOL    HW219473   3.991   1.156   1.322  0.3599 -1.2121  0.0283
 2613SOL     OW19474   4.121   1.402   1.541  0.0038  0.1930 -0.2105
 2613SOL    HW119475   4.041   1.355   1.522  1.7489 -2.7744 -0.1628
 2613SOL    HW219476   4.177   1.348   1.486  0.1653 -1.0527  1.1854
 2614SOL     OW19477   3.977   3.345   1.930  0.0834 -0.2635  0.3255
 2614SOL    HW119478   3.975   3.403   1.853  1.4929  0.0077  0.4902
 2614SOL    HW219479   4.004   3.267   1.881  1.3458  0.0877  0.4558
 2615SOL     OW19480   0.290   4.375   7.688  0.1840  0.2170 -0.1835
 2615SOL    HW119481   0.249   4.301   7.645 -0.8132 -0.3310  1.7003
 2615SOL    HW219482   0.219   4.421   7.732 -0.8368 -0.0804 -1.5421
 2616SOL     OW19483   0.813   0.831   5.561 -0.2624  0.6036 -0.6447
 2616SOL    HW119484   0.768   0.762   5.610  0.5213  1.5030  1.3245
 2616SOL    HW219485   0.752   0.839   5.488 -0.2052 -2.3517 -1.0200
 2617SOL     OW19486   2.923   0.091   9.751 -0.2872  0.2400  0.0888
 2617SOL    HW119487   3.012   0.084   9.717  0.1959 -0.5145  1.5350
 2617SOL    HW219488   2.876   0.059   9.674  0.0236 -1.7714  0.7180
 2618SOL     OW19489   2.573   0.448   0.291 -0.1443  0.1305  0.1704
 2618SOL    HW119490   2.639   0.516   0.280 -0.7086  0.6459 -0.0279
 2618SOL    HW219491   2.538   0.432   0.204 -0.8334 -3.0898  1.0374
 2619SOL     OW19492   0.719   0.245   6.629  0.1976  0.4298  0.5540
 2619SOL    HW119493   0.783   0.315   6.642  0.0914  0.7563 -0.7203
 2619SOL    HW219494   0.728   0.226   6.536 -0.5747 -2.1786  1.0021
 2620SOL     OW19495   0.963   1.455   2.384  0.7679  0.5073  0.2092
 2620SOL    HW119496   0.971   1.544   2.419  0.6378  0.3890  0.5405
 2620SOL    HW219497   0.884   1.419   2.423  0.0183  2.6547  0.6800
 2621SOL     OW19498   1.943   3.513   0.878 -0.0634  0.2811  0.1061
 2621SOL    HW119499   1.901   3.557   0.804 -0.8051 -0.3429  0.1518
 2621SOL    HW219500   1.956   3.432   0.828  0.2077 -0.0135  0.6452
 2622SOL     OW19501   3.121   0.814  12.895 -0.2175  0.0534 -0.1936
 2622SOL    HW119502   3.190   0.834  12.958  0.5465  0.7700 -1.2693
 2622SOL    HW219503   3.183   0.801  12.824 -0.3129 -0.4487 -0.1858
 2623SOL     OW19504   0.732   2.795  13.972  0.9170 -0.8468 -0.1231
 2623SOL    HW119505   0.795   2.747  14.026  1.1332  0.7529  1.0303
 2623SOL    HW219506   0.699   2.720  13.923 -2.1116 -0.8120  1.8662
 2624SOL     OW19507   3.323   2.271   0.506  0.1833 -0.4489  0.5461
 2624SOL    HW119508   3.386   2.249   0.575  0.7928 -0.5382 -0.0390
 2624SOL    HW219509   3.303   2.358   0.539 -0.2945 -0.3109 -0.1055
 2625SOL     OW19510   0.951   0.454  15.248  0.4022 -0.2573 -0.4404
 2625SOL    HW119511   0.930   0.488  15.335  1.7922  0.5413 -0.4220
 2625SOL    HW219512   0.868   0.445  15.202 -0.1427  1.1739  0.2365
 2626SOL     OW19513   2.236   3.733   2.117  0.0686  0.2459 -0.5360
 2626SOL    HW119514   2.194   3.805   2.164  0.8404  0.4642 -0.1942
 2626SOL    HW219515   2.324   3.747   2.150 -0.1422  0.6429 -0.1311
 2627SOL     OW19516   2.641   3.138  12.959  0.1758  0.0588  0.3208
 2627SOL    HW119517   2.607   3.220  12.922 -1.0873 -1.3172 -1.5424
 2627SOL    HW219518   2.647   3.086  12.879 -3.1974  3.2728 -1.9882
 2628SOL     OW19519   4.182   1.056  17.066  0.1558 -0.1832  0.5565
 2628SOL    HW119520   4.100   1.008  17.077  0.3825 -0.5305  0.7210
 2628SOL    HW219521   4.146   1.117  17.001  2.4559 -0.1298 -0.6577
 2629SOL     OW19522   1.998   4.399   2.511 -0.1377 -0.0551 -0.6452
 2629SOL    HW119523   1.984   4.313   2.472 -1.8532 -0.7053  1.3636
 2629SOL    HW219524   2.056   4.380   2.585 -0.3954 -1.5765 -0.8398
 2630SOL     OW19525   2.764   0.853   4.002 -0.0787 -0.0907  0.2111
 2630SOL    HW119526   2.848   0.880   3.965  0.4738 -0.2381  1.3590
 2630SOL    HW219527   2.759   0.933   4.053  0.3670  0.0172  0.0816
 2631SOL     OW19528   1.830   0.021   0.531  0.1934  0.1587 -0.2149
 2631SOL    HW119529   1.820   0.089   0.464  1.1997  0.4228 -0.0917
 2631SOL    HW219530   1.912   0.040   0.576  0.6204 -2.2862  0.0132
 2632SOL     OW19531   3.915   0.484   0.128  0.1257 -0.6856  0.9267
 2632SOL    HW119532   3.903   0.430   0.207  1.2409 -0.6177  1.1540
 2632SOL    HW219533   3.845   0.450   0.073  1.5343 -1.2053 -0.5470
 2633SOL     OW19534   1.798   1.288   8.902 -0.5438  0.5539 -0.3788
 2633SOL    HW119535   1.824   1.209   8.854 -2.8362  1.2203 -2.6854
 2633SOL    HW219536   1.736   1.260   8.970  0.9968 -0.5574  0.5744
 2634SOL     OW19537   0.860   4.681   8.793  0.3251 -0.0839 -0.3699
 2634SOL    HW119538   0.907   4.679   8.709 -1.2760  1.0130 -1.2919
 2634SOL    HW219539   0.823   4.594   8.804 -2.5922  1.1247 -0.6481
 2635SOL     OW19540   0.558   0.020   5.879  0.1645 -0.1735  0.1797
 2635SOL    HW119541   0.596   4.668   5.892  1.4603  0.3846  0.0902
 2635SOL    HW219542   0.467   0.011   5.909  0.4816 -1.4028  0.8100
 2636SOL     OW19543   4.029   4.643   5.170  0.3365  0.6984 -0.0970
 2636SOL    HW119544   3.968   4.570   5.176  2.3927 -1.1450 -1.6644
 2636SOL    HW219545   4.095   4.595   5.119 -2.2285 -0.6136 -2.1429
 2637SOL     OW19546   0.848   4.112   6.032 -0.3381  0.1415 -0.4654
 2637SOL    HW119547   0.913   4.106   6.102 -0.9001 -0.5961  0.0036
 2637SOL    HW219548   0.900   4.105   5.952  0.4181  1.1174 -0.0564
 2638SOL     OW19549   2.513   0.701   5.374  0.1766 -0.5346 -0.0079
 2638SOL    HW119550   2.544   0.711   5.284 -0.7420  1.2281 -0.1382
 2638SOL    HW219551   2.440   0.642   5.355  0.9049 -1.8582  1.3507
 2639SOL     OW19552   3.426   3.995   2.496  0.1999 -0.1701  0.4061
 2639SOL    HW119553   3.505   3.949   2.468  2.2170  2.2351  2.1195
 2639SOL    HW219554   3.421   3.970   2.588  0.0004  1.0146  0.7164
 2640SOL     OW19555   1.563   3.238   9.265  0.1243 -0.0880  0.0148
 2640SOL    HW119556   1.645   3.192   9.282  0.7547  0.2375 -2.1560
 2640SOL    HW219557   1.524   3.167   9.214  1.1254 -0.6812  0.0740
 2641SOL     OW19558   4.133   3.653   0.387  0.2213  0.6253  0.6621
 2641SOL    HW119559   4.201   3.693   0.441  0.4865 -0.0073  0.7895
 2641SOL    HW219560   4.110   3.730   0.334 -1.2610  2.2407  3.6967
 2642SOL     OW19561   3.717   0.988   5.378 -0.0005  0.1486  0.3808
 2642SOL    HW119562   3.797   0.981   5.430 -0.7179 -2.7689  1.1349
 2642SOL    HW219563   3.720   0.913   5.318 -0.6706  1.7073 -1.6260
 2643SOL     OW19564   1.915   3.368  15.008  0.0304 -0.5979  0.2268
 2643SOL    HW119565   1.930   3.354  14.914 -0.8728 -1.8484  0.2605
 2643SOL    HW219566   1.820   3.379  15.014  0.0668  0.0305 -0.2831
 2644SOL     OW19567   0.712   2.372   1.954  0.5114  0.5724 -0.3365
 2644SOL    HW119568   0.691   2.445   1.896  3.3820  2.0232  0.4603
 2644SOL    HW219569   0.773   2.318   1.904 -1.8964 -1.6717 -0.9173
 2645SOL     OW19570   3.126   0.094   8.128  0.6187 -0.1042 -0.5268
 2645SOL    HW119571   3.146   0.103   8.222 -1.8065 -0.1317 -0.0133
 2645SOL    HW219572   3.071   0.016   8.129  1.5208 -0.7404  0.2945
 2646SOL     OW19573   0.870   1.818   7.013  0.0982 -0.2240 -0.2761
 2646SOL    HW119574   0.918   1.872   6.951 -0.3162 -0.3534 -0.7061
 2646SOL    HW219575   0.882   1.729   6.979  0.2283  0.5723 -2.3052
 2647SOL     OW19576   4.501   4.206   7.189  0.2950  0.3131  0.1804
 2647SOL    HW119577   4.513   4.146   7.115  0.3361 -0.2373  0.6311
 2647SOL    HW219578   4.476   4.279   7.132  0.0103 -0.4439 -0.6601
 2648SOL     OW19579   1.083   3.915   1.495 -0.5530 -0.0449 -0.1793
 2648SOL    HW119580   1.053   3.867   1.572  1.3725 -0.1578  0.5057
 2648SOL    HW219581   1.075   4.008   1.518 -0.3919 -0.2355  0.6672
 2649SOL     OW19582   0.996   1.652   3.159  0.1628 -0.3075  0.2974
 2649SOL    HW119583   1.044   1.732   3.181  0.4970 -0.6517  0.8014
 2649SOL    HW219584   1.015   1.588   3.227  1.3391 -0.1942  0.0806
 2650SOL     OW19585   1.710   0.023  16.483 -0.1189  0.1519  0.2474
 2650SOL    HW119586   1.623   0.059  16.464  0.7989  2.2008 -0.1464
 2650SOL    HW219587   1.693   4.675  16.525 -0.5423  0.7731  1.3028
 2651SOL     OW19588   0.188   3.614   6.593 -0.0454 -0.2299 -0.0723
 2651SOL    HW119589   0.264   3.671   6.600 -0.7090  0.3779  2.1597
 2651SOL    HW219590   0.114   3.666   6.561 -0.1708 -0.4511 -0.1454
 2652SOL     OW19591   3.835   0.112   2.595  0.0894  0.3587 -0.1280
 2652SOL    HW119592   3.751   0.096   2.637 -0.8118 -0.7261 -2.3238
 2652SOL    HW219593   3.882   0.151   2.669 -1.9270  1.2857  0.6788
 2653SOL     OW19594   3.343   2.766   0.645  0.0312  0.3103 -0.2330
 2653SOL    HW119595   3.396   2.821   0.702 -0.4758  1.0575 -0.4810
 2653SOL    HW219596   3.265   2.757   0.701 -1.4204 -3.1866 -2.8222
 2654SOL     OW19597   4.387   3.803  13.817 -0.3857 -0.4455  0.3015
 2654SOL    HW119598   4.416   3.870  13.879  0.4319  0.0726 -0.6439
 2654SOL    HW219599   4.293   3.823  13.809 -0.1207 -0.1154 -2.1885
 2655SOL     OW19600   0.852   4.293   7.827  0.3426 -0.3123 -0.5432
 2655SOL    HW119601   0.942   4.326   7.815  0.1406  0.8336  1.0669
 2655SOL    HW219602   0.829   4.285   7.735 -0.1422  1.4849 -0.5952
 2656SOL     OW19603   4.353   3.816  12.126 -0.0280  0.1495  0.2338
 2656SOL    HW119604   4.363   3.723  12.143 -1.0348  0.1560  0.8638
 2656SOL    HW219605   4.434   3.850  12.164  0.6992  0.8251 -1.8826
 2657SOL     OW19606   1.720   3.867   0.901  0.2610 -0.1577  0.4605
 2657SOL    HW119607   1.745   3.953   0.867  0.8701 -0.3531  0.4042
 2657SOL    HW219608   1.681   3.832   0.821  3.8173 -0.3696 -1.2155
 2658SOL     OW19609   1.233   0.339   5.316  0.4607  0.2128 -0.1901
 2658SOL    HW119610   1.221   0.309   5.406  1.3627 -3.0714 -1.1434
 2658SOL    HW219611   1.322   0.373   5.312  0.5420 -0.0463 -0.6019
 2659SOL     OW19612   2.978   2.302   2.347  0.1222 -0.0144  0.5127
 2659SOL    HW119613   3.036   2.227   2.336 -1.8866 -1.1075 -2.7017
 2659SOL    HW219614   2.947   2.303   2.256 -0.4760  0.6033  0.7218
 2660SOL     OW19615   3.908   0.868   2.116 -0.6103  0.5105  0.2335
 2660SOL    HW119616   3.937   0.807   2.183  2.8035  2.5348  0.6121
 2660SOL    HW219617   3.835   0.909   2.162  1.3823  0.0758  3.8039
 2661SOL     OW19618   2.781   0.775  14.445  0.0419  0.0750 -0.5895
 2661SOL    HW119619   2.720   0.845  14.465 -0.2865  0.1204 -1.7157
 2661SOL    HW219620   2.730   0.725  14.381 -2.0406 -0.9784  1.9051
 2662SOL     OW19621   2.140   0.749   9.422 -0.1332 -0.2534 -0.7164
 2662SOL    HW119622   2.206   0.687   9.393 -0.2915 -1.0730  0.6578
 2662SOL    HW219623   2.073   0.696   9.466  0.9899  0.1288  1.4721
 2663SOL     OW19624   2.382   0.218   5.605 -0.3542  0.4172 -0.6673
 2663SOL    HW119625   2.421   0.209   5.692  1.3240 -0.8537 -1.5430
 2663SOL    HW219626   2.369   0.125   5.584 -1.9068  0.9344 -2.0088
 2664SOL     OW19627   3.632   3.682   2.854 -0.2627  0.3395  0.0481
 2664SOL    HW119628   3.654   3.685   2.761 -1.4392  2.2506 -0.1648
 2664SOL    HW219629   3.591   3.597   2.867 -0.4329  0.5192  0.7065
 2665SOL     OW19630   2.715   2.151   1.795  0.4383 -0.2286 -0.0672
 2665SOL    HW119631   2.759   2.144   1.711 -0.0943 -1.0180 -0.2842
 2665SOL    HW219632   2.664   2.232   1.781 -0.2176 -0.7388 -0.6299
 2666SOL     OW19633   0.827   0.894   1.688  0.4472  0.4146  0.2229
 2666SOL    HW119634   0.741   0.923   1.658  0.2747 -0.4045 -0.0716
 2666SOL    HW219635   0.870   0.966   1.735 -1.2415  0.6855  1.3406
 2667SOL     OW19636   4.556   2.840  11.877 -0.4249 -0.4086 -0.1828
 2667SOL    HW119637   4.466   2.827  11.906 -0.9249 -0.0502 -1.5690
 2667SOL    HW219638   4.606   2.773  11.924  0.7902  2.8121  3.1030
 2668SOL     OW19639   1.600   2.554  15.308 -0.6339  0.3294 -0.2308
 2668SOL    HW119640   1.532   2.613  15.339 -1.8063 -1.5166  0.7458
 2668SOL    HW219641   1.660   2.619  15.272 -1.7193  1.3629 -0.1852
 2669SOL     OW19642   4.054   3.912   1.238  0.1691 -0.5122  0.6105
 2669SOL    HW119643   3.994   3.931   1.167  1.4049 -0.0287 -0.3109
 2669SOL    HW219644   3.990   3.886   1.305  1.1517  2.4130  2.6948
 2670SOL     OW19645   3.539   4.161   7.307  0.4829 -0.2968  0.9590
 2670SOL    HW119646   3.502   4.248   7.326  0.2639 -0.2609  0.3757
 2670SOL    HW219647   3.534   4.163   7.212  0.6942  1.7234  0.9709
 2671SOL     OW19648   1.913   1.114   3.667 -0.0947  0.1925  0.8942
 2671SOL    HW119649   1.913   1.093   3.573 -1.4891 -0.2272  0.9830
 2671SOL    HW219650   1.985   1.175   3.677 -0.3401  0.6089  0.0906
 2672SOL     OW19651   4.701   4.440   2.260  0.3755 -0.7064  0.1439
 2672SOL    HW119652   4.705   4.534   2.241 -0.2056 -0.8170 -0.5096
 2672SOL    HW219653   4.624   4.447   2.317  2.0913  0.5489  2.3122
 2673SOL     OW19654   1.373   2.371  13.143 -0.2746  0.1745  0.1097
 2673SOL    HW119655   1.467   2.356  13.140 -0.4850 -0.9310 -0.9185
 2673SOL    HW219656   1.371   2.466  13.151  2.1952  0.3404 -1.2401
 2674SOL     OW19657   4.205   4.483   3.552  0.1396  0.2454 -0.4792
 2674SOL    HW119658   4.210   4.429   3.630 -0.8620  1.9786  0.7891
 2674SOL    HW219659   4.221   4.412   3.490 -3.9733 -2.2129  1.2892
 2675SOL     OW19660   2.093   1.309   3.600 -0.1334  0.6231 -0.2499
 2675SOL    HW119661   2.087   1.263   3.516 -0.9334 -0.9334  0.6496
 2675SOL    HW219662   2.046   1.390   3.581  0.4547  0.6099 -1.8169
 2676SOL     OW19663   0.055   4.128   6.335 -0.4723 -0.2005 -0.3933
 2676SOL    HW119664   0.092   4.069   6.269 -0.7211 -0.3399 -0.4108
 2676SOL    HW219665   4.721   4.069   6.367  0.6032  0.1579  2.5442
 2677SOL     OW19666   0.026   0.740   2.381 -0.0139 -0.5307 -0.4346
 2677SOL    HW119667   4.669   0.738   2.406  0.4496 -0.7573  1.2285
 2677SOL    HW219668   0.060   0.822   2.416 -0.9370  0.2639 -1.4182
 2678SOL     OW19669   2.092   0.566  17.325 -0.2235 -0.2614  0.5027
 2678SOL    HW119670   2.033   0.490  17.327 -1.6522  0.7871 -1.3277
 2678SOL    HW219671   2.090   0.579  17.230 -2.6286 -0.0804  0.5785
 2679SOL     OW19672   4.594   3.926   3.736  0.3700 -0.0114 -0.2459
 2679SOL    HW119673   4.526   3.945   3.671 -0.4342 -1.6716  0.1174
 2679SOL    HW219674   4.548   3.940   3.819  1.7393  2.5266  0.0793
 2680SOL     OW19675   1.347   4.230   7.515  0.3415 -0.0480  0.2520
 2680SOL    HW119676   1.276   4.169   7.492  0.1343  0.1340  0.4065
 2680SOL    HW219677   1.336   4.228   7.610 -0.0952 -0.8126  0.1903
 2681SOL     OW19678   2.782   4.024  10.494  0.0660 -0.3484  0.4967
 2681SOL    HW119679   2.768   4.089  10.562 -0.0569 -0.1806  0.3097
 2681SOL    HW219680   2.745   3.949  10.541  1.4465 -1.1043  0.3777
 2682SOL     OW19681   0.161   3.165   8.916  0.4759 -0.1793 -0.3179
 2682SOL    HW119682   0.255   3.174   8.934  0.2902 -0.1112  0.6415
 2682SOL    HW219683   0.136   3.144   9.006  1.9333 -2.9868 -0.5673
 2683SOL     OW19684   0.500   4.233  12.363  0.6565 -0.1372  0.2461
 2683SOL    HW119685   0.567   4.295  12.333  0.3117  0.8702  1.5555
 2683SOL    HW219686   0.524   4.147  12.327 -0.4947 -0.4459  0.2213
 2684SOL     OW19687   3.573   0.907   0.720 -0.3897 -0.2750  0.6800
 2684SOL    HW119688   3.641   0.915   0.653 -0.4771  0.6159  0.7012
 2684SOL    HW219689   3.507   0.862   0.667 -0.8332  1.3959 -0.1585
 2685SOL     OW19690   3.513   4.293   3.977  0.4069 -0.4969 -0.3009
 2685SOL    HW119691   3.457   4.329   4.046  1.3416 -1.5351  1.0072
 2685SOL    HW219692   3.535   4.206   4.009  0.0687 -0.7097 -0.6553
 2686SOL     OW19693   0.051   0.673   3.559 -0.3448 -0.3016 -0.1906
 2686SOL    HW119694   0.025   0.593   3.514  1.0049  0.3903 -2.2018
 2686SOL    HW219695   4.729   0.742   3.526 -1.3625 -0.5101  1.1401
 2687SOL     OW19696   0.064   0.887   8.076  0.3113  0.5805  0.2417
 2687SOL    HW119697   0.076   0.933   7.993  0.7883 -2.4548 -1.3449
 2687SOL    HW219698   0.025   0.803   8.053 -2.0080  1.4384  1.0248
 2688SOL     OW19699   4.288   1.089   0.105  0.1153  0.0087  0.0391
 2688SOL    HW119700   4.223   1.088   0.175  0.6408  1.5304  0.5694
 2688SOL    HW219701   4.260   1.009   0.061 -1.6990  0.9851 -0.5803
 2689SOL     OW19702   1.275   1.801   6.887 -0.4250  0.6727  0.2752
 2689SOL    HW119703   1.239   1.722   6.846  0.8507  0.8453 -1.1549
 2689SOL    HW219704   1.225   1.865   6.837 -0.8603 -1.0325 -1.5108
 2690SOL     OW19705   2.587   2.293   3.541 -0.1207  0.0743 -0.2034
 2690SOL    HW119706   2.578   2.327   3.630 -0.0409 -0.8664  0.1572
 2690SOL    HW219707   2.505   2.316   3.498  1.2786  2.9633 -1.3874
 2691SOL     OW19708   0.949   4.680   5.861 -0.1723 -0.1802 -0.8012
 2691SOL    HW119709   1.045   4.675   5.864 -0.2764 -0.9188  1.1844
 2691SOL    HW219710   0.939   4.725   5.945  0.8594 -1.5997  0.0890
 2692SOL     OW19711   2.341   4.320   6.361  0.3721 -0.9381 -0.1562
 2692SOL    HW119712   2.274   4.362   6.307 -0.3379 -1.3145  0.4319
 2692SOL    HW219713   2.308   4.348   6.446 -0.0060  0.8752 -0.8932
 2693SOL     OW19714   3.852   1.806   2.761 -0.2015 -0.0756 -0.1767
 2693SOL    HW119715   3.852   1.801   2.857 -1.9176 -1.6963 -0.2564
 2693SOL    HW219716   3.765   1.836   2.733 -0.6839 -1.5806 -0.2690
 2694SOL     OW19717   1.294   0.839   2.753  0.1242 -0.1757  0.1954
 2694SOL    HW119718   1.241   0.891   2.693  0.4712 -1.4337 -1.1851
 2694SOL    HW219719   1.268   0.873   2.839 -0.2991  2.9290 -1.1781
 2695SOL     OW19720   3.446   2.378   4.338  0.4937 -0.0327  0.1422
 2695SOL    HW119721   3.374   2.321   4.312 -0.6858  1.5411 -0.0229
 2695SOL    HW219722   3.523   2.321   4.346  0.6575  0.3173  1.1339
 2696SOL     OW19723   2.290   0.435  17.446 -0.0457  0.6804 -0.7005
 2696SOL    HW119724   2.226   0.493  17.488  0.6737  0.9251  0.0678
 2696SOL    HW219725   2.277   0.476  17.360  1.2935  0.4339 -1.0148
 2697SOL     OW19726   0.926   2.921   7.105  0.0411  0.3207  0.1640
 2697SOL    HW119727   0.923   2.875   7.188 -0.6741  0.1863  0.0639
 2697SOL    HW219728   0.966   2.850   7.056 -0.5445  0.3275 -0.3297
 2698SOL     OW19729   3.394   1.773  13.486 -0.1915  1.1733 -0.9799
 2698SOL    HW119730   3.457   1.701  13.493 -1.4083 -0.2043 -4.1576
 2698SOL    HW219731   3.382   1.765  13.392  1.9064 -0.5558 -1.1060
 2699SOL     OW19732   3.810   2.796   7.983  0.2089 -0.3295 -0.1079
 2699SOL    HW119733   3.777   2.850   8.055 -1.1693  0.4779 -1.3596
 2699SOL    HW219734   3.834   2.854   7.911  1.3125 -1.0961 -0.3483
 2700SOL     OW19735   2.237   0.232   0.249 -0.1201 -0.1240 -0.4811
 2700SOL    HW119736   2.291   0.207   0.324 -0.0614  2.2836  0.2994
 2700SOL    HW219737   2.303   0.255   0.184 -0.6319 -1.4993 -1.4809
 2701SOL     OW19738   2.902   3.439  17.026  0.6459 -0.4591  0.0127
 2701SOL    HW119739   2.900   3.503  16.954  2.9394 -0.5666 -0.1551
 2701SOL    HW219740   2.962   3.375  16.987 -0.7212 -2.9257  1.9672
 2702SOL     OW19741   2.446   2.820   5.386  0.1019 -0.1618 -0.0442
 2702SOL    HW119742   2.432   2.755   5.454 -1.0073 -2.2890 -2.2747
 2702SOL    HW219743   2.364   2.870   5.395 -1.8077 -3.1829 -0.5369
 2703SOL     OW19744   0.082   4.164   4.094 -0.2809 -0.0696 -0.7737
 2703SOL    HW119745   0.052   4.152   4.004 -0.1428 -2.0755 -0.5542
 2703SOL    HW219746   0.081   4.260   4.099 -0.0170 -0.0906 -0.2767
 2704SOL     OW19747   4.199   2.752   4.927 -0.0471  0.5994  0.7715
 2704SOL    HW119748   4.207   2.659   4.905 -3.4461  0.9517 -1.9028
 2704SOL    HW219749   4.247   2.753   5.010 -1.8161 -0.4413  1.8113
 2705SOL     OW19750   4.525   1.252   3.458  0.3040 -0.6016  0.1105
 2705SOL    HW119751   4.531   1.227   3.550 -1.2174 -0.3174  0.2936
 2705SOL    HW219752   4.495   1.169   3.422 -1.8968  1.1137 -1.9590
 2706SOL     OW19753   0.411   2.445  12.288  0.0109 -0.3570  0.1924
 2706SOL    HW119754   0.440   2.363  12.328  2.7125  0.6448  0.3511
 2706SOL    HW219755   0.323   2.452  12.326  0.9537  1.8038  2.0282
 2707SOL     OW19756   4.261   1.082  16.649 -0.0593  0.3657  0.3444
 2707SOL    HW119757   4.297   1.132  16.576 -0.7026  2.6439  1.6021
 2707SOL    HW219758   4.173   1.061  16.617 -0.8766  1.7766  1.6422
 2708SOL     OW19759   1.450   4.295  12.240 -0.2287 -0.5981 -0.0900
 2708SOL    HW119760   1.417   4.213  12.277  1.6584 -1.0858  0.4983
 2708SOL    HW219761   1.441   4.270  12.148  0.7141 -0.1800 -0.2937
 2709SOL     OW19762   0.194   1.175   6.899 -0.0954  0.6120 -0.0760
 2709SOL    HW119763   0.102   1.188   6.920  0.6570  1.9227  2.4479
 2709SOL    HW219764   0.187   1.138   6.811  0.2344 -0.1267  0.2082
 2710SOL     OW19765   1.175   3.450   2.518 -0.0582 -0.1737 -0.0223
 2710SOL    HW119766   1.088   3.483   2.539  0.9869  2.6566 -0.1459
 2710SOL    HW219767   1.213   3.527   2.475  0.4546 -0.1107  0.5374
 2711SOL     OW19768   2.555   1.855  17.232  0.7468 -0.1486  0.1050
 2711SOL    HW119769   2.615   1.926  17.210  0.0965  0.3360 -0.1350
 2711SOL    HW219770   2.535   1.880  17.322  3.0823 -0.3942  0.6786
 2712SOL     OW19771   3.953   4.061   8.356 -0.4238 -0.7116 -0.2270
 2712SOL    HW119772   3.879   4.113   8.387 -0.3518 -1.7564  1.6568
 2712SOL    HW219773   4.025   4.124   8.363 -1.3210  0.4927 -1.8489
 2713SOL     OW19774   2.048   4.077  15.823 -1.0768 -0.1667  0.3123
 2713SOL    HW119775   2.045   4.172  15.816  2.7703  0.0620  1.7772
 2713SOL    HW219776   2.049   4.088  15.918  0.6357 -0.0370  0.2896
 2714SOL     OW19777   2.722   2.463   8.927  0.1128  0.1470 -0.6678
 2714SOL    HW119778   2.666   2.400   8.882 -0.4085  0.6138 -0.6648
 2714SOL    HW219779   2.679   2.490   9.009 -0.6794  0.8170 -1.3042
 2715SOL     OW19780   3.695   2.457   4.512 -0.3526 -0.0957 -0.3065
 2715SOL    HW119781   3.655   2.415   4.589 -1.6770  1.7387 -0.0046
 2715SOL    HW219782   3.689   2.384   4.450  2.6426 -0.0945 -0.5781
 2716SOL     OW19783   0.113   4.090   2.103  0.0999 -0.1749 -0.4608
 2716SOL    HW119784   0.129   4.140   2.023 -0.3559 -0.2698 -0.6084
 2716SOL    HW219785   0.124   3.999   2.077 -0.1767 -0.6922  1.2582
 2717SOL     OW19786   0.214   0.413   6.732 -0.2076 -0.2436  0.1004
 2717SOL    HW119787   0.138   0.446   6.780  1.4584  3.0691  0.4491
 2717SOL    HW219788   0.225   0.328   6.775 -2.0566 -0.1777  0.7070
 2718SOL     OW19789   2.856   0.195   5.378  0.0719  0.3419  0.2853
 2718SOL    HW119790   2.817   0.220   5.462  0.7665  1.6489  0.2128
 2718SOL    HW219791   2.817   0.109   5.364 -0.6642  0.2350  2.9650
 2719SOL     OW19792   1.808   2.910   7.188 -0.4628  0.0553  0.7179
 2719SOL    HW119793   1.749   2.964   7.241  0.3651  0.4945  1.2036
 2719SOL    HW219794   1.851   2.864   7.260  0.2906  0.1263  0.3094
 2720SOL     OW19795   0.044   1.603   7.299 -0.6692  0.1805  0.1394
 2720SOL    HW119796   0.045   1.531   7.236  1.8030  1.5515 -1.3840
 2720SOL    HW219797   0.135   1.613   7.326 -0.4622 -0.1441 -0.4496
 2721SOL     OW19798   0.180   1.350   4.988 -0.4036  0.2918  0.1371
 2721SOL    HW119799   0.133   1.269   4.971 -1.6597  1.0796 -0.1737
 2721SOL    HW219800   0.230   1.327   5.066 -0.3069 -0.4122 -0.1391
 2722SOL     OW19801   2.081   3.555   1.208 -0.5463  0.2244  0.8143
 2722SOL    HW119802   2.072   3.460   1.212  0.7166  0.1196  1.0552
 2722SOL    HW219803   2.117   3.550   1.119 -1.3432  0.9717  0.4419
 2723SOL     OW19804   3.137   1.945   7.377  0.2867  0.1010  0.5131
 2723SOL    HW119805   3.102   1.856   7.372 -0.0644  0.2958 -0.3550
 2723SOL    HW219806   3.205   1.931   7.443 -1.2754  0.4194  2.1978
 2724SOL     OW19807   1.923   1.858   5.452 -0.0967  0.1277  0.0539
 2724SOL    HW119808   1.930   1.840   5.546  0.9954 -1.2758 -0.3017
 2724SOL    HW219809   2.016   1.867   5.430 -0.0946 -0.3286 -0.1154
 2725SOL     OW19810   2.061   3.479   4.344  0.1962  0.1240  0.3372
 2725SOL    HW119811   2.022   3.519   4.421 -0.4154 -0.4052  0.2989
 2725SOL    HW219812   2.118   3.552   4.321 -1.7198  2.2433  2.2804
 2726SOL     OW19813   1.028   3.527  16.948 -0.1498 -0.2015  0.0060
 2726SOL    HW119814   1.109   3.558  16.906  1.7224 -3.3812  1.2315
 2726SOL    HW219815   1.047   3.435  16.966  0.1450 -0.1191  0.1111
 2727SOL     OW19816   3.651   4.104  14.492  0.0167 -0.2284  0.7644
 2727SOL    HW119817   3.732   4.107  14.441 -0.9779 -2.6060 -0.9363
 2727SOL    HW219818   3.667   4.020  14.535  1.3977  0.3812  1.4491
 2728SOL     OW19819   1.420   1.151  14.100  0.0568 -0.3528  0.3949
 2728SOL    HW119820   1.494   1.137  14.160 -0.0111 -2.0322  0.1072
 2728SOL    HW219821   1.432   1.071  14.048  0.8115  0.2057 -0.2919
 2729SOL     OW19822   1.209   1.115   3.362 -0.2341  0.5391 -0.2295
 2729SOL    HW119823   1.251   1.178   3.303  0.1556  0.5359  0.0375
 2729SOL    HW219824   1.146   1.068   3.308 -0.3226 -2.1942  2.2721
 2730SOL     OW19825   1.629   1.055  14.256  0.2581 -0.3376  0.0328
 2730SOL    HW119826   1.671   0.971  14.277  0.0432 -0.3853  0.2728
 2730SOL    HW219827   1.584   1.071  14.339  3.4648  3.5794  1.0176
 2731SOL     OW19828   3.461   1.891  14.735  0.7156 -0.2047  0.2889
 2731SOL    HW119829   3.453   1.797  14.725 -1.3176  0.0838 -0.8114
 2731SOL    HW219830   3.553   1.905  14.713  0.6456  0.4013  0.3826
 2732SOL     OW19831   4.244   0.396   8.790 -0.2542  0.0973  0.0500
 2732SOL    HW119832   4.179   0.349   8.841  0.8783 -0.2561  1.1789
 2732SOL    HW219833   4.227   0.372   8.699 -1.1514  0.7470  0.0516
 2733SOL     OW19834   4.730   1.749   3.680  0.7596  0.1376 -0.3018
 2733SOL    HW119835   0.070   1.718   3.730  0.9425  1.8246  0.4871
 2733SOL    HW219836   4.681   1.667   3.674  1.3198 -0.1743 -0.5991
 2734SOL     OW19837   0.093   2.026   2.811  0.3827  0.3080 -0.5157
 2734SOL    HW119838   0.086   2.047   2.718 -0.1116 -0.0963 -0.5695
 2734SOL    HW219839   0.040   1.947   2.808 -0.9364  1.1344  0.8064
 2735SOL     OW19840   1.722   2.726  13.160 -0.0598 -0.2806 -0.0337
 2735SOL    HW119841   1.641   2.682  13.134  0.0988 -0.9867  0.6582
 2735SOL    HW219842   1.723   2.790  13.089 -0.1118 -1.2542 -0.9023
 2736SOL     OW19843   3.107   3.006   7.523 -0.6204 -0.2673  0.1019
 2736SOL    HW119844   3.140   2.938   7.581  0.2709 -0.9044 -1.1587
 2736SOL    HW219845   3.044   3.054   7.578  0.3058  3.2069 -1.8783
 2737SOL     OW19846   3.951   1.503   2.906  0.1641  0.5014  0.6758
 2737SOL    HW119847   4.036   1.490   2.948  0.8108  0.6681 -0.6085
 2737SOL    HW219848   3.899   1.485   2.985 -0.2173  1.1458  0.5703
 2738SOL     OW19849   2.015   3.135   4.984  0.3895  0.4364 -0.5544
 2738SOL    HW119850   2.054   3.194   5.048  0.0376  1.7542 -1.5607
 2738SOL    HW219851   1.949   3.191   4.943  1.4260  1.4746 -0.7839
 2739SOL     OW19852   2.673   3.066   5.341 -0.1856  0.0836  0.8444
 2739SOL    HW119853   2.713   3.058   5.427 -0.6090  3.3617  1.3267
 2739SOL    HW219854   2.604   2.999   5.344 -0.6498  0.4547 -1.1141
 2740SOL     OW19855   3.160   0.338   7.449  0.2194  0.1362  0.2720
 2740SOL    HW119856   3.126   0.356   7.362  0.1481  1.8166  0.6451
 2740SOL    HW219857   3.244   0.300   7.422 -0.6341 -0.4879 -1.4679
 2741SOL     OW19858   1.972   0.083  15.561 -0.0494 -0.5415  0.6743
 2741SOL    HW119859   1.883   0.095  15.594  0.3431  0.4869  1.3468
 2741SOL    HW219860   2.011   0.041  15.638 -1.8469  0.5214  2.1496
 2742SOL     OW19861   2.634   2.506   2.898 -0.0761  0.1139 -0.2134
 2742SOL    HW119862   2.623   2.541   2.986 -0.0263 -1.8125  0.5457
 2742SOL    HW219863   2.604   2.576   2.840 -2.5536  0.0547  1.0453
 2743SOL     OW19864   1.256   4.236   7.077  0.3253 -0.0723 -0.2356
 2743SOL    HW119865   1.203   4.180   7.135  0.6896 -0.4205 -0.2422
 2743SOL    HW219866   1.199   4.310   7.056 -0.4554  0.1518  2.5709
 2744SOL     OW19867   0.018   2.963  16.094  0.3653  0.2394 -0.1985
 2744SOL    HW119868   0.102   3.002  16.118  2.0686 -4.1640  1.0441
 2744SOL    HW219869   0.034   2.897  16.026  0.4869 -0.1532  0.2060
 2745SOL     OW19870   2.524   0.451  10.484 -0.4190 -1.0490 -0.5609
 2745SOL    HW119871   2.454   0.385  10.484 -1.0470 -0.3709  0.5253
 2745SOL    HW219872   2.538   0.441  10.578  1.2839 -3.3454 -1.0395
 2746SOL     OW19873   3.024   2.736  14.922 -0.0251  0.0452  0.2794
 2746SOL    HW119874   3.010   2.778  15.007  0.4783 -1.3922  1.0590
 2746SOL    HW219875   2.948   2.683  14.901  0.4166 -0.2295 -0.6283
 2747SOL     OW19876   4.299   0.618  13.885  0.0205  0.3159  0.1542
 2747SOL    HW119877   4.372   0.590  13.941 -0.4787 -0.4756  0.4137
 2747SOL    HW219878   4.233   0.565  13.930  1.0626 -1.6503 -0.6622
 2748SOL     OW19879   0.513   1.484  10.320 -0.3049 -0.1253 -0.1058
 2748SOL    HW119880   0.469   1.547  10.262 -1.1460 -1.1006 -0.5137
 2748SOL    HW219881   0.476   1.401  10.291  1.8742 -1.2810  0.4287
 2749SOL     OW19882   2.157   4.379   6.183 -0.2489 -0.5560 -0.2447
 2749SOL    HW119883   2.220   4.410   6.119  1.4745 -2.2165  0.6730
 2749SOL    HW219884   2.096   4.339   6.121 -0.5053  1.1596 -1.0923
 2750SOL     OW19885   4.547   4.115   8.092 -0.2674 -0.3389 -0.1236
 2750SOL    HW119886   4.610   4.046   8.073 -0.8303 -1.1176  0.8181
 2750SOL    HW219887   4.463   4.078   8.063 -0.5720  0.3583 -0.1199
 2751SOL     OW19888   0.688   2.035   6.860 -0.5297 -0.1528 -0.4143
 2751SOL    HW119889   0.726   1.976   6.925 -0.5177  0.6360  0.2901
 2751SOL    HW219890   0.748   2.030   6.786 -0.8679  1.0859 -0.7667
 2752SOL     OW19891   4.451   2.456   2.769  0.1304 -0.1887  0.8054
 2752SOL    HW119892   4.361   2.424   2.778 -0.2340  0.5482 -0.1393
 2752SOL    HW219893   4.422   2.543   2.740 -3.0816 -1.6036 -0.2672
 2753SOL     OW19894   2.216   0.556  16.695  0.2159  0.3976  0.1675
 2753SOL    HW119895   2.279   0.626  16.714  0.8389  0.4708 -2.1956
 2753SOL    HW219896   2.235   0.499  16.769  0.6536 -0.8617 -0.9073
 2754SOL     OW19897   0.110   1.606  14.429 -0.5708 -0.3307  0.5642
 2754SOL    HW119898   0.141   1.677  14.373  0.1571 -0.9320  0.1823
 2754SOL    HW219899   0.191   1.578  14.472 -0.6769  1.0600  1.6614
 2755SOL     OW19900   2.631   2.338  10.542 -0.2482  0.5793  0.0710
 2755SOL    HW119901   2.652   2.380  10.625 -0.9569 -1.0861  1.0940
 2755SOL    HW219902   2.720   2.321  10.510 -1.0288 -0.7429 -1.3554
 2756SOL     OW19903   2.760   3.701   9.442 -0.7318 -0.5251 -0.1838
 2756SOL    HW119904   2.770   3.688   9.536  1.5093  2.1380 -0.0437
 2756SOL    HW219905   2.832   3.763   9.426  0.7750 -2.3398 -0.4581
 2757SOL     OW19906   2.193   2.399   3.833 -0.0571  0.4019  0.1103
 2757SOL    HW119907   2.230   2.466   3.776  0.1902 -0.9921 -1.3714
 2757SOL    HW219908   2.109   2.439   3.856  0.7523  2.2271 -0.1365
 2758SOL     OW19909   3.930   3.624   3.825 -0.1721 -0.6441 -0.0872
 2758SOL    HW119910   3.977   3.554   3.780  1.4009  0.3694 -0.0337
 2758SOL    HW219911   3.918   3.592   3.914 -1.3929  0.1624  0.0316
 2759SOL     OW19912   0.852   2.388   5.604 -0.0602 -0.4407 -0.0254
 2759SOL    HW119913   0.788   2.459   5.596 -0.8159 -1.2108 -0.9043
 2759SOL    HW219914   0.796   2.315   5.579  0.5305 -1.6083  2.1018
 2760SOL     OW19915   0.525   3.049  14.927 -0.8521  0.9667 -0.6802
 2760SOL    HW119916   0.480   3.121  14.972 -0.9953 -0.7185  1.8818
 2760SOL    HW219917   0.609   3.060  14.972 -1.1258  0.3496 -0.0159
 2761SOL     OW19918   4.592   4.701  13.147  0.1494  0.2899 -0.1604
 2761SOL    HW119919   4.543   4.638  13.199  0.3038 -1.3631 -2.0052
 2761SOL    HW219920   4.678   4.659  13.150  0.5421  1.1435  0.4919
 2762SOL     OW19921   0.374   1.180   8.649 -0.3764  0.0601  0.3114
 2762SOL    HW119922   0.281   1.163   8.666 -0.1100 -1.7543  0.0217
 2762SOL    HW219923   0.412   1.203   8.733 -0.1324  3.5442 -0.7806
 2763SOL     OW19924   2.563   1.962   3.672  0.3133  0.1844 -0.6577
 2763SOL    HW119925   2.582   1.902   3.744  3.0547 -0.1743 -1.6743
 2763SOL    HW219926   2.520   2.033   3.720  2.3682  0.0996  1.2944
 2764SOL     OW19927   0.011   0.817   0.710  0.0629 -0.1709  0.6701
 2764SOL    HW119928   4.735   0.791   0.618 -0.0102  0.5568  0.4768
 2764SOL    HW219929   0.064   0.896   0.698 -0.0408 -0.1144  0.5881
 2765SOL     OW19930   2.897   3.665   0.145  0.1288 -0.1518 -0.2316
 2765SOL    HW119931   2.827   3.730   0.139 -1.1121 -1.5642 -0.8133
 2765SOL    HW219932   2.851   3.588   0.113  0.4429  0.5435 -2.3807
 2766SOL     OW19933   0.457   1.129   2.329  0.1262  0.3337  0.1555
 2766SOL    HW119934   0.369   1.159   2.308  0.1602 -0.4499 -1.0772
 2766SOL    HW219935   0.436   1.038   2.306 -0.4747  0.3389  0.6956
 2767SOL     OW19936   2.356   3.277   8.190 -0.6764 -0.0847 -0.1007
 2767SOL    HW119937   2.387   3.203   8.138  0.9780  1.7147 -1.6421
 2767SOL    HW219938   2.265   3.296   8.168 -0.2763  0.4751 -1.2286
 2768SOL     OW19939   3.257   1.488   1.447  0.2959 -0.7840  0.3722
 2768SOL    HW119940   3.253   1.436   1.527 -1.0938  0.2399  0.9611
 2768SOL    HW219941   3.264   1.429   1.372 -1.1372 -2.5590  1.6325
 2769SOL     OW19942   0.783   0.694   4.252  0.0702  0.0669 -0.1755
 2769SOL    HW119943   0.757   0.752   4.324  1.6481 -0.0313  0.4544
 2769SOL    HW219944   0.718   0.625   4.267 -0.2897  1.0750  3.0401
 2770SOL     OW19945   3.689   3.211   4.974 -0.9394 -0.0598  0.3751
 2770SOL    HW119946   3.695   3.305   4.960  0.8184 -0.3805 -1.1082
 2770SOL    HW219947   3.635   3.184   4.899  0.3383  1.5677 -1.1315
 2771SOL     OW19948   0.737   3.571  12.550 -0.6084  0.8552  0.2100
 2771SOL    HW119949   0.666   3.576  12.614 -1.3249  0.9336 -0.5995
 2771SOL    HW219950   0.741   3.659  12.513 -2.4147  0.3344 -1.1640
 2772SOL     OW19951   3.813   0.357  16.877 -0.1138  0.4651  0.2468
 2772SOL    HW119952   3.721   0.341  16.858  0.4751  0.4733 -2.5922
 2772SOL    HW219953   3.842   0.308  16.799 -3.6391  4.4411 -3.5583
 2773SOL     OW19954   0.568   2.317   7.492 -0.4085  0.1245 -0.2741
 2773SOL    HW119955   0.564   2.221   7.487 -1.1600  0.1582 -0.3599
 2773SOL    HW219956   0.604   2.318   7.581  2.3631 -3.3765 -1.3515
 2774SOL     OW19957   3.717   1.812   9.954 -0.0320 -0.3229  0.1646
 2774SOL    HW119958   3.719   1.905   9.976 -1.6615 -0.0099 -1.0278
 2774SOL    HW219959   3.799   1.799   9.906  0.4003 -1.7768  1.2728
 2775SOL     OW19960   1.022   0.022   8.533  0.5403 -0.2935 -0.2346
 2775SOL    HW119961   1.038   0.112   8.562 -0.0955 -0.1785 -0.2485
 2775SOL    HW219962   0.951   0.052   8.477  0.3032 -1.1690 -0.4088
 2776SOL     OW19963   3.612   4.229  16.379 -0.6034 -0.3542  0.3901
 2776SOL    HW119964   3.693   4.185  16.405 -0.6562 -0.1211  0.9535
 2776SOL    HW219965   3.634   4.314  16.340  0.3503 -0.3319  0.9779
 2777SOL     OW19966   0.159   4.400   8.018 -0.1085  0.0190  0.1408
 2777SOL    HW119967   0.083   4.418   8.075 -1.2332  1.3046 -1.7369
 2777SOL    HW219968   0.189   4.319   8.058  0.8457  0.0488 -0.5422
 2778SOL     OW19969   1.757   0.961   0.879 -0.0702 -0.1342 -0.5831
 2778SOL    HW119970   1.800   0.886   0.838 -0.8133 -0.1357 -1.3617
 2778SOL    HW219971   1.777   0.954   0.973 -1.6210  0.2199 -0.2255
 2779SOL     OW19972   3.359   0.050   7.106 -0.0530 -0.4494 -0.0314
 2779SOL    HW119973   3.359   0.065   7.011 -2.6337 -0.7391 -0.0820
 2779SOL    HW219974   3.265   0.044   7.119  0.0670  1.1880  1.5038
 2780SOL     OW19975   3.396   1.521  17.091  0.4351 -0.2761  0.6217
 2780SOL    HW119976   3.462   1.558  17.149  1.5599 -1.6262  0.1764
 2780SOL    HW219977   3.448   1.491  17.017 -3.3450 -0.7352 -1.8757
 2781SOL     OW19978   2.193   1.679   0.140  0.0523  0.4400  0.2218
 2781SOL    HW119979   2.169   1.597   0.098  1.0032 -0.3997  1.2989
 2781SOL    HW219980   2.110   1.726   0.135 -0.5984 -0.6811  0.3828
 2782SOL     OW19981   0.580   2.082   1.262  0.5639 -0.2606 -0.8240
 2782SOL    HW119982   0.636   2.033   1.202  0.7840 -2.7807  1.4256
 2782SOL    HW219983   0.534   2.145   1.208 -1.5729 -1.1739 -0.0728
 2783SOL     OW19984   0.501   0.880   1.499 -0.3050 -0.1103  0.2828
 2783SOL    HW119985   0.462   0.967   1.506  0.3203  0.1882  0.0943
 2783SOL    HW219986   0.578   0.895   1.444 -1.2843 -1.2500 -1.3974
 2784SOL     OW19987   1.387   1.713   3.603  0.1618 -0.2491 -0.0525
 2784SOL    HW119988   1.436   1.750   3.677 -1.3420 -0.0642  0.8516
 2784SOL    HW219989   1.326   1.657   3.649  0.1041 -0.4256 -0.3455
 2785SOL     OW19990   4.654   3.919   3.016  0.0166  0.1919 -0.3032
 2785SOL    HW119991   0.014   3.923   3.020 -0.0455 -0.3280  2.0533
 2785SOL    HW219992   4.640   3.905   2.923  1.6674 -0.2461 -0.4788
 2786SOL     OW19993   2.629   2.545  12.882 -0.4790 -0.1922 -0.3893
 2786SOL    HW119994   2.664   2.624  12.842  0.0749  0.9396  2.2806
 2786SOL    HW219995   2.706   2.488  12.882  0.1278  0.6395 -0.9966
 2787SOL     OW19996   3.126   1.466   4.519 -0.1165 -0.0895  0.0531
 2787SOL    HW119997   3.189   1.501   4.581  0.6481 -0.8520 -0.2851
 2787SOL    HW219998   3.057   1.532   4.523  0.5103  0.5672 -0.1024
 2788SOL     OW19999   2.921   1.011   2.427  0.5913  0.2216  0.3717
 2788SOL    HW120000   2.838   1.014   2.473 -0.0259 -0.8828 -0.6421
 2788SOL    HW220001   2.919   1.099   2.391 -0.6828 -0.9409 -2.4254
 2789SOL     OW20002   2.095   0.170  10.556  0.0105  0.2592  0.1352
 2789SOL    HW120003   2.071   0.150  10.466 -1.1878  0.1564  0.4822
 2789SOL    HW220004   2.015   0.152  10.605 -0.3108 -0.4315 -0.6513
 2790SOL     OW20005   2.155   0.919  17.276  0.1791 -0.3590  0.0994
 2790SOL    HW120006   2.068   0.959  17.283  0.0775 -0.5002 -0.3570
 2790SOL    HW220007   2.190   0.940  17.189 -0.2313 -1.6343 -0.3623
 2791SOL     OW20008   2.647   1.800   2.476 -0.4112 -0.3935  0.4011
 2791SOL    HW120009   2.582   1.782   2.408 -0.2379  1.4888 -0.2747
 2791SOL    HW220010   2.687   1.716   2.499  1.9732  0.7014  0.2322
 2792SOL     OW20011   2.913   1.963   6.834  0.6524  0.1454  0.3893
 2792SOL    HW120012   2.969   1.895   6.797 -0.7766 -0.1188 -1.2998
 2792SOL    HW220013   2.944   1.967   6.924  1.3512 -2.1522  0.2455
 2793SOL     OW20014   4.040   4.252   6.905  0.4284  0.2250 -0.5082
 2793SOL    HW120015   4.105   4.183   6.920 -0.8550 -0.5195  1.5298
 2793SOL    HW220016   4.016   4.267   6.997  0.2050 -0.4054 -0.4620
 2794SOL     OW20017   0.883   4.622  10.118 -0.2936  0.0672 -0.4199
 2794SOL    HW120018   0.851   4.651  10.204 -0.5491  0.1339 -0.5358
 2794SOL    HW220019   0.899   4.530  10.138  0.1666  0.5928  1.6240
 2795SOL     OW20020   1.220   4.288  11.633 -0.0716 -0.6961  0.3867
 2795SOL    HW120021   1.187   4.303  11.721  0.0548  1.8551  0.0030
 2795SOL    HW220022   1.176   4.209  11.600  0.5340 -0.4637 -0.9718
 2796SOL     OW20023   1.927   3.705   0.068 -0.2557  0.1154  0.2895
 2796SOL    HW120024   1.942   3.636   0.004 -1.6420 -0.2172  0.3161
 2796SOL    HW220025   1.943   3.672   0.156  1.7935 -1.1609 -0.5648
 2797SOL     OW20026   0.571   2.366   8.672  0.0175 -0.7495 -0.1095
 2797SOL    HW120027   0.590   2.278   8.642  0.3833  0.3484 -3.1434
 2797SOL    HW220028   0.620   2.415   8.606 -0.6685  0.0844  0.0031
 2798SOL     OW20029   3.569   1.688   6.945  0.4941  0.2015  0.4089
 2798SOL    HW120030   3.584   1.596   6.965 -2.2586 -0.0182  1.5748
 2798SOL    HW220031   3.628   1.701   6.871 -0.7871 -0.9316 -0.8163
 2799SOL     OW20032   0.421   0.737   1.016 -0.1778 -0.2628 -0.1394
 2799SOL    HW120033   0.402   0.661   1.072  0.1124  0.7591  1.3565
 2799SOL    HW220034   0.453   0.803   1.078 -1.8103 -0.5961  1.0665
 2800SOL     OW20035   0.373   2.953   5.828 -0.1765  0.1174  0.1043
 2800SOL    HW120036   0.423   3.001   5.762 -0.0769 -1.0271 -0.6422
 2800SOL    HW220037   0.349   2.883   5.768 -2.1445 -1.9968  3.3657
 2801SOL     OW20038   1.511   0.511   7.136  0.8005 -0.5495 -0.2172
 2801SOL    HW120039   1.594   0.540   7.172 -0.0377  1.1892  0.2995
 2801SOL    HW220040   1.503   0.580   7.070 -1.7230  0.0555  0.7396
 2802SOL     OW20041   0.286   0.147   9.126 -0.4274 -0.2134 -0.0909
 2802SOL    HW120042   0.355   0.112   9.183  0.6330  2.2385  0.1213
 2802SOL    HW220043   0.205   0.111   9.162  0.2068 -1.6751 -0.0951
 2803SOL     OW20044   1.617   3.840   3.541  0.3116 -0.1670  0.3119
 2803SOL    HW120045   1.546   3.777   3.537  0.7259 -0.7262  1.5516
 2803SOL    HW220046   1.581   3.927   3.527  0.0932 -0.6766 -2.1585
 2804SOL     OW20047   1.985   2.876   8.399 -0.6910  0.2980 -0.1916
 2804SOL    HW120048   2.064   2.887   8.452 -0.8207 -1.2095  0.2979
 2804SOL    HW220049   2.022   2.862   8.312 -0.0351  1.7601 -0.1465
 2805SOL     OW20050   4.157   0.202   3.947 -0.0680 -0.2746  0.8831
 2805SOL    HW120051   4.240   0.156   3.934  0.2837  0.7046 -0.2431
 2805SOL    HW220052   4.174   0.296   3.938 -0.7383 -0.4034 -1.7031
 2806SOL     OW20053   3.591   2.989  14.168  0.6340 -0.4134 -0.0731
 2806SOL    HW120054   3.550   2.905  14.189 -1.7280  0.9077  0.6202
 2806SOL    HW220055   3.655   2.962  14.103  1.6639 -1.3144  1.3324
 2807SOL     OW20056   4.489   4.169  13.154  0.1683 -0.3093 -0.0847
 2807SOL    HW120057   4.567   4.144  13.203  1.7954  3.0425 -0.9840
 2807SOL    HW220058   4.414   4.127  13.196 -0.0917 -0.5100 -0.7385
 2808SOL     OW20059   1.586   3.891   4.414 -0.1835  0.2187 -0.1500
 2808SOL    HW120060   1.492   3.900   4.430  0.1277  0.8291  1.2926
 2808SOL    HW220061   1.621   3.950   4.481  1.4485 -0.4008 -0.4665
 2809SOL     OW20062   4.556   0.344   3.872 -0.1549 -0.2422 -0.1371
 2809SOL    HW120063   4.581   0.397   3.948  2.4686  2.2617 -2.7561
 2809SOL    HW220064   4.639   0.334   3.825 -1.2612 -0.0237 -2.1139
 2810SOL     OW20065   0.704   4.442   9.749  1.0826 -0.0316  0.0489
 2810SOL    HW120066   0.772   4.386   9.787  2.4453  1.4471 -0.2227
 2810SOL    HW220067   0.662   4.376   9.694 -1.4970  1.4528  0.2552
 2811SOL     OW20068   0.036   4.510   8.789 -0.7592  0.1331  0.7373
 2811SOL    HW120069   0.055   4.493   8.697  1.7067  1.7872  0.9395
 2811SOL    HW220070   0.039   4.421   8.826  1.2798 -0.7166 -1.4731
 2812SOL     OW20071   0.201   2.453  15.678  0.5058  0.6489  0.6522
 2812SOL    HW120072   0.227   2.545  15.684  0.5735  0.6662  0.0948
 2812SOL    HW220073   0.148   2.451  15.599  1.0251 -0.5010  0.3261
 2813SOL     OW20074   4.332   3.067   2.289 -0.3748  0.4167  0.2078
 2813SOL    HW120075   4.375   3.085   2.206 -0.4785  2.2184  0.5359
 2813SOL    HW220076   4.404   3.037   2.345  0.0491  1.2919  0.1412
 2814SOL     OW20077   1.123   3.704   8.135 -0.4663  0.2115  0.0058
 2814SOL    HW120078   1.177   3.736   8.063  1.0832  0.6945  1.3830
 2814SOL    HW220079   1.036   3.731   8.106  0.3143  0.2867 -2.2587
 2815SOL     OW20080   4.281   3.255   8.054 -0.4880 -0.5205  0.3371
 2815SOL    HW120081   4.312   3.174   8.013 -0.7953 -0.7449  0.5384
 2815SOL    HW220082   4.193   3.237   8.089  0.0909 -2.4344  0.8676
 2816SOL     OW20083   2.282   3.223   8.612 -0.6961 -0.0658 -0.6094
 2816SOL    HW120084   2.310   3.305   8.572 -3.0814 -0.0675 -2.2670
 2816SOL    HW220085   2.187   3.240   8.610 -0.5295  1.1446  1.4386
 2817SOL     OW20086   3.564   2.095   8.128 -0.1257 -0.7944  0.2098
 2817SOL    HW120087   3.526   2.152   8.062  1.3060  1.8492  1.6476
 2817SOL    HW220088   3.497   2.101   8.196  0.5120 -1.2900  0.8839
 2818SOL     OW20089   0.648   4.612   5.402  0.2913  0.2556 -0.2614
 2818SOL    HW120090   0.638   4.521   5.430  0.5373 -0.0380 -1.1246
 2818SOL    HW220091   0.562   4.622   5.363 -0.7889 -1.3985  1.7119
 2819SOL     OW20092   1.150   0.101   3.244  0.3105  0.0557 -0.2478
 2819SOL    HW120093   1.199   0.172   3.286  2.3899 -0.9681 -0.9799
 2819SOL    HW220094   1.177   0.025   3.295  1.7226 -0.7550 -2.2274
 2820SOL     OW20095   3.827   2.823   6.906  0.0794 -0.0800  0.2364
 2820SOL    HW120096   3.781   2.745   6.873 -0.8692  1.1898 -1.4140
 2820SOL    HW220097   3.779   2.841   6.987  1.1390  1.0182  0.6116
 2821SOL     OW20098   3.073   1.431   2.637  0.1658  0.1784  0.4542
 2821SOL    HW120099   3.127   1.435   2.716 -0.1596 -0.8817  0.7329
 2821SOL    HW220100   2.992   1.401   2.680 -0.1006  0.3978  0.1001
 2822SOL     OW20101   2.443   1.388   7.922 -0.9057  0.0216 -0.1429
 2822SOL    HW120102   2.347   1.390   7.914 -0.7101 -2.7277 -2.9861
 2822SOL    HW220103   2.462   1.313   7.978  2.4469  1.4141  0.6036
 2823SOL     OW20104   4.230   0.963   2.768  0.4677 -0.4945 -0.6648
 2823SOL    HW120105   4.153   1.011   2.799 -0.2353 -2.4216  0.6153
 2823SOL    HW220106   4.300   1.026   2.779 -0.3932  0.2170  0.8127
 2824SOL     OW20107   4.418   4.029   5.103  0.1076 -0.0575  0.3618
 2824SOL    HW120108   4.345   4.013   5.044 -1.0245 -0.4391  1.8564
 2824SOL    HW220109   4.485   4.004   5.041  0.4121 -3.8702  2.2516
 2825SOL     OW20110   4.450   2.640   6.259 -0.2126  0.3195  0.0694
 2825SOL    HW120111   4.455   2.576   6.187  1.6932  0.4581  0.0881
 2825SOL    HW220112   4.436   2.724   6.217  0.1700 -0.4386 -1.5787
 2826SOL     OW20113   2.036   2.061   8.355 -0.9361 -0.2768 -0.4180
 2826SOL    HW120114   2.093   2.033   8.425  0.0059  0.9595 -0.6949
 2826SOL    HW220115   2.094   2.095   8.286 -0.2953 -0.1508  0.1934
 2827SOL     OW20116   3.384   4.591   2.394  0.5804  0.2061  0.0129
 2827SOL    HW120117   3.360   4.644   2.470  1.3932 -2.5935  2.1898
 2827SOL    HW220118   3.470   4.627   2.372  0.0324 -0.4034 -3.0966
 2828SOL     OW20119   0.084   2.933  11.871 -0.2668  0.2490 -0.2066
 2828SOL    HW120120   0.084   2.933  11.966 -0.6533  1.4647 -0.2088
 2828SOL    HW220121   4.732   2.896  11.864 -0.8573  1.9641 -1.8712
 2829SOL     OW20122   1.607   2.795   1.919 -0.2464 -0.0519 -0.0896
 2829SOL    HW120123   1.600   2.766   2.010 -0.4290  0.0181 -0.0824
 2829SOL    HW220124   1.624   2.888   1.935  0.2204 -0.0100 -0.8478
 2830SOL     OW20125   0.051   0.243   7.484  0.2113 -0.0650 -0.2901
 2830SOL    HW120126   0.027   0.334   7.498  4.0540  0.4546  2.9631
 2830SOL    HW220127   4.702   0.208   7.456 -0.8672  0.9184  1.8448
 2831SOL     OW20128   3.324   1.879   0.985 -0.1528  0.5905 -0.5368
 2831SOL    HW120129   3.378   1.807   1.017  1.0901  1.7066 -0.0857
 2831SOL    HW220130   3.307   1.865   0.892  0.6482  0.2200 -0.6279
 2832SOL     OW20131   0.466   0.527  16.351 -0.5624  0.5877 -0.0523
 2832SOL    HW120132   0.404   0.477  16.298 -0.5940  3.1253 -2.3999
 2832SOL    HW220133   0.549   0.497  16.316 -0.0854  4.1115 -1.9403
 2833SOL     OW20134   0.177   4.308  12.144  0.4475 -0.2370 -0.6617
 2833SOL    HW120135   0.180   4.304  12.240  0.1852  0.3644 -0.6327
 2833SOL    HW220136   0.090   4.271  12.133  1.6470 -3.1029 -0.6713
 2834SOL     OW20137   3.785   1.034  15.399  0.0074  0.0467  0.1970
 2834SOL    HW120138   3.812   0.998  15.483  1.1690 -2.1564 -1.1228
 2834SOL    HW220139   3.715   0.973  15.375  0.1838 -1.7919  4.3429
 2835SOL     OW20140   4.128   1.076   9.397 -0.0975 -0.9826  0.3042
 2835SOL    HW120141   4.079   1.107   9.473  0.7227  1.1760 -0.0509
 2835SOL    HW220142   4.119   0.981   9.391  0.4656 -0.8888 -2.1697
 2836SOL     OW20143   4.586   4.261   0.048  0.0033 -0.5074  0.2207
 2836SOL    HW120144   4.592   4.175   0.090  0.4585 -1.0785 -1.0268
 2836SOL    HW220145   4.636   4.315   0.109 -0.1109 -1.1533  0.8923
 2837SOL     OW20146   2.905   4.287   4.596  0.0215  0.1637  0.7361
 2837SOL    HW120147   2.818   4.262   4.627  0.3380  0.2734  1.7169
 2837SOL    HW220148   2.960   4.278   4.674 -0.8414 -1.3437  1.1638
 2838SOL     OW20149   0.637   3.619  17.339  0.6032 -0.3798  0.0019
 2838SOL    HW120150   0.562   3.677  17.351 -0.5456 -1.6804 -0.8965
 2838SOL    HW220151   0.662   3.607  17.430 -1.3770 -0.8960  0.4884
 2839SOL     OW20152   1.103   0.631   2.016 -0.4078 -0.3375  0.2248
 2839SOL    HW120153   1.129   0.601   2.103 -1.8062 -0.9744  0.4258
 2839SOL    HW220154   1.132   0.722   2.027  0.3868 -0.4188 -1.2153
 2840SOL     OW20155   1.618   3.502   6.335 -0.0537 -0.1522 -0.1065
 2840SOL    HW120156   1.537   3.531   6.377 -1.8254 -3.5176 -1.2255
 2840SOL    HW220157   1.681   3.572   6.351  0.6251 -0.2777 -2.2218
 2841SOL     OW20158   4.673   2.801   6.079 -0.2337 -0.2469  0.0331
 2841SOL    HW120159   4.729   2.859   6.029 -0.8269  0.7016  0.4778
 2841SOL    HW220160   4.675   2.853   6.159  2.5904 -0.8205  0.3204
 2842SOL     OW20161   1.149   2.387  14.445 -0.1209 -0.6802 -0.5576
 2842SOL    HW120162   1.218   2.370  14.381  1.9038  1.4389  1.0646
 2842SOL    HW220163   1.128   2.297  14.471 -0.2146 -0.2332  0.9143
 2843SOL     OW20164   3.646   2.795   6.516  0.1151  0.0074  0.4833
 2843SOL    HW120165   3.624   2.858   6.447  1.2872  0.0285  0.1295
 2843SOL    HW220166   3.739   2.810   6.534 -0.4037  1.7148  1.7543
 2844SOL     OW20167   1.103   1.325   1.850  0.1483  0.0928  0.1884
 2844SOL    HW120168   1.194   1.320   1.882  0.3834  1.2656 -0.2997
 2844SOL    HW220169   1.071   1.409   1.883 -0.3305  0.6150 -1.6196
 2845SOL     OW20170   1.030   0.295  11.715  0.1531 -0.3046  0.1329
 2845SOL    HW120171   1.095   0.364  11.727 -1.1898  0.5197  2.8832
 2845SOL    HW220172   1.064   0.226  11.772 -0.1039 -1.6987 -1.3949
 2846SOL     OW20173   4.064   1.634  14.731  0.5858  0.0850 -0.0121
 2846SOL    HW120174   4.056   1.679  14.815 -1.6311 -2.9364  1.4323
 2846SOL    HW220175   4.159   1.626  14.724  0.5998  0.1477  0.1007
 2847SOL     OW20176   0.108   1.853   0.891  0.0684  0.3018 -0.8370
 2847SOL    HW120177   0.123   1.761   0.872  0.1233 -0.1411  1.3636
 2847SOL    HW220178   0.163   1.863   0.970 -0.7680 -0.3897 -0.1759
 2848SOL     OW20179   3.207   4.298  13.667  0.1100  0.3044 -0.8672
 2848SOL    HW120180   3.149   4.221  13.667  1.1209 -0.4501  1.3416
 2848SOL    HW220181   3.230   4.295  13.760  1.5156 -0.2957 -1.2323
 2849SOL     OW20182   1.579   3.671  11.976 -0.9317  0.2186  0.0526
 2849SOL    HW120183   1.569   3.665  11.881 -0.4197 -0.7132  0.0663
 2849SOL    HW220184   1.545   3.760  11.990  0.1406  0.4621  1.0159
 2850SOL     OW20185   4.720   0.913   5.000 -0.2963 -0.4177  0.5926
 2850SOL    HW120186   4.701   0.990   5.053  0.3984  0.0882  0.0983
 2850SOL    HW220187   4.629   0.886   4.984 -0.2350 -0.9548  1.1297
 2851SOL     OW20188   2.376   0.689  11.767  0.1771  0.1553 -0.2541
 2851SOL    HW120189   2.338   0.602  11.750 -1.0606  0.6198  0.1210
 2851SOL    HW220190   2.359   0.707  11.860 -1.2309 -1.2106 -0.2391
 2852SOL     OW20191   3.967   3.038   0.333 -0.4330 -0.2647 -0.0049
 2852SOL    HW120192   3.885   3.081   0.358 -0.3942 -1.1580  1.6736
 2852SOL    HW220193   4.039   3.091   0.365 -1.6115  1.0625  0.4477
 2853SOL     OW20194   2.125   1.977   8.047  0.8761  0.2344  0.3726
 2853SOL    HW120195   2.135   1.915   8.119 -1.0254  0.1109  0.5411
 2853SOL    HW220196   2.177   2.050   8.080  0.2750  0.2704  1.2357
 2854SOL     OW20197   2.858   3.977   6.441  0.2674 -0.5370  0.4230
 2854SOL    HW120198   2.918   3.991   6.368 -1.3028 -0.9822 -0.9415
 2854SOL    HW220199   2.780   3.932   6.410 -0.3607  2.0776 -1.7430
 2855SOL     OW20200   0.045   3.503   2.469 -0.4170  0.2424  0.4769
 2855SOL    HW120201   0.079   3.462   2.548  0.3181  0.2113  0.1398
 2855SOL    HW220202   4.686   3.513   2.481 -0.3683  1.0510  0.2264
 2856SOL     OW20203   4.314   3.276  11.508 -0.1733  0.3087 -0.6142
 2856SOL    HW120204   4.253   3.219  11.461 -0.1660 -1.7822  1.8901
 2856SOL    HW220205   4.297   3.245  11.597  0.3882  3.2059  0.4901
 2857SOL     OW20206   0.534   1.084   7.225 -0.0075  0.0287 -0.2010
 2857SOL    HW120207   0.554   1.176   7.243  2.5268 -0.4243 -0.6991
 2857SOL    HW220208   0.442   1.101   7.203 -0.0192  0.4199  0.1507
 2858SOL     OW20209   2.810   4.548   8.359 -0.0022  0.2824  0.0215
 2858SOL    HW120210   2.772   4.627   8.321  0.4981  1.4344  1.8974
 2858SOL    HW220211   2.892   4.529   8.314  0.8518  0.6496  1.4140
 2859SOL     OW20212   0.278   2.561   1.963 -0.3443  0.0179  0.0356
 2859SOL    HW120213   0.294   2.636   1.906 -0.3735 -0.1542 -0.2000
 2859SOL    HW220214   0.277   2.487   1.903  2.0287 -1.3043  1.6462
 2860SOL     OW20215   4.308   1.327   6.736 -0.4381  0.5794 -0.4895
 2860SOL    HW120216   4.240   1.261   6.724 -2.0001  1.9636  0.6750
 2860SOL    HW220217   4.356   1.319   6.654  0.1966 -0.9165  0.0419
 2861SOL     OW20218   2.055   3.100   8.878  0.2570  0.0842 -0.1324
 2861SOL    HW120219   2.053   3.117   8.972  0.1115  0.0314 -0.1254
 2861SOL    HW220220   2.040   3.007   8.866 -0.1691  0.3353 -1.6306
 2862SOL     OW20221   1.731   1.684   4.429  0.6292 -0.0899 -0.4842
 2862SOL    HW120222   1.821   1.652   4.437  0.5830  0.1896  1.1463
 2862SOL    HW220223   1.697   1.612   4.376  0.3011 -0.1343 -0.2145
 2863SOL     OW20224   3.058   4.411   5.751 -0.0286  0.2476 -0.4163
 2863SOL    HW120225   3.023   4.435   5.837 -0.3866 -0.4128 -0.3817
 2863SOL    HW220226   3.152   4.404   5.767  0.4190  0.7234 -2.8208
 2864SOL     OW20227   4.117   3.117   5.384  0.2137  0.0553  0.1282
 2864SOL    HW120228   4.199   3.114   5.433 -0.0837 -0.5304  0.5820
 2864SOL    HW220229   4.144   3.056   5.315  3.5798  0.9633  0.6294
 2865SOL     OW20230   3.799   2.218   9.425 -0.0516  0.0924  0.6335
 2865SOL    HW120231   3.864   2.159   9.462  1.7488  1.5632 -0.2172
 2865SOL    HW220232   3.843   2.298   9.453  1.8137 -0.9371  0.6491
 2866SOL     OW20233   4.467   1.875   3.351  0.2687  0.2612  0.9390
 2866SOL    HW120234   4.432   1.842   3.433 -1.7384 -0.5072 -0.2256
 2866SOL    HW220235   4.549   1.829   3.336 -0.5666 -1.1855  0.7633
 2867SOL     OW20236   3.050   4.555   0.903  0.0757  0.0008 -0.1299
 2867SOL    HW120237   3.048   4.533   0.996  0.1981  0.8229  0.0718
 2867SOL    HW220238   3.108   4.631   0.902  1.7950 -1.3361 -0.0075
 2868SOL     OW20239   0.947   2.283   6.111  0.8441  0.2886 -0.2286
 2868SOL    HW120240   0.864   2.321   6.141  0.9177  1.2382 -1.2218
 2868SOL    HW220241   0.958   2.332   6.029 -0.2185 -1.5903 -1.4813
 2869SOL     OW20242   1.083   1.866   2.219 -0.2860  0.3614  0.7973
 2869SOL    HW120243   1.107   1.952   2.254  1.1813  0.1707  0.2895
 2869SOL    HW220244   1.129   1.871   2.135  0.7780 -0.6795  1.3097
 2870SOL     OW20245   4.437   2.253   6.275  0.3527 -0.0272  0.2657
 2870SOL    HW120246   4.522   2.262   6.317  0.9923  1.2538 -1.3313
 2870SOL    HW220247   4.374   2.226   6.342  1.3826  0.4839  1.4232
 2871SOL     OW20248   4.441   2.308   5.709  0.4685 -0.4256 -0.2871
 2871SOL    HW120249   4.433   2.403   5.719 -1.7732 -0.7488  0.9557
 2871SOL    HW220250   4.390   2.270   5.780 -0.4404  0.2451 -0.5820
 2872SOL     OW20251   1.258   1.404   5.729 -0.1081  0.0190 -0.0728
 2872SOL    HW120252   1.226   1.380   5.642  0.4680 -0.9752 -0.0100
 2872SOL    HW220253   1.205   1.349   5.787  1.1256  1.2771  2.2492
 2873SOL     OW20254   2.010   0.010   0.985  0.2120 -0.1594  0.1030
 2873SOL    HW120255   2.099   4.709   0.994  0.5724  0.6391 -0.2009
 2873SOL    HW220256   1.973   0.009   1.073  0.6174  0.7691  0.2831
 2874SOL     OW20257   0.365   2.847   9.306 -0.4419  0.4853  0.0286
 2874SOL    HW120258   0.316   2.776   9.348 -1.0107  0.5306 -0.5692
 2874SOL    HW220259   0.344   2.829   9.215  1.0771 -0.4288 -0.1334
 2875SOL     OW20260   3.335   1.878   9.112 -0.3241 -0.1779  0.4733
 2875SOL    HW120261   3.316   1.906   9.202 -0.2755 -0.0287  0.4365
 2875SOL    HW220262   3.290   1.794   9.100 -3.2476  1.5548 -0.9232
 2876SOL     OW20263   4.035   0.637   3.883  0.2754  0.2643  0.0584
 2876SOL    HW120264   3.956   0.616   3.833 -0.9471  1.4850  1.4842
 2876SOL    HW220265   4.006   0.683   3.962  0.9022  0.6131  0.0794
 2877SOL     OW20266   0.354   2.258   9.912 -0.1359 -0.0891  0.4184
 2877SOL    HW120267   0.297   2.182   9.900  0.3506 -0.4693  0.5010
 2877SOL    HW220268   0.346   2.261  10.008  0.9557 -0.4148  0.5227
 2878SOL     OW20269   0.917   1.717   0.736  0.4275  0.4200  0.2137
 2878SOL    HW120270   0.968   1.636   0.744 -2.2079 -1.4299 -1.5899
 2878SOL    HW220271   0.828   1.684   0.750  1.3565 -0.9409  3.0070
 2879SOL     OW20272   4.068   1.969  15.595 -0.5834 -0.5052 -0.0469
 2879SOL    HW120273   4.015   1.895  15.566  0.5745 -1.8620  1.2895
 2879SOL    HW220274   3.997   2.024  15.626  0.8472  2.0283 -1.2697
 2880SOL     OW20275   0.392   0.594   2.963  0.3090  0.7923  0.7268
 2880SOL    HW120276   0.369   0.667   2.906 -0.7111  1.7277  2.3102
 2880SOL    HW220277   0.483   0.588   2.936 -1.1776 -0.6229 -3.9732
 2881SOL     OW20278   0.561   1.066   3.106 -1.0000  0.2203  0.3495
 2881SOL    HW120279   0.577   0.973   3.123  0.0745  0.4653  0.6583
 2881SOL    HW220280   0.521   1.069   3.019  1.1243 -0.6700 -0.6424
 2882SOL     OW20281   3.359   1.451   4.722 -0.6024 -0.2035 -0.4000
 2882SOL    HW120282   3.420   1.411   4.784  1.0577  1.1829 -1.1166
 2882SOL    HW220283   3.365   1.543   4.748  1.0776 -0.7568  1.1616
 2883SOL     OW20284   1.920   3.714   7.250 -0.7130  0.1772  0.2195
 2883SOL    HW120285   1.966   3.680   7.173  0.4030 -0.3755  1.1114
 2883SOL    HW220286   1.991   3.741   7.309 -0.3520  3.3231 -1.6539
 2884SOL     OW20287   2.417   1.781   9.498 -0.2795 -0.0075 -0.5816
 2884SOL    HW120288   2.391   1.790   9.589 -0.7807  1.4114 -0.8625
 2884SOL    HW220289   2.337   1.810   9.453  0.3169 -1.7266 -2.7579
 2885SOL     OW20290   2.431   3.276   4.087  0.2033  0.9086  0.2519
 2885SOL    HW120291   2.340   3.279   4.117 -0.0644 -1.0824 -0.4186
 2885SOL    HW220292   2.448   3.359   4.041  0.3193  0.5119 -0.4113
 2886SOL     OW20293   0.189   3.690   6.029  0.2066  0.4869 -0.8197
 2886SOL    HW120294   0.160   3.604   5.998 -0.4580  1.1128 -1.9348
 2886SOL    HW220295   0.284   3.679   6.040  0.0802 -1.0072 -1.1810
 2887SOL     OW20296   0.645   1.391   8.609  0.3569  0.5691 -0.5536
 2887SOL    HW120297   0.558   1.379   8.647  0.7278 -0.4986 -0.0092
 2887SOL    HW220298   0.629   1.385   8.515  1.4490 -2.9962 -0.5123
 2888SOL     OW20299   1.218   2.065   2.067 -0.3101 -0.1431  0.0787
 2888SOL    HW120300   1.170   2.147   2.078  1.0585  0.2957  2.7183
 2888SOL    HW220301   1.184   2.030   1.984  0.3116 -0.6963  0.0567
 2889SOL     OW20302   2.801   3.500   9.223  1.2742 -0.3615 -0.5044
 2889SOL    HW120303   2.792   3.560   9.150 -0.8013 -0.5378 -0.3897
 2889SOL    HW220304   2.790   3.563   9.294 -1.1074  0.2633 -1.4119
 2890SOL     OW20305   4.267   1.899  12.317  0.0560  0.6362  0.0312
 2890SOL    HW120306   4.294   1.885  12.408  1.1983 -0.3734 -0.4673
 2890SOL    HW220307   4.248   1.806  12.302  0.5393  0.2672  1.7023
 2891SOL     OW20308   3.991   3.707  14.468 -0.5057 -0.4229  0.0930
 2891SOL    HW120309   3.993   3.633  14.406 -1.0164 -0.8827  0.6271
 2891SOL    HW220310   3.992   3.660  14.551  1.8242 -2.4737 -1.0748
 2892SOL     OW20311   1.345   2.703   5.399  0.5254 -0.2792 -0.4670
 2892SOL    HW120312   1.292   2.624   5.390  1.6101 -1.1088  0.3963
 2892SOL    HW220313   1.399   2.673   5.473  0.2769 -0.4015 -0.3356
 2893SOL     OW20314   1.580   4.344   6.663  0.3397  0.4964 -0.6397
 2893SOL    HW120315   1.495   4.300   6.667  0.3056  0.8570  2.9701
 2893SOL    HW220316   1.639   4.287   6.613 -1.4595 -2.9071  1.0708
 2894SOL     OW20317   4.252   4.590   1.530  0.3963 -0.2303 -0.3462
 2894SOL    HW120318   4.267   4.496   1.536  0.5498 -0.4076 -3.2781
 2894SOL    HW220319   4.340   4.618   1.557 -0.4701  0.9961  1.2214
 2895SOL     OW20320   0.312   4.079  14.857 -0.3392 -0.0725 -0.1133
 2895SOL    HW120321   0.406   4.098  14.847 -0.4370 -0.6436 -2.1769
 2895SOL    HW220322   0.298   4.012  14.790 -1.3793  0.2684 -0.2342
 2896SOL     OW20323   2.879   0.291   3.521  0.4480 -0.0141  0.0136
 2896SOL    HW120324   2.930   0.298   3.602 -0.6063 -1.2662  0.7741
 2896SOL    HW220325   2.800   0.250   3.554  1.2420 -1.3072  0.3197
 2897SOL     OW20326   2.210   2.445  14.984  0.3870  0.0556 -0.3596
 2897SOL    HW120327   2.270   2.518  15.000  0.6989 -0.2406 -0.1568
 2897SOL    HW220328   2.167   2.423  15.067 -0.0258  1.0926 -0.3041
 2898SOL     OW20329   2.798   1.358  15.270  0.1854 -0.0261 -0.5909
 2898SOL    HW120330   2.764   1.363  15.180  0.9757  1.5889 -0.7904
 2898SOL    HW220331   2.885   1.330  15.239  1.4846  0.5232  2.6038
 2899SOL     OW20332   1.387   1.540  16.907  0.1650 -0.7218 -0.0057
 2899SOL    HW120333   1.349   1.460  16.943  0.1471 -0.3005  0.9123
 2899SOL    HW220334   1.342   1.537  16.823  1.4174  0.5157 -0.7208
 2900SOL     OW20335   1.394   0.892  15.663  0.2488 -0.4877 -0.5684
 2900SOL    HW120336   1.419   0.897  15.571  0.5040 -1.5450 -0.5504
 2900SOL    HW220337   1.357   0.981  15.661 -0.6341 -0.8294  0.4026
 2901SOL     OW20338   2.670   2.216   2.273  0.3206  0.0237  0.2610
 2901SOL    HW120339   2.644   2.195   2.183 -0.0894  2.2137 -0.1109
 2901SOL    HW220340   2.621   2.296   2.293  0.2642  0.0217  0.1282
 2902SOL     OW20341   1.011   3.099   7.705 -0.8974 -0.0221 -0.5476
 2902SOL    HW120342   0.996   3.163   7.635  0.6406 -1.2904 -2.0389
 2902SOL    HW220343   0.922   3.070   7.724 -0.2497 -0.8323  1.2061
 2903SOL     OW20344   4.516   0.177   9.686 -0.3414  0.2210  0.8837
 2903SOL    HW120345   4.529   0.177   9.781  0.0661 -1.0841  0.8324
 2903SOL    HW220346   4.421   0.185   9.687 -0.2428  1.4299 -0.0364
 2904SOL     OW20347   3.194   2.851   6.535  0.0226 -0.2467  0.1971
 2904SOL    HW120348   3.110   2.888   6.561 -0.0714 -0.1613 -0.2362
 2904SOL    HW220349   3.246   2.875   6.612 -0.4806  1.4244  0.0148
 2905SOL     OW20350   1.274   3.785   3.280  0.0828  0.8287  0.3968
 2905SOL    HW120351   1.195   3.765   3.329  1.5817  0.1815  2.5435
 2905SOL    HW220352   1.258   3.734   3.201  1.5015 -1.3735  1.5133
 2906SOL     OW20353   0.381   0.380   1.700  0.1543 -0.2241 -0.3671
 2906SOL    HW120354   0.319   0.382   1.772 -1.7566 -2.4137 -1.9557
 2906SOL    HW220355   0.371   0.466   1.658  1.2419  0.8546  1.5439
 2907SOL     OW20356   1.941   0.793   0.670 -0.3648  0.0426 -0.4520
 2907SOL    HW120357   1.997   0.716   0.674  1.7934  1.6604  0.5665
 2907SOL    HW220358   2.005   0.862   0.686 -0.9367  0.8273 -1.5226
 2908SOL     OW20359   1.165   0.938   4.668  0.6032  0.1006  0.3021
 2908SOL    HW120360   1.206   0.985   4.595 -1.0874  1.1815  0.0539
 2908SOL    HW220361   1.134   1.009   4.723  1.3982 -0.3417  1.3208
 2909SOL     OW20362   4.501   0.803  11.245 -0.2891 -0.7252  0.1290
 2909SOL    HW120363   4.508   0.817  11.151  1.2659  0.2441  0.4002
 2909SOL    HW220364   4.460   0.716  11.240  1.0178 -1.3405  0.2519
 2910SOL     OW20365   0.499   2.347   4.678 -0.0647 -0.3070  0.1452
 2910SOL    HW120366   0.522   2.351   4.771 -2.6570 -2.0899  0.8680
 2910SOL    HW220367   0.586   2.341   4.638 -0.9730  0.3790 -1.9267
 2911SOL     OW20368   2.608   1.388  16.381  0.1131 -0.0301 -0.1635
 2911SOL    HW120369   2.676   1.339  16.428 -0.5371  0.8928  1.7354
 2911SOL    HW220370   2.648   1.401  16.295  1.0015 -1.9513 -0.0479
 2912SOL     OW20371   0.589   4.687  10.561 -0.2683 -0.3624 -0.0989
 2912SOL    HW120372   0.538   4.721  10.635  2.6741  1.5970  1.0108
 2912SOL    HW220373   0.559   4.596  10.557 -1.9548  0.1912 -0.4246
 2913SOL     OW20374   3.613   0.393   9.761 -0.0734 -0.0373  0.1073
 2913SOL    HW120375   3.520   0.411   9.753 -0.7498 -2.2042  3.0514
 2913SOL    HW220376   3.632   0.451   9.835  0.0033  0.0665  0.0064
 2914SOL     OW20377   4.647   1.710   7.513 -0.0471  0.2167  0.5630
 2914SOL    HW120378   4.645   1.805   7.525 -4.2103  0.5851 -3.1125
 2914SOL    HW220379   4.697   1.706   7.431 -0.2277  2.3386  0.3576
 2915SOL     OW20380   2.226   3.684   4.648  0.1196  0.5649 -0.1142
 2915SOL    HW120381   2.222   3.779   4.663  1.2260  0.7776 -1.1887
 2915SOL    HW220382   2.262   3.678   4.560  1.5571 -0.2207  0.5292
 2916SOL     OW20383   1.881   4.360   1.217  0.0702 -0.1409 -0.0545
 2916SOL    HW120384   1.849   4.307   1.144 -0.0060  0.8564 -0.7539
 2916SOL    HW220385   1.799   4.373   1.265  0.5875  0.6402  0.6148
 2917SOL     OW20386   0.174   3.155   9.176 -0.3489  0.2168 -0.2796
 2917SOL    HW120387   0.093   3.116   9.209 -1.2495 -0.4687 -3.3048
 2917SOL    HW220388   0.244   3.094   9.200 -3.1700 -2.2944  1.5835
 2918SOL     OW20389   3.456   0.719   2.352  0.4916  0.0370 -0.6721
 2918SOL    HW120390   3.504   0.642   2.325 -2.1765 -2.2202  0.9818
 2918SOL    HW220391   3.435   0.696   2.443 -3.9507  0.7562 -1.5186
 2919SOL     OW20392   0.474   3.266   9.904  0.6686  0.4745  0.0240
 2919SOL    HW120393   0.431   3.351   9.902 -1.0138 -0.3952 -0.8578
 2919SOL    HW220394   0.502   3.255   9.813 -1.7187 -0.8652 -0.5530
 2920SOL     OW20395   0.881   4.052   8.278 -0.4422 -0.5769 -0.0727
 2920SOL    HW120396   0.857   4.132   8.230  1.4004 -0.2664 -0.4930
 2920SOL    HW220397   0.954   4.082   8.333 -0.9626  0.2533  0.1637
 2921SOL     OW20398   0.825   0.515   7.943  0.1801  0.7233  0.4661
 2921SOL    HW120399   0.844   0.455   7.870 -3.9721  3.0906 -2.5009
 2921SOL    HW220400   0.753   0.476   7.993  2.2966 -2.9554  0.7140
 2922SOL     OW20401   3.508   4.272   3.515  0.4409 -0.3814 -0.1628
 2922SOL    HW120402   3.506   4.177   3.525 -2.2718 -0.2408  0.6666
 2922SOL    HW220403   3.425   4.295   3.473  1.3726 -0.7975 -2.2035
 2923SOL     OW20404   0.862   4.607   5.234 -0.3905  0.9393 -0.6552
 2923SOL    HW120405   0.834   4.666   5.164  1.5256 -0.7257 -2.8227
 2923SOL    HW220406   0.784   4.620   5.288 -0.6504  1.2616 -1.1124
 2924SOL     OW20407   4.440   0.118   8.886 -0.0147 -0.5046 -0.4261
 2924SOL    HW120408   4.476   0.029   8.891  2.4981  0.6439  1.7153
 2924SOL    HW220409   4.392   0.119   8.969  0.4556  0.1559 -0.1627
 2925SOL     OW20410   3.703   2.002   5.290 -0.1549  0.0922 -0.2083
 2925SOL    HW120411   3.644   2.077   5.302  0.1032  0.1772  0.5002
 2925SOL    HW220412   3.737   1.991   5.379  2.3227  2.1974 -0.8925
 2926SOL     OW20413   0.913   3.767   7.861 -0.2698  0.2413 -0.1381
 2926SOL    HW120414   0.871   3.784   7.945 -0.6112 -0.4728 -0.1656
 2926SOL    HW220415   0.923   3.862   7.850  0.8271  0.1103 -0.2644
 2927SOL     OW20416   2.481   3.543   3.970  0.2169 -0.1397 -0.4617
 2927SOL    HW120417   2.458   3.556   3.878  1.3461  1.5638 -0.4823
 2927SOL    HW220418   2.569   3.579   3.971 -0.5312  1.5274  2.6336
 2928SOL     OW20419   4.553   3.143  12.705  0.8039  0.5664 -0.0577
 2928SOL    HW120420   4.626   3.204  12.694  0.8664  0.5650  0.3362
 2928SOL    HW220421   4.476   3.196  12.688  1.4836  0.5278 -3.2907
 2929SOL     OW20422   1.273   4.652   7.645 -0.1206  0.4327 -0.0659
 2929SOL    HW120423   1.328   4.674   7.720  0.5885  2.9700 -1.3245
 2929SOL    HW220424   1.334   4.673   7.575  1.4656 -0.4431  1.0511
 2930SOL     OW20425   0.712   4.556  10.851  0.3388 -0.3022  0.1206
 2930SOL    HW120426   0.792   4.515  10.884  0.5069  0.3117  0.4857
 2930SOL    HW220427   0.716   4.554  10.755 -2.3363 -2.3662  0.0707
 2931SOL     OW20428   0.130   2.934   6.950  0.0849 -0.3686 -0.0442
 2931SOL    HW120429   0.139   2.839   6.956 -1.8200 -0.5616 -0.0548
 2931SOL    HW220430   0.035   2.942   6.960 -0.1195 -1.5604 -0.9830
 2932SOL     OW20431   4.382   3.502   3.060 -0.3709 -0.1079  0.0607
 2932SOL    HW120432   4.354   3.581   3.106 -1.1851 -0.6838  0.5653
 2932SOL    HW220433   4.305   3.459   3.023 -0.2482  0.9925 -1.4589
 2933SOL     OW20434   0.407   1.342   6.016  0.3262 -0.5158  0.2352
 2933SOL    HW120435   0.485   1.301   5.979  1.6781  0.6803  1.7383
 2933SOL    HW220436   0.410   1.431   5.979  0.8680 -1.0513 -1.0271
 2934SOL     OW20437   1.387   0.675   5.183  0.1585 -0.2401  0.1289
 2934SOL    HW120438   1.414   0.592   5.223  1.1410  0.7362  1.5338
 2934SOL    HW220439   1.424   0.736   5.247  2.3849 -0.8098 -0.5929
 2935SOL     OW20440   0.023   3.329  13.700  0.8118  0.5860 -0.4533
 2935SOL    HW120441   0.110   3.301  13.673  1.2147  0.6007  0.8497
 2935SOL    HW220442   4.705   3.261  13.659  2.3797 -1.3469  0.6874
 2936SOL     OW20443   4.505   1.579   6.542 -0.5123  0.3023 -0.6116
 2936SOL    HW120444   4.471   1.499   6.501 -0.1211 -0.8234  1.2600
 2936SOL    HW220445   4.419   1.612   6.566 -0.7637  1.5553 -3.1473
 2937SOL     OW20446   4.721   2.863   1.831 -0.1708  0.0578  0.4598
 2937SOL    HW120447   4.682   2.822   1.754 -1.2780  1.5990  0.2134
 2937SOL    HW220448   4.670   2.827   1.903  1.2995 -1.6046  0.6866
 2938SOL     OW20449   3.671   1.829   2.080  0.2205  0.2338 -0.0111
 2938SOL    HW120450   3.693   1.748   2.126  2.6921  0.3698 -0.9636
 2938SOL    HW220451   3.755   1.847   2.037  0.4844 -0.7720  0.0869
 2939SOL     OW20452   4.648   1.206  16.365 -0.6069  0.8454  0.4199
 2939SOL    HW120453   4.598   1.287  16.349 -1.1794  0.3750 -0.2299
 2939SOL    HW220454   4.667   1.212  16.458 -2.2237  4.3895  0.5048
 2940SOL     OW20455   4.735   0.156   1.834  0.1751  0.0220  0.1309
 2940SOL    HW120456   0.022   0.063   1.839 -1.5163 -0.4090 -0.4119
 2940SOL    HW220457   4.722   0.165   1.740  2.2027 -1.2406 -0.2595
 2941SOL     OW20458   1.683   4.309   5.352  0.0857  0.9932  0.0660
 2941SOL    HW120459   1.627   4.297   5.429 -1.7155 -0.7159 -1.4855
 2941SOL    HW220460   1.709   4.218   5.337 -0.2024  1.2202 -1.8434
 2942SOL     OW20461   4.087   2.442   2.346 -0.4257  0.0961 -0.6785
 2942SOL    HW120462   4.165   2.412   2.299  0.6821  1.9353 -0.0224
 2942SOL    HW220463   4.072   2.370   2.406 -0.4478 -0.9085 -1.9011
 2943SOL     OW20464   4.372   2.347   4.428 -0.0862  0.1265 -0.2197
 2943SOL    HW120465   4.404   2.424   4.476  1.7866  0.4483 -1.9859
 2943SOL    HW220466   4.401   2.273   4.482  1.7125  1.8559  1.2058
 2944SOL     OW20467   3.414   2.065   8.355 -0.3266 -0.2862  0.0760
 2944SOL    HW120468   3.383   1.981   8.322  0.7556 -0.2915 -0.9386
 2944SOL    HW220469   3.330   2.103   8.380 -0.4152  0.1792 -0.9081
 2945SOL     OW20470   1.230   1.147   1.687 -0.7853 -0.3337  0.8210
 2945SOL    HW120471   1.311   1.142   1.737 -0.1146 -0.5275 -0.2858
 2945SOL    HW220472   1.181   1.216   1.731  0.3220  1.1090 -0.2120
 2946SOL     OW20473   3.981   2.989  13.540 -0.3611 -0.4653  0.2103
 2946SOL    HW120474   4.040   3.009  13.612  0.4497 -1.1878 -0.2550
 2946SOL    HW220475   3.919   3.061  13.550  0.8742  0.4322  1.3321
 2947SOL     OW20476   2.477   4.698   6.080 -0.5019 -0.0246  0.3852
 2947SOL    HW120477   2.405   4.671   6.136  0.6951 -0.8132  1.5297
 2947SOL    HW220478   2.439   0.038   6.034 -0.8364  0.0598  0.7987
 2948SOL     OW20479   3.388   3.796   3.900  0.3193  0.1964 -0.0851
 2948SOL    HW120480   3.416   3.849   3.976  1.3683 -0.0270 -0.3072
 2948SOL    HW220481   3.299   3.830   3.891 -0.4702 -1.3303  1.8544
 2949SOL     OW20482   4.485   2.879  10.796 -0.0923  0.3573 -0.3681
 2949SOL    HW120483   4.424   2.807  10.779  1.1301 -0.4717 -1.2155
 2949SOL    HW220484   4.432   2.956  10.774 -0.4517 -0.1238 -1.1676
 2950SOL     OW20485   4.371   0.280   7.008  0.0122 -0.2936 -0.2459
 2950SOL    HW120486   4.293   0.328   7.034  0.5966  1.1888 -1.2596
 2950SOL    HW220487   4.343   0.189   6.997 -2.1798  0.2917  0.4775
 2951SOL     OW20488   3.911   2.907  14.972 -0.1423 -0.3235  0.1048
 2951SOL    HW120489   3.966   2.846  15.022  2.2673  0.7846 -1.1495
 2951SOL    HW220490   3.893   2.972  15.041  0.2539 -1.4655  1.2871
 2952SOL     OW20491   3.633   2.038   8.527 -0.3530 -0.1877 -0.2718
 2952SOL    HW120492   3.575   2.066   8.597 -0.1469  0.2940 -0.2917
 2952SOL    HW220493   3.566   2.043   8.459 -1.0108 -1.6239  0.2672
 2953SOL     OW20494   2.166   0.389   3.716  0.1585 -0.1851 -0.6706
 2953SOL    HW120495   2.261   0.379   3.722 -0.1080 -1.2061  2.0208
 2953SOL    HW220496   2.164   0.479   3.685  1.1659 -0.9618 -2.9462
 2954SOL     OW20497   2.490   3.896  11.021 -0.2050  0.4412 -0.0903
 2954SOL    HW120498   2.416   3.948  10.989 -0.4498 -1.4770 -2.6617
 2954SOL    HW220499   2.555   3.941  10.967 -0.0690  1.4773  0.9369
 2955SOL     OW20500   0.787   2.064   2.944 -0.0504  0.3287 -0.0481
 2955SOL    HW120501   0.801   2.118   2.866 -0.7089  1.4828  0.6297
 2955SOL    HW220502   0.713   2.008   2.922  0.0391 -0.1555  0.8814
 2956SOL     OW20503   2.856   1.379   1.781  0.9320  0.0424  0.7563
 2956SOL    HW120504   2.896   1.462   1.805  0.7466  0.4363 -0.3255
 2956SOL    HW220505   2.789   1.367   1.848  0.6160  1.9238  0.7797
 2957SOL     OW20506   4.446   3.647   8.350 -0.3067  0.2617  0.0590
 2957SOL    HW120507   4.493   3.658   8.267 -1.4583  0.9694 -0.4851
 2957SOL    HW220508   4.409   3.734   8.353 -4.0750 -1.3668  0.1290
 2958SOL     OW20509   1.616   1.536   5.060  0.4558 -0.3141 -0.1428
 2958SOL    HW120510   1.526   1.566   5.072  1.3634  1.7413  1.4427
 2958SOL    HW220511   1.659   1.601   5.005 -1.9888  0.7880 -0.7568
 2959SOL     OW20512   3.326   0.791   6.688  0.6349  0.0536 -0.0352
 2959SOL    HW120513   3.391   0.828   6.749 -0.2232  1.2760  0.1459
 2959SOL    HW220514   3.381   0.792   6.609  0.2748 -1.0088 -0.2999
 2960SOL     OW20515   4.467   1.647   6.972  0.2079  0.1932 -0.9169
 2960SOL    HW120516   4.513   1.613   6.895  1.9087 -0.9891  0.6338
 2960SOL    HW220517   4.482   1.577   7.035  2.0939  0.6127 -0.8812
 2961SOL     OW20518   4.593   4.633   4.103 -0.0522  0.0803 -0.2240
 2961SOL    HW120519   4.600   4.553   4.052 -0.5785 -0.7584  1.0380
 2961SOL    HW220520   4.501   4.642   4.127  0.1768 -0.0917  0.6971
 2962SOL     OW20521   4.020   3.552   5.273 -0.7458  0.3427 -0.5608
 2962SOL    HW120522   3.943   3.509   5.235 -0.6615  0.6772 -1.1103
 2962SOL    HW220523   4.044   3.614   5.204  1.5798  1.2275  1.0328
 2963SOL     OW20524   2.254   0.231  15.518 -0.1974 -0.5002  0.9372
 2963SOL    HW120525   2.182   0.174  15.546 -2.5158  1.6145 -0.7106
 2963SOL    HW220526   2.332   0.184  15.547 -0.4266 -0.1594  2.0952
 2964SOL     OW20527   4.705   0.602   8.967  0.2673  0.3430 -0.0274
 2964SOL    HW120528   4.626   0.564   8.928  0.2911 -1.2042  1.4287
 2964SOL    HW220529   0.040   0.549   8.928  0.0247 -0.1293  0.1741
 2965SOL     OW20530   2.628   3.781   8.732 -0.4983  0.2620 -0.3196
 2965SOL    HW120531   2.681   3.838   8.788  0.1009  0.1500 -0.7738
 2965SOL    HW220532   2.566   3.850   8.708  0.0246  0.6746 -0.4900
 2966SOL     OW20533   3.870   1.469   3.204 -0.4355  0.2159  0.2063
 2966SOL    HW120534   3.778   1.470   3.227 -0.5576 -1.9853 -0.2413
 2966SOL    HW220535   3.895   1.562   3.210 -1.2206  0.6129 -2.9116
 2967SOL     OW20536   4.266   1.463   8.060 -0.7726 -0.4036  0.3451
 2967SOL    HW120537   4.262   1.382   8.008  0.6727 -0.8165  0.8626
 2967SOL    HW220538   4.172   1.473   8.075 -0.5857 -0.5132  1.5964
 2968SOL     OW20539   1.224   2.558   5.765 -0.4849 -0.4094  0.4923
 2968SOL    HW120540   1.211   2.543   5.858  1.3897  1.6531  1.0865
 2968SOL    HW220541   1.312   2.523   5.754 -0.5264 -0.5958  0.7743
 2969SOL     OW20542   1.361   3.098   7.112 -0.4533  0.1349  0.1509
 2969SOL    HW120543   1.358   3.173   7.171 -0.3656  1.1098 -1.1089
 2969SOL    HW220544   1.349   3.033   7.182  0.9224 -0.8814 -0.5463
 2970SOL     OW20545   0.414   1.227   4.387 -0.0898  0.0327 -0.4318
 2970SOL    HW120546   0.358   1.275   4.448  2.0063  1.2045  0.5733
 2970SOL    HW220547   0.408   1.134   4.409 -2.0731  0.0557 -0.8591
 2971SOL     OW20548   0.975   4.297   1.896 -0.1501 -0.1908 -0.5104
 2971SOL    HW120549   0.919   4.256   1.962 -0.5113  3.3303  1.4074
 2971SOL    HW220550   0.921   4.313   1.819 -0.2009  0.6551 -0.2978
 2972SOL     OW20551   3.437   0.881   3.295 -0.5488  0.4773  0.5748
 2972SOL    HW120552   3.468   0.862   3.206 -0.4127 -1.0815  0.9562
 2972SOL    HW220553   3.351   0.839   3.293  0.7837 -2.2701  0.1208
 2973SOL     OW20554   0.597   2.256   6.109  0.4249  0.4693  0.3217
 2973SOL    HW120555   0.529   2.243   6.042 -0.5667  1.3539  1.1641
 2973SOL    HW220556   0.620   2.348   6.100 -0.4669  0.6778  0.1357
 2974SOL     OW20557   2.794   0.795  14.726  0.8406 -0.4574  0.4645
 2974SOL    HW120558   2.755   0.879  14.703  0.1122 -2.0049 -3.8267
 2974SOL    HW220559   2.824   0.761  14.642  0.8319  1.7740 -0.4605
 2975SOL     OW20560   0.829   1.986  12.217 -0.1033  0.4588  0.4701
 2975SOL    HW120561   0.908   2.015  12.173 -0.1213  0.5183  0.4758
 2975SOL    HW220562   0.854   1.990  12.309  2.6528 -1.1097 -0.2486
 2976SOL     OW20563   3.463   2.863   9.290  0.2585  0.0110  0.3537
 2976SOL    HW120564   3.491   2.786   9.241 -2.2341 -0.2388 -0.6745
 2976SOL    HW220565   3.369   2.870   9.273  0.7408 -0.4064 -2.5749
 2977SOL     OW20566   2.700   1.425   7.162 -0.2195  0.0013 -0.2939
 2977SOL    HW120567   2.705   1.380   7.077  0.6018  0.6901 -0.6123
 2977SOL    HW220568   2.653   1.505   7.139  0.5573  0.4375 -0.3599
 2978SOL     OW20569   3.379   0.501   9.935  0.0608  0.4688 -0.3743
 2978SOL    HW120570   3.434   0.528  10.009 -0.2710  1.3819 -0.4668
 2978SOL    HW220571   3.298   0.545   9.961 -0.9461 -2.4819  1.5106
 2979SOL     OW20572   2.471   0.584   4.068  0.1247 -0.4272  0.5454
 2979SOL    HW120573   2.411   0.525   4.114 -0.0798  0.7850  1.8150
 2979SOL    HW220574   2.411   0.658   4.060 -0.9744 -1.3356  0.3046
 2980SOL     OW20575   0.673   0.754   7.015  0.1918 -0.1848  0.2498
 2980SOL    HW120576   0.583   0.735   6.988  0.3711  0.5571 -0.8943
 2980SOL    HW220577   0.696   0.711   7.097  1.5592 -2.0574 -1.1236
 2981SOL     OW20578   2.582   1.520  17.692  0.7571 -0.3342 -0.4768
 2981SOL    HW120579   2.652   1.543   0.012 -0.7276  1.8872  0.3769
 2981SOL    HW220580   2.590   1.575  17.614 -1.5776  0.4910 -0.1264
 2982SOL     OW20581   3.945   0.706   4.538 -0.0301  0.3108  0.1928
 2982SOL    HW120582   3.939   0.802   4.544 -1.9505  0.2226 -0.3598
 2982SOL    HW220583   3.871   0.690   4.480  0.3933 -1.3976  0.1195
 2983SOL     OW20584   2.864   1.581   2.137  0.3660 -0.6883  0.0566
 2983SOL    HW120585   2.888   1.494   2.105 -1.3741 -0.2462 -2.4183
 2983SOL    HW220586   2.941   1.637   2.129 -0.9119  0.8486 -1.4456
 2984SOL     OW20587   0.735   4.433   8.826 -0.2524 -0.0429 -0.1218
 2984SOL    HW120588   0.720   4.339   8.813  0.3584 -0.0283 -0.9751
 2984SOL    HW220589   0.744   4.429   8.921  0.7655  4.1440 -0.0634
 2985SOL     OW20590   0.104   1.378   6.384  0.0640 -0.2118 -0.2359
 2985SOL    HW120591   0.058   1.410   6.306 -4.9080 -0.4811  2.6067
 2985SOL    HW220592   0.160   1.316   6.338  0.3669  0.3880 -0.6756
 2986SOL     OW20593   4.408   1.670   1.206 -0.3651 -0.5125 -0.3281
 2986SOL    HW120594   4.399   1.703   1.295  1.1588 -0.0288 -0.3467
 2986SOL    HW220595   4.493   1.708   1.184 -1.6758  2.6743  0.0794
 2987SOL     OW20596   2.588   1.266   4.959 -0.5276 -0.0103 -0.0322
 2987SOL    HW120597   2.670   1.226   4.929  0.0561 -0.7406  2.5685
 2987SOL    HW220598   2.521   1.224   4.905 -0.8956 -0.3626  0.6966
 2988SOL     OW20599   3.568   2.605   9.190  0.1550 -0.3677 -0.1331
 2988SOL    HW120600   3.659   2.606   9.161  0.2370  0.9795  0.1574
 2988SOL    HW220601   3.529   2.612   9.103 -2.8396  0.7712  1.2696
 2989SOL     OW20602   4.217   2.866   6.016  0.2931  0.0631  0.0859
 2989SOL    HW120603   4.137   2.835   5.973 -0.8077  1.2833  1.2636
 2989SOL    HW220604   4.283   2.802   5.987  1.6181  1.0337  0.9993
 2990SOL     OW20605   1.165   2.875   2.836  0.2680  0.4392  0.8178
 2990SOL    HW120606   1.219   2.811   2.881  0.9848  1.7507  1.8457
 2990SOL    HW220607   1.082   2.858   2.881  1.7223 -2.7723  2.2450
 2991SOL     OW20608   0.876   0.993   5.850  0.0183 -0.6526 -0.2743
 2991SOL    HW120609   0.947   1.041   5.808 -1.0220 -0.4962 -1.8773
 2991SOL    HW220610   0.871   0.913   5.798 -0.9538 -1.2896  0.8135
 2992SOL     OW20611   2.828   1.026  13.162 -0.3346 -0.1108 -0.1811
 2992SOL    HW120612   2.815   0.932  13.176  3.4856 -0.4454  1.0988
 2992SOL    HW220613   2.773   1.065  13.230  1.1970 -0.0008  0.9698
 2993SOL     OW20614   1.651   4.124  15.027 -0.0300 -0.3404 -0.5719
 2993SOL    HW120615   1.690   4.199  14.981 -1.2744  0.0034 -1.0663
 2993SOL    HW220616   1.725   4.099  15.083 -1.3500 -0.4712  1.1092
 2994SOL     OW20617   0.188   0.343   1.914  0.0061  0.3971 -0.2665
 2994SOL    HW120618   0.116   0.289   1.881  0.4369 -0.2652 -0.1201
 2994SOL    HW220619   0.197   0.309   2.003 -2.0115  0.2172 -0.1364
 2995SOL     OW20620   2.562   2.892   8.089  0.0254  0.0707  0.4601
 2995SOL    HW120621   2.635   2.831   8.101 -1.1475 -0.6061  4.1009
 2995SOL    HW220622   2.619   2.960   8.053 -0.9652 -0.8879 -2.9781
 2996SOL     OW20623   1.950   2.088  16.485  0.1669  0.1168  0.2772
 2996SOL    HW120624   2.039   2.117  16.508  1.1107 -2.3536 -0.2662
 2996SOL    HW220625   1.899   2.167  16.506 -2.2529 -1.1511 -0.9119
 2997SOL     OW20626   0.036   1.314   3.681  0.1595 -0.0575 -0.3596
 2997SOL    HW120627   0.024   1.219   3.676  3.3499 -0.3528 -2.7437
 2997SOL    HW220628   0.129   1.306   3.662 -0.0743 -0.7392 -1.2098
 2998SOL     OW20629   1.784   0.461   7.532  0.0764  0.1724 -0.2442
 2998SOL    HW120630   1.747   0.425   7.451  2.4892  1.2247 -1.8090
 2998SOL    HW220631   1.728   0.424   7.600  0.2123  0.8297  0.2174
 2999SOL     OW20632   0.323   1.240   6.263 -0.5683 -0.3399 -0.7015
 2999SOL    HW120633   0.316   1.246   6.168 -1.4486  2.8658 -0.4268
 2999SOL    HW220634   0.395   1.295   6.293  0.4221 -2.1380  0.1817
 3000SOL     OW20635   0.859   0.556   3.869  0.3773  0.1103 -0.5918
 3000SOL    HW120636   0.888   0.577   3.958 -3.0591 -3.4006  1.3279
 3000SOL    HW220637   0.798   0.627   3.847 -0.4717  0.2685  2.3099
 3001SOL     OW20638   3.149   0.592   8.533  0.9072  0.4842  0.2610
 3001SOL    HW120639   3.175   0.635   8.614 -1.0250  1.6894  0.2414
 3001SOL    HW220640   3.156   0.498   8.550  0.3201  0.6378  1.3193
 3002SOL     OW20641   1.685   2.295   2.050 -0.3376  0.2666  0.4993
 3002SOL    HW120642   1.621   2.231   2.078  2.1652 -2.3568  0.2685
 3002SOL    HW220643   1.634   2.368   2.015  0.4747  0.3717 -0.4724
 3003SOL     OW20644   3.010   2.644   2.257 -0.1916  0.4204 -0.0146
 3003SOL    HW120645   3.032   2.595   2.178  2.7262 -0.7071  1.5036
 3003SOL    HW220646   3.101   2.650   2.288  0.2836  0.4716 -1.3984
 3004SOL     OW20647   2.818   1.582   5.786  0.0025 -0.1359 -0.0548
 3004SOL    HW120648   2.768   1.566   5.706 -1.1128 -0.7034  0.7487
 3004SOL    HW220649   2.895   1.534   5.755 -0.7612 -0.9989 -0.6133
 3005SOL     OW20650   1.844   4.278  14.597 -0.1956  0.6574 -0.0597
 3005SOL    HW120651   1.925   4.330  14.601  0.7416 -0.7544 -0.8695
 3005SOL    HW220652   1.838   4.247  14.507  1.9141 -0.2083  0.0968
 3006SOL     OW20653   0.912   1.957  11.864  0.0312 -0.1721  0.1443
 3006SOL    HW120654   0.975   1.939  11.794 -2.2191 -1.1549 -1.6398
 3006SOL    HW220655   0.962   1.998  11.934 -0.5316  0.3446  0.2407
 3007SOL     OW20656   3.045   3.404   7.596  0.2528 -0.4732  0.1466
 3007SOL    HW120657   3.005   3.398   7.509 -2.1896 -2.0233  1.3747
 3007SOL    HW220658   3.024   3.495   7.617 -2.3493 -0.7017 -1.4360
 3008SOL     OW20659   1.903   3.467   9.365 -0.6273  0.4351 -0.1953
 3008SOL    HW120660   1.988   3.489   9.402 -0.4715 -1.2712  0.4291
 3008SOL    HW220661   1.865   3.434   9.446  1.8040  1.7053  1.4284
 3009SOL     OW20662   0.029   3.914   4.767 -0.4521  0.0761  0.2171
 3009SOL    HW120663   4.719   3.995   4.746  1.1192  0.5921 -1.1515
 3009SOL    HW220664   0.014   3.903   4.861 -0.8060 -0.0362  0.1454
 3010SOL     OW20665   3.534   0.363   2.648  0.0028 -0.1170 -0.1167
 3010SOL    HW120666   3.556   0.315   2.568 -1.6896  0.5881 -1.0163
 3010SOL    HW220667   3.548   0.296   2.714 -0.2537  0.2673  0.3259
 3011SOL     OW20668   3.224   1.773  16.537  0.2166  1.2509 -0.1952
 3011SOL    HW120669   3.260   1.693  16.574 -1.0687 -0.2368 -2.1500
 3011SOL    HW220670   3.193   1.829  16.608 -1.4679  1.0960 -0.8142
 3012SOL     OW20671   3.056   2.512   9.564  0.2323  0.5983  0.3875
 3012SOL    HW120672   2.969   2.502   9.526 -0.2412  0.0947  1.6072
 3012SOL    HW220673   3.099   2.471   9.489  0.1580 -0.5487  0.9655
 3013SOL     OW20674   2.863   0.017   2.285 -0.3012 -0.4569  0.0389
 3013SOL    HW120675   2.911   4.683   2.241  0.8011  1.2839 -1.5267
 3013SOL    HW220676   2.935   0.057   2.335 -1.0144 -2.1599  2.4523
 3014SOL     OW20677   1.644   3.948   7.727  0.5465  0.3782  0.1898
 3014SOL    HW120678   1.622   3.863   7.690 -3.0477  1.7367 -0.8327
 3014SOL    HW220679   1.632   3.999   7.647  1.4092  2.2361  1.2263
 3015SOL     OW20680   4.642   2.492   7.470  0.1014 -0.1929 -0.0869
 3015SOL    HW120681   4.586   2.496   7.547  0.4259  1.2539  0.0781
 3015SOL    HW220682   4.629   2.400   7.447 -0.6476  0.0691 -0.7597
 3016SOL     OW20683   1.987   0.907  10.417  0.3833  0.2778  0.0519
 3016SOL    HW120684   1.916   0.963  10.386 -0.9344 -2.5642 -2.0837
 3016SOL    HW220685   1.983   0.840  10.349  0.5896  0.8265 -0.4949
 3017SOL     OW20686   3.963   1.400  11.508 -0.0217 -0.4883  0.4618
 3017SOL    HW120687   4.002   1.319  11.475  2.2609  0.0516  1.7653
 3017SOL    HW220688   4.001   1.464  11.448 -0.8089  1.2047  1.7808
 3018SOL     OW20689   1.894   4.400   4.077 -0.3356  0.2336 -0.3118
 3018SOL    HW120690   1.975   4.434   4.040 -0.5839  2.4382  1.2115
 3018SOL    HW220691   1.856   4.364   3.996  1.9755 -1.2366 -0.7522
 3019SOL     OW20692   3.931   2.820   2.142 -0.1761  0.1949  0.2940
 3019SOL    HW120693   3.951   2.870   2.221  2.2368 -1.0642  0.4610
 3019SOL    HW220694   3.897   2.892   2.089  2.2570  0.5477 -0.7589
 3020SOL     OW20695   4.454   0.769  10.760 -0.4051 -0.4914 -0.1599
 3020SOL    HW120696   4.383   0.792  10.820  0.5579  1.8075  0.1175
 3020SOL    HW220697   4.526   0.797  10.818  0.1697 -2.1131 -0.0961
 3021SOL     OW20698   1.038   2.506   1.909 -0.3650  0.0243 -0.0730
 3021SOL    HW120699   1.068   2.578   1.854 -1.7239 -0.6867 -1.7633
 3021SOL    HW220700   0.990   2.457   1.842 -0.4795 -0.7918  0.6062
 3022SOL     OW20701   3.175   4.243   3.746 -0.5282 -0.5255  0.5947
 3022SOL    HW120702   3.250   4.291   3.711 -1.0108 -0.5633 -0.4885
 3022SOL    HW220703   3.102   4.285   3.700  0.0596  0.3706  0.4731
 3023SOL     OW20704   4.349   1.351   3.758  0.2183  0.3119 -0.2250
 3023SOL    HW120705   4.365   1.330   3.850 -0.1155 -1.5150 -0.5824
 3023SOL    HW220706   4.375   1.265   3.726 -2.0479 -1.2973  2.1760
 3024SOL     OW20707   0.245   1.800   4.617  0.1637 -0.4369  0.3530
 3024SOL    HW120708   0.320   1.754   4.656 -0.6845 -2.9134 -0.9510
 3024SOL    HW220709   0.294   1.869   4.573  2.5053 -1.4325  1.4076
 3025SOL     OW20710   1.877   3.551   0.308 -0.3748 -0.0762 -0.5756
 3025SOL    HW120711   1.823   3.491   0.256  0.7242 -1.6231  0.0968
 3025SOL    HW220712   1.957   3.506   0.334  0.7786  2.2441 -0.0667
 3026SOL     OW20713   2.223   1.400   6.846 -0.5297  0.5307  0.0181
 3026SOL    HW120714   2.150   1.455   6.818  2.4409  3.7253 -1.3901
 3026SOL    HW220715   2.181   1.329   6.894 -0.0134  0.4682  0.3866
 3027SOL     OW20716   0.750   4.196   7.579 -0.6704 -0.7286  0.0260
 3027SOL    HW120717   0.657   4.213   7.566 -0.4182  0.7974  0.2289
 3027SOL    HW220718   0.776   4.179   7.488  0.0182  2.6286 -0.3805
 3028SOL     OW20719   0.019   2.898   6.331 -0.1689  0.2921 -0.2385
 3028SOL    HW120720   0.057   2.985   6.329 -0.2546  0.3206 -0.5939
 3028SOL    HW220721   4.662   2.922   6.341 -0.3822 -0.7095  0.2123
 3029SOL     OW20722   0.596   2.980  11.613  0.4522  0.2865 -0.2415
 3029SOL    HW120723   0.538   2.931  11.672 -1.1446  2.0787 -0.2918
 3029SOL    HW220724   0.589   3.071  11.643  2.0688  0.4786 -0.4471
 3030SOL     OW20725   4.268   0.135  14.426 -0.0547  0.1767 -0.0920
 3030SOL    HW120726   4.312   0.126  14.511 -1.0417  0.0284  0.3961
 3030SOL    HW220727   4.174   0.142  14.442  0.0059 -1.7470  1.0346
 3031SOL     OW20728   1.407   2.020   5.988  0.7236  0.0170 -0.8844
 3031SOL    HW120729   1.342   1.951   5.979  0.4482  0.5361 -3.1089
 3031SOL    HW220730   1.361   2.088   5.938 -0.2131  1.4166  1.9236
 3032SOL     OW20731   2.173   3.296   2.127  0.0251 -0.0813  0.0772
 3032SOL    HW120732   2.179   3.212   2.173 -5.7156 -1.5148 -1.7204
 3032SOL    HW220733   2.126   3.269   2.048 -0.9884  0.3812  0.5264
 3033SOL     OW20734   2.102   0.444  14.885 -0.6224 -0.1661  0.5899
 3033SOL    HW120735   2.113   0.390  14.807  0.3890  1.1231 -0.1601
 3033SOL    HW220736   2.140   0.529  14.861  0.4794 -0.5325  1.0626
 3034SOL     OW20737   2.554   0.342  12.029 -0.1748  0.0053 -0.1857
 3034SOL    HW120738   2.546   0.437  12.038 -0.6192 -0.3543  3.3336
 3034SOL    HW220739   2.595   0.317  12.112 -1.6495  2.3291  1.2506
 3035SOL     OW20740   0.577   1.085   8.448 -0.4112  0.1177  0.2689
 3035SOL    HW120741   0.597   0.992   8.445  0.9356  0.3928  0.6616
 3035SOL    HW220742   0.501   1.084   8.507  0.5025 -0.4331  1.4190
 3036SOL     OW20743   4.689   0.706   8.461 -0.3649 -0.4511  0.1031
 3036SOL    HW120744   0.039   0.697   8.503  0.4022  1.3207 -1.0686
 3036SOL    HW220745   4.650   0.764   8.527  1.6501  1.0002  0.0112
 3037SOL     OW20746   0.462   0.200   3.894 -0.0272  0.0287 -0.1749
 3037SOL    HW120747   0.501   0.114   3.912 -0.6770 -0.3987 -0.8538
 3037SOL    HW220748   0.543   0.251   3.902 -0.4699  0.0891  3.9392
 3038SOL     OW20749   0.932   1.832   8.948 -0.6056 -0.7138 -0.5514
 3038SOL    HW120750   1.020   1.833   8.910 -0.5521 -1.2804 -0.4369
 3038SOL    HW220751   0.935   1.906   9.009 -0.6628 -2.6272  1.7700
 3039SOL     OW20752   1.334   4.088   1.478  0.2432 -0.3987 -0.1199
 3039SOL    HW120753   1.303   4.155   1.539 -1.0840 -0.8179 -0.3491
 3039SOL    HW220754   1.381   4.027   1.535  0.9048 -0.0205 -0.2581
 3040SOL     OW20755   1.739   4.174  17.310  0.1136 -0.3410 -0.2318
 3040SOL    HW120756   1.757   4.097  17.363 -1.1547  0.1536  0.8996
 3040SOL    HW220757   1.803   4.237  17.344  2.4414 -1.6392 -2.2299
 3041SOL     OW20758   4.653   1.786  14.429 -0.7166 -0.4570 -0.8928
 3041SOL    HW120759   4.646   1.821  14.341 -0.3898 -1.2816 -1.2507
 3041SOL    HW220760   4.718   1.717  14.414  0.2114  0.2791 -0.3339
 3042SOL     OW20761   2.072   3.338  14.268  0.3360 -0.0412 -0.3658
 3042SOL    HW120762   2.154   3.374  14.235  0.6157  1.1750  1.6282
 3042SOL    HW220763   2.049   3.272  14.203 -1.6293  1.5171 -1.2847
 3043SOL     OW20764   2.724   4.323  12.181 -0.2512 -0.3515 -0.5144
 3043SOL    HW120765   2.734   4.279  12.265  1.1177  1.1259  0.0938
 3043SOL    HW220766   2.787   4.392  12.204 -0.7304 -0.3592  0.8210
 3044SOL     OW20767   0.050   3.369   2.709  0.1684 -0.5115 -0.4837
 3044SOL    HW120768   0.124   3.312   2.731 -0.9518 -1.9392 -0.4335
 3044SOL    HW220769   0.017   3.389   2.797  0.7045 -1.8237  0.0194
 3045SOL     OW20770   4.631   0.226   4.236  0.4764 -0.0236 -0.1540
 3045SOL    HW120771   4.687   0.301   4.217 -0.3482  0.8628  0.9508
 3045SOL    HW220772   4.544   0.258   4.212  0.9769 -0.1089 -2.0814
 3046SOL     OW20773   3.007   2.479  14.185 -0.7013 -0.0609  0.0962
 3046SOL    HW120774   3.078   2.464  14.247 -1.6277  0.9101  1.4132
 3046SOL    HW220775   3.049   2.518  14.109  0.0979 -0.3692  0.3847
 3047SOL     OW20776   2.099   2.294   9.977 -0.1013  0.1334 -0.5587
 3047SOL    HW120777   2.111   2.207   9.941  0.5080  1.0146 -2.5031
 3047SOL    HW220778   2.093   2.265  10.068  1.3062 -0.5653 -0.7050
 3048SOL     OW20779   3.908   3.199   5.529  0.4613  0.2505  0.1889
 3048SOL    HW120780   3.994   3.168   5.501  1.0126 -0.2290  2.3441
 3048SOL    HW220781   3.893   3.249   5.449  0.7245  1.0203  0.6145
 3049SOL     OW20782   3.751   3.496   4.845 -0.5249 -0.6107 -0.6198
 3049SOL    HW120783   3.798   3.573   4.876 -0.5478 -0.7323 -0.2852
 3049SOL    HW220784   3.660   3.526   4.852 -0.0181  0.9564 -0.7924
 3050SOL     OW20785   2.658   3.390   8.240  0.1463 -0.0218  0.0591
 3050SOL    HW120786   2.571   3.392   8.201  0.1180 -2.9369 -0.0460
 3050SOL    HW220787   2.703   3.445   8.175 -1.4970  1.6756  0.3479
 3051SOL     OW20788   2.512   4.200   2.919  0.6148  0.2430  0.2694
 3051SOL    HW120789   2.561   4.278   2.894 -0.7406  1.0931  0.2581
 3051SOL    HW220790   2.554   4.131   2.867 -2.0360  0.5673 -2.2930
 3052SOL     OW20791   3.312   3.300   4.844  0.2149  0.2345  0.5053
 3052SOL    HW120792   3.233   3.300   4.790 -0.1075  0.2238  0.9703
 3052SOL    HW220793   3.271   3.348   4.916  0.4905 -0.0225  0.8349
 3053SOL     OW20794   0.256   2.345   3.499  0.1281 -0.3729  0.3163
 3053SOL    HW120795   0.212   2.328   3.416  0.5016  1.3398 -0.2340
 3053SOL    HW220796   0.343   2.308   3.484  0.8565  1.7875 -0.8611
 3054SOL     OW20797   3.206   4.627   4.032 -0.2314 -0.6943  0.1606
 3054SOL    HW120798   3.275   4.620   4.099 -0.5841 -0.8542  0.5045
 3054SOL    HW220799   3.261   4.620   3.954 -0.7002  2.8237 -0.5176
 3055SOL     OW20800   2.173   1.171   4.739 -0.0387 -0.5270 -0.0581
 3055SOL    HW120801   2.138   1.105   4.679 -0.0628 -1.5938  1.1134
 3055SOL    HW220802   2.176   1.120   4.820  0.4557  2.3802  1.7281
 3056SOL     OW20803   4.522   4.609   8.920  0.0755 -0.4229  0.6267
 3056SOL    HW120804   4.601   4.606   8.867 -0.5844  1.3182 -0.4485
 3056SOL    HW220805   4.568   4.632   9.001  1.9077 -1.0646 -0.2341
 3057SOL     OW20806   2.496   0.714   6.473  0.3440 -0.3360 -0.0621
 3057SOL    HW120807   2.425   0.671   6.521  1.6506  0.4997  2.5787
 3057SOL    HW220808   2.454   0.800   6.471  1.3867  0.0941 -3.4173
 3058SOL     OW20809   3.228   0.262  11.518  0.3894 -0.0202 -0.3407
 3058SOL    HW120810   3.136   0.247  11.538  0.4917 -0.1316  0.0470
 3058SOL    HW220811   3.264   0.206  11.587 -2.0056  0.7652  1.5264
 3059SOL     OW20812   3.219   3.857   4.833 -0.0372 -0.1160  0.4040
 3059SOL    HW120813   3.249   3.936   4.789 -0.5159 -0.6284 -0.8391
 3059SOL    HW220814   3.124   3.860   4.844  0.2596  4.1472  1.9209
 3060SOL     OW20815   3.406   2.180  15.759 -0.3725  0.8737 -0.1300
 3060SOL    HW120816   3.485   2.201  15.709  0.3258 -0.6523  0.3386
 3060SOL    HW220817   3.350   2.158  15.684 -1.1854  3.4681 -0.2996
 3061SOL     OW20818   0.646   0.933   4.931  0.6549 -0.8546  0.6793
 3061SOL    HW120819   0.604   1.019   4.924 -0.4412 -1.3897  0.6297
 3061SOL    HW220820   0.594   0.876   4.876 -0.0093  1.4021 -1.0413
 3062SOL     OW20821   1.909   0.300  12.531 -0.2088  0.1299 -0.1161
 3062SOL    HW120822   1.865   0.219  12.506  0.6388 -0.3997  0.1106
 3062SOL    HW220823   1.902   0.350  12.450  1.2702  0.8389  0.2033
 3063SOL     OW20824   0.536   0.130   7.754 -0.0394 -0.2508 -0.3936
 3063SOL    HW120825   0.579   0.126   7.839  0.5193  0.4677 -0.6371
 3063SOL    HW220826   0.515   0.222   7.735  1.0046 -0.2144 -1.3367
 3064SOL     OW20827   2.011   2.990   3.149 -0.0327  0.8214 -0.3891
 3064SOL    HW120828   2.000   3.035   3.066 -1.0481 -2.0069 -1.7986
 3064SOL    HW220829   2.105   2.988   3.163 -0.4183 -0.2919  2.0960
 3065SOL     OW20830   1.403   3.002   2.179  0.2942  0.0031 -0.2648
 3065SOL    HW120831   1.337   3.039   2.237  1.3369  0.2920  0.7498
 3065SOL    HW220832   1.452   3.075   2.142  2.7658 -2.5495 -2.1086
 3066SOL     OW20833   4.007   1.803  15.241  0.1215  0.0357  0.0049
 3066SOL    HW120834   3.959   1.721  15.251  1.2943 -0.5192  1.1214
 3066SOL    HW220835   3.968   1.856  15.310  1.8127  1.3753 -0.0884
 3067SOL     OW20836   1.998   3.010   3.924  0.5411  0.0908 -0.5102
 3067SOL    HW120837   1.928   3.017   3.860  1.1549  0.6987 -1.1135
 3067SOL    HW220838   2.031   3.100   3.923  0.6148  0.0970  1.3612
 3068SOL     OW20839   1.271   3.908   7.441 -1.0303 -0.0739 -0.0945
 3068SOL    HW120840   1.197   3.849   7.426 -1.8600  1.1319 -0.7178
 3068SOL    HW220841   1.261   3.924   7.535  1.4152  2.9445 -0.3443
 3069SOL     OW20842   4.582   1.227  11.240 -0.1157  0.1276 -0.1253
 3069SOL    HW120843   4.649   1.249  11.304 -0.2266  2.3168 -0.7232
 3069SOL    HW220844   4.575   1.132  11.238 -0.4698  0.1398  0.4296
 3070SOL     OW20845   3.410   2.368   7.481 -0.4939 -0.5598 -0.0432
 3070SOL    HW120846   3.337   2.310   7.459 -0.3196 -1.4341  1.6572
 3070SOL    HW220847   3.365   2.452   7.487  1.4631  0.3596  1.7952
 3071SOL     OW20848   2.735   4.042   6.841  0.0024  0.0144  0.7144
 3071SOL    HW120849   2.694   4.128   6.852 -2.1349 -0.6820 -1.6648
 3071SOL    HW220850   2.662   3.984   6.861 -0.6683  0.0815 -1.5726
 3072SOL     OW20851   1.256   1.406  15.574 -0.7938 -0.3126  0.1591
 3072SOL    HW120852   1.196   1.449  15.514  1.1906  1.4246 -0.5864
 3072SOL    HW220853   1.271   1.476  15.638  0.4433 -0.8562  0.4637
 3073SOL     OW20854   0.129   1.036   2.613  0.3838 -0.0019  0.0493
 3073SOL    HW120855   0.164   0.952   2.586  0.6991  0.2951 -0.4655
 3073SOL    HW220856   0.114   1.075   2.527  0.3300 -0.9030 -0.3504
 3074SOL     OW20857   1.464   0.091   3.055 -0.1643 -0.3142 -0.2184
 3074SOL    HW120858   1.469   0.186   3.070 -1.8538 -0.1393 -0.7401
 3074SOL    HW220859   1.377   0.069   3.020  0.6223 -1.1857 -1.6266
 3075SOL     OW20860   1.080   2.587   6.257 -0.3999  0.1904  0.3238
 3075SOL    HW120861   1.174   2.568   6.265 -0.1419 -0.0544 -3.0464
 3075SOL    HW220862   1.061   2.624   6.343 -2.2688 -2.0644  0.8734
 3076SOL     OW20863   3.613   1.521   7.957  0.0760 -0.5797 -0.1434
 3076SOL    HW120864   3.531   1.502   8.004  0.2179 -0.5374  0.1192
 3076SOL    HW220865   3.678   1.496   8.022  0.8226  2.6806  0.3660
 3077SOL     OW20866   1.121   4.671   4.698  0.5172  0.2909 -1.1663
 3077SOL    HW120867   1.175   0.013   4.680  1.5159 -0.3687 -0.9962
 3077SOL    HW220868   1.061   4.711   4.761  0.8760  3.0178 -2.5761
 3078SOL     OW20869   3.026   4.039  13.597  0.3330 -0.6257 -0.4134
 3078SOL    HW120870   2.993   3.958  13.557  0.6992  1.2506 -4.4944
 3078SOL    HW220871   3.000   4.026  13.688 -0.7127  2.2411 -0.3091
 3079SOL     OW20872   0.575   2.061   9.538  0.2363 -0.2976  0.2719
 3079SOL    HW120873   0.625   2.088   9.461  0.1968  0.5368  0.5328
 3079SOL    HW220874   0.520   2.139   9.546 -1.5306 -1.4544 -0.6115
 3080SOL     OW20875   1.739   3.394  13.127 -0.0718  0.1579 -0.0535
 3080SOL    HW120876   1.828   3.360  13.127 -0.7276 -1.5842 -0.1262
 3080SOL    HW220877   1.727   3.394  13.222 -1.7311  1.2937 -0.2623
 3081SOL     OW20878   0.176   1.730   5.848  0.2155 -0.2684  0.7241
 3081SOL    HW120879   0.249   1.668   5.838 -1.5761 -2.8175  3.3824
 3081SOL    HW220880   0.106   1.665   5.842 -0.6250  0.7637 -0.4489
 3082SOL     OW20881   0.564   3.250   8.751 -0.3710 -0.1722 -0.5302
 3082SOL    HW120882   0.490   3.197   8.780  1.9457 -1.6270  2.6762
 3082SOL    HW220883   0.526   3.312   8.689 -0.2324 -0.5409 -0.9854
 3083SOL     OW20884   1.127   4.218  11.871  0.3117  0.5606 -0.1851
 3083SOL    HW120885   1.035   4.204  11.892  0.0878  2.1969 -0.0750
 3083SOL    HW220886   1.159   4.131  11.848  1.1399  1.3695 -2.0442
 3084SOL     OW20887   1.833   3.817   3.905 -0.1280  0.4740 -0.9417
 3084SOL    HW120888   1.845   3.870   3.983 -2.8937 -2.4058  1.4739
 3084SOL    HW220889   1.922   3.780   3.901 -1.0338 -1.8576  0.2392
 3085SOL     OW20890   4.510   4.197   4.754 -0.5851  0.3006 -0.3391
 3085SOL    HW120891   4.581   4.234   4.806 -1.2161 -0.0884  0.8124
 3085SOL    HW220892   4.557   4.181   4.672  0.3804 -0.4862  0.3835
 3086SOL     OW20893   0.059   4.618   2.693  0.4792  0.0657  0.3740
 3086SOL    HW120894   4.701   4.638   2.687  0.6436  0.4767 -0.8612
 3086SOL    HW220895   0.094   4.701   2.725  0.9057 -0.9342  2.4874
 3087SOL     OW20896   3.719   0.811   0.949  0.1063  0.1813 -0.5071
 3087SOL    HW120897   3.671   0.870   0.889  1.8277  3.2677  1.1621
 3087SOL    HW220898   3.663   0.733   0.943  2.0305 -1.1537 -0.8181
 3088SOL     OW20899   2.747   1.016   2.038 -0.4865  0.5763  0.0465
 3088SOL    HW120900   2.798   0.972   2.106  1.3346  1.0017 -1.0298
 3088SOL    HW220901   2.671   0.960   2.050  2.1038 -2.4316  2.3010
 3089SOL     OW20902   3.012   1.797   5.163 -0.8343 -0.0938 -0.0302
 3089SOL    HW120903   3.088   1.831   5.210 -0.9192 -1.2486  0.9497
 3089SOL    HW220904   2.958   1.790   5.241  0.3737 -0.6496  0.7582
 3090SOL     OW20905   3.985   1.038   8.018  0.2324  0.1370  0.4966
 3090SOL    HW120906   4.054   0.984   7.980  0.0083 -0.5870  1.1013
 3090SOL    HW220907   4.007   1.115   7.967 -1.8286  1.5258  1.6872
 3091SOL     OW20908   3.649   1.340   0.184  0.2506  0.0421 -0.3056
 3091SOL    HW120909   3.633   1.413   0.244  0.1375 -1.1263  1.0854
 3091SOL    HW220910   3.568   1.358   0.135 -0.5082 -0.4201  0.7777
 3092SOL     OW20911   3.781   4.731  12.176  0.2212  0.3389  0.1802
 3092SOL    HW120912   3.791   4.647  12.131 -0.0008  0.8321 -0.7849
 3092SOL    HW220913   3.688   0.011  12.163  0.1510 -1.2697 -1.1631
 3093SOL     OW20914   0.913   4.197   5.083  0.1487 -0.6450  0.0770
 3093SOL    HW120915   1.001   4.160   5.072  1.1961  2.3018 -1.3852
 3093SOL    HW220916   0.916   4.259   5.010 -2.2881 -0.2363  0.3215
 3094SOL     OW20917   1.830   2.960   1.582 -0.0251 -0.0427  0.2571
 3094SOL    HW120918   1.860   2.874   1.614  0.4643 -0.2598 -0.7889
 3094SOL    HW220919   1.873   3.014   1.648  1.2430  2.4107 -2.5860
 3095SOL     OW20920   0.635   2.402   2.234 -0.0307 -0.1073 -0.0945
 3095SOL    HW120921   0.678   2.392   2.149  2.3982 -0.0825  1.1354
 3095SOL    HW220922   0.638   2.497   2.248  0.1026  0.1547 -1.8862
 3096SOL     OW20923   1.953   1.588   5.988 -0.3036 -0.2996 -0.1613
 3096SOL    HW120924   1.979   1.541   5.908  1.5678  0.4740 -0.0022
 3096SOL    HW220925   2.035   1.631   6.008  0.1374 -1.7196  1.0788
 3097SOL     OW20926   0.540   0.259   0.798 -0.0161  0.0670  0.6721
 3097SOL    HW120927   0.583   0.173   0.800 -0.0919 -0.0491 -1.7512
 3097SOL    HW220928   0.526   0.290   0.887  1.8543  2.9060 -0.0312
 3098SOL     OW20929   0.594   2.701  12.895  0.1331 -0.1181  0.7428
 3098SOL    HW120930   0.503   2.728  12.882 -0.0582 -1.4396 -0.6250
 3098SOL    HW220931   0.643   2.783  12.890 -2.0168  1.0322 -1.5049
 3099SOL     OW20932   1.684   0.115   8.667  0.4606  0.1202  0.3409
 3099SOL    HW120933   1.670   0.051   8.736  0.2232  0.0062  0.1880
 3099SOL    HW220934   1.646   0.190   8.714  0.2104  1.1504 -1.4808
 3100SOL     OW20935   2.325   1.133   3.437 -0.2746 -0.4553  0.1071
 3100SOL    HW120936   2.237   1.150   3.403  0.0536 -0.5952 -0.8188
 3100SOL    HW220937   2.373   1.210   3.404 -0.9813  1.0259  2.5762
 3101SOL     OW20938   2.656   2.987  12.740  0.0952  0.0950  0.1785
 3101SOL    HW120939   2.730   2.926  12.737  1.5398  1.8002  1.1643
 3101SOL    HW220940   2.631   3.003  12.649 -1.4354  1.9467  0.9293
 3102SOL     OW20941   2.971   1.903   7.947 -0.1806  0.0475 -0.4400
 3102SOL    HW120942   2.924   1.825   7.975 -0.7901 -0.3140 -2.4905
 3102SOL    HW220943   3.011   1.861   7.872 -0.7642 -1.2270 -0.0443
 3103SOL     OW20944   3.400   1.146   1.630  0.0482 -0.1099 -0.2816
 3103SOL    HW120945   3.356   1.228   1.652  0.1306  0.2683 -1.5005
 3103SOL    HW220946   3.474   1.145   1.690  0.4914  1.5583 -0.7929
 3104SOL     OW20947   3.644   2.851   2.879  0.4104 -0.0995  0.1807
 3104SOL    HW120948   3.588   2.911   2.830 -1.1340  0.2239  2.3537
 3104SOL    HW220949   3.576   2.819   2.938 -1.2071  2.4730 -0.2937
 3105SOL     OW20950   3.032   4.637   3.079 -0.0250 -0.1723  0.0733
 3105SOL    HW120951   3.060   4.686   3.001 -2.2155 -2.7330 -2.2941
 3105SOL    HW220952   3.056   4.679   3.161 -0.6879 -1.4493  0.9219
 3106SOL     OW20953   3.179   3.035  15.522  0.0689  0.0387 -0.3009
 3106SOL    HW120954   3.129   3.114  15.546 -0.4199  0.3292 -2.2964
 3106SOL    HW220955   3.226   3.051  15.441  3.0071  0.1889  1.4187
 3107SOL     OW20956   3.795   2.555   3.031 -0.5112 -0.0280 -0.3200
 3107SOL    HW120957   3.805   2.482   3.092 -2.8711  0.2671  0.4401
 3107SOL    HW220958   3.774   2.629   3.089  1.2828  0.1353  0.1027
 3108SOL     OW20959   4.674   1.252   7.006  0.2862  0.0043 -0.2225
 3108SOL    HW120960   4.621   1.319   6.961  0.8665  0.6128 -0.0026
 3108SOL    HW220961   4.615   1.177   7.009  1.3728 -0.7409  2.0382
 3109SOL     OW20962   0.946   1.516   7.687  0.3875 -0.7370 -0.1695
 3109SOL    HW120963   0.980   1.576   7.621  2.2564 -1.7601 -0.1496
 3109SOL    HW220964   0.972   1.556   7.770 -0.7656 -0.7736  0.2097
 3110SOL     OW20965   1.480   2.156  11.662 -0.9169 -0.4993 -0.1369
 3110SOL    HW120966   1.430   2.212  11.722  1.7625 -1.6873  3.1819
 3110SOL    HW220967   1.557   2.211  11.651  0.7429 -2.8345 -0.1094
 3111SOL     OW20968   0.557   0.435   6.239  0.4100 -0.3213 -0.4787
 3111SOL    HW120969   0.471   0.476   6.238 -0.4108 -2.0474  0.1021
 3111SOL    HW220970   0.595   0.481   6.314 -0.7521 -2.0446  1.1339
 3112SOL     OW20971   0.075   4.492  16.181 -0.1881  0.1231  0.1073
 3112SOL    HW120972   0.026   4.543  16.246  0.8442  0.0959  0.8962
 3112SOL    HW220973   0.004   4.454  16.128 -0.6121 -1.5465  1.9075
 3113SOL     OW20974   1.010   2.249  11.716  0.4982 -0.1143  0.8562
 3113SOL    HW120975   1.064   2.275  11.641 -0.2293  1.1555  0.7794
 3113SOL    HW220976   1.078   2.262  11.783  2.5964  1.0763 -1.5345
 3114SOL     OW20977   0.916   1.914   9.588  0.7423  0.1590 -0.0887
 3114SOL    HW120978   0.901   1.991   9.644  3.5059 -0.8081  1.9730
 3114SOL    HW220979   0.912   1.958   9.503 -0.5592  1.1127  0.4482
 3115SOL     OW20980   0.541   1.418  12.438  0.1399 -0.1798 -0.4791
 3115SOL    HW120981   0.558   1.468  12.359 -1.1889  0.4845 -0.3358
 3115SOL    HW220982   0.525   1.484  12.505 -0.0715 -0.3998 -0.3133
 3116SOL     OW20983   2.713   2.952   8.488 -0.1878  0.1637 -0.1074
 3116SOL    HW120984   2.667   3.011   8.549 -0.6380 -0.1144 -0.1811
 3116SOL    HW220985   2.667   2.871   8.508 -2.9334  1.7864  0.1219
 3117SOL     OW20986   1.882   1.502   2.638 -0.0498  0.3215  0.4766
 3117SOL    HW120987   1.939   1.444   2.586  2.1236  1.2605  1.8088
 3117SOL    HW220988   1.827   1.558   2.583  0.7388  2.4617  1.8829
 3118SOL     OW20989   3.628   3.962   7.006  0.4930  0.0088 -0.0719
 3118SOL    HW120990   3.544   3.983   6.964  0.2167  1.6973  1.3125
 3118SOL    HW220991   3.634   3.871   6.976 -1.2387  0.6724 -2.4658
 3119SOL     OW20992   0.245   3.811   3.845  0.0958 -0.2064 -0.3860
 3119SOL    HW120993   0.287   3.891   3.876 -1.8758 -0.4010  2.7839
 3119SOL    HW220994   0.237   3.753   3.920  0.2048 -0.5599 -0.6459
 3120SOL     OW20995   3.255   1.591   0.751 -0.0658  0.4685 -0.1767
 3120SOL    HW120996   3.162   1.611   0.760 -0.8943 -2.9949 -1.0281
 3120SOL    HW220997   3.289   1.680   0.752  1.3941 -0.0915  1.7872
 3121SOL     OW20998   2.681   1.796  13.508  0.5095  0.3359  1.3331
 3121SOL    HW120999   2.672   1.889  13.526  1.2614  0.6449  0.0680
 3121SOL    HW221000   2.770   1.805  13.474  0.7773 -1.6163  1.5001
 3122SOL     OW21001   0.852   3.047   3.088 -0.5689  0.5326 -0.2417
 3122SOL    HW121002   0.915   2.987   3.048 -1.2479 -1.0480  1.1121
 3122SOL    HW221003   0.798   2.978   3.127  1.2935 -0.2675  0.9081
 3123SOL     OW21004   0.988   3.212  11.068  0.3671  0.0585  0.1768
 3123SOL    HW121005   0.903   3.168  11.061  0.9508 -1.1817  0.8550
 3123SOL    HW221006   1.038   3.140  11.028 -3.6178 -2.8788  0.4519
 3124SOL     OW21007   1.623   4.490   5.601  0.3679 -0.1802  0.0252
 3124SOL    HW121008   1.706   4.494   5.553  0.0881 -1.0222 -0.5430
 3124SOL    HW221009   1.618   4.395   5.606 -0.3045 -0.2511 -1.6790
 3125SOL     OW21010   0.576   2.645   3.274  0.1308  0.0968 -0.5094
 3125SOL    HW121011   0.515   2.658   3.347  0.6988 -1.2268  0.2072
 3125SOL    HW221012   0.617   2.563   3.302 -0.3791 -0.3145 -0.9786
 3126SOL     OW21013   3.025   1.960   8.407 -0.5154  0.4091  0.2361
 3126SOL    HW121014   3.058   1.991   8.323 -1.7275 -2.0628 -1.1473
 3126SOL    HW221015   3.070   2.030   8.454  0.5342  0.1804 -0.4332
 3127SOL     OW21016   1.024   4.218   6.234  0.6905  0.5397  0.0048
 3127SOL    HW121017   1.026   4.246   6.326  1.0215  1.6915 -0.3522
 3127SOL    HW221018   1.111   4.183   6.218 -0.8307 -3.3019  0.1097
 3128SOL     OW21019   4.307   1.617   4.055 -0.2790 -0.2812  0.2603
 3128SOL    HW121020   4.262   1.589   4.135  1.5648 -1.5741  0.8276
 3128SOL    HW221021   4.390   1.650   4.090  0.1364  0.8440 -1.8013
 3129SOL     OW21022   4.316   1.511   6.321 -0.0038  0.5258 -0.0323
 3129SOL    HW121023   4.307   1.607   6.318 -0.2579  0.4897 -0.4863
 3129SOL    HW221024   4.224   1.485   6.331 -0.8386  3.5086  0.0030
 3130SOL     OW21025   2.462   0.478   0.042 -0.4775 -0.3087  0.1120
 3130SOL    HW121026   2.441   0.386   0.022  0.5150 -0.5941  0.3817
 3130SOL    HW221027   2.379   0.525   0.032  0.5612  1.4039 -0.3675
 3131SOL     OW21028   4.308   3.116   9.565  0.3890 -0.1899 -0.9191
 3131SOL    HW121029   4.312   3.104   9.660  2.1935 -1.6052 -1.1539
 3131SOL    HW221030   4.214   3.114   9.545  0.0389 -1.4792  0.8275
 3132SOL     OW21031   1.272   0.792  15.907 -0.0579  0.2236  0.5989
 3132SOL    HW121032   1.276   0.699  15.886  1.2618  0.3972  0.1067
 3132SOL    HW221033   1.327   0.835  15.842 -2.0405  1.6668 -0.1294
 3133SOL     OW21034   3.750   0.044   3.400 -0.0792  0.2519 -0.0493
 3133SOL    HW121035   3.785   0.098   3.471 -0.8363 -1.0751  1.3241
 3133SOL    HW221036   3.802   4.700   3.411 -1.5436 -0.6688  0.1981
 3134SOL     OW21037   0.635   0.635   1.826  0.5949 -0.4949 -0.3007
 3134SOL    HW121038   0.565   0.624   1.890 -0.4558 -1.8939 -1.6872
 3134SOL    HW221039   0.716   0.608   1.870  0.2847 -0.3048  0.3782
 3135SOL     OW21040   3.362   1.727   6.198  0.3325 -0.3375 -0.1842
 3135SOL    HW121041   3.391   1.812   6.165  1.6237 -0.3500  0.9256
 3135SOL    HW221042   3.415   1.677   6.135  3.0763 -0.3612  2.1482
 3136SOL     OW21043   4.136   2.748   5.647 -0.4816 -0.0876  0.0111
 3136SOL    HW121044   4.151   2.830   5.600  2.1523 -0.2620  0.5296
 3136SOL    HW221045   4.099   2.781   5.729 -2.4056  0.0400 -0.9286
 3137SOL     OW21046   4.682   0.628   5.779  0.4654  0.0970 -0.5843
 3137SOL    HW121047   4.672   0.722   5.762  2.1832  0.7978  2.3683
 3137SOL    HW221048   4.715   0.627   5.869  2.1773 -0.1121 -1.2179
 3138SOL     OW21049   0.417   0.859   8.390  0.3054 -0.3321  0.3404
 3138SOL    HW121050   0.465   0.813   8.322  2.8705 -0.2177  2.0612
 3138SOL    HW221051   0.393   0.933   8.334  1.1294  1.1450  1.9164
 3139SOL     OW21052   2.770   1.696   0.035  0.6067 -0.5594 -0.1696
 3139SOL    HW121053   2.866   1.700   0.030  0.6233 -2.6413 -1.6559
 3139SOL    HW221054   2.743   1.785   0.012  1.1617 -1.0745 -2.8660
 3140SOL     OW21055   4.284   1.869  17.737 -0.0631  0.2723  0.2974
 3140SOL    HW121056   4.195   1.901  17.725 -0.9782 -1.3942  2.7268
 3140SOL    HW221057   4.283   1.823   0.080 -3.1438 -0.1723  0.0111
 3141SOL     OW21058   3.508   4.584   1.563  0.9182  0.2237  0.0819
 3141SOL    HW121059   3.460   4.617   1.640  1.0811  1.2603 -0.2559
 3141SOL    HW221060   3.589   4.634   1.566  1.5645 -0.8042 -0.5226
 3142SOL     OW21061   0.960   2.512   4.585 -0.2500  0.3788  0.0827
 3142SOL    HW121062   1.052   2.503   4.610 -0.2176 -0.7298 -0.4706
 3142SOL    HW221063   0.954   2.603   4.616  0.3009  0.7785 -0.9860
 3143SOL     OW21064   2.342   3.026   9.687  0.2684 -0.6806  0.0989
 3143SOL    HW121065   2.350   2.969   9.611  0.0295 -0.0170 -0.4246
 3143SOL    HW221066   2.428   3.015   9.727  0.1312  0.5625  0.7669
 3144SOL     OW21067   2.187   3.572   4.984  0.0750  0.3155  0.1407
 3144SOL    HW121068   2.122   3.611   4.926 -1.1279 -1.3691  0.3447
 3144SOL    HW221069   2.186   3.636   5.056  0.0220 -0.7956  1.1222
 3145SOL     OW21070   0.647   3.450  13.684  0.4744 -0.2237  0.1353
 3145SOL    HW121071   0.720   3.388  13.684  0.9749  0.3810 -3.6648
 3145SOL    HW221072   0.695   3.532  13.679  0.5659 -0.4036 -1.7976
 3146SOL     OW21073   0.555   1.214   3.329 -0.3134 -0.4622  0.0122
 3146SOL    HW121074   0.513   1.300   3.326 -0.1094 -0.3885 -0.7311
 3146SOL    HW221075   0.538   1.187   3.239 -1.0123 -1.8197  0.5585
 3147SOL     OW21076   4.212   1.599   6.565 -0.3387 -0.0627 -0.1238
 3147SOL    HW121077   4.158   1.675   6.542 -1.6557 -1.1334 -0.5093
 3147SOL    HW221078   4.175   1.532   6.509  0.0406 -1.0935  0.8632
 3148SOL     OW21079   2.838   4.333  12.849 -0.3254 -0.2077 -0.4420
 3148SOL    HW121080   2.747   4.357  12.865 -0.4137 -1.5028  1.0298
 3148SOL    HW221081   2.875   4.401  12.794  1.3480 -0.0877  0.8309
 3149SOL     OW21082   0.992   4.672   7.999  1.2210 -0.3142  0.3648
 3149SOL    HW121083   0.903   4.664   8.032  0.6458  1.4824 -0.7680
 3149SOL    HW221084   0.959   4.719   7.923  0.9491  1.9162  1.8423
 3150SOL     OW21085   3.424   4.604   5.353  0.5409 -0.5830  0.0037
 3150SOL    HW121086   3.516   4.626   5.339  0.6200 -0.4013  0.8089
 3150SOL    HW221087   3.420   4.522   5.304  0.1691 -0.2291 -0.5580
 3151SOL     OW21088   1.087   2.460   3.477 -0.1978 -0.0699 -0.3351
 3151SOL    HW121089   1.036   2.404   3.535 -0.5595  0.8419  0.2282
 3151SOL    HW221090   1.103   2.404   3.401  1.9010 -1.1918  0.9296
 3152SOL     OW21091   2.114   1.205   7.029 -1.0374 -0.1178  0.8668
 3152SOL    HW121092   2.041   1.143   7.026 -0.5855 -0.4481 -2.5066
 3152SOL    HW221093   2.176   1.142   7.068 -1.5118 -2.4004 -2.1225
 3153SOL     OW21094   0.271   2.409  14.648 -0.0627  0.6353 -0.6616
 3153SOL    HW121095   0.211   2.376  14.581 -0.9968 -2.5335  1.7490
 3153SOL    HW221096   0.210   2.459  14.702  1.0739 -0.5535  1.7340
 3154SOL     OW21097   2.606   0.720   5.122 -0.5214 -0.2548 -0.2384
 3154SOL    HW121098   2.544   0.773   5.072  0.1724  2.3926  1.7449
 3154SOL    HW221099   2.616   0.636   5.076 -0.6703 -0.6304  0.4175
 3155SOL     OW21100   3.459   3.047   1.817 -0.0552  0.1491 -0.0774
 3155SOL    HW121101   3.365   3.032   1.819 -0.0706  0.1416 -1.4085
 3155SOL    HW221102   3.493   2.973   1.868 -0.6679  1.1273  1.7519
 3156SOL     OW21103   1.448   3.308   3.959  0.3092 -0.1484 -0.2324
 3156SOL    HW121104   1.436   3.301   3.865  0.1093 -2.2393 -0.0458
 3156SOL    HW221105   1.361   3.312   3.998  0.8799  3.3001  0.7178
 3157SOL     OW21106   4.378   1.603  14.190 -0.1132 -0.4164  0.2711
 3157SOL    HW121107   4.460   1.556  14.182 -0.7110 -1.2312 -1.0765
 3157SOL    HW221108   4.356   1.625  14.099 -0.1215 -0.3541  0.2880
 3158SOL     OW21109   1.576   1.913   2.106  0.2087 -0.1998  0.1050
 3158SOL    HW121110   1.572   1.830   2.058 -0.7189  0.3128 -0.7259
 3158SOL    HW221111   1.669   1.922   2.126 -0.0003  1.5230  0.2904
 3159SOL     OW21112   1.950   2.032   7.796  0.1598 -0.2947 -0.2785
 3159SOL    HW121113   1.908   2.116   7.812  1.8936  0.7845 -1.3368
 3159SOL    HW221114   2.019   2.041   7.861  1.2157  1.1751 -1.6101
 3160SOL     OW21115   4.651   4.696   0.236  0.6685  0.6486  0.0131
 3160SOL    HW121116   4.720   4.630   0.230 -0.6441 -0.6902 -0.3243
 3160SOL    HW221117   4.682   0.002   0.316 -1.7881 -0.0437  1.3151
 3161SOL     OW21118   1.072   4.084  11.506  0.3210 -0.3024 -0.3946
 3161SOL    HW121119   1.016   4.059  11.433  0.1678 -1.4144  0.1016
 3161SOL    HW221120   1.127   4.007  11.521  1.4637  0.6199  0.1567
 3162SOL     OW21121   4.145   3.974   2.082 -0.9358 -0.1180 -0.6179
 3162SOL    HW121122   4.084   4.026   2.031 -2.5895 -1.6944 -0.2596
 3162SOL    HW221123   4.224   4.026   2.065 -1.0322  0.8191  1.6772
 3163SOL     OW21124   2.215   0.281   1.884  0.0388 -0.5129 -0.0579
 3163SOL    HW121125   2.293   0.336   1.874  1.2625 -2.7899 -2.9863
 3163SOL    HW221126   2.154   0.324   1.824 -0.7942 -1.1406  0.3370
 3164SOL     OW21127   2.051   0.651   3.257 -0.2861 -0.0722 -0.4445
 3164SOL    HW121128   2.139   0.660   3.294  0.2134  3.3527 -2.4962
 3164SOL    HW221129   2.035   0.557   3.267 -1.8373  0.2511  0.2078
 3165SOL     OW21130   3.091   3.351  16.594 -0.0212  0.4012 -0.2494
 3165SOL    HW121131   3.025   3.331  16.528 -0.4560 -2.0997  0.9228
 3165SOL    HW221132   3.045   3.340  16.677  0.5826 -1.6238 -0.1819
 3166SOL     OW21133   2.851   3.202   0.246 -0.0958  0.5660 -0.2043
 3166SOL    HW121134   2.945   3.190   0.262 -0.2660 -0.3487  0.0863
 3166SOL    HW221135   2.838   3.123   0.194 -0.0193  1.3320 -1.3896
 3167SOL     OW21136   4.135   1.112  11.378  0.8084  0.5358  0.3983
 3167SOL    HW121137   4.149   1.167  11.455 -1.8574  0.0462  1.2353
 3167SOL    HW221138   4.109   1.031  11.422 -0.4076  0.1879 -0.9562
 3168SOL     OW21139   1.624   1.161   2.037  0.0943 -0.4310 -0.0969
 3168SOL    HW121140   1.589   1.093   2.094  0.8810 -0.1202  0.7534
 3168SOL    HW221141   1.673   1.210   2.103 -0.6876  0.5008 -0.2164
 3169SOL     OW21142   3.451   3.259   3.478  0.0163 -0.3682  0.2328
 3169SOL    HW121143   3.524   3.197   3.481  0.0483 -0.3270  0.3155
 3169SOL    HW221144   3.446   3.276   3.384  2.6778 -0.9075 -0.0193
 3170SOL     OW21145   1.103   0.789   6.384 -0.2305 -0.0619  0.4668
 3170SOL    HW121146   1.166   0.860   6.389  0.4157 -0.5334 -0.9527
 3170SOL    HW221147   1.049   0.809   6.460  0.6846  1.1295  0.8063
 3171SOL     OW21148   0.151   4.214   3.473 -0.2231 -0.1637 -0.4064
 3171SOL    HW121149   0.184   4.275   3.539 -1.0025 -1.0345  0.8016
 3171SOL    HW221150   0.228   4.157   3.467  1.1110  1.5361  0.8492
 3172SOL     OW21151   2.893   0.270  15.825 -0.2200  0.2976  0.1127
 3172SOL    HW121152   2.901   0.182  15.789 -0.6648  0.0115  0.7139
 3172SOL    HW221153   2.937   0.261  15.910 -0.1751 -3.3616 -0.3252
 3173SOL     OW21154   3.904   1.077  14.331 -0.1322  0.3865 -0.2627
 3173SOL    HW121155   3.952   1.036  14.259  2.4777  0.2738  1.5094
 3173SOL    HW221156   3.936   1.168  14.331  2.6816 -0.6147  1.5256
 3174SOL     OW21157   2.518   0.328   2.187  0.1222 -0.5065 -0.3131
 3174SOL    HW121158   2.498   0.244   2.145 -1.7155 -0.7715  1.0757
 3174SOL    HW221159   2.460   0.315   2.262  0.4946 -1.9867 -0.2806
 3175SOL     OW21160   0.203   1.862   4.057  0.0493 -0.0886 -0.3071
 3175SOL    HW121161   0.216   1.768   4.043  0.6887 -0.1700  0.7765
 3175SOL    HW221162   0.289   1.905   4.054  0.6632 -1.4612 -2.9524
 3176SOL     OW21163   4.600   0.277   8.065 -1.1499 -0.6470 -0.7807
 3176SOL    HW121164   4.611   0.274   8.160  3.4431  0.6288 -1.2630
 3176SOL    HW221165   4.595   0.185   8.040  1.1133 -0.5997 -1.4279
 3177SOL     OW21166   2.124   4.236   1.322  0.2272  0.0748  0.0613
 3177SOL    HW121167   2.147   4.158   1.272 -0.2390  0.6930 -1.1015
 3177SOL    HW221168   2.042   4.269   1.286 -0.2098  0.4241  1.3915
 3178SOL     OW21169   1.228   0.789   2.430  0.0825 -0.1195  0.0938
 3178SOL    HW121170   1.188   0.850   2.368 -1.2168  1.8008  2.8288
 3178SOL    HW221171   1.174   0.805   2.508 -0.0993 -1.3447  0.2174
 3179SOL     OW21172   0.540   2.860   5.165  0.2363  0.4805  0.4843
 3179SOL    HW121173   0.584   2.900   5.240 -2.0459  2.5249  0.7450
 3179SOL    HW221174   0.553   2.930   5.101 -2.0650  0.4010 -0.0741
 3180SOL     OW21175   4.282   1.060  17.488  0.0256  0.0308  0.4632
 3180SOL    HW121176   4.223   1.040  17.561  2.4935  0.3068  2.5542
 3180SOL    HW221177   4.227   1.025  17.418 -2.8499  2.4392  1.5518
 3181SOL     OW21178   1.498   1.092   8.515 -0.0231 -0.3074  0.5048
 3181SOL    HW121179   1.493   1.084   8.610  1.3298  2.0279  0.7652
 3181SOL    HW221180   1.407   1.086   8.486  0.1079  0.2069 -0.0123
 3182SOL     OW21181   3.156   3.454   5.264 -0.1783  0.5043 -0.0893
 3182SOL    HW121182   3.106   3.471   5.344 -0.7008  1.7620 -0.6812
 3182SOL    HW221183   3.245   3.446   5.297  0.0073  0.6907 -0.5377
 3183SOL     OW21184   2.843   1.596   2.521  0.1248  0.0877  0.2611
 3183SOL    HW121185   2.851   1.530   2.590  2.2668  2.0727  1.9005
 3183SOL    HW221186   2.815   1.530   2.458  0.3195 -1.7999  2.1487
 3184SOL     OW21187   4.603   1.442  14.461  0.2311 -0.4453 -0.0505
 3184SOL    HW121188   4.578   1.475  14.374 -0.6983  0.5491  0.5901
 3184SOL    HW221189   4.685   1.481  14.489  1.4290 -1.0994 -2.7057
 3185SOL     OW21190   2.702   2.079   3.975  0.9206  0.0540 -0.5963
 3185SOL    HW121191   2.616   2.119   3.961  0.6420 -1.0407 -2.0076
 3185SOL    HW221192   2.757   2.132   3.917  0.7722 -0.4173 -1.1667
 3186SOL     OW21193   0.835   0.973   8.433 -0.2815 -0.4926 -0.1981
 3186SOL    HW121194   0.906   1.002   8.490 -0.9795 -2.0758  1.4650
 3186SOL    HW221195   0.789   1.057   8.424 -0.3209 -0.6541 -1.5431
 3187SOL     OW21196   2.926   4.296   7.706  0.3235  0.5243 -0.3697
 3187SOL    HW121197   2.873   4.267   7.780 -0.2408  1.8407 -0.2587
 3187SOL    HW221198   2.887   4.254   7.630 -2.4373 -0.5386  1.6296
 3188SOL     OW21199   1.141   4.383   2.681 -0.1215 -0.0410  0.5094
 3188SOL    HW121200   1.188   4.432   2.614 -2.0132  1.6481  0.4094
 3188SOL    HW221201   1.050   4.412   2.669 -0.1013 -0.2127 -0.0808
 3189SOL     OW21202   0.972   3.589   7.673 -0.9792  0.1767  0.3524
 3189SOL    HW121203   0.942   3.645   7.745 -3.2127 -0.6794  0.0798
 3189SOL    HW221204   0.888   3.552   7.647  0.5058 -3.0519  0.2587
 3190SOL     OW21205   1.138   2.789   5.702  0.5278 -0.2812 -0.5873
 3190SOL    HW121206   1.135   2.696   5.725  1.6850 -0.5251 -1.4545
 3190SOL    HW221207   1.232   2.804   5.696  0.3323  1.0437 -0.1828
 3191SOL     OW21208   0.646   1.335   4.508 -0.4912  0.1990  0.5054
 3191SOL    HW121209   0.708   1.360   4.440  1.2039 -3.6692  0.5992
 3191SOL    HW221210   0.571   1.327   4.449  0.8552  0.3024 -1.1990
 3192SOL     OW21211   0.669   2.764  13.555  0.9612 -0.3426 -0.6775
 3192SOL    HW121212   0.733   2.815  13.505  0.1626 -0.0006 -1.3469
 3192SOL    HW221213   0.617   2.827  13.604  0.7958 -0.2592 -0.9577
 3193SOL     OW21214   3.308   4.645   3.773 -0.0081 -0.1697  0.0115
 3193SOL    HW121215   3.319   4.720   3.713  0.0961 -1.6259 -1.7919
 3193SOL    HW221216   3.382   4.589   3.751  1.5831  1.3970  1.3073
 3194SOL     OW21217   1.192   4.278   1.226 -0.0236 -0.2866 -0.2781
 3194SOL    HW121218   1.128   4.240   1.165  0.8708 -2.5187  0.1541
 3194SOL    HW221219   1.131   4.343   1.261  0.9585  1.0360 -1.0784
 3195SOL     OW21220   1.266   0.796   9.217 -0.0964  0.0238  0.0276
 3195SOL    HW121221   1.284   0.791   9.123 -1.2265  0.2651 -0.2035
 3195SOL    HW221222   1.229   0.711   9.239  0.4063 -0.1459  0.1887
 3196SOL     OW21223   1.455   3.157   8.572 -0.0755  0.4375  0.1808
 3196SOL    HW121224   1.370   3.192   8.598 -0.4803 -0.7975  0.5604
 3196SOL    HW221225   1.493   3.149   8.660  1.1259 -1.8203 -0.5493
 3197SOL     OW21226   3.251   0.573   0.233  0.2860 -0.2889 -0.1405
 3197SOL    HW121227   3.318   0.506   0.244 -0.5632 -1.0139  0.6544
 3197SOL    HW221228   3.295   0.658   0.231 -3.5189  1.6458 -1.6654
 3198SOL     OW21229   2.151   0.161  17.431 -0.3539 -0.6473  0.4352
 3198SOL    HW121230   2.191   0.228  17.486  4.2536 -0.3356 -3.2728
 3198SOL    HW221231   2.117   0.113  17.506  0.4342 -2.2460 -0.2332
 3199SOL     OW21232   2.617   3.241   4.474 -0.6657 -0.1268 -0.4320
 3199SOL    HW121233   2.546   3.305   4.473 -0.2082  0.3793  0.5550
 3199SOL    HW221234   2.667   3.267   4.550 -0.8194  0.3004 -0.4790
 3200SOL     OW21235   2.548   2.194   2.027 -0.6556 -0.0556  0.0063
 3200SOL    HW121236   2.458   2.216   2.049 -1.0033 -2.1104  0.6391
 3200SOL    HW221237   2.528   2.134   1.955  1.7963 -0.5490 -0.2877
 3201SOL     OW21238   3.096   1.524   5.674 -0.3321 -0.3158 -0.0909
 3201SOL    HW121239   3.085   1.430   5.689  2.6917 -0.9394 -1.7804
 3201SOL    HW221240   3.190   1.524   5.656 -0.1941 -0.7790  0.6606
 3202SOL     OW21241   1.743   3.194  15.802  0.2005  0.3800  0.4574
 3202SOL    HW121242   1.781   3.106  15.800  0.8052  0.6118  1.5076
 3202SOL    HW221243   1.765   3.222  15.714 -1.7776  1.1841  0.2161
 3203SOL     OW21244   2.615   0.138  10.793 -0.2625 -0.4504 -0.1236
 3203SOL    HW121245   2.707   0.126  10.769 -0.3469 -0.7014 -0.3172
 3203SOL    HW221246   2.597   0.225  10.758 -0.8915 -0.1467  0.9422
 3204SOL     OW21247   4.253   0.562   2.520  0.3754  0.2303 -0.2629
 3204SOL    HW121248   4.212   0.645   2.495  0.1871  0.0706 -0.4809
 3204SOL    HW221249   4.338   0.603   2.538  0.9523 -0.3993 -1.5562
 3205SOL     OW21250   0.929   4.519   1.558  0.3481  0.2893 -0.4921
 3205SOL    HW121251   0.885   4.481   1.634 -0.5034  0.1632 -1.0481
 3205SOL    HW221252   0.924   4.614   1.571 -0.6082  0.1965 -0.1596
 3206SOL     OW21253   4.259   1.489  10.818  0.5394  0.0513 -0.1210
 3206SOL    HW121254   4.273   1.424  10.887  0.0914  1.5831  1.4377
 3206SOL    HW221255   4.228   1.567  10.864 -1.4081 -0.0089 -1.3225
 3207SOL     OW21256   0.356   1.532   5.370 -0.0797  0.8630  0.0582
 3207SOL    HW121257   0.392   1.572   5.449  0.1502  1.6581 -0.4508
 3207SOL    HW221258   0.417   1.557   5.300 -0.1984 -0.4816 -0.5197
 3208SOL     OW21259   4.347   2.935   4.434 -0.0120  0.4328 -0.4587
 3208SOL    HW121260   4.271   2.878   4.445  0.8812 -1.1502 -2.5115
 3208SOL    HW221261   4.331   2.998   4.504  0.8450 -3.5155  3.3046
 3209SOL     OW21262   2.409   2.528  15.340 -0.7995  0.5700  0.1356
 3209SOL    HW121263   2.497   2.494  15.326 -0.0245  2.2419  0.9882
 3209SOL    HW221264   2.395   2.559  15.251 -1.8034  0.0006  0.0916
 3210SOL     OW21265   0.407   1.912  11.571  0.2493  0.3566  0.0722
 3210SOL    HW121266   0.392   1.899  11.665 -0.7215 -0.4001 -0.1851
 3210SOL    HW221267   0.416   1.821  11.544  0.8316  0.3797  0.1787
 3211SOL     OW21268   2.520   2.678  13.576 -0.3358  0.5714 -0.0475
 3211SOL    HW121269   2.462   2.636  13.513 -1.1717  0.2667  0.9328
 3211SOL    HW221270   2.531   2.765  13.538  0.0873 -0.0050 -1.2483
 3212SOL     OW21271   0.363   4.302   4.066  0.0711  0.0858 -0.0197
 3212SOL    HW121272   0.440   4.314   4.010 -2.3905  0.8436 -3.2581
 3212SOL    HW221273   0.383   4.212   4.091 -2.5978 -0.3745  0.4094
 3213SOL     OW21274   1.189   1.382   7.576 -0.3320  0.7804 -0.7761
 3213SOL    HW121275   1.155   1.427   7.653 -0.8124  0.6044 -0.8816
 3213SOL    HW221276   1.132   1.396   7.500 -1.8548  1.3898  0.4733
 3214SOL     OW21277   1.813   3.488   3.997 -0.4774 -0.2373  0.0517
 3214SOL    HW121278   1.888   3.548   4.000 -2.2296  1.9264 -0.0118
 3214SOL    HW221279   1.784   3.495   4.087 -1.3385  1.8371 -0.3849
 3215SOL     OW21280   0.510   2.661   6.110  0.1383  0.4256  0.3916
 3215SOL    HW121281   0.603   2.680   6.115  0.4463 -0.6073 -1.6946
 3215SOL    HW221282   0.503   2.599   6.037 -0.7593  2.3762 -1.1802
 3216SOL     OW21283   0.598   0.113   2.323 -0.0779 -0.3648  0.3111
 3216SOL    HW121284   0.626   0.050   2.390  0.7146 -0.5773 -0.2254
 3216SOL    HW221285   0.527   0.061   2.287  2.5378 -3.0993 -0.8399
 3217SOL     OW21286   4.226   1.858   3.933  0.6479 -0.4203  0.0064
 3217SOL    HW121287   4.235   1.767   3.963  2.3314 -1.0312 -2.4009
 3217SOL    HW221288   4.318   1.869   3.910  0.8209 -1.6345  0.1347
 3218SOL     OW21289   2.828   4.689  10.003 -0.4427 -0.2671 -0.0577
 3218SOL    HW121290   2.745   4.658   9.968 -0.0655 -0.2929 -0.9376
 3218SOL    HW221291   2.874   4.706   9.921 -0.8390  1.8337  0.1720
 3219SOL     OW21292   2.747   1.945   5.792 -0.7949  0.2149  0.3234
 3219SOL    HW121293   2.750   1.935   5.696 -1.8394  1.5822  0.1465
 3219SOL    HW221294   2.723   1.858   5.825 -0.6820 -0.8392 -2.3143
 3220SOL     OW21295   4.711   2.337  15.783  0.1213 -0.0261 -0.1754
 3220SOL    HW121296   0.065   2.364  15.764 -0.5348  2.9947  0.9253
 3220SOL    HW221297   4.728   2.332  15.877  1.9860 -1.4623 -0.6076
 3221SOL     OW21298   1.408   0.326   7.334 -0.5292  0.6755  0.0025
 3221SOL    HW121299   1.473   0.274   7.286 -0.3807 -0.4142  1.3966
 3221SOL    HW221300   1.397   0.409   7.286 -1.4436  0.4401 -0.2016
 3222SOL     OW21301   1.966   0.408   2.213  0.2552 -0.3245 -0.3154
 3222SOL    HW121302   1.894   0.405   2.276  0.4600  0.5365 -0.0422
 3222SOL    HW221303   1.975   0.319   2.178 -2.4540  0.4528 -2.9950
 3223SOL     OW21304   3.531   0.038   1.299  0.2520 -0.1699  0.3244
 3223SOL    HW121305   3.457   0.093   1.324  1.2074  0.1489  2.4366
 3223SOL    HW221306   3.612   0.086   1.315  0.8357 -0.5401 -1.4987
 3224SOL     OW21307   0.099   1.643   6.372  0.2396  0.5631 -0.2647
 3224SOL    HW121308   0.137   1.556   6.360 -0.2299  0.2798  0.3519
 3224SOL    HW221309   0.109   1.645   6.467 -1.9969 -2.9891  0.0354
 3225SOL     OW21310   1.751   0.908   3.762 -0.0783 -0.0322 -0.6665
 3225SOL    HW121311   1.822   0.847   3.743  1.0254  0.1809  2.7284
 3225SOL    HW221312   1.798   0.990   3.752 -0.5628 -0.1070 -3.3523
 3226SOL     OW21313   1.867   0.040   5.783  0.0102 -0.5998  0.4622
 3226SOL    HW121314   1.944   0.097   5.791 -0.8202  0.7673 -1.3231
 3226SOL    HW221315   1.830   0.069   5.700  1.2846 -1.1458 -0.3061
 3227SOL     OW21316   4.257   3.782   9.061 -0.2076  0.3432 -0.3025
 3227SOL    HW121317   4.340   3.739   9.041  0.2686  0.8970  0.4543
 3227SOL    HW221318   4.265   3.773   9.156  2.3711  0.7379 -0.4980
 3228SOL     OW21319   1.938   1.751   8.051  0.3327  0.0932 -0.0710
 3228SOL    HW121320   2.006   1.726   8.113  1.2316 -0.2327 -1.1875
 3228SOL    HW221321   1.987   1.822   8.010  2.8108 -1.6402 -0.0789
 3229SOL     OW21322   2.998   0.235  16.761  0.0162 -0.3470  0.2712
 3229SOL    HW121323   2.925   0.281  16.802 -0.0132  0.5833 -0.8500
 3229SOL    HW221324   2.956   0.211  16.678  2.7571 -0.6152 -1.0422
 3230SOL     OW21325   2.425   1.226   1.450  0.0714  0.4160  0.1459
 3230SOL    HW121326   2.482   1.216   1.373 -0.1986  0.8724 -0.1158
 3230SOL    HW221327   2.343   1.211   1.402 -1.0875  0.7993  2.0270
 3231SOL     OW21328   0.776   2.145   1.719  0.5286 -0.1314 -0.9068
 3231SOL    HW121329   0.724   2.115   1.644 -3.7628  2.7875  0.9472
 3231SOL    HW221330   0.785   2.067   1.774  0.3486 -0.2160 -0.9974
 3232SOL     OW21331   0.674   1.027   7.006 -0.6572  0.3901  0.0260
 3232SOL    HW121332   0.704   0.937   7.017  1.4415  0.9839 -0.8667
 3232SOL    HW221333   0.615   1.042   7.079 -0.6170 -0.6969  0.2831
 3233SOL     OW21334   4.105   2.391  16.364 -0.1009 -0.3615 -0.5865
 3233SOL    HW121335   4.114   2.297  16.348  0.1623 -0.2227 -1.2745
 3233SOL    HW221336   4.125   2.430  16.278 -0.6891  0.7811 -0.2067
 3234SOL     OW21337   1.243   1.422   4.823  0.0106 -0.0174  0.1216
 3234SOL    HW121338   1.203   1.463   4.747 -0.8988  0.1107  0.6706
 3234SOL    HW221339   1.337   1.434   4.806 -0.2496  1.4611 -0.3109
 3235SOL     OW21340   3.182   2.226   6.214  0.2286  0.1622 -0.0012
 3235SOL    HW121341   3.140   2.223   6.128 -1.2433 -2.1022  0.7941
 3235SOL    HW221342   3.122   2.276   6.270 -1.2415 -1.2296 -0.3194
 3236SOL     OW21343   0.411   0.640   1.648 -0.1658 -0.2204  0.1880
 3236SOL    HW121344   0.485   0.634   1.708  0.4779  0.0303 -0.5720
 3236SOL    HW221345   0.458   0.639   1.564 -0.5915 -0.3227 -0.0530
 3237SOL     OW21346   0.987   2.003   4.850 -0.2402 -0.0699  0.0364
 3237SOL    HW121347   0.947   1.999   4.763 -0.4472 -0.8860  0.1690
 3237SOL    HW221348   1.053   1.933   4.843 -1.6610 -1.4786  0.9096
 3238SOL     OW21349   0.214   4.340   9.166  0.1637  0.6357 -0.0809
 3238SOL    HW121350   0.238   4.422   9.210  1.3439 -0.5651  1.4933
 3238SOL    HW221351   0.119   4.339   9.179  0.0421 -2.2538 -1.3955
 3239SOL     OW21352   0.317   1.212   5.184  0.3667 -0.6435 -0.4028
 3239SOL    HW121353   0.261   1.148   5.229  1.1225 -1.7263 -1.0130
 3239SOL    HW221354   0.398   1.224   5.233 -0.4632  1.2701  0.5313
 3240SOL     OW21355   4.284   1.567  16.006  0.2531 -0.2164  0.0786
 3240SOL    HW121356   4.320   1.539  15.922  1.2111 -1.5377  0.9340
 3240SOL    HW221357   4.365   1.592  16.051 -0.8221  1.5451  1.0590
 3241SOL     OW21358   2.819   1.106   7.389 -0.1177  0.0265 -0.2437
 3241SOL    HW121359   2.791   1.042   7.323 -0.1053  0.6345 -0.8342
 3241SOL    HW221360   2.885   1.161   7.348  0.3759 -0.2251  0.2100
 3242SOL     OW21361   3.910   4.086  14.395  0.1033  0.1967  0.1518
 3242SOL    HW121362   3.960   4.042  14.464 -1.8028 -0.6002  1.0178
 3242SOL    HW221363   3.980   4.102  14.332 -1.7958  1.3295 -1.6486
 3243SOL     OW21364   2.007   0.968   4.570 -0.0815  0.5619  0.0272
 3243SOL    HW121365   1.988   0.882   4.531 -0.2405 -0.1014  1.5779
 3243SOL    HW221366   2.100   0.973   4.546 -0.1299  1.6753  0.0923
 3244SOL     OW21367   0.494   3.367   7.346  0.3175  0.2329 -0.0414
 3244SOL    HW121368   0.406   3.331   7.359  1.1207 -0.7723  2.5637
 3244SOL    HW221369   0.550   3.289   7.346 -0.6067 -0.4425 -0.3877
 3245SOL     OW21370   4.172   2.120   2.722  0.0406  0.1129  0.0884
 3245SOL    HW121371   4.169   2.215   2.739  0.5347  0.7967 -3.8141
 3245SOL    HW221372   4.220   2.078   2.793 -0.2119 -1.3052 -0.5922
 3246SOL     OW21373   4.354   4.251   3.986 -0.4719  0.3593  0.3769
 3246SOL    HW121374   4.329   4.278   4.074 -0.3284 -1.6768  1.0523
 3246SOL    HW221375   4.411   4.326   3.970 -0.2433 -0.2196 -1.5919
 3247SOL     OW21376   3.711   0.212  12.782 -0.0276  0.0648 -0.0196
 3247SOL    HW121377   3.795   0.198  12.740  0.5976  0.0384  1.2301
 3247SOL    HW221378   3.712   0.306  12.799 -0.1747  0.1227 -0.3387
 3248SOL     OW21379   1.812   2.841   2.309 -0.0608 -0.2470 -0.4246
 3248SOL    HW121380   1.789   2.894   2.386  2.6542 -0.0717  0.2719
 3248SOL    HW221381   1.725   2.829   2.270 -1.1277  1.8040  1.2964
 3249SOL     OW21382   3.794   2.606   4.921  0.0796 -0.0693  0.1162
 3249SOL    HW121383   3.798   2.611   4.825 -0.3951  3.5820  0.3098
 3249SOL    HW221384   3.715   2.655   4.941  0.5955  0.4249  0.9465
 3250SOL     OW21385   4.503   0.410   1.852 -0.0794 -0.2600 -0.3062
 3250SOL    HW121386   4.473   0.465   1.925  1.8951  0.6571 -0.1987
 3250SOL    HW221387   4.590   0.378   1.875  0.0220  0.4302  0.2871
 3251SOL     OW21388   2.838   2.858   5.934  0.8906  0.0006 -0.0352
 3251SOL    HW121389   2.862   2.800   5.861  0.4620  0.4618 -0.5397
 3251SOL    HW221390   2.899   2.820   5.998  1.1491 -2.0988 -1.5119
 3252SOL     OW21391   3.263   3.972   6.576  0.2405 -0.5099  0.0318
 3252SOL    HW121392   3.256   3.927   6.492  0.4682  0.0721 -0.3026
 3252SOL    HW221393   3.173   3.976   6.609  0.1833 -2.6176  0.0980
 3253SOL     OW21394   3.692   0.791   4.683 -0.3037  0.2387 -0.0650
 3253SOL    HW121395   3.664   0.712   4.636 -1.7498  0.6858  0.0397
 3253SOL    HW221396   3.729   0.751   4.761 -1.4161  0.7466  0.7286
 3254SOL     OW21397   3.642   0.423   6.769  0.0642  0.0287 -0.1591
 3254SOL    HW121398   3.564   0.465   6.806  0.7958  0.7510  0.5602
 3254SOL    HW221399   3.654   0.463   6.683  0.5842 -0.7857 -0.4619
 3255SOL     OW21400   2.540   2.073   2.530 -0.0116  0.5761  0.3889
 3255SOL    HW121401   2.612   2.137   2.532 -1.2599  1.9646  1.0290
 3255SOL    HW221402   2.584   2.017   2.467 -0.7191  2.4069 -1.7045
 3256SOL     OW21403   4.309   2.305   3.892 -0.1119 -0.6560 -0.3470
 3256SOL    HW121404   4.404   2.312   3.897 -0.2042  0.1631  0.3966
 3256SOL    HW221405   4.299   2.253   3.813 -2.1431 -1.6781  0.5815
 3257SOL     OW21406   4.601   0.572   6.496 -0.0179 -0.2012  0.0217
 3257SOL    HW121407   4.516   0.611   6.517  0.0509 -0.3430  0.5461
 3257SOL    HW221408   4.657   0.628   6.550 -0.2296  0.7968 -0.7794
 3258SOL     OW21409   0.603   3.710   8.752 -0.2506  0.0643 -0.2010
 3258SOL    HW121410   0.594   3.616   8.773 -0.2697 -0.1112 -1.0248
 3258SOL    HW221411   0.515   3.746   8.757 -0.4496 -0.3635 -0.6609
 3259SOL     OW21412   4.262   3.606   6.103 -0.0804  0.2798  0.0055
 3259SOL    HW121413   4.239   3.565   6.186 -0.2343 -1.6843 -1.0119
 3259SOL    HW221414   4.181   3.657   6.093 -0.5937 -0.4543  0.3881
 3260SOL     OW21415   0.137   1.374   5.369  0.5861  0.0391 -0.7043
 3260SOL    HW121416   0.201   1.444   5.382  1.2985 -1.0354  1.4872
 3260SOL    HW221417   0.183   1.327   5.300 -1.1838 -1.0715 -1.1331
 3261SOL     OW21418   1.310   0.973   6.354 -0.0279  0.2300 -0.1893
 3261SOL    HW121419   1.389   0.966   6.408 -0.7506  0.4625  0.9123
 3261SOL    HW221420   1.329   0.907   6.287  2.1456 -0.2857  0.9481
 3262SOL     OW21421   0.694   1.686   8.456 -0.7174 -0.4344 -0.4296
 3262SOL    HW121422   0.601   1.663   8.466 -0.8996 -0.1571 -1.4505
 3262SOL    HW221423   0.739   1.661   8.536  0.3749  3.6314  0.1899
 3263SOL     OW21424   2.763   1.176  10.094  0.6136 -0.5185  0.1002
 3263SOL    HW121425   2.798   1.264  10.080  0.4866 -0.6229 -0.8338
 3263SOL    HW221426   2.703   1.196  10.167  0.6671  3.6421 -1.0156
 3264SOL     OW21427   1.024   0.415   6.505 -0.0612  0.3585 -0.0384
 3264SOL    HW121428   1.021   0.430   6.410  1.5829  3.6370  0.4269
 3264SOL    HW221429   1.108   0.370   6.510  0.0369  0.4172 -1.2802
 3265SOL     OW21430   4.656   3.878   8.004  0.5008  0.2170  0.6303
 3265SOL    HW121431   4.682   3.842   8.089  0.4704  0.6804  0.8339
 3265SOL    HW221432   4.585   3.816   7.990  0.4995 -0.2325  2.5896
 3266SOL     OW21433   0.892   2.490  11.622 -0.2339 -0.0271  0.4103
 3266SOL    HW121434   0.967   2.475  11.565 -1.0824 -0.7555 -0.5054
 3266SOL    HW221435   0.918   2.437  11.697 -1.9138 -0.5056  0.6583
 3267SOL     OW21436   0.517   2.888   7.837 -0.4503  0.2071 -0.4414
 3267SOL    HW121437   0.563   2.817   7.794 -1.2601 -0.1954 -0.6441
 3267SOL    HW221438   0.588   2.952   7.831  1.2009 -1.4326  1.3295
 3268SOL     OW21439   3.960   4.620   4.660  0.4679  0.2389  0.3876
 3268SOL    HW121440   3.884   4.669   4.693  0.1897 -0.1233  0.2921
 3268SOL    HW221441   4.006   4.600   4.742  1.2101  2.5891  0.5329
 3269SOL     OW21442   2.478   3.942   1.227 -0.0085 -0.2245  0.2288
 3269SOL    HW121443   2.446   3.876   1.289  0.6505  0.0475  0.8632
 3269SOL    HW221444   2.447   4.018   1.276 -2.1233 -1.3225  0.6319
 3270SOL     OW21445   2.495   2.300   0.894 -0.4237  0.0186  0.1526
 3270SOL    HW121446   2.405   2.317   0.921 -1.2355 -1.9700 -1.2272
 3270SOL    HW221447   2.523   2.271   0.980 -1.4454  1.0774  0.8393
 3271SOL     OW21448   0.262   3.909   5.586  0.0216 -0.3662  0.0296
 3271SOL    HW121449   0.183   3.963   5.572 -0.9333 -1.7209  0.2111
 3271SOL    HW221450   0.232   3.853   5.657 -1.5249 -1.6063 -1.5960
 3272SOL     OW21451   0.113   1.066  14.680  0.0319 -0.6878 -0.3637
 3272SOL    HW121452   0.122   1.027  14.767 -0.9100 -1.4032 -0.5894
 3272SOL    HW221453   0.022   1.040  14.672 -0.0830  0.3377 -2.4292
 3273SOL     OW21454   2.971   0.182   7.869 -0.0194  0.2426  0.0012
 3273SOL    HW121455   2.898   0.139   7.914  1.7689 -1.4337  1.2711
 3273SOL    HW221456   3.036   0.184   7.939  1.2939 -1.3782 -1.1573
 3274SOL     OW21457   4.372   3.374  12.717 -0.2759 -0.5389 -0.0969
 3274SOL    HW121458   4.374   3.344  12.808  1.6817 -0.1136  0.0034
 3274SOL    HW221459   4.426   3.453  12.721  0.0370 -0.8109  1.2480
 3275SOL     OW21460   2.844   1.556   6.815 -0.0581 -0.5003 -0.0386
 3275SOL    HW121461   2.764   1.607   6.827 -0.8768 -2.3630  2.2873
 3275SOL    HW221462   2.802   1.474   6.839 -0.3788 -0.7748 -1.5008
 3276SOL     OW21463   3.589   2.913   4.051 -0.0319  0.5626 -0.2822
 3276SOL    HW121464   3.503   2.944   4.080 -0.6335 -1.2029 -0.1901
 3276SOL    HW221465   3.653   2.983   4.066  0.1496 -0.0695  1.8265
 3277SOL     OW21466   1.390   1.822  16.504  0.0772 -0.2097 -0.1133
 3277SOL    HW121467   1.365   1.760  16.572  3.0491 -1.2495  0.0422
 3277SOL    HW221468   1.485   1.814  16.501  0.1484  0.9280 -1.0899
 3278SOL     OW21469   1.631   3.227  14.146 -0.3080 -0.9008  0.0052
 3278SOL    HW121470   1.553   3.199  14.194  1.0223 -0.4026  2.4515
 3278SOL    HW221471   1.710   3.221  14.200  0.1732  0.0625 -0.5979
 3279SOL     OW21472   4.466   0.237  11.106 -0.5926  0.0516  0.2950
 3279SOL    HW121473   4.540   0.203  11.155  0.6928  1.7025 -0.5246
 3279SOL    HW221474   4.500   0.296  11.038 -1.1110 -2.0258 -1.7551
 3280SOL     OW21475   2.682   1.611   1.669  0.4397 -0.2091  0.0629
 3280SOL    HW121476   2.613   1.589   1.732  0.7315 -3.1534 -0.6601
 3280SOL    HW221477   2.759   1.620   1.725  1.5572 -1.3861 -1.2893
 3281SOL     OW21478   3.903   3.490  15.598 -0.2111  0.5790  0.1656
 3281SOL    HW121479   3.977   3.533  15.554 -0.7507  0.0483 -1.2716
 3281SOL    HW221480   3.956   3.437  15.658 -1.2532  1.0173  1.4598
 3282SOL     OW21481   0.705   2.143  11.872  0.2395 -0.1403  0.2687
 3282SOL    HW121482   0.767   2.182  11.810  2.6909 -1.1800  2.0524
 3282SOL    HW221483   0.757   2.063  11.883 -0.7936 -1.0449 -1.4968
 3283SOL     OW21484   0.561   3.220   4.366 -0.0713  0.4938  0.0129
 3283SOL    HW121485   0.509   3.165   4.309 -1.0698  2.6167 -1.1418
 3283SOL    HW221486   0.541   3.307   4.331  0.3062  0.6081  0.0792
 3284SOL     OW21487   0.250   1.539   4.515 -0.3128  0.0853  0.6243
 3284SOL    HW121488   0.240   1.614   4.574 -1.4415 -0.5641  1.2663
 3284SOL    HW221489   0.210   1.564   4.432 -0.8135 -0.2644  0.7627
 3285SOL     OW21490   2.629   3.380   2.469  0.5274  0.3596  0.1063
 3285SOL    HW121491   2.572   3.455   2.448  1.1910  0.7981 -0.1381
 3285SOL    HW221492   2.603   3.331   2.390 -0.3699 -0.6779  1.0515
 3286SOL     OW21493   4.083   4.510   4.875  0.1507  0.1822  0.0842
 3286SOL    HW121494   4.079   4.415   4.885 -1.9674  0.2436 -0.2398
 3286SOL    HW221495   4.152   4.527   4.939  0.5643 -0.8092 -0.1026
 3287SOL     OW21496   2.815   1.400   2.704  0.9714 -0.1546 -0.1747
 3287SOL    HW121497   2.742   1.347   2.669 -0.9514  1.2504  1.7011
 3287SOL    HW221498   2.782   1.438   2.785 -0.6663  3.2601 -2.4112
 3288SOL     OW21499   2.628   1.647   0.625 -1.0845  0.0087  0.1612
 3288SOL    HW121500   2.536   1.646   0.600 -0.8952  2.7744 -0.6320
 3288SOL    HW221501   2.654   1.738   0.611 -1.8515  0.2470  0.2998
 3289SOL     OW21502   2.155   1.065  17.648 -0.4086 -0.1641 -0.4998
 3289SOL    HW121503   2.116   1.126  17.584 -1.4030  0.6376  0.8671
 3289SOL    HW221504   2.078   1.048  17.702  1.2229  0.0593  1.8821
 3290SOL     OW21505   0.764   0.083   9.372  0.0578  0.6345  0.1445
 3290SOL    HW121506   0.856   0.110   9.371  0.2269  0.0412 -0.3035
 3290SOL    HW221507   0.769   0.039   9.288 -2.4619 -0.2003  0.4365
 3291SOL     OW21508   4.011   3.078  15.670  0.2126  0.7275 -0.2049
 3291SOL    HW121509   4.040   3.160  15.709 -1.1685 -0.5700  3.6333
 3291SOL    HW221510   3.917   3.097  15.665 -0.3709 -1.9155  0.7071
 3292SOL     OW21511   2.043   3.943  14.303  0.7536 -0.1383 -0.1384
 3292SOL    HW121512   2.035   3.935  14.398  0.3736  0.3650 -0.1248
 3292SOL    HW221513   2.009   3.855  14.289 -0.9362  0.4457  0.2580
 3293SOL     OW21514   3.137   0.195   2.674  0.4526 -0.1802 -0.3079
 3293SOL    HW121515   3.156   0.283   2.708  1.2682 -0.4721 -0.0064
 3293SOL    HW221516   3.068   0.211   2.610 -0.8137 -2.2406  0.5800
 3294SOL     OW21517   4.339   4.380   7.021 -0.1075  0.1891 -0.0934
 3294SOL    HW121518   4.321   4.373   6.927 -0.5547  0.3576 -0.0192
 3294SOL    HW221519   4.333   4.472   7.045 -2.2514 -0.1082  0.5393
 3295SOL     OW21520   0.450   3.201   2.180 -0.3606 -0.2561  0.1245
 3295SOL    HW121521   0.394   3.278   2.189  1.2919  1.1467 -1.6320
 3295SOL    HW221522   0.519   3.230   2.121  0.1813 -2.4490 -0.3480
 3296SOL     OW21523   0.812   3.376   7.139 -0.2849  0.9220 -0.2819
 3296SOL    HW121524   0.890   3.411   7.097 -0.6021 -0.6755 -2.1856
 3296SOL    HW221525   0.838   3.375   7.231  0.1240  1.0271 -0.3970
 3297SOL     OW21526   1.733   4.218  16.532  0.1242  0.2133  0.2819
 3297SOL    HW121527   1.674   4.231  16.458 -0.2134 -0.8257  0.3696
 3297SOL    HW221528   1.700   4.141  16.578  2.2561 -2.5502 -2.9287
 3298SOL     OW21529   3.109   1.171   9.789 -0.1042  0.2952  0.4647
 3298SOL    HW121530   3.105   1.251   9.841 -1.2324  0.7870 -0.3612
 3298SOL    HW221531   3.051   1.192   9.715  0.1983  0.7444  0.3503
 3299SOL     OW21532   1.637   2.503  10.899 -0.2939 -0.6764 -0.0548
 3299SOL    HW121533   1.607   2.428  10.950 -1.3483  0.2518  0.6925
 3299SOL    HW221534   1.689   2.544  10.968 -2.8396  2.5282 -0.0380
 3300SOL     OW21535   3.024   3.942  14.162  0.3222  0.1901  0.2275
 3300SOL    HW121536   2.953   3.882  14.185  0.2910 -0.2033 -0.8780
 3300SOL    HW221537   3.009   4.014  14.223  0.0082  0.6103 -0.3430
 3301SOL     OW21538   3.947   1.022   3.875  0.0945  0.2512  0.3008
 3301SOL    HW121539   3.863   1.063   3.854 -0.2857 -1.3423 -1.2470
 3301SOL    HW221540   3.959   0.974   3.793 -0.2772  0.0312  0.3812
 3302SOL     OW21541   0.269   3.803   7.635 -0.4639 -0.4009  0.1382
 3302SOL    HW121542   0.184   3.760   7.622 -0.4446 -0.7616  1.1906
 3302SOL    HW221543   0.302   3.792   7.546 -0.7696  0.1247 -0.0359
 3303SOL     OW21544   4.609   3.787   6.241  0.2050  0.2519  0.4405
 3303SOL    HW121545   4.625   3.785   6.146  0.1168  1.2271  0.4010
 3303SOL    HW221546   4.517   3.815   6.247 -0.1924 -0.5869 -1.4596
 3304SOL     OW21547   2.781   4.526   3.607  0.1065 -0.4521 -0.3745
 3304SOL    HW121548   2.719   4.594   3.632  1.7157  0.3522  1.4823
 3304SOL    HW221549   2.819   4.569   3.530 -0.8589  1.7406  0.3835
 3305SOL     OW21550   0.083   2.417   6.712  0.4663 -0.2464  0.3706
 3305SOL    HW121551   0.143   2.434   6.784  1.5978  3.3442 -1.3766
 3305SOL    HW221552   0.048   2.332   6.736 -0.4968  0.1384  0.3085
 3306SOL     OW21553   1.299   0.216   9.918  0.0322  0.1431 -0.4163
 3306SOL    HW121554   1.206   0.194   9.931  0.7958 -2.1066  1.2878
 3306SOL    HW221555   1.328   0.147   9.978  0.1247 -0.0656 -0.7035
 3307SOL     OW21556   2.444   2.777   6.599  0.3141  0.0793 -0.0061
 3307SOL    HW121557   2.540   2.779   6.596  0.3120  1.8804  1.4892
 3307SOL    HW221558   2.429   2.856   6.650 -0.1805 -0.1902  0.2660
 3308SOL     OW21559   3.866   3.313   2.177  0.2163  0.1290  0.0280
 3308SOL    HW121560   3.907   3.336   2.094 -0.4546 -3.4009 -1.2901
 3308SOL    HW221561   3.805   3.240   2.165 -0.0736  0.1974  1.0884
 3309SOL     OW21562   4.271   1.336   4.265 -0.0813 -0.3786 -0.6118
 3309SOL    HW121563   4.176   1.340   4.260 -0.1365 -0.1425  0.6199
 3309SOL    HW221564   4.280   1.375   4.352  0.6987 -1.1128 -0.3673
 3310SOL     OW21565   0.818   2.214   7.711 -0.1086  0.4607  0.2551
 3310SOL    HW121566   0.759   2.282   7.743 -0.6546 -0.6900  1.7026
 3310SOL    HW221567   0.837   2.158   7.786 -0.9087  1.6854  1.3594
 3311SOL     OW21568   2.049   4.308  11.709  0.0266 -0.2152 -0.1863
 3311SOL    HW121569   2.131   4.323  11.663  0.7824  2.1607  1.9425
 3311SOL    HW221570   1.984   4.337  11.644 -1.5296  0.7367  1.7696
 3312SOL     OW21571   1.022   1.556   1.944  0.1364  0.0834 -0.9513
 3312SOL    HW121572   0.930   1.580   1.954  0.1811  0.2910 -1.0334
 3312SOL    HW221573   1.059   1.633   1.900  0.6125  3.0010  4.5010
 3313SOL     OW21574   4.431   3.123  10.597 -0.0986  0.3706 -0.1062
 3313SOL    HW121575   4.524   3.106  10.591  0.1648  1.5151  0.5826
 3313SOL    HW221576   4.419   3.169  10.681 -0.6744 -1.2036  0.6738
 3314SOL     OW21577   2.854   2.190   9.396  0.1226 -0.1601  0.1941
 3314SOL    HW121578   2.920   2.180   9.328  0.6137  3.2391  0.1754
 3314SOL    HW221579   2.904   2.164   9.474  1.3407  1.5560 -0.0025
 3315SOL     OW21580   0.150   2.955   5.992 -0.0306  0.2891  0.7777
 3315SOL    HW121581   0.210   2.951   5.918 -0.5885  1.1485  0.2807
 3315SOL    HW221582   0.220   2.967   6.057 -0.2203 -1.9614  1.4257
 3316SOL     OW21583   2.488   2.451  10.344  0.0722  0.0195 -0.7703
 3316SOL    HW121584   2.409   2.469  10.395  1.0959  2.2461  0.0123
 3316SOL    HW221585   2.535   2.404  10.413 -1.0783 -0.6117 -0.4266
 3317SOL     OW21586   2.269   4.280   2.540  0.0174  0.2886  0.2380
 3317SOL    HW121587   2.301   4.191   2.552 -0.5946  0.0513  0.1164
 3317SOL    HW221588   2.322   4.320   2.609  0.6914  0.1670 -0.2124
 3318SOL     OW21589   2.097   0.965   5.594  0.2415 -0.6514  0.0237
 3318SOL    HW121590   2.010   0.973   5.555  1.3444  1.5159 -1.9416
 3318SOL    HW221591   2.081   0.934   5.683 -1.4230 -0.9078 -0.3633
 3319SOL     OW21592   3.833   4.049   6.785 -0.4428 -0.1101  0.6438
 3319SOL    HW121593   3.873   4.092   6.860 -1.1587  1.0889  0.3328
 3319SOL    HW221594   3.749   4.023   6.824  0.0061 -2.6460 -0.0647
 3320SOL     OW21595   4.664   1.699   1.138 -0.9103 -0.7868  0.3344
 3320SOL    HW121596   4.713   1.641   1.079  0.4493 -0.7095  1.3963
 3320SOL    HW221597   0.004   1.736   1.183 -0.8703 -1.0466  0.4843
 3321SOL     OW21598   3.804   1.890  15.053  0.6708 -0.1156  0.8223
 3321SOL    HW121599   3.874   1.834  15.086  1.4488  1.1424  1.2929
 3321SOL    HW221600   3.856   1.970  15.045 -1.0101  0.6500 -2.4846
 3322SOL     OW21601   2.456   2.601   8.093  0.0692 -0.0184  0.2295
 3322SOL    HW121602   2.466   2.669   8.027 -0.2478 -0.2653 -0.0718
 3322SOL    HW221603   2.527   2.635   8.148  1.4549 -3.1966  0.4321
 3323SOL     OW21604   1.946   0.706   1.673 -0.2499 -0.9957  0.5116
 3323SOL    HW121605   1.983   0.778   1.621 -1.9339 -0.7448 -0.3398
 3323SOL    HW221606   1.983   0.634   1.622  0.1211 -0.9713  0.7455
 3324SOL     OW21607   4.269   1.837   1.038 -0.9790  0.8863  0.4758
 3324SOL    HW121608   4.324   1.770   1.078 -1.8605 -0.1701 -0.1075
 3324SOL    HW221609   4.244   1.891   1.113 -4.4553  2.7086 -1.9917
 3325SOL     OW21610   4.027   2.548   3.331  0.1231  0.1362  0.3968
 3325SOL    HW121611   3.958   2.605   3.365 -0.3124 -0.1590 -0.0036
 3325SOL    HW221612   4.081   2.544   3.410 -0.0072 -0.6099  0.4486
 3326SOL     OW21613   1.814   2.508   8.756  0.5228  0.2582 -0.5750
 3326SOL    HW121614   1.853   2.534   8.673 -0.5363  0.5836 -0.9673
 3326SOL    HW221615   1.885   2.535   8.815 -0.8953  2.2461  0.2209
 3327SOL     OW21616   1.388   1.496   3.076 -0.1874 -0.1263  0.2418
 3327SOL    HW121617   1.366   1.572   3.129 -0.3770  0.3250 -0.4755
 3327SOL    HW221618   1.335   1.423   3.106  1.5378 -1.8446 -0.8883
 3328SOL     OW21619   3.679   4.595   4.171  0.3690 -0.2287 -0.1482
 3328SOL    HW121620   3.706   4.669   4.116  2.3513  0.7399  2.1124
 3328SOL    HW221621   3.761   4.551   4.149 -0.8937 -1.3445 -2.6177
 3329SOL     OW21622   1.883   2.456   6.924 -0.0385  0.0349  0.2434
 3329SOL    HW121623   1.907   2.366   6.945  4.3344  1.1820  0.2582
 3329SOL    HW221624   1.797   2.438   6.886  1.0362 -1.3955 -1.5138
 3330SOL     OW21625   4.144   4.291  17.130 -0.3050 -0.3837  0.0125
 3330SOL    HW121626   4.143   4.351  17.055 -0.3395 -1.4970 -0.8856
 3330SOL    HW221627   4.201   4.340  17.189  1.8692 -0.9611 -1.6283
 3331SOL     OW21628   3.729   1.884   3.244  0.7793  0.1268  0.1041
 3331SOL    HW121629   3.693   1.820   3.305  1.7031  0.7584  1.3056
 3331SOL    HW221630   3.749   1.957   3.303 -0.3963 -0.6293  1.4208
 3332SOL     OW21631   0.165   1.886   5.448 -0.3506  0.6003  0.1224
 3332SOL    HW121632   0.109   1.934   5.387 -0.1854 -0.5143 -0.9004
 3332SOL    HW221633   0.106   1.820   5.486 -0.2095 -0.5960 -1.7610
 3333SOL     OW21634   3.235   3.509   4.994  0.3728 -0.1211  0.5535
 3333SOL    HW121635   3.240   3.496   5.088  0.0790  2.0760  0.8734
 3333SOL    HW221636   3.155   3.560   4.977  0.1006 -0.8596 -0.4095
 3334SOL     OW21637   2.253   0.661   7.625  0.2783 -0.2761  0.0506
 3334SOL    HW121638   2.255   0.694   7.715 -0.3369  0.8522 -0.3504
 3334SOL    HW221639   2.244   0.740   7.571 -2.9296 -1.1977 -0.8008
 3335SOL     OW21640   2.116   2.924   2.780  0.0346  0.6774  0.0702
 3335SOL    HW121641   2.157   2.903   2.864  0.0990  0.0092 -0.1257
 3335SOL    HW221642   2.139   2.849   2.725  2.3153  0.6586  1.0588
 3336SOL     OW21643   0.896   0.197   5.122  0.9337 -0.1534  0.7728
 3336SOL    HW121644   0.928   0.284   5.096  3.8444 -1.0872  1.2356
 3336SOL    HW221645   0.978   0.158   5.153  1.1064 -1.3376 -1.1769
 3337SOL     OW21646   2.852   3.334   8.386 -0.2078 -0.0476 -0.2848
 3337SOL    HW121647   2.777   3.364   8.334 -2.1652 -1.7317  1.5329
 3337SOL    HW221648   2.902   3.414   8.369 -0.2756  0.0112 -0.2118
 3338SOL     OW21649   2.101   3.087  10.325 -0.0452  0.6126  0.1331
 3338SOL    HW121650   2.166   3.142  10.368  0.5945 -2.1171  2.6770
 3338SOL    HW221651   2.153   3.007  10.322 -2.6202 -1.0350 -0.6552
 3339SOL     OW21652   1.556   0.078   9.200  0.6388 -0.1612 -0.6522
 3339SOL    HW121653   1.494   0.140   9.161  1.4562  0.2249 -1.3407
 3339SOL    HW221654   1.574   0.125   9.281  2.7730 -0.6659 -0.8247
 3340SOL     OW21655   2.697   4.325  15.771  0.0302 -0.0122 -0.2891
 3340SOL    HW121656   2.778   4.368  15.744 -0.3817  0.2511 -1.0898
 3340SOL    HW221657   2.647   4.406  15.781  0.5896  0.3449 -0.3981
 3341SOL     OW21658   2.129   3.021  11.175 -0.2954 -0.0038  0.2460
 3341SOL    HW121659   2.147   3.048  11.265  0.0962  0.3808  0.0572
 3341SOL    HW221660   2.070   3.085  11.136  1.8850 -0.7847 -4.3530
 3342SOL     OW21661   2.207   2.193   8.799 -0.1804  1.1892 -0.0574
 3342SOL    HW121662   2.126   2.245   8.802 -2.1852 -1.9386  0.0582
 3342SOL    HW221663   2.268   2.259   8.766  1.1126 -0.0624 -0.1554
 3343SOL     OW21664   4.148   0.066   8.687 -0.2794 -0.0755  0.0789
 3343SOL    HW121665   4.145   0.105   8.774 -0.9863 -0.1269  0.0802
 3343SOL    HW221666   4.155   4.710   8.714  3.4240 -0.4377 -2.1292
 3344SOL     OW21667   2.247   0.403  16.914  0.2849 -0.2561 -0.2818
 3344SOL    HW121668   2.155   0.417  16.937  0.8725  1.1784  1.2015
 3344SOL    HW221669   2.289   0.426  16.997 -0.8563  0.3337  0.1326
 3345SOL     OW21670   4.148   0.120   5.925 -0.5701  0.1555 -0.0891
 3345SOL    HW121671   4.098   0.082   5.853 -2.5535  1.6877  0.4859
 3345SOL    HW221672   4.229   0.145   5.880 -1.0224 -3.4915 -2.8520
 3346SOL     OW21673   4.378   2.998   4.046 -0.4038  0.2813  0.2393
 3346SOL    HW121674   4.329   3.058   3.990  2.5376  0.4051 -2.2679
 3346SOL    HW221675   4.307   2.936   4.063 -0.0890 -0.5325 -1.3740
 3347SOL     OW21676   4.519   1.953   0.204 -0.3037  0.4283 -0.2294
 3347SOL    HW121677   4.428   1.980   0.217 -0.7255 -1.2760  0.2757
 3347SOL    HW221678   4.514   1.862   0.175 -1.8022  0.6461 -0.6355
 3348SOL     OW21679   2.392   1.790  10.240  0.4788  0.0601 -0.0451
 3348SOL    HW121680   2.351   1.717  10.285 -0.7034 -0.4527 -1.9347
 3348SOL    HW221681   2.478   1.749  10.241  1.2553  1.6140 -2.2827
 3349SOL     OW21682   2.792   1.459   7.884 -0.2960  0.2084  0.1522
 3349SOL    HW121683   2.884   1.438   7.902 -0.5523 -0.6480  0.4612
 3349SOL    HW221684   2.765   1.381   7.836 -0.4770  0.8175 -0.7290
 3350SOL     OW21685   4.058   2.705   7.456 -0.1443  0.2197  0.2029
 3350SOL    HW121686   4.009   2.626   7.479  0.2061 -0.6735 -2.0470
 3350SOL    HW221687   4.142   2.679   7.491  1.0758 -0.5451 -3.2967
 3351SOL     OW21688   0.679   0.518   6.014 -0.0930 -0.2197 -0.3771
 3351SOL    HW121689   0.651   0.491   6.101  1.9673  2.1695  1.0244
 3351SOL    HW221690   0.691   0.431   5.976 -2.8209 -0.7337 -0.0798
 3352SOL     OW21691   0.929   2.791   2.955 -1.0065 -0.3338 -0.8454
 3352SOL    HW121692   0.897   2.745   3.033  0.2899  0.9740  0.4708
 3352SOL    HW221693   0.880   2.751   2.884 -0.3564 -0.4471 -1.2332
 3353SOL     OW21694   0.281   2.941   2.092  0.0466  0.7444  0.1949
 3353SOL    HW121695   0.304   2.998   2.165 -1.5700  1.1117  0.4195
 3353SOL    HW221696   0.206   2.893   2.128 -0.1808  2.4317  1.9308
 3354SOL     OW21697   2.726   3.624   2.850  0.4343  0.2526 -0.4141
 3354SOL    HW121698   2.654   3.669   2.896 -1.1674 -1.2426 -1.4622
 3354SOL    HW221699   2.795   3.672   2.895  0.0792 -0.0088  0.4224
 3355SOL     OW21700   2.064   3.650   4.026  0.4783 -0.4531 -0.1666
 3355SOL    HW121701   2.130   3.672   4.092 -0.9589 -0.6855  1.3445
 3355SOL    HW221702   2.111   3.669   3.945  1.1905 -1.5309 -0.0162
 3356SOL     OW21703   3.417   4.491   7.634 -0.0732 -0.3351  0.2565
 3356SOL    HW121704   3.501   4.500   7.679 -0.0877 -1.0117  0.4062
 3356SOL    HW221705   3.382   4.580   7.648  0.5914  0.3606 -2.5397
 3357SOL     OW21706   0.358   1.705   3.131  0.1874 -0.2181  0.3405
 3357SOL    HW121707   0.371   1.618   3.170  0.9132 -0.7859 -1.1489
 3357SOL    HW221708   0.401   1.688   3.047  0.5009  1.3697  0.1855
 3358SOL     OW21709   4.438   3.617   4.385 -0.0169  0.1521  0.0255
 3358SOL    HW121710   4.487   3.538   4.409  0.9961  1.0704  1.0193
 3358SOL    HW221711   4.470   3.633   4.296 -1.2499 -0.9877 -0.6233
 3359SOL     OW21712   3.536   3.963   0.897 -0.3105  0.7241  0.3708
 3359SOL    HW121713   3.615   3.962   0.844  0.0432  1.3633  0.8903
 3359SOL    HW221714   3.476   3.916   0.839  0.3080 -0.4766  0.6977
 3360SOL     OW21715   3.119   2.961  14.623 -0.4064 -0.4607  0.4882
 3360SOL    HW121716   3.163   2.902  14.685 -0.3920  0.0018  0.9163
 3360SOL    HW221717   3.191   2.979  14.562 -1.4098 -0.5033 -0.7198
 3361SOL     OW21718   3.820   1.291   4.845 -0.5485 -0.2269  0.0161
 3361SOL    HW121719   3.840   1.384   4.843 -0.4930 -0.1925  1.8431
 3361SOL    HW221720   3.788   1.282   4.936  4.8075  2.1994  2.1139
 3362SOL     OW21721   2.869   4.420   4.379  0.3185 -0.5188  0.1806
 3362SOL    HW121722   2.898   4.375   4.458  1.1805 -0.0092  0.1522
 3362SOL    HW221723   2.778   4.390   4.371 -0.1347  0.5748  1.2527
 3363SOL     OW21724   4.702   3.788   8.246 -0.2010  0.3432 -0.6415
 3363SOL    HW121725   4.695   3.778   8.340 -0.8305  0.7042 -0.6525
 3363SOL    HW221726   0.012   3.705   8.233 -1.0488 -0.1288 -0.5718
 3364SOL     OW21727   4.039   4.491   6.161  0.0366 -0.4455 -0.2290
 3364SOL    HW121728   4.087   4.572   6.179 -0.3342 -0.3968  0.5184
 3364SOL    HW221729   4.116   4.435   6.157 -0.8478 -1.6217 -0.6721
 3365SOL     OW21730   0.633   0.010   2.582  0.3685 -0.0450 -0.7993
 3365SOL    HW121731   0.630   4.650   2.578 -1.1663 -0.1298  2.5767
 3365SOL    HW221732   0.662   0.019   2.673  0.9435  1.6959 -1.1449
 3366SOL     OW21733   3.690   1.239   2.059 -0.6825  0.1785 -0.0170
 3366SOL    HW121734   3.751   1.305   2.027 -0.0825  0.2378  1.2538
 3366SOL    HW221735   3.703   1.253   2.153 -1.3922 -0.8199  0.2284
 3367SOL     OW21736   2.531   4.710   1.205 -0.1181  0.0306  0.8414
 3367SOL    HW121737   2.591   4.638   1.222  1.9327  1.1173 -1.8103
 3367SOL    HW221738   2.562   4.732   1.117 -0.5146 -2.5957  0.0510
 3368SOL     OW21739   3.808   4.623   1.478 -0.3950 -0.2969  0.2601
 3368SOL    HW121740   3.810   4.634   1.383 -0.2380  1.5163  0.4738
 3368SOL    HW221741   3.819   4.528   1.487 -1.7366 -0.3783  1.0953
 3369SOL     OW21742   4.295   1.660   2.841 -0.4373 -0.2397 -0.1866
 3369SOL    HW121743   4.250   1.575   2.840  0.2143 -0.5915  1.7996
 3369SOL    HW221744   4.228   1.706   2.790  0.2869  1.8445  0.7591
 3370SOL     OW21745   4.562   1.718   4.137 -0.5738  0.2336 -0.1947
 3370SOL    HW121746   4.587   1.687   4.225 -1.1645  2.3224  0.7015
 3370SOL    HW221747   4.617   1.670   4.076 -1.0432 -1.0196  0.3427
 3371SOL     OW21748   4.499   2.685   2.361  0.3540 -0.5590  0.0335
 3371SOL    HW121749   4.404   2.674   2.361  0.2990 -0.1203 -0.3516
 3371SOL    HW221750   4.499   2.776   2.390 -1.8354 -0.4296 -0.3635
 3372SOL     OW21751   2.364   2.971   8.306  0.0453  0.3599 -0.1854
 3372SOL    HW121752   2.368   3.066   8.296 -2.8466  0.7991  2.7387
 3372SOL    HW221753   2.397   2.945   8.220  0.9280  0.7430  0.0346
 3373SOL     OW21754   2.561   0.946   0.363  0.2550 -0.3969 -0.3179
 3373SOL    HW121755   2.526   0.865   0.399  1.6175 -1.3045 -1.0604
 3373SOL    HW221756   2.653   0.923   0.347  0.9611  0.9033  1.8546
 3374SOL     OW21757   0.381   4.582   0.780 -0.6529  0.1487  0.3582
 3374SOL    HW121758   0.459   4.526   0.780 -0.8581 -0.1430  1.2737
 3374SOL    HW221759   0.395   4.651   0.845  2.3418  0.6994 -0.8604
 3375SOL     OW21760   3.767   0.371   7.276  0.6750 -0.0712  0.5880
 3375SOL    HW121761   3.676   0.350   7.257  1.0477 -1.6239  0.5017
 3375SOL    HW221762   3.805   0.382   7.188  3.5773 -1.7610  1.6124
 3376SOL     OW21763   0.798   1.380   4.047  0.4995 -0.2783 -0.5159
 3376SOL    HW121764   0.812   1.474   4.045  1.1044 -0.3827 -1.2527
 3376SOL    HW221765   0.791   1.357   3.954  2.3971 -1.5528 -0.3516
 3377SOL     OW21766   3.562   1.026   1.425  0.1363  0.3150  0.0600
 3377SOL    HW121767   3.630   0.969   1.461  0.9840  0.0862 -1.9046
 3377SOL    HW221768   3.523   1.065   1.503 -2.6194  1.4971 -1.9276
 3378SOL     OW21769   3.689   4.689   5.319  0.2882  0.1209  0.1857
 3378SOL    HW121770   3.784   4.682   5.326  0.0980 -0.8313  1.8202
 3378SOL    HW221771   3.669   0.038   5.359  0.2968  1.3675 -2.4550
 3379SOL     OW21772   4.618   2.865   8.698 -0.1322  0.1276 -0.0173
 3379SOL    HW121773   4.675   2.790   8.680  0.9098  0.5376  1.6581
 3379SOL    HW221774   4.652   2.932   8.638  0.1658 -0.1396 -0.1456
 3380SOL     OW21775   1.761   0.101   5.529 -0.7484  0.1363 -0.2057
 3380SOL    HW121776   1.697   0.172   5.527 -0.0605  0.6991 -1.9791
 3380SOL    HW221777   1.755   0.066   5.441 -0.4981  0.6749 -0.4383
 3381SOL     OW21778   3.820   0.972  15.651  0.1213  0.6199  0.4958
 3381SOL    HW121779   3.811   0.878  15.668 -0.2775  0.5022 -0.3787
 3381SOL    HW221780   3.749   1.012  15.701  0.1521  1.2156  0.0521
 3382SOL     OW21781   2.690   3.198   6.121 -0.9684 -0.1700  0.0326
 3382SOL    HW121782   2.601   3.165   6.109 -0.6486  0.6082 -4.5465
 3382SOL    HW221783   2.665   3.288   6.142  0.1159  0.6237 -2.1575
 3383SOL     OW21784   1.502   3.785   4.751 -0.2259 -0.2482 -0.7749
 3383SOL    HW121785   1.442   3.736   4.695  0.6504 -0.1244 -1.7954
 3383SOL    HW221786   1.514   3.718   4.818  2.6274  0.9931 -0.0759
 3384SOL     OW21787   1.212   1.487   6.049  0.3606  0.2601 -0.7043
 3384SOL    HW121788   1.281   1.497   5.983 -1.6476 -2.1598 -3.1727
 3384SOL    HW221789   1.151   1.423   6.012  1.2430 -0.4016 -0.9876
 3385SOL     OW21790   2.037   0.204   5.533  0.0862  0.0645 -0.0077
 3385SOL    HW121791   2.025   0.239   5.622  0.8275 -0.2462  0.2147
 3385SOL    HW221792   1.948   0.177   5.508 -0.3168  1.7556 -0.4222
 3386SOL     OW21793   2.612   2.506  12.424  0.1071  0.0133 -0.1503
 3386SOL    HW121794   2.642   2.421  12.457 -1.5698 -0.7804 -0.6790
 3386SOL    HW221795   2.517   2.497  12.419  0.0970  0.3772 -0.6088
 3387SOL     OW21796   3.520   1.719   7.798  0.3114  0.2572 -0.4423
 3387SOL    HW121797   3.601   1.770   7.806  0.1758  0.5052 -0.6395
 3387SOL    HW221798   3.551   1.637   7.836 -0.4684  0.2897  0.2730
 3388SOL     OW21799   2.459   2.851   2.277  0.4077 -0.0880  0.4444
 3388SOL    HW121800   2.428   2.814   2.193 -1.8765 -0.5147  1.4755
 3388SOL    HW221801   2.374   2.872   2.314  0.3628  0.5001  0.0085
 3389SOL     OW21802   0.491   0.553   6.770  0.5349  0.0368  0.0667
 3389SOL    HW121803   0.472   0.606   6.847  0.4331  1.6804 -1.0749
 3389SOL    HW221804   0.414   0.497   6.774 -1.2709  2.3024 -3.0067
 3390SOL     OW21805   1.328   4.557  12.260 -0.0347 -0.2720  0.2144
 3390SOL    HW121806   1.307   4.541  12.168 -2.7460  1.7931  0.4776
 3390SOL    HW221807   1.358   4.469  12.285  1.2262  0.2218  0.4461
 3391SOL     OW21808   3.447   0.331   7.741  0.0206  0.6355  0.7709
 3391SOL    HW121809   3.522   0.275   7.760  0.0065 -0.0968 -1.3759
 3391SOL    HW221810   3.382   0.261   7.747 -0.9112  1.4914  0.7225
 3392SOL     OW21811   3.189   2.319   3.162 -0.4068 -0.4949 -0.5267
 3392SOL    HW121812   3.162   2.313   3.071  2.3403  0.2374 -1.3674
 3392SOL    HW221813   3.267   2.265   3.153 -1.5203 -2.0967 -0.6116
 3393SOL     OW21814   4.082   1.558  17.720 -0.1006 -0.3592  0.0769
 3393SOL    HW121815   4.089   1.464  17.708  2.2099  0.0141 -1.5710
 3393SOL    HW221816   4.175   1.564  17.740  0.3390  0.3952 -2.1279
 3394SOL     OW21817   0.530   1.895   9.954  0.8802  0.1539  0.1664
 3394SOL    HW121818   0.611   1.848   9.973  1.4950  1.3339  0.5095
 3394SOL    HW221819   0.477   1.871  10.030 -1.8122 -1.8524 -2.4000
 3395SOL     OW21820   2.299   2.026   1.995 -0.2140  0.3431 -0.2770
 3395SOL    HW121821   2.383   2.004   1.954 -0.8154  1.0591 -1.8737
 3395SOL    HW221822   2.298   2.121   2.010  0.1182  0.2652  0.2661
 3396SOL     OW21823   0.996   2.359   5.824  0.6610  0.1313 -0.3722
 3396SOL    HW121824   0.954   2.378   5.740 -1.3780 -0.0125  0.6060
 3396SOL    HW221825   1.016   2.449   5.850  0.0138  0.3616 -0.6682
 3397SOL     OW21826   2.029   0.307   9.825  0.3432 -0.3265  0.6839
 3397SOL    HW121827   1.979   0.385   9.804 -1.2819 -1.8881 -1.1360
 3397SOL    HW221828   2.085   0.307   9.747  1.0164 -0.4852  1.1560
 3398SOL     OW21829   0.033   4.669   7.691  0.2740 -0.2462  0.0311
 3398SOL    HW121830   0.113   4.694   7.645 -0.7700 -1.2559 -2.3214
 3398SOL    HW221831   0.053   4.697   7.780 -2.2231  2.4280 -0.2737
 3399SOL     OW21832   4.165   1.573   7.714 -0.3609 -0.0510 -0.8560
 3399SOL    HW121833   4.224   1.527   7.654 -0.4965  0.2088 -1.1855
 3399SOL    HW221834   4.106   1.601   7.644 -1.2080  3.2300  1.1726
 3400SOL     OW21835   4.062   3.181   2.488  1.1520  0.1896  0.4752
 3400SOL    HW121836   4.109   3.201   2.407  0.0854 -0.2980 -0.2693
 3400SOL    HW221837   4.039   3.269   2.518 -0.1838 -0.0522  0.1847
 3401SOL     OW21838   0.512   4.426   2.431  0.0475  0.0092 -0.5849
 3401SOL    HW121839   0.479   4.454   2.516  1.0199 -1.7194  0.3674
 3401SOL    HW221840   0.525   4.333   2.451 -0.6938 -0.0378 -0.3384
 3402SOL     OW21841   1.591   1.798  12.891  0.8423  0.2098 -0.0871
 3402SOL    HW121842   1.645   1.828  12.964  0.8697  0.7257 -0.3235
 3402SOL    HW221843   1.596   1.703  12.905  0.4289  0.1649 -0.2471
 3403SOL     OW21844   3.451   2.933   0.847  0.0172  0.5307 -0.4268
 3403SOL    HW121845   3.465   3.026   0.863 -0.0519  0.5947 -0.7337
 3403SOL    HW221846   3.400   2.896   0.919  0.0514  0.6375 -0.3479
 3404SOL     OW21847   2.117   2.067   7.557  0.1655 -0.2958  0.0032
 3404SOL    HW121848   2.168   2.143   7.586  1.0882 -0.0391 -2.2754
 3404SOL    HW221849   2.080   2.044   7.642 -1.5667 -2.3598 -1.3091
 3405SOL     OW21850   3.964   4.700   6.464  0.1763  0.0079  0.3957
 3405SOL    HW121851   3.891   4.647   6.433 -1.4155  2.3892  0.1254
 3405SOL    HW221852   3.976   0.020   6.387 -2.1592 -1.7219 -1.2160
 3406SOL     OW21853   4.694   0.565   1.465  0.2438  0.1362  0.4724
 3406SOL    HW121854   4.614   0.521   1.495  0.2429  0.6358  1.2005
 3406SOL    HW221855   0.013   0.573   1.543  1.8097 -0.3539 -0.5879
 3407SOL     OW21856   0.134   2.235   2.964 -0.1950  0.2223 -0.5327
 3407SOL    HW121857   0.117   2.167   2.899 -2.7394  0.4940 -0.1445
 3407SOL    HW221858   0.068   2.298   2.932 -0.1091  0.1860 -0.7817
 3408SOL     OW21859   2.592   4.298   6.246  0.0053  0.2324 -0.0579
 3408SOL    HW121860   2.501   4.315   6.268  0.2481  0.2133  0.9431
 3408SOL    HW221861   2.627   4.281   6.333  1.6081  1.0679 -0.5400
 3409SOL     OW21862   2.290   3.411   9.140 -0.9573 -0.1361  0.6122
 3409SOL    HW121863   2.279   3.486   9.199  1.2979 -0.2534  1.1960
 3409SOL    HW221864   2.259   3.445   9.056 -1.0321 -1.5554  0.0623
 3410SOL     OW21865   1.354   2.067  15.239 -0.7033 -0.3794 -0.4227
 3410SOL    HW121866   1.408   2.146  15.236 -1.4695  0.0957 -1.9251
 3410SOL    HW221867   1.375   2.030  15.153  2.4077 -1.6594  0.9067
 3411SOL     OW21868   2.179   0.554   2.303  0.4952 -0.2489  0.4657
 3411SOL    HW121869   2.139   0.597   2.378 -1.0669 -2.2101  0.7668
 3411SOL    HW221870   2.114   0.500   2.258  2.2729  0.5234 -3.0629
 3412SOL     OW21871   0.447   1.577  12.625 -0.1517 -0.0453  0.2890
 3412SOL    HW121872   0.458   1.500  12.680  3.0168 -0.0372 -0.3411
 3412SOL    HW221873   0.427   1.641  12.693  0.0309 -0.2712  0.5537
 3413SOL     OW21874   4.279   0.215   1.384  0.3863 -0.3396  0.4425
 3413SOL    HW121875   4.241   0.259   1.460 -1.2566 -1.2284  0.1344
 3413SOL    HW221876   4.359   0.264   1.367 -0.4158  0.7088 -0.3323
 3414SOL     OW21877   0.573   2.409   5.022 -0.1499  0.3963  0.5075
 3414SOL    HW121878   0.622   2.465   5.081  2.2992  0.9316 -2.0423
 3414SOL    HW221879   0.568   2.333   5.080  0.2492 -1.5038 -1.9337
 3415SOL     OW21880   3.036   0.938   5.540 -0.2754 -0.2716  0.0428
 3415SOL    HW121881   2.941   0.927   5.531 -0.6258  1.2676  1.6983
 3415SOL    HW221882   3.076   0.888   5.469  1.2390  1.7291 -0.5189
 3416SOL     OW21883   0.320   2.092   4.957  0.0004  0.5813  0.5370
 3416SOL    HW121884   0.321   2.122   4.866  1.0945 -1.7099 -0.2183
 3416SOL    HW221885   0.341   2.000   4.936  0.8297  0.7477  0.6561
 3417SOL     OW21886   0.316   0.086   8.271  0.4779  0.0614 -0.6146
 3417SOL    HW121887   0.273   0.164   8.305 -0.8808 -1.1229  0.3928
 3417SOL    HW221888   0.367   0.049   8.344  0.7328 -0.5278 -1.0929
 3418SOL     OW21889   1.040   2.715   7.686  0.1038 -0.3303 -0.0956
 3418SOL    HW121890   1.014   2.644   7.744 -1.3300  0.2524 -0.0278
 3418SOL    HW221891   1.035   2.794   7.739 -1.2618  0.5470 -1.5273
 3419SOL     OW21892   1.623   3.435   5.628  0.1222 -0.8290  0.0945
 3419SOL    HW121893   1.534   3.470   5.632  0.9074  1.1292  0.6878
 3419SOL    HW221894   1.594   3.344   5.639 -1.4228 -0.1545  1.6411
 3420SOL     OW21895   0.915   4.358  10.219  0.2578  0.2591 -0.4627
 3420SOL    HW121896   0.972   4.377  10.293  0.1897 -0.3273 -0.2620
 3420SOL    HW221897   0.879   4.276  10.253  1.4758 -0.8528 -1.8532
 3421SOL     OW21898   0.231   0.727   8.541 -0.3286  0.2195  0.3920
 3421SOL    HW121899   0.291   0.781   8.489 -0.1208 -0.3423  0.0540
 3421SOL    HW221900   0.290   0.658   8.568  0.7204  1.4248  1.1558
 3422SOL     OW21901   3.557   2.440   0.875  0.2986 -0.1226  0.5584
 3422SOL    HW121902   3.509   2.369   0.832 -1.4590  0.5239  1.4897
 3422SOL    HW221903   3.482   2.479   0.919  1.1127  1.3815  0.6225
 3423SOL     OW21904   1.859   3.068   6.840  0.2412 -0.3240 -0.3813
 3423SOL    HW121905   1.926   3.076   6.907  1.3137 -0.8587 -1.3962
 3423SOL    HW221906   1.833   2.980   6.867 -0.3846  0.1550  0.5802
 3424SOL     OW21907   4.661   3.117   6.019 -0.5999  0.5065  0.2545
 3424SOL    HW121908   4.690   3.166   6.096  1.1972  0.6580 -0.5249
 3424SOL    HW221909   0.005   3.065   6.002  0.1131  1.1572  1.5810
 3425SOL     OW21910   0.856   3.080   5.922 -0.1829  0.1191 -0.8206
 3425SOL    HW121911   0.771   3.041   5.903 -1.0427  0.6988  1.8530
 3425SOL    HW221912   0.870   3.140   5.849  0.8841 -0.6116 -1.2229
 3426SOL     OW21913   2.516   3.788   7.209  0.1626 -0.1890 -1.0401
 3426SOL    HW121914   2.594   3.837   7.235 -0.8098  0.0612  1.3312
 3426SOL    HW221915   2.457   3.789   7.284  1.2792 -2.2555 -0.1535
 3427SOL     OW21916   1.529   3.069   0.704 -0.5156 -0.2984 -0.3814
 3427SOL    HW121917   1.569   2.983   0.696 -2.3232 -1.3648  1.8860
 3427SOL    HW221918   1.438   3.040   0.700 -0.1814 -1.5644  1.1098
 3428SOL     OW21919   0.166   3.114   8.644  0.4949  0.0433 -0.0644
 3428SOL    HW121920   0.154   3.127   8.739 -1.8014 -0.3879 -0.2840
 3428SOL    HW221921   0.096   3.175   8.619  0.3893 -0.7866 -1.7675
 3429SOL     OW21922   0.438   2.928   3.687 -0.6855  0.0099 -0.0043
 3429SOL    HW121923   0.384   3.006   3.698  0.2276  0.8568 -1.3061
 3429SOL    HW221924   0.376   2.873   3.639  0.5949  0.2592 -1.9570
 3430SOL     OW21925   4.285   3.598   9.562 -0.5995  0.2446 -0.2939
 3430SOL    HW121926   4.326   3.542   9.628 -3.7194  0.1542  1.5855
 3430SOL    HW221927   4.191   3.578   9.568 -0.1345 -1.7939  0.2538
 3431SOL     OW21928   2.736   2.517  14.160  0.1283 -0.1466  0.1730
 3431SOL    HW121929   2.824   2.487  14.184 -0.2530 -1.9425 -0.6653
 3431SOL    HW221930   2.688   2.495  14.240  0.0490  1.2927  0.5220
 3432SOL     OW21931   3.776   1.162   5.897  0.1133 -0.0959  0.6268
 3432SOL    HW121932   3.790   1.255   5.882 -0.3842 -0.2714 -0.9392
 3432SOL    HW221933   3.729   1.161   5.980  0.3704 -0.8939  0.7666
 3433SOL     OW21934   0.726   0.848  13.583  0.3794  0.2729  0.4003
 3433SOL    HW121935   0.708   0.928  13.533  1.3445 -0.2474 -0.7544
 3433SOL    HW221936   0.703   0.886  13.669 -0.2388  2.3256 -0.6559
 3434SOL     OW21937   2.685   3.975   4.073  0.3345 -0.1075 -0.5527
 3434SOL    HW121938   2.772   4.013   4.077  1.3322 -2.2137 -2.7473
 3434SOL    HW221939   2.705   3.882   4.079 -0.0467 -0.1788 -0.3567
 3435SOL     OW21940   0.297   0.377   7.289 -0.5691  0.4237  0.0776
 3435SOL    HW121941   0.335   0.321   7.357 -2.9568 -0.4088  0.7333
 3435SOL    HW221942   0.374   0.389   7.234  0.2656  0.3149  1.2148
 3436SOL     OW21943   2.145   4.489   7.679 -0.6046  0.2892  0.3264
 3436SOL    HW121944   2.107   4.517   7.762  1.7119  0.0615  1.4514
 3436SOL    HW221945   2.182   4.570   7.646  0.5392  0.6180  2.4308
 3437SOL     OW21946   4.650   1.318   3.204 -0.2649 -0.3615  0.3542
 3437SOL    HW121947   4.605   1.322   3.289  0.3578 -3.1782  0.8432
 3437SOL    HW221948   4.622   1.233   3.170  0.8117 -1.3553  1.9356
 3438SOL     OW21949   3.102   0.361   1.228  0.2475 -0.0161  0.0241
 3438SOL    HW121950   3.137   0.404   1.150 -1.2541 -1.3638 -1.4186
 3438SOL    HW221951   3.144   0.275   1.237 -2.6818 -1.5363 -0.4913
 3439SOL     OW21952   3.347   2.694   7.389 -0.6722 -0.2632  0.2785
 3439SOL    HW121953   3.433   2.653   7.400 -0.6501 -0.0452  0.9166
 3439SOL    HW221954   3.343   2.708   7.295  0.7930 -3.0596 -0.2102
 3440SOL     OW21955   2.686   0.982   2.682  0.2499  0.1703 -0.5472
 3440SOL    HW121956   2.602   0.936   2.672  0.6665 -1.0696  1.6801
 3440SOL    HW221957   2.681   1.003   2.775  0.8693  1.5561 -0.8410
 3441SOL     OW21958   2.334   3.714   8.141  0.1048  0.2161  0.0377
 3441SOL    HW121959   2.254   3.686   8.185  1.9594 -2.4439  1.6877
 3441SOL    HW221960   2.307   3.795   8.097 -0.1439  0.5163  0.7344
 3442SOL     OW21961   2.418   1.192  17.133  0.2319  0.6186 -0.6897
 3442SOL    HW121962   2.367   1.273  17.127 -1.3239 -0.3712 -0.9350
 3442SOL    HW221963   2.499   1.214  17.179 -0.5039  0.8050  0.5153
 3443SOL     OW21964   3.928   2.642   3.775  0.4358 -0.0485  0.2220
 3443SOL    HW121965   3.945   2.585   3.701 -2.3870 -2.3437  1.3721
 3443SOL    HW221966   3.991   2.596   3.831 -1.8993 -1.1650  1.9010
 3444SOL     OW21967   1.238   4.009   4.009 -0.1965 -0.0962  0.3729
 3444SOL    HW121968   1.154   4.022   4.052 -0.1095 -1.5774  0.9801
 3444SOL    HW221969   1.265   3.933   4.060 -1.3066 -1.2090 -0.6847
 3445SOL     OW21970   0.485   2.970  16.808  0.5286  0.5822  0.3564
 3445SOL    HW121971   0.417   2.971  16.876 -1.0475 -0.1743 -1.1876
 3445SOL    HW221972   0.493   2.876  16.796  0.3917  0.6937 -0.6044
 3446SOL     OW21973   1.206   0.334   3.381 -0.3260 -0.0693 -0.0771
 3446SOL    HW121974   1.206   0.417   3.333 -0.2996  0.7231  1.2919
 3446SOL    HW221975   1.197   0.369   3.470  1.4474 -0.7443  0.3703
 3447SOL     OW21976   2.459   4.168   7.943  0.0425 -0.4059 -0.4018
 3447SOL    HW121977   2.436   4.147   8.033  0.6349 -2.0675 -0.6351
 3447SOL    HW221978   2.368   4.184   7.917  0.6242  2.1921 -0.8279
 3448SOL     OW21979   3.639   3.719   5.868 -0.0553  0.1339 -0.3749
 3448SOL    HW121980   3.726   3.707   5.830  0.2905 -0.4628  0.5917
 3448SOL    HW221981   3.586   3.643   5.843 -0.0047 -0.0404  0.0374
 3449SOL     OW21982   3.437   0.764   0.178 -0.1378 -0.1038 -0.3622
 3449SOL    HW121983   3.516   0.732   0.223 -0.4931 -1.4413 -0.6897
 3449SOL    HW221984   3.447   0.859   0.183  0.7027 -0.2615  0.9869
 3450SOL     OW21985   4.436   3.721   7.207  0.2878  0.9404  0.1703
 3450SOL    HW121986   4.422   3.815   7.209 -3.9419  0.1956  3.5282
 3450SOL    HW221987   4.379   3.698   7.279 -0.4588 -1.7430 -1.2570
 3451SOL     OW21988   1.858   1.555   4.063 -0.1573 -0.5389  0.1738
 3451SOL    HW121989   1.806   1.534   4.141 -1.6365 -0.4486 -0.7936
 3451SOL    HW221990   1.813   1.489   4.010 -0.8076  0.5929 -0.6775
 3452SOL     OW21991   1.139   0.239  12.720 -0.3314  0.0006  0.0075
 3452SOL    HW121992   1.087   0.274  12.793 -1.0355  0.6515 -0.8132
 3452SOL    HW221993   1.074   0.185  12.676  1.5884 -1.9168 -0.5015
 3453SOL     OW21994   2.769   1.957  10.457 -0.2375  0.3851  0.0770
 3453SOL    HW121995   2.795   2.014  10.385 -1.4740  1.6662  0.6334
 3453SOL    HW221996   2.683   1.994  10.479 -0.2859  1.6654 -2.3071
 3454SOL     OW21997   3.986   2.244  14.436 -0.5864 -0.1849 -0.7870
 3454SOL    HW121998   3.956   2.161  14.474  0.9290 -0.7188 -0.7412
 3454SOL    HW221999   4.032   2.213  14.358 -0.1385 -0.3899 -0.4439
 3455SOL     OW22000   0.740   4.020   4.790 -0.6548  0.1913  0.1746
 3455SOL    HW122001   0.765   3.935   4.826 -1.6778  0.0662  0.5868
 3455SOL    HW222002   0.736   3.999   4.697 -0.1794  1.7658 -0.2029
 3456SOL     OW22003   1.915   1.852   9.524  0.6827 -0.3168 -0.1366
 3456SOL    HW122004   2.000   1.888   9.552  0.4360 -0.6779  1.0904
 3456SOL    HW222005   1.924   1.880   9.433 -0.9417  0.7544  0.0379
 3457SOL     OW22006   1.996   3.358   8.256 -0.2472 -0.4829 -0.5511
 3457SOL    HW122007   2.022   3.304   8.182  3.1964  1.2198 -0.5737
 3457SOL    HW222008   1.944   3.300   8.312  1.0465  0.9483  2.1867
 3458SOL     OW22009   3.595   1.710   1.784  0.0123  0.5416  0.6234
 3458SOL    HW122010   3.543   1.670   1.714  1.4858  2.9966 -1.8650
 3458SOL    HW222011   3.522   1.704   1.846 -1.5295  0.6268 -1.1845
 3459SOL     OW22012   3.050   1.157   6.052  0.3338 -0.1946  0.5720
 3459SOL    HW122013   2.999   1.236   6.068 -0.5688 -0.2215 -2.0541
 3459SOL    HW222014   3.014   1.137   5.965 -1.3348  1.5340  0.8529
 3460SOL     OW22015   2.964   3.060   8.656 -0.1121 -0.3127  0.6366
 3460SOL    HW122016   2.950   3.041   8.749  2.0501 -0.3415  0.9572
 3460SOL    HW222017   2.962   2.976   8.611 -2.1383  0.0526  0.0336
 3461SOL     OW22018   3.408   2.279   3.552  0.2170  0.7167  0.0473
 3461SOL    HW122019   3.351   2.338   3.502  1.3056 -0.2001 -2.2743
 3461SOL    HW222020   3.340   2.238   3.604  0.8740 -0.6514 -0.1696
 3462SOL     OW22021   2.787   2.578   1.133 -0.1379 -0.2657  0.1023
 3462SOL    HW122022   2.712   2.518   1.138  0.3192 -0.9205 -0.8811
 3462SOL    HW222023   2.741   2.662   1.133  0.7498  0.2158  0.2853
 3463SOL     OW22024   1.531   0.016  11.677  0.0073 -0.3491  0.8077
 3463SOL    HW122025   1.620   0.049  11.663  0.5239 -1.0537  2.3974
 3463SOL    HW222026   1.521   4.720  11.588 -0.4828  0.8403  0.4482
 3464SOL     OW22027   2.912   2.980   1.657  0.4977 -0.7900  0.2054
 3464SOL    HW122028   2.859   2.997   1.736 -0.1262 -0.6418 -0.2428
 3464SOL    HW222029   2.886   3.052   1.600 -3.2502 -1.2081  1.3501
 3465SOL     OW22030   2.725   0.661   2.416 -0.1558 -0.4112 -0.2917
 3465SOL    HW122031   2.634   0.640   2.438  0.7615 -3.2419  0.7222
 3465SOL    HW222032   2.720   0.743   2.366 -0.5570 -0.3207 -0.1043
 3466SOL     OW22033   1.123   2.600   6.556  0.0125 -0.2629 -0.3586
 3466SOL    HW122034   1.189   2.647   6.608 -1.0557 -0.2769  1.0074
 3466SOL    HW222035   1.164   2.517   6.532  0.6551 -0.8420  2.7364
 3467SOL     OW22036   3.971   1.959   7.476  0.3284 -0.1586 -0.2830
 3467SOL    HW122037   3.981   2.016   7.399  2.1685  0.2222  0.2383
 3467SOL    HW222038   3.905   2.015   7.517  0.9530  0.5350 -0.2215
 3468SOL     OW22039   3.024   2.018   3.710 -0.0558 -0.0171  1.1027
 3468SOL    HW122040   2.985   2.103   3.688 -0.1156  0.1028  1.6690
 3468SOL    HW222041   3.112   2.054   3.723 -0.3016  0.6966  0.7976
 3469SOL     OW22042   2.044   3.816  14.568 -0.1742  0.0863  0.7731
 3469SOL    HW122043   2.138   3.824  14.581  0.4847 -2.9109 -2.0430
 3469SOL    HW222044   2.014   3.775  14.650 -1.5739 -1.4034 -0.4702
 3470SOL     OW22045   2.211   1.607   7.376 -0.6303  0.1749  0.8768
 3470SOL    HW122046   2.168   1.693   7.382 -2.0752 -0.3418 -2.0347
 3470SOL    HW222047   2.298   1.631   7.344 -0.7259 -0.6466 -0.0041
 3471SOL     OW22048   0.682   3.846   6.074 -0.3415 -0.2609 -0.2379
 3471SOL    HW122049   0.721   3.796   6.145 -1.2078 -0.5352  0.0506
 3471SOL    HW222050   0.758   3.901   6.055  0.8535 -2.0252 -0.6018
 3472SOL     OW22051   3.559   0.813   9.841  0.3042  0.1751  0.5820
 3472SOL    HW122052   3.577   0.830   9.749  0.9796 -1.4863  0.4006
 3472SOL    HW222053   3.464   0.816   9.842  0.3623  1.5740  1.4602
 3473SOL     OW22054   4.548   4.431  13.246 -0.3284  0.0785 -1.0089
 3473SOL    HW122055   4.503   4.358  13.205 -0.3398  0.6017 -1.9302
 3473SOL    HW222056   4.572   4.406  13.335 -4.0229  0.4739  0.1152
 3474SOL     OW22057   0.884   0.059   1.676  0.1077  0.0494 -0.1992
 3474SOL    HW122058   0.880   0.072   1.771  0.0737  0.5631 -0.2676
 3474SOL    HW222059   0.816   0.115   1.637 -0.7633 -0.8907 -0.0317
 3475SOL     OW22060   4.047   2.211   4.863 -0.5846  0.1663  0.6489
 3475SOL    HW122061   3.977   2.177   4.918 -0.5598  0.4518  0.8566
 3475SOL    HW222062   4.113   2.156   4.905 -0.6572  0.6155  1.3550
 3476SOL     OW22063   0.008   2.160   6.010 -0.2160  0.0842  0.0909
 3476SOL    HW122064   0.003   2.112   6.093  1.2562 -0.1586  0.0371
 3476SOL    HW222065   0.093   2.202   6.019 -0.0059 -0.6212  1.4518
 3477SOL     OW22066   4.228   4.596   1.014  0.2468 -0.0117 -0.2788
 3477SOL    HW122067   4.206   4.607   1.106 -0.3164 -0.5694 -0.3471
 3477SOL    HW222068   4.244   4.688   0.989  1.1736  0.3490  1.6443
 3478SOL     OW22069   0.047   3.935   8.794 -0.7166  0.5011 -0.0828
 3478SOL    HW122070   0.030   3.925   8.888  1.3197  0.3170  0.2619
 3478SOL    HW222071   0.031   3.841   8.783 -0.6967  0.6694 -1.5299
 3479SOL     OW22072   0.020   4.625  11.392  0.0302 -0.1301  0.4634
 3479SOL    HW122073   4.711   4.706  11.416  0.7280  0.1903  0.6738
 3479SOL    HW222074   4.720   4.600  11.306  0.7893 -2.2636  0.7805
 3480SOL     OW22075   4.054   2.577   7.127 -0.6352 -1.4785  0.0624
 3480SOL    HW122076   4.126   2.627   7.165 -0.6868 -2.1786  1.1148
 3480SOL    HW222077   4.070   2.573   7.033  0.5990  0.4813  0.1884
 3481SOL     OW22078   3.407   4.616   4.204 -0.2809 -0.1152 -0.2777
 3481SOL    HW122079   3.412   4.625   4.300 -2.1021  1.6972 -0.3386
 3481SOL    HW222080   3.493   4.578   4.188 -0.7684 -1.7658  0.9432
 3482SOL     OW22081   1.476   2.488  10.691 -0.1344  0.0861 -0.4725
 3482SOL    HW122082   1.524   2.495  10.774 -0.2805  2.1659 -0.5599
 3482SOL    HW222083   1.532   2.532  10.628 -1.5906  1.5072 -0.7839
 3483SOL     OW22084   0.379   4.118   4.505  0.0967  0.1773 -0.0355
 3483SOL    HW122085   0.353   4.049   4.565  0.0217 -0.1554 -0.4462
 3483SOL    HW222086   0.332   4.188   4.550 -2.0435 -0.8485 -0.7091
 3484SOL     OW22087   3.180   1.208   4.428  0.1640  0.2841  0.2019
 3484SOL    HW122088   3.087   1.205   4.402  0.5673 -0.8377 -1.0931
 3484SOL    HW222089   3.177   1.294   4.472  1.8826 -0.5864  2.0069
 3485SOL     OW22090   2.541   3.832   2.539 -0.1342 -0.0010 -0.0079
 3485SOL    HW122091   2.519   3.742   2.516 -2.4569  0.4525  0.4054
 3485SOL    HW222092   2.595   3.864   2.467 -1.0336 -0.8852 -1.0764
 3486SOL     OW22093   4.688   1.446   1.865 -0.0903 -0.1117  0.1666
 3486SOL    HW122094   4.593   1.432   1.864 -0.1545  0.5589 -2.2888
 3486SOL    HW222095   4.714   1.367   1.912 -2.3019  0.2611  2.0699
 3487SOL     OW22096   2.933   2.337   3.575  0.0903 -0.1606 -0.1912
 3487SOL    HW122097   2.905   2.406   3.515  0.9873 -1.2959 -1.9238
 3487SOL    HW222098   2.979   2.275   3.518 -1.0600 -0.2976 -0.9505
 3488SOL     OW22099   3.372   1.717   1.925 -0.1817  0.0237 -0.4186
 3488SOL    HW122100   3.309   1.648   1.906 -0.6972  0.4286 -0.1667
 3488SOL    HW222101   3.317   1.794   1.935 -1.0510 -0.7533  0.8401
 3489SOL     OW22102   0.019   3.166   2.496  0.1207  0.6111  0.4817
 3489SOL    HW122103   4.718   3.230   2.557 -0.1477 -0.2934  1.2656
 3489SOL    HW222104   0.106   3.160   2.535  0.2520  1.2431  0.2843
 3490SOL     OW22105   0.902   2.213   6.791 -0.3034  0.7319  0.5784
 3490SOL    HW122106   0.989   2.230   6.756 -0.1186 -0.6708  0.3601
 3490SOL    HW222107   0.846   2.261   6.730 -0.6641 -0.8024 -0.3101
 3491SOL     OW22108   0.501   4.658   3.919  0.0657  0.5777 -0.2764
 3491SOL    HW122109   0.475   4.656   3.827  4.1512  0.5579 -1.4626
 3491SOL    HW222110   0.585   4.611   3.914  0.4047  1.3848 -2.1631
 3492SOL     OW22111   4.575   0.991  15.103  0.0295  0.1793 -0.1326
 3492SOL    HW122112   4.560   0.915  15.160  0.3307  0.1137 -0.1424
 3492SOL    HW222113   4.604   0.940  15.028  0.2092 -0.0707  0.1025
 3493SOL     OW22114   4.648   2.432  12.380  0.1442  0.2443 -0.1803
 3493SOL    HW122115   4.626   2.370  12.311 -0.6749 -2.0203  2.1235
 3493SOL    HW222116   4.573   2.420  12.438  0.5461  0.7225  0.4295
 3494SOL     OW22117   4.656   1.585  12.608  0.4579  0.0491 -0.2129
 3494SOL    HW122118   4.570   1.559  12.575  0.5237 -0.5105  0.0591
 3494SOL    HW222119   4.721   1.538  12.557 -0.0441 -0.7931 -0.0678
 3495SOL     OW22120   1.760   0.848   0.488  0.1128  0.3512 -0.0512
 3495SOL    HW122121   1.752   0.763   0.445 -0.3735  1.9068 -2.9971
 3495SOL    HW222122   1.815   0.823   0.563 -1.6613 -0.1467  1.0824
 3496SOL     OW22123   2.610   2.623  15.700  0.1591  0.2373  0.4550
 3496SOL    HW122124   2.701   2.619  15.670  0.4346  1.6598  1.0809
 3496SOL    HW222125   2.561   2.678  15.639  1.0461  1.0147  0.4282
 3497SOL     OW22126   0.189   4.495   5.936  0.1513  0.3858  0.7307
 3497SOL    HW122127   0.134   4.547   5.878 -0.4563 -1.4724 -0.3802
 3497SOL    HW222128   0.254   4.557   5.970 -0.1734  0.3799  1.3554
 3498SOL     OW22129   2.905   4.558   8.613 -0.3647  0.2915  0.2828
 3498SOL    HW122130   2.867   4.644   8.633  2.2549  0.7392  3.3054
 3498SOL    HW222131   2.879   4.554   8.521  3.0470  0.5394 -0.6841
 3499SOL     OW22132   2.365   1.831   5.154 -0.3849 -0.4293 -0.1573
 3499SOL    HW122133   2.345   1.880   5.075 -0.5863 -0.2474  0.0051
 3499SOL    HW222134   2.366   1.897   5.224  1.2941  0.3834 -0.9710
 3500SOL     OW22135   3.005   3.669   4.968  0.2510 -0.0495 -0.5705
 3500SOL    HW122136   2.962   3.658   5.053  0.9047 -0.2598 -0.2613
 3500SOL    HW222137   2.940   3.708   4.910 -2.2045 -0.4922  1.8515
 3501SOL     OW22138   1.478   0.303   4.676 -0.1266  0.4097 -0.3541
 3501SOL    HW122139   1.458   0.390   4.641 -0.6637  1.0283  1.5075
 3501SOL    HW222140   1.512   0.263   4.595 -1.3188 -0.4724 -0.4131
 3502SOL     OW22141   2.824   4.443   0.860  0.3278 -0.4653  0.1184
 3502SOL    HW122142   2.843   4.349   0.861  0.0730 -0.5192 -0.7191
 3502SOL    HW222143   2.910   4.484   0.858  0.7268 -1.3158 -0.0259
 3503SOL     OW22144   1.827   3.139  12.887  0.0196  0.8579  0.2571
 3503SOL    HW122145   1.874   3.181  12.959  2.3894 -0.0859 -0.7310
 3503SOL    HW222146   1.902   3.122  12.830 -0.3596  0.2845 -0.0740
 3504SOL     OW22147   2.815   2.299   2.829 -0.3655 -0.0522  0.0014
 3504SOL    HW122148   2.758   2.376   2.838 -2.3845 -1.5317 -0.2417
 3504SOL    HW222149   2.762   2.220   2.828 -0.6838  0.1475  0.9394
 3505SOL     OW22150   4.128   1.661   4.278 -0.3866 -0.5077  0.5139
 3505SOL    HW122151   4.064   1.727   4.251  2.0623  1.2826 -0.8285
 3505SOL    HW222152   4.066   1.588   4.287 -0.1976 -0.7161  0.1572
 3506SOL     OW22153   1.710   4.446  12.800  0.0025  0.2096 -0.0923
 3506SOL    HW122154   1.738   4.433  12.710 -2.9153 -2.9318 -0.5398
 3506SOL    HW222155   1.617   4.469  12.792  0.0161  0.4960  0.5323
 3507SOL     OW22156   3.647   1.132   4.007  0.0478  0.2351  0.1300
 3507SOL    HW122157   3.619   1.222   3.990 -0.5987  0.0981  0.4662
 3507SOL    HW222158   3.739   1.150   4.025  0.2787 -0.5590 -0.2574
 3508SOL     OW22159   2.282   2.660   9.256 -0.1594  0.3107  0.2446
 3508SOL    HW122160   2.207   2.603   9.273 -0.3410  0.8082  1.1026
 3508SOL    HW222161   2.229   2.739   9.241 -1.5019 -0.1542  2.3680
 3509SOL     OW22162   1.938   1.116  17.222 -0.1203  0.2261  0.1268
 3509SOL    HW122163   1.852   1.149  17.198  0.9624  1.7806 -1.5947
 3509SOL    HW222164   1.972   1.086  17.138 -1.5360 -2.0380  0.3610
 3510SOL     OW22165   0.502   0.412   9.355  0.2170 -0.4075  0.6991
 3510SOL    HW122166   0.566   0.453   9.413 -0.5493  0.1740  1.1358
 3510SOL    HW222167   0.544   0.331   9.326 -1.6420 -1.6131  1.3991
 3511SOL     OW22168   0.591   3.013   8.293 -0.3254  0.0658  0.1580
 3511SOL    HW122169   0.626   3.088   8.245 -0.1234 -1.2557 -1.8080
 3511SOL    HW222170   0.519   3.051   8.342  0.7364 -1.1799  2.7023
 3512SOL     OW22171   1.912   4.380   7.080  0.3078 -0.0362  1.0637
 3512SOL    HW122172   1.849   4.330   7.132 -0.5746  1.7701  1.7316
 3512SOL    HW222173   1.858   4.430   7.018  0.1969 -0.3637  0.8969
 3513SOL     OW22174   3.647   1.228  12.171  0.1795 -0.0859 -0.0736
 3513SOL    HW122175   3.673   1.184  12.252  2.5656  1.2347 -0.1105
 3513SOL    HW222176   3.712   1.297  12.185  0.0053 -0.1505  1.0780
 3514SOL     OW22177   0.616   2.120   8.614  0.2594 -0.1496 -0.6611
 3514SOL    HW122178   0.532   2.080   8.594 -0.4536  0.7325  0.5568
 3514SOL    HW222179   0.643   2.055   8.680 -0.0099 -0.6606 -1.0518
 3515SOL     OW22180   1.666   3.314   0.611 -0.6204  0.5252 -0.0260
 3515SOL    HW122181   1.618   3.234   0.593  1.8974 -0.8435 -0.5910
 3515SOL    HW222182   1.629   3.342   0.695 -1.4589 -0.0854 -0.1957
 3516SOL     OW22183   2.337   4.428   4.684  0.3951 -0.0837  0.0340
 3516SOL    HW122184   2.345   4.401   4.775 -1.2557  0.5518  0.3792
 3516SOL    HW222185   2.354   4.522   4.690 -1.5043  0.3139 -0.7195
 3517SOL     OW22186   2.538   2.178  11.125 -0.4954  0.4378 -0.2421
 3517SOL    HW122187   2.523   2.197  11.032  0.5367 -1.5724 -0.8179
 3517SOL    HW222188   2.628   2.210  11.133 -0.0144 -1.0301  0.1708
 3518SOL     OW22189   3.703   0.603   9.092  0.5542  0.5191  0.1101
 3518SOL    HW122190   3.662   0.684   9.061  1.4425  0.6958 -0.6077
 3518SOL    HW222191   3.634   0.578   9.153  0.6200 -0.6687 -0.2999
 3519SOL     OW22192   3.031   4.683   5.965  0.0256  0.3079  0.2876
 3519SOL    HW122193   2.965   4.705   5.900 -1.4091  0.5369  1.8462
 3519SOL    HW222194   2.985   4.607   5.999  2.3542 -1.6612 -0.9116
 3520SOL     OW22195   2.582   3.050   8.771 -0.1680  0.0918  0.2680
 3520SOL    HW122196   2.512   2.988   8.748 -0.0783  0.2052 -0.3163
 3520SOL    HW222197   2.532   3.132   8.771 -0.0344  0.1718 -3.3268
 3521SOL     OW22198   3.386   0.762   5.319  0.4482  0.0615  0.2398
 3521SOL    HW122199   3.423   0.803   5.241 -0.0954 -0.4870 -0.2987
 3521SOL    HW222200   3.293   0.762   5.298  0.4435 -0.7522  0.2490
 3522SOL     OW22201   3.662   2.933   8.157 -0.2810  0.5498 -0.4930
 3522SOL    HW122202   3.597   2.984   8.107  1.2432  1.2305 -1.7713
 3522SOL    HW222203   3.692   2.989   8.229 -0.2156 -0.9194  0.6123
 3523SOL     OW22204   3.903   2.730   1.701  0.0293 -0.1298  0.1094
 3523SOL    HW122205   3.883   2.643   1.736 -0.3158 -0.1740 -0.1907
 3523SOL    HW222206   3.998   2.726   1.703 -0.0309 -1.7786 -1.0744
 3524SOL     OW22207   4.630   2.220   2.419  0.1457  0.1785 -0.5373
 3524SOL    HW122208   4.625   2.180   2.332 -2.8040  0.5340 -0.5286
 3524SOL    HW222209   4.555   2.174   2.456 -0.1241 -0.7934 -2.2437
 3525SOL     OW22210   3.330   2.299   5.032 -0.3191 -0.7535 -0.3047
 3525SOL    HW122211   3.400   2.261   4.978  0.7943  2.1249 -0.8414
 3525SOL    HW222212   3.281   2.218   5.048 -0.1059 -1.2332 -2.0299
 3526SOL     OW22213   1.548   1.747  11.476 -0.1733 -0.2463  0.5378
 3526SOL    HW122214   1.494   1.795  11.538  1.0041 -0.5851  1.8352
 3526SOL    HW222215   1.615   1.815  11.483  0.1368 -0.5887  0.8752
 3527SOL     OW22216   1.923   1.899  10.702 -0.1751  0.4163 -0.7270
 3527SOL    HW122217   1.851   1.845  10.734  0.2734 -0.0778 -0.5482
 3527SOL    HW222218   1.898   1.936  10.617 -2.1265  0.7997  0.0254
 3528SOL     OW22219   4.250   3.413   6.595  0.2123  0.0325  0.8370
 3528SOL    HW122220   4.341   3.395   6.569 -1.1817 -1.0110 -3.2924
 3528SOL    HW222221   4.266   3.469   6.671 -1.1143 -1.6923  2.3742
 3529SOL     OW22222   2.225   2.605   2.601  0.0006  0.5401  0.0186
 3529SOL    HW122223   2.278   2.537   2.561  0.8691  0.2751  1.6280
 3529SOL    HW222224   2.251   2.609   2.693 -0.7897  0.6036  0.2400
 3530SOL     OW22225   3.434   2.512   5.141  0.1414  0.7863 -0.0202
 3530SOL    HW122226   3.413   2.452   5.069  1.4310  0.4200 -0.0862
 3530SOL    HW222227   3.392   2.594   5.116 -2.1206 -0.4785 -0.3437
 3531SOL     OW22228   0.074   2.113   8.006 -0.2341 -0.5032 -0.2507
 3531SOL    HW122229   0.033   2.033   8.040  1.2542 -0.2737  2.0684
 3531SOL    HW222230   0.131   2.133   8.080 -1.7382  1.0388  0.5017
 3532SOL     OW22231   2.109   1.654   7.737 -0.2658 -0.1958  0.6001
 3532SOL    HW122232   2.193   1.699   7.747  1.0735 -2.4373 -0.5468
 3532SOL    HW222233   2.066   1.699   7.810  1.0491  0.5012  0.9410
 3533SOL     OW22234   0.577   2.922   4.097  0.3395  0.2546  0.2149
 3533SOL    HW122235   0.489   2.892   4.072 -0.7653  2.0603  1.9799
 3533SOL    HW222236   0.633   2.845   4.095 -0.8871 -0.6661  1.1263
 3534SOL     OW22237   0.099   1.276  11.944  0.2183  0.3509 -0.1609
 3534SOL    HW122238   0.052   1.329  11.880 -1.9851 -1.9593 -0.5000
 3534SOL    HW222239   0.053   1.192  11.934  1.9575 -0.9737  2.8081
 3535SOL     OW22240   1.277   0.686   8.225 -0.5586 -0.5348  0.2956
 3535SOL    HW122241   1.230   0.610   8.190 -0.8141  0.7775 -2.2501
 3535SOL    HW222242   1.293   0.739   8.147  1.2161 -1.3911  0.0806
 3536SOL     OW22243   3.562   1.976   6.799  0.3896 -0.3250  0.2133
 3536SOL    HW122244   3.476   1.943   6.771 -0.6569  1.8863  0.8133
 3536SOL    HW222245   3.582   1.914   6.869  2.8728 -0.7193 -0.8682
 3537SOL     OW22246   0.332   4.096  14.011 -0.0023 -0.4411 -0.0221
 3537SOL    HW122247   0.305   4.166  14.070 -0.9557 -1.7746  1.1037
 3537SOL    HW222248   0.425   4.117  14.010 -0.6420  2.3214 -0.3417
 3538SOL     OW22249   1.894   3.529   5.142  0.3178  0.0211  0.0313
 3538SOL    HW122250   1.977   3.488   5.169 -0.8016 -1.2825  1.4908
 3538SOL    HW222251   1.908   3.528   5.048 -1.1825 -3.1373 -0.1545
 3539SOL     OW22252   2.497   4.678  16.806  0.1021  0.8391  0.2063
 3539SOL    HW122253   2.457   4.600  16.767 -0.6200  0.1928  2.2584
 3539SOL    HW222254   2.468   4.665  16.896  0.8015 -1.2968  0.1351
 3540SOL     OW22255   2.308   2.861  12.181 -0.6828 -0.2441 -0.1111
 3540SOL    HW122256   2.378   2.821  12.130 -0.9105 -1.0261  0.1869
 3540SOL    HW222257   2.342   2.950  12.193 -3.0740  0.5155  1.0532
 3541SOL     OW22258   4.600   0.838   9.062 -0.1721  0.3739 -0.2956
 3541SOL    HW122259   4.591   0.884   8.979 -1.2720  0.7610  0.0358
 3541SOL    HW222260   4.611   0.747   9.034  0.9778  0.5048 -0.2374
 3542SOL     OW22261   3.499   3.912  13.192 -0.1872  0.2477 -0.7130
 3542SOL    HW122262   3.446   3.832  13.186 -0.4936  0.5133 -1.5176
 3542SOL    HW222263   3.446   3.975  13.144 -2.7625 -1.7618 -0.5056
 3543SOL     OW22264   1.748   0.294   6.348 -0.1065 -0.2291  0.8232
 3543SOL    HW122265   1.694   0.322   6.422 -0.9304  1.4894 -0.4095
 3543SOL    HW222266   1.783   0.215   6.388  0.2906  0.2858  1.4801
 3544SOL     OW22267   0.734   0.243   1.564 -0.9015  0.2125 -0.3050
 3544SOL    HW122268   0.645   0.229   1.531 -0.1463  2.1150 -3.2539
 3544SOL    HW222269   0.772   0.290   1.489 -1.0783  1.0304  0.1261
 3545SOL     OW22270   3.352   2.017   5.491 -0.1145  0.1625 -0.3494
 3545SOL    HW122271   3.376   2.109   5.506 -0.6602  0.6315 -2.3900
 3545SOL    HW222272   3.261   2.001   5.515 -0.8677 -0.0541 -3.3482
 3546SOL     OW22273   2.601   0.739   3.075  0.5035 -0.2268 -0.7098
 3546SOL    HW122274   2.579   0.760   2.984  1.2358  0.4021 -0.7406
 3546SOL    HW222275   2.588   0.645   3.078  0.1746 -0.1410  0.4101
 3547SOL     OW22276   3.968   1.185   4.647 -0.1264 -0.0725 -0.3895
 3547SOL    HW122277   3.906   1.250   4.680 -1.8731 -2.5189  1.1617
 3547SOL    HW222278   4.055   1.223   4.658 -1.0769  2.0722 -0.2391
 3548SOL     OW22279   1.085   1.274  10.239 -0.1562 -0.3873  0.2283
 3548SOL    HW122280   1.062   1.235  10.323  1.8844 -0.2443  0.8571
 3548SOL    HW222281   1.078   1.199  10.179  2.6457  0.9745 -1.8038
 3549SOL     OW22282   3.998   1.333   0.864 -0.5439  0.4502  0.2173
 3549SOL    HW122283   3.963   1.244   0.868  0.2800  0.2528  2.9485
 3549SOL    HW222284   3.959   1.367   0.783  0.6055 -0.0780 -0.5447
 3550SOL     OW22285   4.215   2.582   0.884 -0.2836  0.6437  0.5326
 3550SOL    HW122286   4.276   2.586   0.957 -1.4407  0.4740  1.5108
 3550SOL    HW222287   4.228   2.491   0.858 -0.1158  0.0992  2.5721
 3551SOL     OW22288   4.321   0.934   1.839  0.3222  0.2178  1.0427
 3551SOL    HW122289   4.307   0.975   1.924  0.1591  2.2512  0.0348
 3551SOL    HW222290   4.234   0.893   1.840  0.3488  0.0661 -2.0510
 3552SOL     OW22291   1.720   3.039  17.526 -0.1449 -0.2501 -0.5445
 3552SOL    HW122292   1.703   2.971  17.461  0.3530 -1.2548  0.3723
 3552SOL    HW222293   1.811   3.062  17.509 -0.0407 -1.6457 -1.8499
 3553SOL     OW22294   1.646   2.224   3.043 -0.1536 -0.1088 -0.1455
 3553SOL    HW122295   1.702   2.185   2.976  0.1444 -3.4624  2.0747
 3553SOL    HW222296   1.562   2.212   2.998 -0.6166 -1.7100  1.1359
 3554SOL     OW22297   3.169   4.156  16.388 -0.0359 -0.8108  0.4203
 3554SOL    HW122298   3.101   4.164  16.320  0.6694  1.6867 -0.0104
 3554SOL    HW222299   3.107   4.119  16.451 -2.5408  0.5451 -1.2492
 3555SOL     OW22300   1.559   3.184   5.659 -0.2148 -0.1224  0.0110
 3555SOL    HW122301   1.579   3.095   5.629 -0.0129 -0.1647  0.2703
 3555SOL    HW222302   1.487   3.163   5.719  0.8253  0.4676  1.4611
 3556SOL     OW22303   2.971   4.431   9.045  0.3976 -0.3262 -0.4677
 3556SOL    HW122304   2.990   4.416   8.952 -0.9644  0.9499 -0.9559
 3556SOL    HW222305   3.058   4.443   9.081 -0.6163 -2.0215  2.5183
 3557SOL     OW22306   3.394   0.211   7.340 -0.0345 -0.2680 -0.4283
 3557SOL    HW122307   3.476   0.239   7.381 -1.1466 -0.2137  1.7911
 3557SOL    HW222308   3.413   0.229   7.249  0.7015 -1.3307 -0.4879
 3558SOL     OW22309   0.220   2.170   7.781 -0.4158 -0.3079  0.3623
 3558SOL    HW122310   0.164   2.147   7.854 -1.0178  1.1793  0.3668
 3558SOL    HW222311   0.208   2.265   7.783 -0.2396 -0.2406 -1.2934
 3559SOL     OW22312   3.411   2.286   5.511  0.2016  0.3122 -0.1649
 3559SOL    HW122313   3.487   2.270   5.455 -0.4732  0.2714 -1.0832
 3559SOL    HW222314   3.373   2.362   5.466 -1.0112 -1.1254 -1.5971
 3560SOL     OW22315   0.080   2.167  11.836  0.5854  0.3375 -0.0635
 3560SOL    HW122316   0.042   2.148  11.922  0.2728  2.8504  0.3594
 3560SOL    HW222317   0.057   2.089  11.786 -2.0342  1.9544 -1.3848
 3561SOL     OW22318   1.298   0.931   2.013 -0.1705 -0.2483 -0.5542
 3561SOL    HW122319   1.206   0.954   2.011  0.0962  1.0618  2.8659
 3561SOL    HW222320   1.343   0.982   1.945 -0.6212  1.6623  0.5784
 3562SOL     OW22321   3.792   3.510   7.442  0.4407  0.1832 -0.4472
 3562SOL    HW122322   3.857   3.496   7.373  0.3166  1.6330 -0.8730
 3562SOL    HW222323   3.760   3.420   7.453 -1.7148  0.9301 -0.4952
 3563SOL     OW22324   3.390   3.823   5.052  0.3265  0.5409  0.3637
 3563SOL    HW122325   3.318   3.802   4.994 -0.3385  4.0226 -0.0704
 3563SOL    HW222326   3.368   3.915   5.069  1.1138  0.6891  0.5908
 3564SOL     OW22327   2.843   4.209   8.051  0.1070 -0.6621  0.1903
 3564SOL    HW122328   2.773   4.205   7.986  0.4133 -4.1225  0.0753
 3564SOL    HW222329   2.877   4.121   8.037  0.9741 -0.5698  1.7011
 3565SOL     OW22330   0.094   4.341   2.706  0.2617  0.0375  0.0316
 3565SOL    HW122331   0.101   4.435   2.721 -1.5865  0.2157 -0.2332
 3565SOL    HW222332   0.065   4.324   2.616  0.5986 -2.5210  0.4272
 3566SOL     OW22333   3.671   1.391  13.363  0.0749  0.0875 -0.6279
 3566SOL    HW122334   3.603   1.356  13.421 -0.2740  0.1132 -1.0196
 3566SOL    HW222335   3.735   1.322  13.381  1.2771  1.2935 -0.2695
 3567SOL     OW22336   0.544   3.757  15.827 -0.3678 -0.3582  0.3044
 3567SOL    HW122337   0.513   3.815  15.758  1.0596 -0.6471 -0.5948
 3567SOL    HW222338   0.525   3.808  15.906 -0.6642 -0.5161  0.3366
 3568SOL     OW22339   1.800   3.725   8.599  0.1104  0.0335  0.0353
 3568SOL    HW122340   1.728   3.782   8.573 -0.6363 -1.3418 -0.8925
 3568SOL    HW222341   1.793   3.736   8.694  1.1368 -0.8251  0.2037
 3569SOL     OW22342   3.870   1.747   4.185 -0.0548  0.8144  0.2857
 3569SOL    HW122343   3.812   1.813   4.146 -0.9257  0.1511  0.4418
 3569SOL    HW222344   3.806   1.678   4.205 -0.1296  1.4965  2.3485
 3570SOL     OW22345   1.822   3.817   4.678  1.2929 -0.6203  0.2088
 3570SOL    HW122346   1.845   3.888   4.618 -0.2654 -0.5622 -0.3204
 3570SOL    HW222347   1.737   3.849   4.706  0.2025 -1.2671 -2.3140
 3571SOL     OW22348   1.699   4.697  13.468 -0.4172  0.1614  0.2998
 3571SOL    HW122349   1.653   4.724  13.389 -0.6028  3.0307  1.4145
 3571SOL    HW222350   1.738   0.042  13.501  1.0896 -1.3448  2.2379
 3572SOL     OW22351   1.009   4.625  14.050  0.1006  0.2489  0.1097
 3572SOL    HW122352   0.972   4.538  14.066  2.5861 -0.8005  0.2264
 3572SOL    HW222353   1.096   4.597  14.022  0.9041  3.6065 -0.6821
 3573SOL     OW22354   0.451   4.038   5.235  0.1128  0.1042  1.0339
 3573SOL    HW122355   0.472   3.968   5.297  1.4667  0.4406  0.9528
 3573SOL    HW222356   0.537   4.051   5.195 -1.7634  0.7488 -2.8202
 3574SOL     OW22357   0.127   2.335  14.441 -0.2122  0.4071 -0.1367
 3574SOL    HW122358   0.127   2.265  14.376 -3.8356  0.6434 -0.3636
 3574SOL    HW222359   0.037   2.350  14.469 -0.4759 -0.5015 -0.5145
 3575SOL     OW22360   1.325   1.161   7.447 -0.3633  0.1330  0.1724
 3575SOL    HW122361   1.302   1.250   7.473  0.7349  0.0825  1.3547
 3575SOL    HW222362   1.236   1.126   7.443 -0.8683  1.3678  0.5525
 3576SOL     OW22363   1.541   3.908  17.426  0.2621  0.0200  0.1414
 3576SOL    HW122364   1.622   3.928  17.471 -0.4919  1.1867  0.9943
 3576SOL    HW222365   1.569   3.858  17.349  0.7102  0.2449  0.1563
 3577SOL     OW22366   3.602   3.249   5.439 -0.0085  0.2635 -0.3261
 3577SOL    HW122367   3.557   3.180   5.488  0.2386  0.6348  0.4219
 3577SOL    HW222368   3.631   3.192   5.368 -0.1822  0.3080 -0.4330
 3578SOL     OW22369   1.225   4.605  13.669  0.2188  0.6553  0.4471
 3578SOL    HW122370   1.319   4.587  13.682  0.4626  0.8591 -0.9846
 3578SOL    HW222371   1.232   4.653  13.587 -1.4015  1.0194  0.5318
 3579SOL     OW22372   3.181   2.103   2.391  0.0170  0.4716 -0.0832
 3579SOL    HW122373   3.201   2.108   2.297 -0.4630  1.5193 -0.1280
 3579SOL    HW222374   3.198   2.010   2.405 -0.5592 -0.0743 -3.0190
 3580SOL     OW22375   2.270   0.904   5.966  0.1885  0.3379  0.1512
 3580SOL    HW122376   2.281   0.903   6.061  0.8133  2.3750  0.1005
 3580SOL    HW222377   2.346   0.855   5.935 -0.4075 -0.4231 -0.1313
 3581SOL     OW22378   0.116   2.693   4.548  0.2913 -0.1684 -0.3842
 3581SOL    HW122379   0.081   2.669   4.462  0.8681  0.3552 -0.7581
 3581SOL    HW222380   0.189   2.632   4.553  0.2494 -0.1733  0.2172
 3582SOL     OW22381   1.793   2.898   4.507 -0.3388  0.1656 -0.2931
 3582SOL    HW122382   1.840   2.975   4.540  0.6757 -1.7581  2.7212
 3582SOL    HW222383   1.708   2.921   4.545 -0.5421 -1.1815  0.0655
 3583SOL     OW22384   1.494   1.833   7.780  0.0773 -0.4051  0.4451
 3583SOL    HW122385   1.568   1.782   7.748 -0.5036 -0.2899 -1.0971
 3583SOL    HW222386   1.424   1.784   7.738  1.8226 -2.9141  0.4797
 3584SOL     OW22387   3.983   1.220   3.155 -0.6070  0.0844  0.2018
 3584SOL    HW122388   4.060   1.211   3.211 -0.3011 -0.4095 -0.3021
 3584SOL    HW222389   3.945   1.307   3.168  1.0526  1.1470 -2.0968
 3585SOL     OW22390   0.313   4.688   7.145 -0.4845 -1.0399 -0.1511
 3585SOL    HW122391   0.327   4.594   7.157  1.8641 -0.8538 -1.5808
 3585SOL    HW222392   0.228   4.710   7.184 -1.1640 -1.3823 -1.4229
 3586SOL     OW22393   2.853   4.540   4.099  0.1409  0.4593 -0.0738
 3586SOL    HW122394   2.848   4.483   4.176 -1.1201  0.6686 -0.0068
 3586SOL    HW222395   2.845   4.467   4.039  1.3917 -0.3330  0.7276
 3587SOL     OW22396   4.695   3.566  12.196  0.6865  0.1619  0.1099
 3587SOL    HW122397   4.694   3.500  12.126  0.7708 -1.5221  1.6845
 3587SOL    HW222398   4.735   3.646  12.161  2.1131  0.3728  2.2158
 3588SOL     OW22399   2.895   3.464   4.047  0.5709 -0.0212  0.2334
 3588SOL    HW122400   2.948   3.410   4.105  0.1754  1.3285  1.8542
 3588SOL    HW222401   2.860   3.401   3.984 -1.5727  0.8807  0.5157
 3589SOL     OW22402   1.294   4.476   5.421  0.4131 -0.1263 -0.7187
 3589SOL    HW122403   1.274   4.512   5.335 -1.6220 -1.7036 -0.8926
 3589SOL    HW222404   1.287   4.382   5.406  0.4018 -0.1737 -0.4306
 3590SOL     OW22405   1.187   3.193   0.982  0.4121 -0.3778  0.3908
 3590SOL    HW122406   1.278   3.166   0.996  0.7752  1.7904  2.1807
 3590SOL    HW222407   1.137   3.139   1.043 -1.5706 -0.3791 -1.2121
 3591SOL     OW22408   3.898   2.336   6.896  0.6506 -0.7777  0.3040
 3591SOL    HW122409   3.955   2.335   6.973  0.3106  1.4715  0.5911
 3591SOL    HW222410   3.838   2.409   6.914  2.6415  0.5453  1.4990
 3592SOL     OW22411   0.986   3.806   4.254  0.3879 -0.5275  0.1330
 3592SOL    HW122412   0.946   3.893   4.266 -1.3503 -1.2785 -0.1381
 3592SOL    HW222413   0.997   3.802   4.159 -0.7937 -1.1526  0.0153
 3593SOL     OW22414   1.838   3.997   1.713  0.5545 -0.8521 -0.2391
 3593SOL    HW122415   1.768   4.059   1.693  0.1691 -1.6101 -1.2210
 3593SOL    HW222416   1.852   3.968   1.623 -0.4323  0.9874 -0.9824
 3594SOL     OW22417   2.766   3.260  16.128 -0.1781  0.0610  0.3633
 3594SOL    HW122418   2.813   3.340  16.149 -0.8256  0.7083 -0.6672
 3594SOL    HW222419   2.830   3.198  16.164  1.2562  0.7554 -0.9909
 3595SOL     OW22420   2.785   0.253   6.991 -0.2275 -0.3392  0.4206
 3595SOL    HW122421   2.828   0.282   6.910 -1.1586  0.2093  0.1207
 3595SOL    HW222422   2.835   0.172   7.002  0.1138 -0.2618 -0.4982
 3596SOL     OW22423   3.547   4.433   6.364 -0.7667  0.7785  0.1938
 3596SOL    HW122424   3.634   4.472   6.352 -0.3372 -0.3315 -0.3158
 3596SOL    HW222425   3.502   4.434   6.279  0.0411  3.2715 -0.2056
 3597SOL     OW22426   3.894   2.987  16.444  0.2067  0.1543  0.1786
 3597SOL    HW122427   3.856   2.910  16.402 -1.5270  1.3307 -0.4275
 3597SOL    HW222428   3.988   2.968  16.444 -0.6217 -3.9404  0.2392
 3598SOL     OW22429   2.109   2.422   5.422  0.2734  0.1293  0.0845
 3598SOL    HW122430   2.084   2.480   5.494 -0.9771 -0.6506  0.2656
 3598SOL    HW222431   2.047   2.447   5.354  0.0310 -1.1838 -0.1863
 3599SOL     OW22432   4.688   2.294   7.017 -0.0459 -0.1678 -0.4372
 3599SOL    HW122433   4.702   2.239   6.940  1.9268 -0.9382  0.4860
 3599SOL    HW222434   0.042   2.300   7.050 -1.0004 -2.5473  2.6035
 3600SOL     OW22435   1.433   2.496   7.572  0.3328  0.1636 -0.7075
 3600SOL    HW122436   1.451   2.523   7.482 -1.3555  1.5976 -0.6164
 3600SOL    HW222437   1.502   2.550   7.609 -0.1872 -1.0128  1.9497
 3601SOL     OW22438   4.169   4.198  11.728 -0.3053 -0.6370 -0.1935
 3601SOL    HW122439   4.253   4.166  11.759  0.4132  2.3191  0.9649
 3601SOL    HW222440   4.185   4.293  11.736  1.0408 -0.7633 -1.2230
 3602SOL     OW22441   2.586   1.238   9.861  0.5061  0.1626  0.5540
 3602SOL    HW122442   2.632   1.220   9.944  1.1841 -3.0135 -0.4932
 3602SOL    HW222443   2.515   1.289   9.899  1.1298  1.7895 -0.4747
 3603SOL     OW22444   4.548   3.624   7.680  0.4395  0.2184  0.0151
 3603SOL    HW122445   4.476   3.567   7.708 -1.6567  2.0081 -1.7416
 3603SOL    HW222446   4.509   3.698   7.634 -2.8701 -1.2967  0.3912
 3604SOL     OW22447   4.037   0.415   3.638  0.3007 -0.3787 -0.0094
 3604SOL    HW122448   3.997   0.502   3.639 -0.8982 -0.9361 -0.2025
 3604SOL    HW222449   4.109   0.430   3.699  0.4388  1.6534 -0.6595
 3605SOL     OW22450   4.735   0.876   7.623 -0.4157  0.1700 -0.1483
 3605SOL    HW122451   0.061   0.881   7.696 -0.2472 -1.6360 -0.1725
 3605SOL    HW222452   4.665   0.822   7.660 -0.8480  0.6633 -0.2460
 3606SOL     OW22453   1.329   2.905   6.889 -0.3214 -0.5230  0.2240
 3606SOL    HW122454   1.330   2.967   6.816  2.1367  0.2414  0.9100
 3606SOL    HW222455   1.314   2.966   6.960 -1.1803  0.1165 -0.5063
 3607SOL     OW22456   1.161   1.415   8.541 -0.1088  0.4131  0.4550
 3607SOL    HW122457   1.124   1.330   8.521  1.2703 -0.0902  0.0328
 3607SOL    HW222458   1.250   1.392   8.515 -1.0590 -0.6217 -1.8851
 3608SOL     OW22459   1.325   0.289   6.398  0.0135  0.7616  0.2172
 3608SOL    HW122460   1.373   0.211   6.425 -0.1024  0.0789 -1.6164
 3608SOL    HW222461   1.265   0.260   6.330 -2.2579  2.7426  1.3758
 3609SOL     OW22462   3.048   0.760   7.861  0.3554  0.3801 -0.3435
 3609SOL    HW122463   3.064   0.679   7.909 -1.3885 -0.6422 -1.5118
 3609SOL    HW222464   3.137   0.769   7.827  0.6225 -0.8343  0.0504
 3610SOL     OW22465   1.504   4.539   6.335  0.6874 -0.5836  0.1739
 3610SOL    HW122466   1.526   4.505   6.248 -1.3545  0.8998 -0.9277
 3610SOL    HW222467   1.431   4.483   6.358 -0.3334  0.6734 -0.0060
 3611SOL     OW22468   4.629   1.415   3.954  0.4237  0.5239 -0.3962
 3611SOL    HW122469   4.545   1.369   3.947 -0.2881  1.8186 -0.5110
 3611SOL    HW222470   4.690   1.375   3.892  0.7365  1.6746 -0.8395
 3612SOL     OW22471   0.162   1.295   5.938 -0.2069 -0.1292  0.1656
 3612SOL    HW122472   0.133   1.371   5.989  0.9748 -1.3894  2.6947
 3612SOL    HW222473   0.256   1.289   5.957 -0.4377 -1.1549  0.9480
 3613SOL     OW22474   2.879   1.156  16.757 -0.1574 -0.1534  0.1629
 3613SOL    HW122475   2.852   1.212  16.830  1.1805 -1.4363  1.6270
 3613SOL    HW222476   2.810   1.092  16.778 -0.3212 -0.5574 -1.5776
 3614SOL     OW22477   0.097   1.645  11.832 -0.1563  1.2198 -0.4257
 3614SOL    HW122478   0.178   1.596  11.845 -1.2677 -0.4141  0.5269
 3614SOL    HW222479   0.057   1.566  11.794  1.2493  1.4727 -2.3840
 3615SOL     OW22480   1.843   4.033   5.364  0.3518  0.2753  0.8960
 3615SOL    HW122481   1.863   3.966   5.299 -0.0880  0.1489  0.8938
 3615SOL    HW222482   1.811   3.973   5.431  0.0809 -0.7353 -0.1501
 3616SOL     OW22483   3.048   1.698   0.027 -0.2771 -0.2242  0.0175
 3616SOL    HW122484   3.095   1.777   0.054 -1.8098  0.8438 -0.3730
 3616SOL    HW222485   3.091   1.679  17.684 -1.4167 -0.2212 -0.5811
 3617SOL     OW22486   4.317   1.799   3.595 -0.4647  0.5744 -0.1736
 3617SOL    HW122487   4.226   1.774   3.578  0.5156 -2.7737 -0.4462
 3617SOL    HW222488   4.339   1.727   3.653 -2.3167  0.6283  0.6030
 3618SOL     OW22489   2.439   1.369   6.534  0.1008  0.0386 -1.1697
 3618SOL    HW122490   2.406   1.298   6.479  0.0032 -0.6524 -0.2093
 3618SOL    HW222491   2.473   1.323   6.611 -2.2608 -0.5756 -0.4897
 3619SOL     OW22492   1.699   0.893  15.317 -0.4663  0.0813 -0.3821
 3619SOL    HW122493   1.754   0.857  15.247 -0.2315  0.3459 -0.3313
 3619SOL    HW222494   1.772   0.916  15.373 -1.3969  0.1788  0.7855
 3620SOL     OW22495   2.072   3.421   1.685  0.0309 -0.0128 -0.0538
 3620SOL    HW122496   1.990   3.432   1.733  0.7159 -0.2243  1.1680
 3620SOL    HW222497   2.128   3.489   1.722 -1.4080  1.4864 -0.6290
 3621SOL     OW22498   3.297   2.431   3.840 -0.8392 -0.5447 -0.5321
 3621SOL    HW122499   3.269   2.507   3.789  0.5484  0.5583  0.3112
 3621SOL    HW222500   3.390   2.436   3.819 -1.0716 -1.4753 -1.7498
 3622SOL     OW22501   0.678   3.010   4.993 -0.5694  0.1668  0.5661
 3622SOL    HW122502   0.737   3.038   4.922 -0.2377  1.9576  1.5384
 3622SOL    HW222503   0.718   2.924   5.006 -0.0197  0.0895 -1.4871
 3623SOL     OW22504   1.217   3.096   2.365 -0.2270 -0.7358 -0.7518
 3623SOL    HW122505   1.122   3.088   2.375 -0.7760  2.1274 -3.4517
 3623SOL    HW222506   1.245   3.034   2.432 -1.0520  2.0260  2.1562
 3624SOL     OW22507   3.248   0.513   6.681 -0.1572 -0.0671  0.3128
 3624SOL    HW122508   3.254   0.608   6.693 -0.6306  0.0642 -0.4696
 3624SOL    HW222509   3.273   0.501   6.589 -0.4349 -0.9834  0.3614
 3625SOL     OW22510   2.729   4.228  11.402  0.3615  0.6854 -0.7513
 3625SOL    HW122511   2.689   4.252  11.486  0.7162 -1.8404  0.1518
 3625SOL    HW222512   2.812   4.191  11.433  0.2571 -0.7563 -2.2011
 3626SOL     OW22513   2.774   1.289   2.021 -0.9840 -0.2252 -0.0604
 3626SOL    HW122514   2.683   1.319   2.025 -2.0561 -3.5493  0.8193
 3626SOL    HW222515   2.755   1.195   2.024  4.3421 -1.3289 -1.4399
 3627SOL     OW22516   0.038   1.635  16.290 -0.5639  0.0110 -0.0314
 3627SOL    HW122517   4.710   1.691  16.247 -1.1045 -1.0198 -0.5775
 3627SOL    HW222518   0.067   1.678  16.370 -0.4082  0.4176 -0.3092
 3628SOL     OW22519   2.953   3.989   4.859 -0.4651 -0.3242 -0.2703
 3628SOL    HW122520   2.967   4.075   4.819 -1.8564  0.7306  1.4832
 3628SOL    HW222521   2.963   4.016   4.950 -1.8076  0.8471 -0.4687
 3629SOL     OW22522   4.121   2.755  13.890  0.3351 -0.6501 -0.0166
 3629SOL    HW122523   4.105   2.724  13.800  1.3342  1.2040 -0.8192
 3629SOL    HW222524   4.034   2.762  13.930 -0.5095  1.9579 -2.3329
 3630SOL     OW22525   0.101   3.226  17.306  0.1452  0.0518 -0.5537
 3630SOL    HW122526   0.161   3.236  17.232  0.4632 -1.6130 -0.5083
 3630SOL    HW222527   0.019   3.244  17.261 -0.5121  0.9005  0.9769
 3631SOL     OW22528   2.650   1.754  10.226 -0.0627  0.0376 -0.2201
 3631SOL    HW122529   2.708   1.797  10.290  0.8372  2.2706 -2.5450
 3631SOL    HW222530   2.670   1.797  10.143 -1.6053 -0.1096 -0.6566
 3632SOL     OW22531   0.397   3.948   4.942  0.2893 -0.2860  0.3171
 3632SOL    HW122532   0.474   3.894   4.925 -1.1555 -1.9924 -0.8556
 3632SOL    HW222533   0.410   3.966   5.035 -1.0717 -1.6777  0.7831
 3633SOL     OW22534   3.528   1.409   4.935  0.0388  0.0369 -0.5150
 3633SOL    HW122535   3.501   1.319   4.953  0.1371 -0.1387 -1.2535
 3633SOL    HW222536   3.548   1.437   5.025  1.0679  0.3262 -0.8394
 3634SOL     OW22537   2.020   0.934   6.869 -0.0849  1.0894 -0.2855
 3634SOL    HW122538   1.971   0.853   6.855  1.6125  0.0210 -0.0592
 3634SOL    HW222539   1.979   0.984   6.798 -1.9991  0.2347  0.2276
 3635SOL     OW22540   3.834   0.401   7.527  0.3535 -0.4939 -0.1124
 3635SOL    HW122541   3.767   0.465   7.550 -0.6606 -0.7182 -2.4729
 3635SOL    HW222542   3.817   0.390   7.434  2.3879 -1.0226 -0.4256
 3636SOL     OW22543   4.349   0.297   4.210 -0.1789  0.9218  0.6386
 3636SOL    HW122544   4.331   0.367   4.273 -5.1277 -0.3797  0.7051
 3636SOL    HW222545   4.308   0.319   4.126 -1.9459 -0.7338  1.0553
 3637SOL     OW22546   3.895   0.142   8.611  0.0188 -0.2579  0.1007
 3637SOL    HW122547   3.865   0.082   8.543 -2.0832 -0.0729  0.8600
 3637SOL    HW222548   3.977   0.103   8.639 -0.7366 -0.4467  2.0730
 3638SOL     OW22549   3.978   4.514   7.099  0.3539 -0.2661 -0.3302
 3638SOL    HW122550   3.923   4.587   7.129 -1.0067 -2.6544  3.0609
 3638SOL    HW222551   3.915   4.442   7.113  1.5790 -1.0470  1.1764
 3639SOL     OW22552   1.621   4.020   4.676 -0.3072  0.2298 -0.0672
 3639SOL    HW122553   1.597   4.087   4.740 -4.3503 -1.7576  0.5390
 3639SOL    HW222554   1.560   3.954   4.709  1.0626 -1.3092 -0.6530
 3640SOL     OW22555   2.226   0.491   5.781 -0.0577  0.9845  0.2266
 3640SOL    HW122556   2.276   0.541   5.717  0.9330  1.3272  1.2543
 3640SOL    HW222557   2.278   0.525   5.854 -1.0818 -0.3275  1.5618
 3641SOL     OW22558   2.251   2.847  10.371  0.3446 -0.3578 -0.0548
 3641SOL    HW122559   2.251   2.762  10.327 -0.5932 -0.3296 -0.0985
 3641SOL    HW222560   2.255   2.822  10.463 -0.0476  1.1697  0.3803
 3642SOL     OW22561   2.712   2.274   7.007  0.1084 -0.9128 -0.2286
 3642SOL    HW122562   2.676   2.251   7.093 -0.6573  0.0311 -0.2996
 3642SOL    HW222563   2.803   2.244   7.014  0.7412  0.8681 -0.7887
 3643SOL     OW22564   2.192   2.812   8.687  0.6265  0.5175  0.2306
 3643SOL    HW122565   2.166   2.862   8.764 -0.2822 -0.2603  0.4264
 3643SOL    HW222566   2.263   2.869   8.657  1.3111 -2.2402 -3.3825
 3644SOL     OW22567   4.158   2.617   4.238  0.3844 -0.2168  0.5252
 3644SOL    HW122568   4.107   2.537   4.249  1.7910 -1.1532  0.1814
 3644SOL    HW222569   4.123   2.666   4.313 -0.5296 -1.7455  1.1021
 3645SOL     OW22570   3.225   0.433   9.403  0.0748  0.0041  0.1348
 3645SOL    HW122571   3.286   0.363   9.423  1.7078  0.5891 -2.7850
 3645SOL    HW222572   3.152   0.408   9.460  0.0349  0.2602  0.1967
 3646SOL     OW22573   2.036   4.103   5.658 -0.3683 -0.1626  0.6428
 3646SOL    HW122574   2.105   4.123   5.595 -1.4416  3.1938  0.5732
 3646SOL    HW222575   2.018   4.010   5.645  2.8311 -0.8066  0.7875
 3647SOL     OW22576   0.809   3.764  12.811  0.3700 -0.2304  0.0238
 3647SOL    HW122577   0.879   3.724  12.863 -0.3737 -0.4606  0.8503
 3647SOL    HW222578   0.736   3.767  12.873 -0.5699  0.4704 -1.1374
 3648SOL     OW22579   1.097   0.246  13.009 -1.0063  0.2544  0.2131
 3648SOL    HW122580   1.019   0.279  13.054 -1.6936  0.0247 -0.8114
 3648SOL    HW222581   1.148   0.327  13.012 -0.5406 -0.1512  2.9574
 3649SOL     OW22582   4.046   1.093  12.538  0.0222  0.0011 -0.2138
 3649SOL    HW122583   3.976   1.037  12.502  1.3300 -2.2862  0.7863
 3649SOL    HW222584   3.997   1.141  12.604  1.9366 -0.7160  1.7355
 3650SOL     OW22585   0.875   1.436   5.972  0.1613  0.3762  0.3046
 3650SOL    HW122586   0.876   1.401   5.883 -1.6351 -1.9568  1.1822
 3650SOL    HW222587   0.838   1.522   5.954  0.2726  0.4570  0.4620
 3651SOL     OW22588   1.201   3.884   6.543 -0.3668  0.3986 -0.0359
 3651SOL    HW122589   1.131   3.825   6.571  0.3262  1.0764  3.0859
 3651SOL    HW222590   1.191   3.886   6.448 -2.1776 -1.8042  0.1300
 3652SOL     OW22591   1.635   4.404   5.093 -0.1013  0.3573 -0.5229
 3652SOL    HW122592   1.644   4.400   5.188  0.2321  2.7070 -0.4632
 3652SOL    HW222593   1.550   4.362   5.084 -0.0048  0.0033  0.2033
 3653SOL     OW22594   4.543   0.432  12.265  0.6814  0.4831 -0.3828
 3653SOL    HW122595   4.499   0.361  12.312  0.1087 -0.0092 -1.6644
 3653SOL    HW222596   4.465   0.488  12.262 -0.8779 -1.5613  1.4010
 3654SOL     OW22597   1.693   2.799   7.541  0.2410  0.1300 -0.6460
 3654SOL    HW122598   1.775   2.796   7.491 -0.1522  0.2752 -1.3032
 3654SOL    HW222599   1.679   2.893   7.542  1.1056  0.2545 -0.0746
 3655SOL     OW22600   0.276   3.736   5.101 -0.0189  0.4198 -0.3021
 3655SOL    HW122601   0.286   3.827   5.073  2.4251  0.4449  0.6073
 3655SOL    HW222602   0.186   3.744   5.131 -0.3253 -0.5754 -0.9533
 3656SOL     OW22603   4.651   3.437   6.268  0.4709  0.4879  0.0100
 3656SOL    HW122604   4.720   3.372   6.280  0.9373  0.6782 -1.7327
 3656SOL    HW222605   4.703   3.518   6.274  0.7449  0.4978 -2.4321
 3657SOL     OW22606   4.216   2.846  10.092 -0.2818 -0.3110 -0.3758
 3657SOL    HW122607   4.268   2.926  10.087  1.2565 -1.0796  3.0370
 3657SOL    HW222608   4.272   2.795  10.151 -0.9213 -0.2214  0.3146
 3658SOL     OW22609   4.062   3.671  16.122 -0.2870  0.5252 -0.2997
 3658SOL    HW122610   4.128   3.712  16.068  0.2919 -0.2840 -0.2142
 3658SOL    HW222611   4.055   3.579  16.093  0.3007  0.1703  0.6913
 3659SOL     OW22612   3.277   4.095  13.410  0.4746  0.3450  0.5854
 3659SOL    HW122613   3.241   4.015  13.372  0.5067  0.7850 -0.3670
 3659SOL    HW222614   3.221   4.104  13.488 -1.1487  1.4259 -0.6988
 3660SOL     OW22615   1.435   3.468   2.037  0.2611 -0.1408 -0.2877
 3660SOL    HW122616   1.363   3.532   2.039 -0.6055 -1.1160 -0.0744
 3660SOL    HW222617   1.497   3.512   1.978  0.8542  0.1056  0.5326
 3661SOL     OW22618   1.924   2.198   6.991 -0.2297 -0.2740 -0.5659
 3661SOL    HW122619   2.013   2.167   7.005 -0.0724  0.2429 -0.4015
 3661SOL    HW222620   1.880   2.122   7.030  0.6847 -1.5584 -2.0513
 3662SOL     OW22621   0.629   1.676   6.794  0.0861 -0.0996  0.0447
 3662SOL    HW122622   0.624   1.698   6.887 -0.5006 -1.5237  0.3433
 3662SOL    HW222623   0.593   1.588   6.798  0.6889 -0.3852 -0.7854
 3663SOL     OW22624   1.585   4.465  11.744 -0.3391  0.2019 -0.3846
 3663SOL    HW122625   1.528   4.541  11.760  0.4620  0.6730  0.2274
 3663SOL    HW222626   1.583   4.460  11.649  0.4562 -0.7675 -0.3540
 3664SOL     OW22627   4.554   3.870   9.237 -0.1310 -0.3110 -0.1418
 3664SOL    HW122628   4.466   3.836   9.244  0.1565 -1.3858 -1.7042
 3664SOL    HW222629   4.548   3.953   9.285  0.8464 -1.6795  2.3392
 3665SOL     OW22630   4.722   1.124  12.575 -0.3241 -0.3617 -0.6283
 3665SOL    HW122631   0.032   1.085  12.650 -0.6219 -0.5110 -0.5269
 3665SOL    HW222632   4.628   1.117  12.591 -0.8597  1.0017 -3.1297
 3666SOL     OW22633   0.339   0.236  14.985 -0.0164 -0.1072  0.1823
 3666SOL    HW122634   0.373   0.177  15.052 -1.4050 -0.3730  0.6484
 3666SOL    HW222635   0.382   0.203  14.906  1.3362 -0.3114  1.0017
 3667SOL     OW22636   1.892   4.177   4.751 -0.4382 -0.1647  0.4962
 3667SOL    HW122637   1.809   4.215   4.724 -0.0878  1.7233  2.0876
 3667SOL    HW222638   1.896   4.120   4.674 -1.9045  1.2420 -0.6175
 3668SOL     OW22639   3.295   1.749   6.767 -0.4070 -0.3740 -0.0355
 3668SOL    HW122640   3.343   1.666   6.777 -1.4246 -1.1413 -1.4598
 3668SOL    HW222641   3.270   1.747   6.675  1.1322  1.0971 -0.4674
 3669SOL     OW22642   1.332   3.789   4.091 -0.1906 -0.4593  0.0849
 3669SOL    HW122643   1.420   3.828   4.089  0.1250 -1.1899 -0.1924
 3669SOL    HW222644   1.328   3.740   4.009 -0.1182  0.6681 -0.5963
 3670SOL     OW22645   0.051   3.029   5.640 -0.1689 -0.2566 -0.0869
 3670SOL    HW122646   0.120   3.089   5.668  1.3834 -2.4653  0.8473
 3670SOL    HW222647   4.713   3.090   5.649  0.4389  0.4538  0.0874
 3671SOL     OW22648   1.969   1.337   3.057  0.0063 -0.3436  0.8142
 3671SOL    HW122649   1.922   1.254   3.061  0.9348 -1.0842 -3.4632
 3671SOL    HW222650   1.899   1.392   3.022 -1.7288 -1.3421  2.8075
 3672SOL     OW22651   1.372   0.240   6.084 -0.2240 -0.2387 -0.3950
 3672SOL    HW122652   1.387   0.220   5.992  0.1897  2.2266 -0.8721
 3672SOL    HW222653   1.352   0.154   6.122  1.2375 -1.1752 -1.7398
 3673SOL     OW22654   3.243   1.061   7.868  0.5414 -0.6949 -0.7434
 3673SOL    HW122655   3.171   1.074   7.930  0.2441  0.1953 -1.2766
 3673SOL    HW222656   3.314   1.095   7.923 -0.5433  1.5589 -0.7143
 3674SOL     OW22657   3.669   0.305   8.920 -0.8752 -0.0982  0.2692
 3674SOL    HW122658   3.698   0.393   8.945 -0.5130  0.1357 -0.9483
 3674SOL    HW222659   3.589   0.287   8.968 -1.2511 -1.9065 -1.0571
 3675SOL     OW22660   0.007   1.064  17.428  0.8410  0.6162 -0.0590
 3675SOL    HW122661   0.072   1.009  17.385  0.8787  0.1471  0.5917
 3675SOL    HW222662   0.062   1.110  17.491 -0.6418 -1.1255  2.5505
 3676SOL     OW22663   4.581   3.178   3.695  0.4814 -0.0267 -0.0837
 3676SOL    HW122664   4.577   3.227   3.613  0.5176  2.8281  1.6212
 3676SOL    HW222665   4.608   3.094   3.660 -1.8503 -1.0038  0.4999
 3677SOL     OW22666   4.343   0.918   8.006  0.2921 -0.2836  0.3662
 3677SOL    HW122667   4.340   0.925   8.101  0.6551 -0.0954  0.3638
 3677SOL    HW222668   4.274   0.855   7.987 -0.6186  0.3638  1.5501
 3678SOL     OW22669   3.968   1.672  16.738  0.2883  0.0873 -0.2782
 3678SOL    HW122670   3.983   1.586  16.775 -2.4223  0.1456  1.0010
 3678SOL    HW222671   3.981   1.722  16.819 -1.4466  1.6455 -0.9530
 3679SOL     OW22672   2.981   3.395  10.458 -0.2899 -0.0389 -0.0898
 3679SOL    HW122673   3.066   3.416  10.497 -0.6669  1.3033  0.0101
 3679SOL    HW222674   2.999   3.328  10.392 -0.5551  1.0260 -1.2414
 3680SOL     OW22675   2.715   4.588   7.982  0.4926  0.4826 -0.0744
 3680SOL    HW122676   2.712   4.493   7.966  0.6074 -0.1859  3.8504
 3680SOL    HW222677   2.706   4.625   7.894  0.9667  1.8253  0.4421
 3681SOL     OW22678   3.222   0.222   4.976  0.5280  0.1120  0.1135
 3681SOL    HW122679   3.309   0.228   5.015  0.4461 -2.0206  0.6301
 3681SOL    HW222680   3.180   0.201   5.059 -0.8840 -2.7358 -1.3231
 3682SOL     OW22681   0.785   2.701  10.005 -0.3784  0.2408 -0.3852
 3682SOL    HW122682   0.871   2.658  10.000 -0.8820 -0.9867  1.2223
 3682SOL    HW222683   0.725   2.627   9.996 -1.5798  1.2455 -0.5913
 3683SOL     OW22684   4.240   3.134  10.086 -0.0595 -0.1203  0.2109
 3683SOL    HW122685   4.296   3.170  10.154 -0.5386  0.6049  0.2156
 3683SOL    HW222686   4.171   3.201  10.087  0.0680 -0.0011  0.9110
 3684SOL     OW22687   1.813   3.459   6.086  0.3622 -0.9573 -0.4268
 3684SOL    HW122688   1.879   3.394   6.061  0.6147 -0.2525 -1.5999
 3684SOL    HW222689   1.796   3.443   6.179  0.8939  0.9516  0.0002
 3685SOL     OW22690   0.511   2.587   6.873  0.0811  0.3455 -1.0988
 3685SOL    HW122691   0.536   2.636   6.795 -2.1244  0.5801 -1.6833
 3685SOL    HW222692   0.430   2.548   6.839  0.9540 -2.3902 -0.0158
 3686SOL     OW22693   0.583   2.644  13.251  0.5215 -0.5290  0.7601
 3686SOL    HW122694   0.493   2.677  13.256  0.4097 -0.8609  0.9652
 3686SOL    HW222695   0.628   2.717  13.293 -1.6558 -0.2621  2.6043
 3687SOL     OW22696   3.167   3.860  13.296 -0.8800 -0.4693  0.3385
 3687SOL    HW122697   3.128   3.818  13.373  1.3159  0.8331  2.1457
 3687SOL    HW222698   3.222   3.797  13.249  2.8013  1.9847  1.3258
 3688SOL     OW22699   2.178   3.463   3.507 -0.4574 -0.1048 -0.6352
 3688SOL    HW122700   2.247   3.527   3.490 -1.3156  0.6931 -1.1028
 3688SOL    HW222701   2.140   3.431   3.425 -0.6176  0.9729 -0.9701
 3689SOL     OW22702   1.636   1.424   7.863  0.0988 -0.4261 -0.2089
 3689SOL    HW122703   1.567   1.410   7.798 -0.5432  0.0215  0.3757
 3689SOL    HW222704   1.585   1.425   7.944 -1.5305 -1.5843 -1.2064
 3690SOL     OW22705   0.062   3.124   2.220  0.0226  0.0649  0.3665
 3690SOL    HW122706   0.092   3.205   2.261 -1.4907  0.6739  0.2723
 3690SOL    HW222707   0.047   3.058   2.288 -2.3885  0.5762  0.3299
 3691SOL     OW22708   4.678   2.499   2.297 -0.6479 -0.0431  0.1250
 3691SOL    HW122709   4.622   2.566   2.337  0.6651  0.2046  1.5125
 3691SOL    HW222710   4.651   2.417   2.340 -0.8717 -0.0397 -0.0059
 3692SOL     OW22711   3.575   4.608   7.877  0.1088 -0.8057 -0.3222
 3692SOL    HW122712   3.560   4.535   7.937 -3.3155  0.9626  0.9713
 3692SOL    HW222713   3.636   4.571   7.813  1.1753  2.2188 -1.0755
 3693SOL     OW22714   1.881   4.489  13.458  0.0437 -0.0819  0.2703
 3693SOL    HW122715   1.809   4.552  13.452 -0.5735 -0.8692 -0.5584
 3693SOL    HW222716   1.870   4.467  13.551  1.2950  2.5505  1.0556
 3694SOL     OW22717   2.436   3.508   6.280  0.3280 -0.1624 -0.6508
 3694SOL    HW122718   2.509   3.501   6.341  0.6339  0.2993 -0.9561
 3694SOL    HW222719   2.409   3.596   6.308  2.4511  0.2822  0.0659
 3695SOL     OW22720   0.642   3.234  12.648  0.2932  1.3242 -0.8738
 3695SOL    HW122721   0.611   3.209  12.561  1.5397  0.8194 -1.1766
 3695SOL    HW222722   0.737   3.226  12.633  0.7948  1.1509  2.4839
 3696SOL     OW22723   2.671   3.093  16.425  0.5767 -0.3385  0.0695
 3696SOL    HW122724   2.589   3.142  16.429 -0.1947 -1.4810 -1.5848
 3696SOL    HW222725   2.680   3.061  16.336  3.4239 -1.9896  0.9267
 3697SOL     OW22726   3.739   4.465   5.653  0.3676 -0.2489  0.4672
 3697SOL    HW122727   3.816   4.487   5.600 -0.2922 -0.5492 -0.6163
 3697SOL    HW222728   3.728   4.373   5.628 -0.5168 -0.3020  1.0670
 3698SOL     OW22729   3.174   1.154  15.766 -0.2141  0.1118  0.1173
 3698SOL    HW122730   3.201   1.208  15.692 -1.0800 -0.5236 -0.6735
 3698SOL    HW222731   3.160   1.223  15.831  0.7282  0.8536 -0.4666
 3699SOL     OW22732   1.720   3.858   5.538  0.6242 -0.0450  0.1982
 3699SOL    HW122733   1.683   3.877   5.624  0.2663 -0.8287  0.2145
 3699SOL    HW222734   1.640   3.829   5.494  0.6592  0.6294 -0.3155
 3700SOL     OW22735   4.295   0.131  15.309 -0.0162 -0.6629 -0.2668
 3700SOL    HW122736   4.205   0.100  15.324  0.2323 -0.8418  0.8257
 3700SOL    HW222737   4.291   0.148  15.215  0.7371 -2.3596 -0.5925
 3701SOL     OW22738   1.316   3.214  10.599  0.0575 -0.0459 -0.4405
 3701SOL    HW122739   1.246   3.252  10.652  0.0463  0.1516 -0.5947
 3701SOL    HW222740   1.283   3.214  10.510  1.5101 -0.0398 -0.9778
 3702SOL     OW22741   4.100   4.613  10.607  0.4418 -0.4192  0.3582
 3702SOL    HW122742   4.110   4.539  10.667 -1.8424 -0.0466  1.2012
 3702SOL    HW222743   4.178   4.664  10.631 -0.6119  2.1806 -1.7036
 3703SOL     OW22744   4.147   4.293   4.486  0.2884 -0.7688 -0.2300
 3703SOL    HW122745   4.068   4.344   4.501  0.4493 -0.4285 -0.5228
 3703SOL    HW222746   4.215   4.353   4.454 -0.4654  0.2679  0.1498
 3704SOL     OW22747   3.094   3.307   3.446 -0.2027 -0.4704  0.0880
 3704SOL    HW122748   3.001   3.291   3.460 -0.7818  0.6498 -2.5862
 3704SOL    HW222749   3.136   3.238   3.497  0.2951 -0.0111  0.2994
 3705SOL     OW22750   3.273   2.401   5.745  0.1334  0.0538  0.5863
 3705SOL    HW122751   3.310   2.360   5.823 -0.9608 -0.4168  0.8493
 3705SOL    HW222752   3.329   2.356   5.682  0.3030  1.3554 -0.1980
 3706SOL     OW22753   2.737   1.048   9.350  0.0515  0.2441  0.1486
 3706SOL    HW122754   2.712   1.088   9.434  3.1738 -1.1959  1.7489
 3706SOL    HW222755   2.831   1.058   9.359  0.3552 -1.3856 -1.3050
 3707SOL     OW22756   4.357   0.433   5.303 -0.1363 -0.3992  0.2513
 3707SOL    HW122757   4.336   0.356   5.355  0.7927 -0.6843  0.2109
 3707SOL    HW222758   4.320   0.408   5.218  2.0860 -1.1339 -0.4850
 3708SOL     OW22759   3.462   1.672   2.922 -0.2862 -0.1415  0.1982
 3708SOL    HW122760   3.382   1.691   2.873 -1.8178 -0.6935  2.4903
 3708SOL    HW222761   3.469   1.754   2.971 -1.0329 -0.1253  0.2773
 3709SOL     OW22762   0.055   1.257  11.421  0.5278  0.4047 -0.0979
 3709SOL    HW122763   0.086   1.201  11.350 -0.2665  0.8829 -0.8178
 3709SOL    HW222764   0.090   1.215  11.500 -0.1602  0.1014  0.0419
 3710SOL     OW22765   0.073   1.475   3.044  0.1459 -0.1923  0.1594
 3710SOL    HW122766   0.140   1.408   3.056  1.0941  0.7187 -0.1269
 3710SOL    HW222767   0.022   1.454   3.122  0.2242 -0.8169  0.0436
 3711SOL     OW22768   0.988   2.221   9.938 -0.2629 -0.0828 -0.1661
 3711SOL    HW122769   0.956   2.226   9.847 -1.5067  0.5002  0.3068
 3711SOL    HW222770   0.983   2.314   9.958  1.2670  0.2011 -1.1155
 3712SOL     OW22771   0.448   3.020  14.208  0.1796  0.1512 -0.1960
 3712SOL    HW122772   0.389   3.056  14.142  1.1559 -0.2046 -1.2504
 3712SOL    HW222773   0.405   2.938  14.232  0.1871  0.1843 -0.0671
 3713SOL     OW22774   2.249   3.347   4.545 -0.1883  0.5429 -0.8913
 3713SOL    HW122775   2.294   3.276   4.498 -1.6732 -2.8444  2.8318
 3713SOL    HW222776   2.177   3.373   4.488 -1.5215  1.5312  1.2593
 3714SOL     OW22777   3.351   0.191   9.440  0.4487  0.1557  0.3650
 3714SOL    HW122778   3.331   0.104   9.473  0.4315 -1.1477 -3.0665
 3714SOL    HW222779   3.444   0.199   9.457  0.5483 -2.8382  1.2343
 3715SOL     OW22780   0.219   0.766   4.033 -0.5372  0.2709 -0.2544
 3715SOL    HW122781   0.173   0.701   3.980 -1.0114 -0.4152  0.9980
 3715SOL    HW222782   0.238   0.724   4.116  0.1213  2.2809  0.6085
 3716SOL     OW22783   4.692   3.039  12.477  0.1074  0.2666 -0.2635
 3716SOL    HW122784   4.650   3.004  12.398 -1.5732 -2.1039  1.6811
 3716SOL    HW222785   4.622   3.065  12.537  0.5285 -1.5529  1.0013
 3717SOL     OW22786   3.174   2.978   7.264 -0.3761 -0.2297  0.2416
 3717SOL    HW122787   3.269   2.993   7.259 -0.2061 -1.6966 -0.8871
 3717SOL    HW222788   3.153   2.961   7.356 -0.9797  0.8436  0.3022
 3718SOL     OW22789   3.239   3.100   3.583 -0.4333  0.1124 -0.3011
 3718SOL    HW122790   3.297   3.170   3.554  1.0291 -0.5249  1.1083
 3718SOL    HW222791   3.292   3.046   3.641 -2.4703  1.2919  2.6498
 3719SOL     OW22792   2.256   2.328   4.326  0.2335  0.7318 -0.2321
 3719SOL    HW122793   2.210   2.412   4.319  1.4068  1.5603  1.9385
 3719SOL    HW222794   2.286   2.327   4.235 -2.5176  1.8023 -1.1657
 3720SOL     OW22795   3.751   2.026  11.743 -0.0513  0.7032  0.1956
 3720SOL    HW122796   3.805   2.083  11.797  1.6025 -2.1154  1.5165
 3720SOL    HW222797   3.815   1.994  11.679  0.3706  0.1703  0.8973
 3721SOL     OW22798   0.863   1.359   0.561 -0.1763 -0.0107  0.0566
 3721SOL    HW122799   0.797   1.320   0.619  0.2250  0.7040  0.9962
 3721SOL    HW222800   0.886   1.284   0.507 -3.2522 -0.8123 -0.1546
 3722SOL     OW22801   0.570   4.127   7.091 -0.4666 -1.0825 -0.0942
 3722SOL    HW122802   0.500   4.175   7.135 -1.1676 -0.7098 -1.6381
 3722SOL    HW222803   0.526   4.089   7.015 -1.9392  2.3664 -0.9344
 3723SOL     OW22804   0.706   3.194   7.429  0.0656  0.2786  0.1227
 3723SOL    HW122805   0.688   3.151   7.345  0.7577 -1.7476  1.0197
 3723SOL    HW222806   0.798   3.167   7.431  0.1334  0.4974 -0.0532
 3724SOL     OW22807   0.123   1.083  13.272  0.3168  0.3489  0.3204
 3724SOL    HW122808   0.074   1.094  13.354  2.4465 -0.0719  1.6462
 3724SOL    HW222809   0.183   1.157  13.284  1.0545 -0.5393  2.2234
 3725SOL     OW22810   2.229   0.109  16.296  0.3805  0.1848 -0.2780
 3725SOL    HW122811   2.277   0.109  16.379 -0.3464  0.3398  0.1434
 3725SOL    HW222812   2.140   0.082  16.319  0.4161  0.2691 -0.0412
 3726SOL     OW22813   4.489   0.593   8.286  0.2212  0.1475 -0.2664
 3726SOL    HW122814   4.472   0.500   8.304 -0.0952  0.4600  1.0235
 3726SOL    HW222815   4.543   0.609   8.363  1.1197 -0.3413 -0.7984
 3727SOL     OW22816   4.720   1.245   4.405 -0.0163  0.4747  0.5447
 3727SOL    HW122817   0.033   1.286   4.333 -0.7573  1.6975  0.7384
 3727SOL    HW222818   0.053   1.184   4.430  0.9187  0.0077 -3.0633
 3728SOL     OW22819   1.851   0.511   9.835  0.0275 -0.0985  0.1901
 3728SOL    HW122820   1.894   0.560   9.765  1.0101 -0.9898  0.1664
 3728SOL    HW222821   1.771   0.471   9.802 -1.1657  2.2743  0.1827
 3729SOL     OW22822   2.183   1.734   6.059  0.7375 -0.2506  0.0359
 3729SOL    HW122823   2.200   1.815   6.108 -0.1217 -0.4883  0.7203
 3729SOL    HW222824   2.202   1.666   6.123 -1.2553 -0.8320 -0.0166
 3730SOL     OW22825   1.965   1.401  11.521  0.2046 -0.0258 -0.2064
 3730SOL    HW122826   1.964   1.488  11.561  0.3234  0.6535 -1.6609
 3730SOL    HW222827   2.029   1.367  11.583  0.0505  0.1552  0.0518
 3731SOL     OW22828   4.442   1.321   5.837  0.4553 -0.0471  0.1650
 3731SOL    HW122829   4.435   1.356   5.926 -1.9351  0.0992 -0.0691
 3731SOL    HW222830   4.457   1.229   5.855  0.4592 -0.5725 -2.4936
 3732SOL     OW22831   0.753   1.626   7.269  0.3332 -0.2572  0.5837
 3732SOL    HW122832   0.787   1.706   7.309  1.0502 -0.9792  1.4051
 3732SOL    HW222833   0.762   1.648   7.176 -1.2135  0.2999  0.5598
 3733SOL     OW22834   2.887   0.352   9.848  0.0315 -0.2330 -0.4122
 3733SOL    HW122835   2.852   0.324   9.933 -1.6060  1.0485 -0.6433
 3733SOL    HW222836   2.906   0.264   9.817 -0.2649 -0.4879  0.1288
 3734SOL     OW22837   2.166   1.778   8.245 -0.4932  0.9476 -0.3665
 3734SOL    HW122838   2.189   1.769   8.337  1.7954  1.3926 -0.9019
 3734SOL    HW222839   2.214   1.707   8.201 -0.0224  1.6107 -0.9272
 3735SOL     OW22840   3.468   4.667  11.667 -1.1191  0.4528  0.0424
 3735SOL    HW122841   3.539   4.730  11.676  0.8469 -1.2344 -3.3595
 3735SOL    HW222842   3.441   4.704  11.583  2.0346  0.5333 -0.9135
 3736SOL     OW22843   3.488   0.819   5.059  0.1458 -0.4164  0.4123
 3736SOL    HW122844   3.523   0.862   4.981  1.0668 -1.2838  0.3547
 3736SOL    HW222845   3.560   0.765   5.093  0.8547  0.9312  1.0788
 3737SOL     OW22846   2.158   0.877   6.501 -0.0817 -0.7191  0.0883
 3737SOL    HW122847   2.128   0.911   6.586 -1.2746 -3.4736  0.7716
 3737SOL    HW222848   2.176   0.789   6.534 -0.7936 -2.0138 -2.9957
 3738SOL     OW22849   0.913   3.669   4.475 -0.6308 -0.3065  0.4183
 3738SOL    HW122850   0.953   3.585   4.453  0.7179  0.6966 -0.9544
 3738SOL    HW222851   0.909   3.712   4.389 -1.8669 -3.4316 -1.0846
 3739SOL     OW22852   1.422   2.502   4.264 -0.2086 -0.6836 -0.1244
 3739SOL    HW122853   1.441   2.526   4.354  0.8602  0.4198 -0.6429
 3739SOL    HW222854   1.363   2.574   4.242  0.8077 -0.1614 -1.1504
 3740SOL     OW22855   0.230   4.299   9.619 -0.0464 -0.1976  0.0778
 3740SOL    HW122856   0.256   4.382   9.660  1.5675 -0.5001 -0.3346
 3740SOL    HW222857   0.135   4.313   9.624  0.1531 -0.2940  4.0477
 3741SOL     OW22858   0.338   0.357   5.841  0.3007 -0.7449  0.2308
 3741SOL    HW122859   0.423   0.317   5.823  0.8631 -0.6137  2.6285
 3741SOL    HW222860   0.362   0.450   5.842 -1.8993 -0.1773 -0.8498
 3742SOL     OW22861   2.724   0.987  17.191 -0.1774 -0.0168 -0.3071
 3742SOL    HW122862   2.791   0.996  17.123  1.8344  4.0585  2.2434
 3742SOL    HW222863   2.699   1.078  17.205 -0.0408 -0.0448  0.1176
 3743SOL     OW22864   1.477   0.756   2.180  0.2471  0.0678 -0.3437
 3743SOL    HW122865   1.412   0.786   2.117  0.3653  2.6807  0.7937
 3743SOL    HW222866   1.504   0.680   2.128  1.3089 -0.0564  0.3909
 3744SOL     OW22867   4.121   1.366   5.635  0.1554  0.1023 -0.2832
 3744SOL    HW122868   4.135   1.318   5.717  0.3416 -1.1544 -1.0514
 3744SOL    HW222869   4.050   1.430   5.647  0.4458  0.6285 -1.3902
 3745SOL     OW22870   3.187   3.986   8.106 -0.3682 -0.9921 -1.0838
 3745SOL    HW122871   3.193   3.996   8.011  1.8441  1.3651 -0.6864
 3745SOL    HW222872   3.200   4.078   8.129  1.2367 -0.8051 -2.7176
 3746SOL     OW22873   4.114   1.416   7.477  0.6177 -0.2047  0.2790
 3746SOL    HW122874   4.021   1.415   7.453  0.3139 -0.8349  1.4998
 3746SOL    HW222875   4.154   1.425   7.391 -1.4565 -2.4095 -0.9382
 3747SOL     OW22876   4.516   0.869   3.818 -0.2860  0.2770  0.4656
 3747SOL    HW122877   4.610   0.883   3.815 -0.0221 -1.8521 -0.7157
 3747SOL    HW222878   4.505   0.835   3.907 -0.7736  0.4529  0.4711
 3748SOL     OW22879   3.800   2.537   1.140  0.2169  0.3216 -0.2725
 3748SOL    HW122880   3.726   2.490   1.180 -0.1820  0.8050 -0.4494
 3748SOL    HW222881   3.776   2.547   1.048 -0.1997 -0.6193 -0.2685
 3749SOL     OW22882   1.220   3.263   4.094 -0.1160 -0.3573  0.1009
 3749SOL    HW122883   1.222   3.175   4.133 -1.1489 -0.6050 -0.4073
 3749SOL    HW222884   1.134   3.255   4.053 -0.4480 -1.3300  0.9720
 3750SOL     OW22885   0.280   2.800   7.223 -0.4822  0.4877  0.0979
 3750SOL    HW122886   0.333   2.859   7.169 -3.0284  1.6953 -1.0554
 3750SOL    HW222887   0.233   2.868   7.272 -1.9474 -1.6063  1.5442
 3751SOL     OW22888   1.680   2.326   6.786  0.1646  0.1748 -0.1904
 3751SOL    HW122889   1.638   2.341   6.702 -0.6499  1.4151  0.4468
 3751SOL    HW222890   1.703   2.233   6.776 -3.1817 -0.4187 -2.4999
 3752SOL     OW22891   0.910   1.349  11.677 -0.3498  0.1397  0.4613
 3752SOL    HW122892   0.939   1.434  11.710 -1.4673  1.1843 -1.2768
 3752SOL    HW222893   0.975   1.290  11.716 -0.3296 -0.4686 -0.4981
 3753SOL     OW22894   0.805   0.274   4.656  0.0038 -0.2405  0.6643
 3753SOL    HW122895   0.777   0.356   4.616 -0.5293 -1.2805 -1.0764
 3753SOL    HW222896   0.897   0.269   4.629  0.1146 -1.5933  1.2600
 3754SOL     OW22897   0.794   4.564   4.243  0.6626  0.0050 -0.4068
 3754SOL    HW122898   0.794   4.623   4.319 -2.5185 -0.8039  0.2238
 3754SOL    HW222899   0.703   4.540   4.231  0.8280 -1.5127  1.3861
 3755SOL     OW22900   2.007   1.599   0.864 -0.4223  0.2695 -0.5380
 3755SOL    HW122901   2.096   1.628   0.884 -1.0684  2.4315 -0.7826
 3755SOL    HW222902   1.988   1.632   0.776  1.0658 -1.6197 -1.5551
 3756SOL     OW22903   0.735   4.086   2.320  0.6700 -0.2298 -0.3234
 3756SOL    HW122904   0.768   4.156   2.376  1.5153  0.0528 -1.1825
 3756SOL    HW222905   0.649   4.072   2.361  0.0381  1.3748 -1.0889
 3757SOL     OW22906   0.910   2.013  13.663 -0.2890 -0.7945  0.7750
 3757SOL    HW122907   0.960   2.086  13.628  2.1832 -2.0092  1.7658
 3757SOL    HW222908   0.971   1.983  13.730  0.3251 -0.0458  0.5428
 3758SOL     OW22909   1.364   1.534  16.039  0.0713 -0.7447  0.5833
 3758SOL    HW122910   1.444   1.550  16.089  0.0258  1.9859 -0.2038
 3758SOL    HW222911   1.303   1.590  16.086  0.1417 -0.9284  0.8959
 3759SOL     OW22912   3.245   2.178  12.416 -0.4233 -0.3584 -0.1019
 3759SOL    HW122913   3.294   2.096  12.425  1.2406  0.7236  0.7172
 3759SOL    HW222914   3.158   2.146  12.392  0.1128 -0.0618 -2.4416
 3760SOL     OW22915   1.690   0.783  14.333  0.3690  0.1242 -1.3634
 3760SOL    HW122916   1.705   0.750  14.245  0.9451  1.3901 -1.7364
 3760SOL    HW222917   1.607   0.743  14.359 -0.6040  2.0800 -1.4718
 3761SOL     OW22918   0.714   2.744   1.748  0.0280  0.3163  0.4330
 3761SOL    HW122919   0.797   2.750   1.702 -1.2702 -0.2166 -1.9855
 3761SOL    HW222920   0.672   2.663   1.719 -1.8334  1.3354  0.2475
 3762SOL     OW22921   2.419   1.660   8.002 -0.1201 -0.1449 -0.5876
 3762SOL    HW122922   2.352   1.613   8.052  0.8365 -0.1542  0.6933
 3762SOL    HW222923   2.492   1.600   8.018 -2.0584 -2.1098  0.8788
 3763SOL     OW22924   2.022   4.325   5.035  0.2053  0.1770  0.1114
 3763SOL    HW122925   1.972   4.244   5.022 -1.5572  1.3596 -0.4528
 3763SOL    HW222926   2.041   4.337   4.942  1.1408 -0.9441  0.1476
 3764SOL     OW22927   1.257   0.085   2.021 -0.2491 -0.1697  0.1418
 3764SOL    HW122928   1.229   4.729   2.020 -0.8697  0.0514 -1.4194
 3764SOL    HW222929   1.177   0.128   1.992  2.0506  2.9459 -1.5332
 3765SOL     OW22930   1.374   2.359   5.313  0.2919 -0.2087 -0.5271
 3765SOL    HW122931   1.311   2.385   5.246 -0.5416 -0.4708  0.1681
 3765SOL    HW222932   1.312   2.356   5.386  1.4923  3.3418  0.6237
 3766SOL     OW22933   2.526   2.611   9.602  0.0976 -0.0071  0.3974
 3766SOL    HW122934   2.565   2.698   9.607 -2.8498  1.2364  1.4095
 3766SOL    HW222935   2.595   2.558   9.643  2.0576  1.1925 -1.3519
 3767SOL     OW22936   1.654   3.802   1.162  0.9278  0.0876 -0.1935
 3767SOL    HW122937   1.667   3.893   1.187 -1.6675  0.2386  0.5967
 3767SOL    HW222938   1.678   3.814   1.070  1.8115  0.2929  0.0668
 3768SOL     OW22939   0.781   2.837   8.994  0.6068 -0.5365 -0.1777
 3768SOL    HW122940   0.862   2.799   8.961  0.7931 -0.0704 -0.2493
 3768SOL    HW222941   0.739   2.849   8.909  0.3535  1.1666  0.1929
 3769SOL     OW22942   1.114   4.130   1.680  0.0328 -0.1231  0.0777
 3769SOL    HW122943   1.039   4.122   1.740  1.4583 -0.5246  1.8158
 3769SOL    HW222944   1.116   4.219   1.645  2.7689  0.0631  0.7477
 3770SOL     OW22945   0.190   3.406  12.863 -0.5257 -0.1226  0.4796
 3770SOL    HW122946   0.273   3.368  12.835 -0.0510  1.9360 -0.9252
 3770SOL    HW222947   0.135   3.385  12.787 -0.7708 -1.2492  0.9701
 3771SOL     OW22948   3.324   0.483   6.420  0.2655 -0.4138  0.0558
 3771SOL    HW122949   3.392   0.425   6.385  0.4535 -1.0437  1.4659
 3771SOL    HW222950   3.342   0.568   6.380  1.4448 -1.0168 -0.6939
 3772SOL     OW22951   0.427   2.593   4.845  0.1806 -0.1364  0.0154
 3772SOL    HW122952   0.482   2.534   4.896  0.9262  0.6319  0.0804
 3772SOL    HW222953   0.489   2.647   4.796  1.9581  0.0690  2.5256
 3773SOL     OW22954   4.351   4.319   5.192 -0.0552  0.3136  0.0573
 3773SOL    HW122955   4.412   4.246   5.183 -1.4355 -0.9283  0.6721
 3773SOL    HW222956   4.410   4.395   5.190  0.8037 -0.3376  0.4311
 3774SOL     OW22957   3.354   1.236   1.248  1.1301 -0.1554  0.4103
 3774SOL    HW122958   3.337   1.177   1.322  1.1740  3.8772  3.5868
 3774SOL    HW222959   3.421   1.183   1.205  1.7135  2.2955 -1.6628
 3775SOL     OW22960   3.521   0.002  16.971  0.0491  0.5063 -0.5804
 3775SOL    HW122961   3.520   4.643  16.955  0.0725  0.7932 -2.3218
 3775SOL    HW222962   3.465   0.016  17.047  1.1745  0.7021  0.2110
 3776SOL     OW22963   0.943   0.410   1.662  0.6335  0.2421 -0.0227
 3776SOL    HW122964   0.865   0.461   1.683  0.7833  1.0569 -1.5146
 3776SOL    HW222965   0.909   0.324   1.639  1.1470 -0.2507  1.0520
 3777SOL     OW22966   2.221   2.540  13.162  0.1875  0.2762  0.4127
 3777SOL    HW122967   2.242   2.458  13.208 -0.9515  0.2041  0.8079
 3777SOL    HW222968   2.302   2.565  13.117  1.9410  0.5317  3.7049
 3778SOL     OW22969   4.472   1.300   7.627  0.5276  0.5410 -1.1531
 3778SOL    HW122970   4.495   1.392   7.639  1.5821  0.0447  0.6345
 3778SOL    HW222971   4.528   1.257   7.692 -2.5079 -1.9891 -0.1943
 3779SOL     OW22972   4.724   0.353   2.927 -0.5887  0.0027  0.7387
 3779SOL    HW122973   4.734   0.448   2.921  0.1723 -0.1664 -0.6418
 3779SOL    HW222974   0.079   0.325   2.943 -0.9510 -1.5550  0.1054
 3780SOL     OW22975   2.284   2.202   3.455  0.3433 -0.3106  1.3251
 3780SOL    HW122976   2.315   2.147   3.382  0.4261  2.7526 -0.9338
 3780SOL    HW222977   2.216   2.259   3.419  0.5227 -1.4405 -0.8281
 3781SOL     OW22978   1.951   2.301   0.480  0.1659 -0.1430 -0.2076
 3781SOL    HW122979   1.993   2.374   0.435 -0.0254 -0.7267 -1.3283
 3781SOL    HW222980   1.861   2.307   0.448  0.3001  0.3961 -0.4724
 3782SOL     OW22981   0.426   2.195   5.858 -0.1454 -0.1490  0.4084
 3782SOL    HW122982   0.397   2.113   5.897 -1.7066  1.4159  2.5462
 3782SOL    HW222983   0.375   2.199   5.777 -0.1949 -0.3459  0.4304
 3783SOL     OW22984   2.255   2.365  15.492 -0.3197  0.8343  0.0433
 3783SOL    HW122985   2.342   2.330  15.513 -0.2797  0.5242 -0.6355
 3783SOL    HW222986   2.278   2.441  15.438  0.1956  0.3807 -0.3742
 3784SOL     OW22987   1.431   1.430   9.848  0.0243 -0.3615 -0.6351
 3784SOL    HW122988   1.392   1.511   9.813  3.0627  0.5577 -1.8789
 3784SOL    HW222989   1.354   1.376   9.832  0.8623 -1.8416  0.3530
 3785SOL     OW22990   1.599   3.291   4.183 -0.5255  0.2988 -0.2488
 3785SOL    HW122991   1.533   3.330   4.240 -0.0406 -0.6611  0.9642
 3785SOL    HW222992   1.547   3.296   4.103 -0.1295  0.1967 -0.5122
 3786SOL     OW22993   3.653   0.571  10.627 -0.2465  0.0371 -0.2252
 3786SOL    HW122994   3.609   0.649  10.664  0.4842 -0.3662  1.4704
 3786SOL    HW222995   3.746   0.592  10.631 -0.5011  0.8539  1.4203
 3787SOL     OW22996   0.916   4.223  17.368 -0.2173  0.3020 -0.3129
 3787SOL    HW122997   0.888   4.168  17.441  0.7533  0.9856  0.5711
 3787SOL    HW222998   0.976   4.280  17.415  1.0228 -2.4081  1.3929
 3788SOL     OW22999   1.309   2.540   9.662 -0.2797  0.0046  0.1438
 3788SOL    HW123000   1.366   2.546   9.739 -0.9352  3.2733  0.3904
 3788SOL    HW223001   1.255   2.619   9.672 -0.3401  0.2150 -1.8717
 3789SOL     OW23002   3.787   2.105  11.068  0.2247 -0.2283  0.0991
 3789SOL    HW123003   3.707   2.155  11.056  0.7828  0.3005 -1.5403
 3789SOL    HW223004   3.854   2.173  11.055 -0.8310  1.2455  2.4622
 3790SOL     OW23005   1.337   3.835  17.552 -0.2026 -0.0396 -0.0118
 3790SOL    HW123006   1.367   3.748  17.526 -4.4858 -1.2740 -0.8015
 3790SOL    HW223007   1.411   3.880  17.511  0.4900 -1.4727 -0.3213
 3791SOL     OW23008   2.638   0.434   8.257 -0.7206  0.0591 -0.6889
 3791SOL    HW123009   2.640   0.380   8.337  0.1750 -1.1873 -1.5650
 3791SOL    HW223010   2.558   0.405   8.212  1.4434 -2.8389 -2.6214
 3792SOL     OW23011   3.236   2.195   3.766  0.0887 -0.3413  0.2330
 3792SOL    HW123012   3.246   2.285   3.797 -2.0654  0.0100 -0.1314
 3792SOL    HW223013   3.265   2.139   3.838  0.9738  0.8215  0.7805
 3793SOL     OW23014   2.030   0.440  12.868 -0.4408  0.1458  0.5185
 3793SOL    HW123015   2.077   0.390  12.801 -0.1647 -1.2165  1.7330
 3793SOL    HW223016   2.047   0.395  12.950  0.5898 -0.2823  0.0631
 3794SOL     OW23017   2.587   0.443   1.288  0.2898  0.1310 -0.1806
 3794SOL    HW123018   2.635   0.526   1.279  1.7504 -0.6991 -0.1503
 3794SOL    HW223019   2.559   0.430   1.198  2.8864 -0.2526 -0.9295
 3795SOL     OW23020   0.566   2.534   8.001 -0.3458 -0.0981  0.1750
 3795SOL    HW123021   0.630   2.575   8.058 -0.3314 -0.0211  0.1026
 3795SOL    HW223022   0.482   2.576   8.019  0.5277  0.8066  2.1331
 3796SOL     OW23023   4.400   3.966  15.796 -0.4650 -0.4769  0.4826
 3796SOL    HW123024   4.331   3.980  15.732  0.3266  0.6073 -0.1374
 3796SOL    HW223025   4.474   3.933  15.745 -0.0429  2.6361 -0.8936
 3797SOL     OW23026   3.409   1.071  16.220 -0.2293  0.3161  0.3105
 3797SOL    HW123027   3.465   1.092  16.295 -0.4922 -0.6096  0.7567
 3797SOL    HW223028   3.391   1.158  16.184  1.2733 -0.0127 -1.2307
 3798SOL     OW23029   2.872   0.286   6.167 -0.0761  0.1513  0.7604
 3798SOL    HW123030   2.951   0.243   6.201  2.1811  2.0074 -2.0882
 3798SOL    HW223031   2.859   0.362   6.223 -1.1753  0.5154  0.0059
 3799SOL     OW23032   3.678   3.434   4.367  0.5671  0.4761  0.4302
 3799SOL    HW123033   3.751   3.420   4.307  0.8410  1.0503  0.6299
 3799SOL    HW223034   3.727   3.414   4.447 -0.0232  2.5772  1.3180
 3800SOL     OW23035   0.896   0.806  11.173 -0.0948 -0.1031 -0.3204
 3800SOL    HW123036   0.818   0.787  11.120 -1.7026 -0.0103  2.0082
 3800SOL    HW223037   0.864   0.774  11.257  1.6950 -1.8368 -0.3050
 3801SOL     OW23038   0.225   1.272  14.520  0.1803  0.2461 -0.2397
 3801SOL    HW123039   0.316   1.250  14.542  0.3930 -0.1277 -1.4834
 3801SOL    HW223040   0.173   1.215  14.576 -2.8851  2.0038 -1.3025
 3802SOL     OW23041   1.653   1.349   3.731  0.2674  0.3478 -0.4337
 3802SOL    HW123042   1.708   1.308   3.798  1.5672  3.3578  0.3603
 3802SOL    HW223043   1.700   1.432   3.720  0.3815  0.1675 -1.3294
 3803SOL     OW23044   3.323   4.622  11.399  0.3928 -0.4359  0.3883
 3803SOL    HW123045   3.296   4.647  11.311 -2.9261 -2.6386  0.7563
 3803SOL    HW223046   3.250   4.567  11.430 -1.0917  0.8831 -0.7466
 3804SOL     OW23047   0.734   1.721   9.500 -0.6977  0.3179 -0.1450
 3804SOL    HW123048   0.673   1.752   9.567 -0.7971 -0.1605 -0.0164
 3804SOL    HW223049   0.799   1.792   9.499 -0.6347  0.2525 -0.4589
 3805SOL     OW23050   2.279   0.989   9.532 -0.9498  0.0710 -0.0275
 3805SOL    HW123051   2.222   0.927   9.487 -1.3356 -0.7351  1.5930
 3805SOL    HW223052   2.344   1.027   9.472  0.7623  0.7671  2.2486
 3806SOL     OW23053   1.245   1.283   0.657 -0.3835  0.1916  0.4627
 3806SOL    HW123054   1.321   1.265   0.602 -0.4676  1.6873 -0.1218
 3806SOL    HW223055   1.260   1.350   0.723 -1.1243 -1.1397  1.9742
 3807SOL     OW23056   2.101   0.372   3.307  0.2585 -0.1557  0.0474
 3807SOL    HW123057   2.144   0.327   3.235 -0.1187  0.6316 -0.6658
 3807SOL    HW223058   2.173   0.370   3.371 -1.3418 -1.4077  1.8075
 3808SOL     OW23059   1.473   4.633   7.863  0.1439 -0.3011  0.8056
 3808SOL    HW123060   1.386   4.614   7.900 -0.5078  0.1508 -0.5082
 3808SOL    HW223061   1.533   4.564   7.890  2.1300  1.1124 -0.0158
 3809SOL     OW23062   3.206   2.650   8.653 -0.1241 -0.5147  0.4181
 3809SOL    HW123063   3.121   2.694   8.641 -0.3635 -0.5542  1.9153
 3809SOL    HW223064   3.255   2.718   8.700 -1.3262  0.1482  0.7269
 3810SOL     OW23065   3.385   0.732   6.288  0.1027  0.7692  0.0748
 3810SOL    HW123066   3.333   0.807   6.260 -1.5309 -0.7644 -0.9930
 3810SOL    HW223067   3.421   0.702   6.204 -0.8061 -1.8139  0.6207
 3811SOL     OW23068   2.342   3.872   7.785 -0.0095  0.1266  0.2481
 3811SOL    HW123069   2.267   3.904   7.735  0.4763 -0.5441 -0.9240
 3811SOL    HW223070   2.324   3.906   7.873 -0.0710  0.1210  0.2374
 3812SOL     OW23071   1.208   2.501   4.677 -0.4705  0.3793 -0.2787
 3812SOL    HW123072   1.259   2.492   4.758 -2.0876 -0.4358  0.6467
 3812SOL    HW223073   1.251   2.429   4.630  3.6392  2.6984 -0.1060
 3813SOL     OW23074   3.210   0.307   8.601  0.1217  0.0991 -0.1301
 3813SOL    HW123075   3.197   0.349   8.687  0.7552 -0.8738  0.4353
 3813SOL    HW223076   3.196   0.216   8.627 -1.2620  0.1809 -0.5794
 3814SOL     OW23077   4.475   0.644   0.780  0.4238 -0.4794  0.4539
 3814SOL    HW123078   4.428   0.583   0.836  0.9467 -1.2389  0.0543
 3814SOL    HW223079   4.514   0.705   0.843  1.6870 -1.2705  0.4402
 3815SOL     OW23080   1.008   0.412   4.109  0.4678 -0.0474  0.2630
 3815SOL    HW123081   1.078   0.384   4.050  1.6888  1.8106  0.8171
 3815SOL    HW223082   0.954   0.333   4.112 -1.4787  1.3064  1.4125
 3816SOL     OW23083   1.928   0.365  17.404 -0.2598 -0.2493 -0.1114
 3816SOL    HW123084   1.923   0.289  17.463 -1.1262 -0.7511 -0.8281
 3816SOL    HW223085   1.944   0.320  17.321  3.7354 -0.2668  0.6862
 3817SOL     OW23086   3.650   4.286   1.566  0.0329  0.1970  0.1216
 3817SOL    HW123087   3.692   4.298   1.651  1.3576 -0.2245 -0.4754
 3817SOL    HW223088   3.606   4.370   1.560 -1.5246 -0.6539 -0.5674
 3818SOL     OW23089   3.617   0.335   6.336  0.5948  0.6093  0.3998
 3818SOL    HW123090   3.690   0.323   6.397 -0.5994  2.1830  2.1133
 3818SOL    HW223091   3.665   0.326   6.253 -1.4342  1.2459 -0.8304
 3819SOL     OW23092   3.593   0.738   2.649  0.0515  0.2159  0.0386
 3819SOL    HW123093   3.657   0.741   2.720  0.1817 -0.6744 -0.0422
 3819SOL    HW223094   3.519   0.795   2.671  0.7362  1.5126 -1.0209
 3820SOL     OW23095   2.517   4.480   3.946  0.6118 -0.0445 -0.0426
 3820SOL    HW123096   2.554   4.561   3.982 -0.6656  1.8550 -2.9400
 3820SOL    HW223097   2.596   4.427   3.953 -0.1986 -1.5733 -2.3426
 3821SOL     OW23098   1.532   0.735   3.219 -0.7039  0.0325  0.9228
 3821SOL    HW123099   1.595   0.704   3.154 -0.5807  0.3221  0.9043
 3821SOL    HW223100   1.508   0.655   3.266  1.6794  0.0435  2.1602
 3822SOL     OW23101   1.375   3.310   8.930 -0.1752  0.3745  0.1826
 3822SOL    HW123102   1.373   3.394   8.976  1.2902  1.1591 -1.1565
 3822SOL    HW223103   1.346   3.341   8.845  0.4126 -0.5246 -0.3503
 3823SOL     OW23104   0.222   4.532   5.005  0.2686 -0.1966 -1.0151
 3823SOL    HW123105   0.260   4.450   4.974 -0.7183 -1.0570  0.0575
 3823SOL    HW223106   0.282   4.598   4.969  2.0205 -0.3632  1.5635
 3824SOL     OW23107   0.962   2.750  10.930 -0.1367  0.5945  0.1423
 3824SOL    HW123108   0.875   2.727  10.895  0.0135 -1.4048  1.1522
 3824SOL    HW223109   0.969   2.692  11.005  0.7212  0.6006  0.0590
 3825SOL     OW23110   2.467   1.666   3.277 -0.3224  0.2277 -0.0546
 3825SOL    HW123111   2.516   1.646   3.197  2.4186 -0.5219  1.8345
 3825SOL    HW223112   2.375   1.668   3.250 -0.6160  2.7318  1.0978
 3826SOL     OW23113   4.008   1.166   2.163  0.2933 -0.2170 -0.1204
 3826SOL    HW123114   3.952   1.106   2.213 -1.4537  1.5882  0.0791
 3826SOL    HW223115   3.985   1.141   2.073 -1.8933  1.3412 -0.0048
 3827SOL     OW23116   2.498   1.688   2.298  0.0332 -0.6318  0.2463
 3827SOL    HW123117   2.472   1.646   2.217 -0.0944  1.8217 -0.9824
 3827SOL    HW223118   2.476   1.618   2.359  0.6821 -2.9375 -2.2029
 3828SOL     OW23119   3.550   2.529   3.801  0.3851  0.0520  0.1185
 3828SOL    HW123120   3.578   2.582   3.727  1.3220 -2.1812 -1.1289
 3828SOL    HW223121   3.550   2.600   3.865  0.7176  0.6401 -0.5443
 3829SOL     OW23122   2.094   2.768   9.803 -0.5877  0.3347 -0.7207
 3829SOL    HW123123   2.150   2.704   9.759  0.2260 -1.6972  3.3534
 3829SOL    HW223124   2.023   2.711   9.831 -0.4151 -0.4457 -1.8512
 3830SOL     OW23125   3.552   0.957   2.006  0.1327  0.3252  0.1172
 3830SOL    HW123126   3.571   1.035   1.954  1.2768  1.4197  2.1902
 3830SOL    HW223127   3.603   0.964   2.087  1.0031 -1.4232 -0.2748
 3831SOL     OW23128   1.977   0.151   6.621  0.0672  0.1749 -0.0165
 3831SOL    HW123129   2.069   0.142   6.646  0.2728 -0.6643 -1.0947
 3831SOL    HW223130   1.962   0.235   6.665  2.0435  1.5289 -1.9092
 3832SOL     OW23131   2.921   3.079   4.032  0.5695  0.2531  0.3029
 3832SOL    HW123132   2.840   3.073   4.083  0.0848  0.5939 -0.4232
 3832SOL    HW223133   2.970   3.129   4.097  0.8080 -0.1745  0.4490
 3833SOL     OW23134   2.970   1.028  15.634  0.0801  0.1008 -0.6092
 3833SOL    HW123135   3.030   1.059  15.701  0.2758 -0.9782 -0.2869
 3833SOL    HW223136   2.977   1.099  15.570 -0.8028  0.9612  0.2327
 3834SOL     OW23137   2.504   3.078   7.501  0.1068 -0.3112 -0.0606
 3834SOL    HW123138   2.525   3.074   7.594  1.3283  3.3588 -0.1574
 3834SOL    HW223139   2.497   2.989   7.467 -0.2230  0.7396 -2.7823
 3835SOL     OW23140   2.989   2.558  13.896 -0.6341  0.3074 -0.0692
 3835SOL    HW123141   2.934   2.489  13.935  0.4765 -0.1733  0.6307
 3835SOL    HW223142   2.934   2.636  13.911 -0.9807 -0.1288  0.9355
 3836SOL     OW23143   0.538   3.996   6.616  0.2266 -0.1911  0.0171
 3836SOL    HW123144   0.507   4.049   6.542  1.8431 -2.2513 -2.1423
 3836SOL    HW223145   0.500   4.051   6.684  2.4769  0.8361  0.4763
 3837SOL     OW23146   3.500   2.624  15.109  0.0934 -0.8499 -0.3232
 3837SOL    HW123147   3.548   2.683  15.051  2.3713 -1.1596  1.2413
 3837SOL    HW223148   3.421   2.678  15.113 -0.5621 -1.8754  0.2678
 3838SOL     OW23149   1.881   0.457  14.407 -0.5154 -0.2482  0.6335
 3838SOL    HW123150   1.813   0.390  14.398 -1.1204  0.7146 -1.9967
 3838SOL    HW223151   1.935   0.429  14.333  0.6635 -2.4920  2.3678
 3839SOL     OW23152   2.660   0.966   0.088 -0.1347  0.0637  0.0192
 3839SOL    HW123153   2.649   0.875   0.061 -0.2453  0.6643 -1.9759
 3839SOL    HW223154   2.748   0.980   0.055 -0.1822  2.9039  1.0813
 3840SOL     OW23155   1.536   2.542  15.984 -0.0458  0.3639  0.5660
 3840SOL    HW123156   1.467   2.479  15.961  0.3232  0.2641 -0.2951
 3840SOL    HW223157   1.536   2.541  16.079 -0.0952  2.3902  0.5787
 3841SOL     OW23158   0.373   1.842   6.917  0.0257  0.0916 -0.1929
 3841SOL    HW123159   0.387   1.885   6.833 -1.6191  0.2022 -0.3969
 3841SOL    HW223160   0.365   1.916   6.977 -0.6466 -1.5438  1.7717
 3842SOL     OW23161   4.427   1.936   7.097 -0.8868  0.0739 -0.3454
 3842SOL    HW123162   4.415   1.852   7.051  0.9987 -1.7994  2.5900
 3842SOL    HW223163   4.513   1.915   7.134 -0.6894 -0.9994 -1.4244
 3843SOL     OW23164   1.847   1.935   5.777  0.1204  0.4537  0.3059
 3843SOL    HW123165   1.797   1.960   5.854 -0.5691 -1.6369  0.5503
 3843SOL    HW223166   1.793   1.964   5.703  1.8466 -2.3179 -2.0278
 3844SOL     OW23167   2.143   4.514  16.449  0.7599 -0.6697  0.2754
 3844SOL    HW123168   2.067   4.485  16.499  2.1127 -0.6622  2.3511
 3844SOL    HW223169   2.116   4.604  16.433  2.3393 -0.6411 -2.1507
 3845SOL     OW23170   2.896   3.612  15.167  0.1075  0.0475  0.3697
 3845SOL    HW123171   2.888   3.624  15.262  1.5606 -0.0048  0.5089
 3845SOL    HW223172   2.933   3.697  15.143  1.7337  0.1263  3.0455
 3846SOL     OW23173   3.735   0.603   9.888 -0.8237 -0.5116  0.1616
 3846SOL    HW123174   3.689   0.599   9.971 -2.9361 -1.7485 -1.0624
 3846SOL    HW223175   3.688   0.676   9.848  1.5809  0.7606 -0.3591
 3847SOL     OW23176   3.100   0.827   3.545 -0.7578  0.2343  0.1881
 3847SOL    HW123177   3.094   0.755   3.608 -0.8340  0.3057  0.2608
 3847SOL    HW223178   3.166   0.797   3.482 -0.5179  0.6044  0.2675
 3848SOL     OW23179   1.046   2.283   2.117 -0.3042 -0.4375  1.1778
 3848SOL    HW123180   0.968   2.233   2.137 -0.4551 -1.0167 -0.8536
 3848SOL    HW223181   1.013   2.335   2.044 -0.4019 -2.1987 -0.0211
 3849SOL     OW23182   1.972   1.756   8.544  0.0115 -0.7776 -0.0346
 3849SOL    HW123183   2.061   1.787   8.526  0.0283 -0.6680  0.2374
 3849SOL    HW223184   1.943   1.720   8.460 -1.4251  0.5980 -0.1169
 3850SOL     OW23185   3.512   3.414   2.150 -0.5166 -0.5641 -0.9590
 3850SOL    HW123186   3.604   3.438   2.140 -0.5532  0.2777  0.7750
 3850SOL    HW223187   3.463   3.479   2.099  1.1704  2.0096  0.6590
 3851SOL     OW23188   1.831   4.087   8.798 -0.4375 -0.0822  0.0433
 3851SOL    HW123189   1.847   4.004   8.843  0.8116  1.2425  2.0242
 3851SOL    HW223190   1.737   4.093   8.815  0.2138 -1.3449  3.9734
 3852SOL     OW23191   2.354   0.247   4.960 -0.1394  0.3339 -0.2264
 3852SOL    HW123192   2.271   0.203   4.974  0.2635 -0.0993  0.7995
 3852SOL    HW223193   2.365   0.249   4.865  1.2398 -0.7289 -0.0838
 3853SOL     OW23194   1.452   0.978  11.487 -0.4372  0.5213  0.0985
 3853SOL    HW123195   1.462   1.071  11.465  0.1790  0.2737 -0.6653
 3853SOL    HW223196   1.432   0.938  11.403 -0.7386  0.9739 -0.0440
 3854SOL     OW23197   1.301   4.089   5.577 -0.5569  0.1331  0.1420
 3854SOL    HW123198   1.281   4.130   5.661  0.7994 -1.4643  1.2403
 3854SOL    HW223199   1.270   4.002   5.603  0.6587 -0.9643 -2.1254
 3855SOL     OW23200   4.283   3.317   8.379 -0.1818 -0.2962  0.1040
 3855SOL    HW123201   4.346   3.377   8.340  0.3567  0.5540  2.2691
 3855SOL    HW223202   4.285   3.241   8.321 -1.1335 -0.8078  0.7428
 3856SOL     OW23203   2.679   2.651   3.162  0.4562 -0.6068  0.3570
 3856SOL    HW123204   2.659   2.742   3.139  2.0827 -0.1185  0.8547
 3856SOL    HW223205   2.610   2.632   3.226  0.5810 -1.2538  0.2947
 3857SOL     OW23206   4.106   0.274   6.576  0.2264  0.7354 -0.2227
 3857SOL    HW123207   4.142   0.358   6.603  0.3269 -0.2524  2.7209
 3857SOL    HW223208   4.178   0.215   6.596 -0.7846 -0.6862 -0.7928
 3858SOL     OW23209   0.804   1.460   6.674  0.2231  0.3922  0.0470
 3858SOL    HW123210   0.742   1.471   6.603 -2.1491  0.0873  2.0703
 3858SOL    HW223211   0.878   1.503   6.631 -0.8786  1.7233 -0.4883
 3859SOL     OW23212   4.272   2.500  16.539 -0.2111 -0.1026 -0.3912
 3859SOL    HW123213   4.230   2.430  16.489 -1.4000 -0.2964  0.8710
 3859SOL    HW223214   4.347   2.528  16.486  1.0357 -0.4917  1.1595
 3860SOL     OW23215   0.751   0.191   8.934  0.6944  0.1583  0.1516
 3860SOL    HW123216   0.786   0.108   8.968 -0.7734 -1.4330 -2.2340
 3860SOL    HW223217   0.701   0.156   8.860  1.1243  0.6082 -0.3438
 3861SOL     OW23218   3.308   2.915   1.487 -0.3971 -0.4541 -0.0492
 3861SOL    HW123219   3.282   3.008   1.490  1.4267  0.0476  0.1704
 3861SOL    HW223220   3.271   2.888   1.403  0.1648  0.0357 -0.4525
 3862SOL     OW23221   3.820   4.188   3.772 -0.1790 -0.5005  0.2830
 3862SOL    HW123222   3.826   4.213   3.864  0.7025 -0.9917  0.3599
 3862SOL    HW223223   3.912   4.167   3.758 -0.7568 -3.0290  0.2703
 3863SOL     OW23224   2.454   2.868   3.744  0.2374  0.1353  0.3698
 3863SOL    HW123225   2.489   2.934   3.804 -0.5291 -0.2157  1.2090
 3863SOL    HW223226   2.535   2.838   3.702 -0.1420 -0.7000  0.2241
 3864SOL     OW23227   3.782   3.619   1.409 -0.0596  0.1500  0.0475
 3864SOL    HW123228   3.830   3.556   1.463  4.1386  1.7358 -1.8110
 3864SOL    HW223229   3.803   3.580   1.324  3.2405  1.1829  0.3748
 3865SOL     OW23230   0.255   2.791   3.543 -0.4435  0.0720 -0.3643
 3865SOL    HW123231   0.289   2.832   3.463 -0.5539 -2.2329 -1.5899
 3865SOL    HW223232   0.168   2.761   3.518 -0.4654 -2.3323  2.6267
 3866SOL     OW23233   2.159   3.785   3.168  0.4228 -0.0999 -0.2461
 3866SOL    HW123234   2.146   3.870   3.125 -1.7954 -0.0309  0.5540
 3866SOL    HW223235   2.255   3.781   3.172  0.4282  0.3356  0.0726
 3867SOL     OW23236   1.442   2.301  16.300 -0.0568  0.2802  0.4595
 3867SOL    HW123237   1.371   2.259  16.349  1.3395 -0.1380  2.1133
 3867SOL    HW223238   1.464   2.232  16.237 -2.1221 -0.3929  0.4679
 3868SOL     OW23239   2.189   2.639  10.140 -0.2873  0.3744  0.3285
 3868SOL    HW123240   2.197   2.681  10.054  0.5897  0.1358  0.2961
 3868SOL    HW223241   2.151   2.557  10.109  0.2966  0.0363  0.5111
 3869SOL     OW23242   4.389   0.633   6.743  0.1931 -0.0780  0.2900
 3869SOL    HW123243   4.316   0.692   6.762  0.2558  0.0563  0.1088
 3869SOL    HW223244   4.388   0.640   6.648  1.8116 -1.2379  0.1814
 3870SOL     OW23245   3.103   0.739   0.603  0.2205  0.0795 -0.0718
 3870SOL    HW123246   3.020   0.787   0.602  0.0333 -0.2082  1.5793
 3870SOL    HW223247   3.077   0.651   0.630  1.1874  1.1442  4.3053
 3871SOL     OW23248   3.798   3.634   6.243 -0.1942 -0.3881 -0.1472
 3871SOL    HW123249   3.875   3.640   6.188  0.0103  1.3144  0.3063
 3871SOL    HW223250   3.734   3.572   6.208  1.0873 -0.8089 -1.7349
 3872SOL     OW23251   2.423   3.588  12.184  0.1169  0.2928  0.4022
 3872SOL    HW123252   2.464   3.646  12.248 -0.6830  0.7161  0.5342
 3872SOL    HW223253   2.419   3.642  12.105 -0.6716 -2.1122 -1.1760
 3873SOL     OW23254   3.849   2.762  14.487  0.3312  0.0622 -0.3374
 3873SOL    HW123255   3.767   2.731  14.448 -0.2011  0.5895  0.3703
 3873SOL    HW223256   3.837   2.856  14.496  1.8167  0.1320  1.0589
 3874SOL     OW23257   1.289   3.463   6.886 -0.0350 -0.1624  0.0473
 3874SOL    HW123258   1.264   3.436   6.974 -0.5513  1.0358  0.2746
 3874SOL    HW223259   1.248   3.549   6.887  0.6518  0.2252 -3.5157
 3875SOL     OW23260   0.760   1.386  11.354 -0.4522 -0.3345  0.4860
 3875SOL    HW123261   0.679   1.437  11.356 -1.5727 -2.0475 -0.8348
 3875SOL    HW223262   0.734   1.336  11.277 -0.6907  1.6864 -0.7504
 3876SOL     OW23263   4.352   0.645   3.432  0.0821 -0.5293  0.5681
 3876SOL    HW123264   4.369   0.571   3.491 -0.6578 -1.2051 -0.0689
 3876SOL    HW223265   4.258   0.648   3.415 -0.1395  1.3757  2.0390
 3877SOL     OW23266   3.782   1.713   7.658 -0.1957 -0.0136  0.6012
 3877SOL    HW123267   3.814   1.686   7.572 -1.4532  0.1471  0.0787
 3877SOL    HW223268   3.839   1.785   7.686 -0.4821  0.4730 -0.0725
 3878SOL     OW23269   1.736   0.572   1.800 -0.1536  0.4869 -0.3665
 3878SOL    HW123270   1.689   0.517   1.737  0.4733  0.4134 -0.7681
 3878SOL    HW223271   1.798   0.624   1.748 -1.6982  1.3055 -1.4035
 3879SOL     OW23272   2.581   4.587  15.770  0.1178 -0.3896 -0.4381
 3879SOL    HW123273   2.556   4.645  15.698  1.4837  1.6125  0.7173
 3879SOL    HW223274   2.509   4.587  15.833  0.2005  1.5262 -0.3618
 3880SOL     OW23275   0.333   2.932  16.496  0.0121  0.3960  0.1181
 3880SOL    HW123276   0.300   2.913  16.583 -0.8765 -0.2568 -0.3649
 3880SOL    HW223277   0.414   2.983  16.506  1.1226 -1.1777 -0.7946
 3881SOL     OW23278   0.819   4.506   8.246  0.8341  0.2801  0.3179
 3881SOL    HW123279   0.899   4.506   8.298  2.3444  0.6580 -2.0121
 3881SOL    HW223280   0.827   4.423   8.198 -2.1321 -0.2136  0.7147
 3882SOL     OW23281   2.755   2.106   8.004  0.3328  0.4363  0.6235
 3882SOL    HW123282   2.822   2.164   8.042 -1.1662  1.9737  0.9403
 3882SOL    HW223283   2.808   2.049   7.948  0.9935  0.9799  0.6852
 3883SOL     OW23284   1.473   3.553   2.689 -0.0396  0.0804  0.3679
 3883SOL    HW123285   1.516   3.633   2.719  0.1103 -0.6304  2.0215
 3883SOL    HW223286   1.440   3.578   2.602 -1.1193  0.3810  0.8549
 3884SOL     OW23287   4.108   2.208   3.564  0.3886 -1.1503  0.0907
 3884SOL    HW123288   4.122   2.148   3.637 -1.0680 -2.4919 -0.7192
 3884SOL    HW223289   4.198   2.230   3.543 -0.3227  1.7430  0.0123
 3885SOL     OW23290   2.673   4.169   4.279  0.2743  0.3019 -0.0979
 3885SOL    HW123291   2.753   4.153   4.329 -0.2572  1.2558  1.0711
 3885SOL    HW223292   2.677   4.095   4.219 -0.7281 -0.8595  1.2757
 3886SOL     OW23293   2.381   3.305   6.490  0.3662 -0.4404  0.1005
 3886SOL    HW123294   2.323   3.372   6.526 -1.1890 -1.5627 -0.2962
 3886SOL    HW223295   2.465   3.350   6.486 -0.7662  1.7834  1.3634
 3887SOL     OW23296   4.136   0.729  17.486 -0.0087 -0.1101  0.4936
 3887SOL    HW123297   4.137   0.738  17.581 -2.0411  0.5211  0.4686
 3887SOL    HW223298   4.118   0.636  17.469 -2.0801  0.3968 -0.2155
 3888SOL     OW23299   2.516   3.226   6.734  0.6321 -0.0888 -0.0833
 3888SOL    HW123300   2.514   3.141   6.779  3.2409  0.2165  0.6175
 3888SOL    HW223301   2.579   3.207   6.664  3.2455 -1.4153  2.6198
 3889SOL     OW23302   2.844   2.779  13.898 -1.0987  0.2940 -0.0027
 3889SOL    HW123303   2.780   2.763  13.967 -0.5504  0.4003  0.5315
 3889SOL    HW223304   2.795   2.825  13.830  0.0009 -0.5362 -1.3630
 3890SOL     OW23305   2.271   1.906   0.574  1.1084 -0.0538 -0.5283
 3890SOL    HW123306   2.200   1.960   0.541 -0.3273 -1.1444  0.7776
 3890SOL    HW223307   2.272   1.940   0.663  1.4754 -0.3343 -0.4230
 3891SOL     OW23308   2.319   4.099  15.797  0.0663  0.3137  0.4173
 3891SOL    HW123309   2.226   4.100  15.772  0.1833 -2.8556 -0.2231
 3891SOL    HW223310   2.322   4.013  15.839  3.3167 -0.4639 -1.3573
 3892SOL     OW23311   4.471   2.988   7.381  0.7234  0.1428 -0.0160
 3892SOL    HW123312   4.512   2.915   7.336  1.2989 -0.5193  1.5923
 3892SOL    HW223313   4.515   2.967   7.463 -0.0648 -0.3217  0.2839
 3893SOL     OW23314   2.725   4.063  13.330 -0.2063  0.2888  0.1740
 3893SOL    HW123315   2.794   4.019  13.280  0.1457  0.4558  0.5078
 3893SOL    HW223316   2.737   4.151  13.295  2.0490  0.1520  0.5599
 3894SOL     OW23317   4.493   0.068  10.024  0.3332 -0.1972  0.7148
 3894SOL    HW123318   4.539   0.047  10.106  1.7639  0.2648  0.0258
 3894SOL    HW223319   4.441   4.724  10.010  1.3577 -0.7019 -0.2146
 3895SOL     OW23320   3.679   4.265  12.155  0.1597  0.4708 -0.5412
 3895SOL    HW123321   3.694   4.350  12.198  3.2463 -0.1845 -0.3137
 3895SOL    HW223322   3.733   4.199  12.198 -3.5771 -0.9006  2.0853
 3896SOL     OW23323   4.150   2.105   8.215 -0.1268 -0.1747  0.4660
 3896SOL    HW123324   4.188   2.025   8.178  0.0042 -1.3873  3.1653
 3896SOL    HW223325   4.093   2.124   8.140  1.9697  0.1621 -1.0227
 3897SOL     OW23326   2.830   3.251   7.854  0.0219  0.0607 -0.5729
 3897SOL    HW123327   2.798   3.305   7.782 -2.3410 -0.1267  0.3647
 3897SOL    HW223328   2.883   3.315   7.901 -1.5974 -0.4697  1.9176
 3898SOL     OW23329   0.052   2.689   8.414  0.3676  0.4533 -0.3646
 3898SOL    HW123330   0.145   2.704   8.433 -0.1476  1.8134  1.0677
 3898SOL    HW223331   0.030   2.657   8.501  1.2757  1.7345  0.3479
 3899SOL     OW23332   0.352   0.267   4.746  0.3857 -0.0499 -0.3049
 3899SOL    HW123333   0.402   0.346   4.726  1.7218 -0.9721 -0.5988
 3899SOL    HW223334   0.378   0.256   4.838  0.4144  0.6077 -0.2325
 3900SOL     OW23335   1.346   0.555   4.593 -0.3503 -0.0736  0.2450
 3900SOL    HW123336   1.256   0.581   4.613  0.0103  2.3967 -1.3604
 3900SOL    HW223337   1.353   0.595   4.507  1.8637 -0.4183  0.2715
 3901SOL     OW23338   0.971   3.612   5.129  0.9737 -0.0452 -0.0279
 3901SOL    HW123339   1.013   3.534   5.165 -1.5382 -1.2333  0.3545
 3901SOL    HW223340   1.027   3.641   5.057  1.5204 -1.6419 -0.2500
 3902SOL     OW23341   3.124   0.355   5.761 -0.0394 -0.2230  0.1093
 3902SOL    HW123342   3.056   0.403   5.713  2.8949  0.0149 -3.8047
 3902SOL    HW223343   3.150   0.421   5.824  0.1843 -1.5264  1.3891
 3903SOL     OW23344   1.033   1.690   6.082 -0.4448 -0.4545  0.4646
 3903SOL    HW123345   0.976   1.624   6.121  0.1972 -0.7344  0.9330
 3903SOL    HW223346   1.105   1.627   6.071 -1.5173 -1.4099 -1.0615
 3904SOL     OW23347   2.410   0.598  15.114  0.2386 -0.2146  0.2120
 3904SOL    HW123348   2.342   0.602  15.046 -0.3931 -0.2465  0.8387
 3904SOL    HW223349   2.358   0.634  15.186  3.0322  4.4204 -0.0904
 3905SOL     OW23350   2.321   3.065   6.383 -0.7376 -0.1299 -0.0911
 3905SOL    HW123351   2.337   3.149   6.425  1.4731  0.7811 -2.7763
 3905SOL    HW223352   2.397   3.015   6.411 -1.5776 -0.2527  1.9564
 3906SOL     OW23353   1.550   2.713   2.647  0.9180 -0.3657  0.4193
 3906SOL    HW123354   1.546   2.809   2.644  2.1377 -0.2507  3.2158
 3906SOL    HW223355   1.619   2.701   2.582  1.0562 -0.0213  0.5031
 3907SOL     OW23356   0.034   1.998   6.228 -0.4926  0.2546 -0.4152
 3907SOL    HW123357   0.043   1.921   6.172 -0.8905 -0.3503  0.3515
 3907SOL    HW223358   0.105   1.984   6.291 -1.0793 -0.0130  0.1922
 3908SOL     OW23359   0.417   1.388   1.642 -0.0288  0.0874  0.0815
 3908SOL    HW123360   0.503   1.429   1.650 -0.4954  0.5259  2.8690
 3908SOL    HW223361   0.380   1.428   1.563  2.7889  0.7105 -0.9009
 3909SOL     OW23362   4.075   3.155   4.350  0.5244 -0.0567  0.2144
 3909SOL    HW123363   4.029   3.133   4.431  0.3918 -1.8521 -0.3401
 3909SOL    HW223364   4.129   3.222   4.390 -0.9282 -0.2471  2.5243
 3910SOL     OW23365   0.360   4.562  13.568  0.1064  0.3525  0.4790
 3910SOL    HW123366   0.394   4.509  13.496 -1.2330  1.2243 -0.7850
 3910SOL    HW223367   0.410   4.643  13.571 -1.1293  1.1148  0.7570
 3911SOL     OW23368   2.927   0.778  13.281 -0.1933 -0.0469 -0.1587
 3911SOL    HW123369   2.933   0.688  13.249 -1.0608  0.0457 -0.5824
 3911SOL    HW223370   2.890   0.754  13.366  3.7289 -1.8652  1.0378
 3912SOL     OW23371   0.023   0.257  16.170  0.0861  0.0305 -0.3628
 3912SOL    HW123372   0.018   0.351  16.153  0.0941  0.2239  0.6973
 3912SOL    HW223373   4.680   0.250  16.223  1.1249 -2.5537  0.8544
 3913SOL     OW23374   1.006   4.389  12.501 -0.1093 -0.6678  0.3798
 3913SOL    HW123375   0.943   4.317  12.503  1.3532 -1.9404  1.4201
 3913SOL    HW223376   0.963   4.450  12.442  0.4066 -2.1866 -1.5783
 3914SOL     OW23377   0.901   2.610   8.137 -0.1544  0.7634  0.3374
 3914SOL    HW123378   0.837   2.649   8.197 -0.3717 -0.3471  0.8197
 3914SOL    HW223379   0.965   2.558   8.185 -1.6686 -2.0903 -0.7046
 3915SOL     OW23380   3.092   1.906   1.131  0.5183 -0.0823 -0.2325
 3915SOL    HW123381   3.140   1.916   1.050 -0.3223 -3.7049 -1.2092
 3915SOL    HW223382   3.166   1.872   1.182  1.2521  0.5592 -0.8884
 3916SOL     OW23383   1.797   3.469   1.120 -0.0384 -0.4035 -0.0003
 3916SOL    HW123384   1.820   3.482   1.028  1.3720 -0.5612  0.3345
 3916SOL    HW223385   1.831   3.552   1.152 -0.8544  1.0025 -2.7575
 3917SOL     OW23386   3.360   3.186   2.916 -0.5764 -0.0667 -0.0020
 3917SOL    HW123387   3.441   3.136   2.905 -0.6400 -0.3501  0.7737
 3917SOL    HW223388   3.305   3.140   2.853 -0.0593  0.3038 -0.7201
 3918SOL     OW23389   0.214   1.547  16.033 -0.4075  0.1066 -0.1191
 3918SOL    HW123390   0.166   1.544  16.116  0.9187  1.7617  0.6963
 3918SOL    HW223391   0.241   1.639  16.037  0.2111 -0.1424  1.2887
 3919SOL     OW23392   3.508   3.074  11.676 -0.3375  0.0036 -0.1877
 3919SOL    HW123393   3.560   3.064  11.755 -0.3489  0.9223 -0.0587
 3919SOL    HW223394   3.419   3.075  11.711  0.1452  2.1855  0.9986
 3920SOL     OW23395   0.855   2.212   6.498 -0.8564 -0.0149  0.2130
 3920SOL    HW123396   0.920   2.144   6.484 -0.7285 -0.2024  1.8129
 3920SOL    HW223397   0.798   2.187   6.424 -1.3599 -1.2102  1.0101
 3921SOL     OW23398   1.154   4.566   6.537  0.5631 -0.1221 -0.0820
 3921SOL    HW123399   1.240   4.559   6.579 -0.3009 -0.3435  1.6709
 3921SOL    HW223400   1.110   4.488   6.571 -0.8508  0.6043 -0.2270
 3922SOL     OW23401   1.020   2.723   8.914  0.5578  0.3671  0.3026
 3922SOL    HW123402   0.992   2.636   8.942  0.6824  0.7412  1.5870
 3922SOL    HW223403   1.105   2.698   8.876  1.0176  1.5577  0.5222
 3923SOL     OW23404   3.453   1.757   5.502  0.3761  0.0463 -0.2424
 3923SOL    HW123405   3.375   1.714   5.466  1.2456 -0.0912 -1.9610
 3923SOL    HW223406   3.417   1.838   5.538  2.3507  0.5060  0.7120
 3924SOL     OW23407   3.181   3.080   5.117 -0.2097  0.5683 -0.1858
 3924SOL    HW123408   3.118   3.039   5.175 -1.7664 -0.0941 -2.3536
 3924SOL    HW223409   3.163   3.173   5.126 -1.8227  0.0840  1.4517
 3925SOL     OW23410   1.454   2.083   3.790  0.2854  0.4574 -0.3922
 3925SOL    HW123411   1.529   2.037   3.827  0.2749  0.0387 -0.8916
 3925SOL    HW223412   1.485   2.174   3.797  2.8297 -0.4030 -0.5827
 3926SOL     OW23413   3.066   0.499   1.458 -0.1511  0.4367  0.3279
 3926SOL    HW123414   3.084   0.443   1.382 -1.5457 -0.6997  0.8536
 3926SOL    HW223415   3.133   0.469   1.519  1.2824 -0.7002 -1.7890
 3927SOL     OW23416   0.634   1.408  13.134  0.2226 -0.0850 -0.3276
 3927SOL    HW123417   0.587   1.431  13.214 -0.9540 -1.8435 -0.5080
 3927SOL    HW223418   0.576   1.336  13.109  1.2305 -1.2678  0.7240
 3928SOL     OW23419   3.232   1.891   8.843 -0.0874 -0.1815 -0.2389
 3928SOL    HW123420   3.252   1.823   8.907  1.2841  0.5657  0.1323
 3928SOL    HW223421   3.204   1.849   8.761 -1.4846  2.2161 -0.9743
 3929SOL     OW23422   0.198   3.758   1.290  0.3508  0.1776 -0.0773
 3929SOL    HW123423   0.132   3.697   1.324  0.3943 -1.2534 -2.5559
 3929SOL    HW223424   0.195   3.823   1.360 -0.4604  1.0569 -0.9121
 3930SOL     OW23425   3.634   4.043   1.431  0.5077 -0.1015  0.5598
 3930SOL    HW123426   3.687   4.074   1.357  0.1611  1.4975  0.9860
 3930SOL    HW223427   3.631   4.116   1.493 -0.5717 -1.9149  2.6399
 3931SOL     OW23428   1.099   0.273   5.545 -0.1913 -0.3052 -0.6087
 3931SOL    HW123429   1.039   0.347   5.538  0.9096  0.7469  0.9909
 3931SOL    HW223430   1.036   0.201   5.554 -1.2544  0.6845 -0.1522
 3932SOL     OW23431   1.400   4.253   5.060 -0.1420  0.2520 -0.2474
 3932SOL    HW123432   1.339   4.310   5.014  1.1468  2.1246  0.3898
 3932SOL    HW223433   1.345   4.234   5.136 -0.1990  0.3815 -0.2575
 3933SOL     OW23434   3.216   0.896  14.103 -0.4084  0.4045 -0.1874
 3933SOL    HW123435   3.132   0.915  14.146 -1.5463 -0.4780 -2.0090
 3933SOL    HW223436   3.180   0.902  14.014  0.2654  1.9488 -0.3456
 3934SOL     OW23437   2.307   3.220   3.317 -0.1229  0.4904  0.6205
 3934SOL    HW123438   2.383   3.188   3.364  0.0222  2.2868  1.6066
 3934SOL    HW223439   2.249   3.160   3.365  0.2509 -0.5068 -0.1836
 3935SOL     OW23440   4.276   1.966  15.138 -0.1778  0.2070 -0.1137
 3935SOL    HW123441   4.213   1.900  15.166  1.1935 -1.9356 -2.0179
 3935SOL    HW223442   4.215   2.039  15.127 -1.0879 -0.6333 -0.6718
 3936SOL     OW23443   1.290   3.641   4.634 -0.7318  0.1507 -0.0440
 3936SOL    HW123444   1.295   3.668   4.543 -0.2759  3.1274  0.8771
 3936SOL    HW223445   1.225   3.571   4.645 -0.1822 -0.1893  1.1602
 3937SOL     OW23446   0.204   1.785  10.674 -0.0437  0.1745 -0.4265
 3937SOL    HW123447   0.140   1.814  10.608 -1.2832 -1.1882  0.1816
 3937SOL    HW223448   0.153   1.712  10.709  1.3671 -0.4363  0.3538
 3938SOL     OW23449   1.656   4.260  10.022  0.1518  0.0542  0.3834
 3938SOL    HW123450   1.608   4.327   9.972  2.3596  1.1859 -0.2380
 3938SOL    HW223451   1.608   4.178  10.008 -0.4393  0.4818 -0.1204
 3939SOL     OW23452   3.263   2.766   0.296  0.0850  0.0648  0.1002
 3939SOL    HW123453   3.229   2.679   0.276  1.7395 -0.2916 -1.1252
 3939SOL    HW223454   3.211   2.808   0.365  2.5393  0.9181  1.4368
 3940SOL     OW23455   1.103   0.620   3.440  0.1508 -0.2385 -0.1274
 3940SOL    HW123456   1.144   0.699   3.475  1.4910 -1.3422  0.8100
 3940SOL    HW223457   1.093   0.575   3.524 -2.7736  0.7697  0.0727
 3941SOL     OW23458   2.023   2.750  12.748 -0.2470  0.3514 -0.3304
 3941SOL    HW123459   1.942   2.702  12.727 -0.7179  1.7980 -1.7841
 3941SOL    HW223460   2.020   2.741  12.843  0.5236  2.1650 -0.1436
 3942SOL     OW23461   2.225   4.013   9.202  0.2506  0.1347  0.1027
 3942SOL    HW123462   2.234   4.058   9.286  0.5000 -3.1406  1.7916
 3942SOL    HW223463   2.191   4.087   9.151  0.4524  0.3546  0.2912
 3943SOL     OW23464   2.972   4.101  11.422 -0.2373 -0.2034 -0.1824
 3943SOL    HW123465   3.054   4.132  11.460  0.3430  0.0774 -1.7002
 3943SOL    HW223466   2.987   4.006  11.418  0.0858 -0.1330 -0.6391
 3944SOL     OW23467   3.826   3.840  16.146 -0.3603  0.6644 -0.7416
 3944SOL    HW123468   3.904   3.785  16.153 -0.6449  0.6627  2.4351
 3944SOL    HW223469   3.863   3.917  16.190 -2.4312  2.2961 -1.8874
 3945SOL     OW23470   2.609   0.618   9.656  0.4762  0.2506 -0.2471
 3945SOL    HW123471   2.532   0.668   9.684 -0.4620 -1.4251  0.1687
 3945SOL    HW223472   2.677   0.677   9.687  0.6234  0.7996 -1.6414
 3946SOL     OW23473   1.817   1.421   2.177 -0.0499  0.3892  0.2204
 3946SOL    HW123474   1.755   1.492   2.189  2.5884  2.7008  0.3527
 3946SOL    HW223475   1.789   1.351   2.236 -1.4773 -1.1391 -2.2960
 3947SOL     OW23476   3.757   4.675   3.066 -0.2112  0.2049 -0.3367
 3947SOL    HW123477   3.790   4.735   3.133  1.5689 -0.5207 -0.5902
 3947SOL    HW223478   3.813   4.695   2.991 -0.5619  0.0802 -0.6324
 3948SOL     OW23479   0.989   2.067   8.550 -0.3185  0.2921 -0.3421
 3948SOL    HW123480   0.959   2.110   8.630 -2.3566 -2.2058  0.2275
 3948SOL    HW223481   0.922   2.101   8.490 -0.5743 -0.1062 -0.2776
 3949SOL     OW23482   4.302   3.944   4.867  0.2620 -0.0364  0.4928
 3949SOL    HW123483   4.315   3.873   4.804 -2.0509  0.7241 -0.8312
 3949SOL    HW223484   4.296   4.017   4.807  1.6328 -0.8040 -0.5710
 3950SOL     OW23485   3.038   1.910   6.572 -0.0929 -0.2740 -0.5212
 3950SOL    HW123486   3.056   1.859   6.493  0.8528 -1.5578  0.5440
 3950SOL    HW223487   3.063   2.000   6.550  0.0324 -0.5387 -1.4491
 3951SOL     OW23488   3.166   4.161  15.798  0.5771 -0.0828  0.2390
 3951SOL    HW123489   3.146   4.254  15.793 -3.1738 -0.7837  2.2327
 3951SOL    HW223490   3.087   4.124  15.759  1.3120  0.0391 -1.3497
 3952SOL     OW23491   4.664   3.733   6.670 -0.1793 -0.0256  0.1508
 3952SOL    HW123492   4.575   3.724   6.706  0.0286  1.3846  1.0108
 3952SOL    HW223493   4.681   3.646   6.633  0.7493  0.8743 -1.5524
 3953SOL     OW23494   4.689   4.131   6.667  0.2028 -0.7648  0.2531
 3953SOL    HW123495   4.661   4.086   6.588 -1.3181 -0.9302  0.8682
 3953SOL    HW223496   4.601   4.152   6.701 -0.8667 -2.7825 -1.2886
 3954SOL     OW23497   3.505   0.868   6.880  0.6107  0.2352  0.3191
 3954SOL    HW123498   3.568   0.938   6.900  1.6035 -1.6325  3.7799
 3954SOL    HW223499   3.513   0.809   6.955 -2.7444  0.5175  0.8607
 3955SOL     OW23500   1.180   2.187   1.098 -0.5556 -0.3948  0.0280
 3955SOL    HW123501   1.103   2.198   1.041  0.4669 -1.4431 -1.5620
 3955SOL    HW223502   1.144   2.108   1.140  0.4193 -0.2202  1.1752
 3956SOL     OW23503   3.543   4.497  16.458  0.1040  0.0697  0.2525
 3956SOL    HW123504   3.524   4.561  16.526 -1.6916 -0.6625  0.4221
 3956SOL    HW223505   3.528   4.414  16.503  0.6662 -1.2585 -1.9835
 3957SOL     OW23506   3.945   1.748   7.057  0.2290 -0.5572 -0.2144
 3957SOL    HW123507   3.989   1.831   7.076 -0.4210 -0.2611  0.0032
 3957SOL    HW223508   4.009   1.686   7.093 -0.1091 -0.7677  0.0325
 3958SOL     OW23509   3.900   0.182  15.696 -0.8868 -0.3710 -0.4179
 3958SOL    HW123510   3.983   0.214  15.661 -0.9766  1.7577  1.2695
 3958SOL    HW223511   3.932   0.113  15.754 -0.2766  0.2528  0.0008
 3959SOL     OW23512   1.004   4.414  16.374  0.7688 -0.1127 -0.0475
 3959SOL    HW123513   0.998   4.495  16.424 -1.2692 -0.6824  0.5939
 3959SOL    HW223514   1.012   4.354  16.448 -1.1742  0.8111  0.9117
 3960SOL     OW23515   2.782   3.669   6.409 -0.1376  0.0001  0.2268
 3960SOL    HW123516   2.721   3.677   6.335 -1.1851  2.4554  1.3574
 3960SOL    HW223517   2.859   3.637   6.361  0.1888  1.7651 -0.4170
 3961SOL     OW23518   3.655   1.575  10.373  0.0380 -0.2892  0.4726
 3961SOL    HW123519   3.579   1.596  10.426  0.2929  0.7184  0.4500
 3961SOL    HW223520   3.620   1.504  10.319  1.7374 -1.1718  0.5127
 3962SOL     OW23521   1.276   2.615   4.047 -0.1340 -0.2072 -0.1935
 3962SOL    HW123522   1.294   2.529   4.007 -0.9925  0.1248 -1.3229
 3962SOL    HW223523   1.182   2.601   4.057 -0.0937  0.8123  1.5991
 3963SOL     OW23524   4.643   2.655   2.944  0.0352  0.0640  0.0477
 3963SOL    HW123525   4.555   2.667   2.910  0.0759 -2.5777 -1.0575
 3963SOL    HW223526   4.685   2.725   2.894 -1.2916  0.5579 -0.3516
 3964SOL     OW23527   4.199   4.484  11.708 -0.2752 -0.0246 -0.6690
 3964SOL    HW123528   4.268   4.523  11.653  1.7845 -0.6022  1.5214
 3964SOL    HW223529   4.179   4.560  11.763  0.0322 -2.2359  2.4984
 3965SOL     OW23530   2.181   2.851   2.447 -0.0477 -0.0637 -0.2055
 3965SOL    HW123531   2.227   2.771   2.470 -0.4810 -0.5103 -0.8975
 3965SOL    HW223532   2.098   2.828   2.489 -0.0763  1.1443  0.4159
 3966SOL     OW23533   3.854   2.642   4.642  0.6479  0.4636  0.0976
 3966SOL    HW123534   3.949   2.632   4.640  0.5234 -0.6726 -0.1679
 3966SOL    HW223535   3.825   2.576   4.579  0.7384  0.4122  0.1103
 3967SOL     OW23536   2.623   1.649  15.223  0.1168  0.0556  0.4593
 3967SOL    HW123537   2.533   1.670  15.197 -0.8566 -3.8659  0.6433
 3967SOL    HW223538   2.663   1.588  15.161  1.9176  0.5613  1.1420
 3968SOL     OW23539   1.402   0.918   0.686  0.0105 -0.4572  0.1106
 3968SOL    HW123540   1.492   0.888   0.704 -0.1467 -2.0442 -1.7488
 3968SOL    HW223541   1.409   0.958   0.600  0.1583  2.0633  1.2883
 3969SOL     OW23542   2.594   3.219   2.236  0.9831 -0.6326  0.0770
 3969SOL    HW123543   2.619   3.138   2.191  0.7705 -1.2070  0.9883
 3969SOL    HW223544   2.525   3.259   2.182  1.0760  0.4699  0.7696
 3970SOL     OW23545   1.624   2.626   7.737  0.1857  0.2557 -0.2157
 3970SOL    HW123546   1.639   2.671   7.820 -1.5673  0.2883  0.0935
 3970SOL    HW223547   1.643   2.699   7.678  0.1834  1.2480  0.9956
 3971SOL     OW23548   4.702   3.487  11.936 -0.6903  0.2059  0.2340
 3971SOL    HW123549   0.060   3.501  11.922 -1.4685  2.8947 -2.3497
 3971SOL    HW223550   4.674   3.539  11.861  1.8649  0.0469 -0.8408
 3972SOL     OW23551   1.014   4.545   2.295 -0.3439 -0.2091  0.0774
 3972SOL    HW123552   1.036   4.605   2.366  3.0284 -2.8841  1.3180
 3972SOL    HW223553   0.918   4.535   2.292 -0.4571  0.3474  2.2267
 3973SOL     OW23554   4.474   0.744  10.467 -0.5291 -0.3582  0.1095
 3973SOL    HW123555   4.467   0.774  10.558  0.5241 -0.2546  0.1582
 3973SOL    HW223556   4.422   0.806  10.416 -2.2312 -2.4326 -0.6634
 3974SOL     OW23557   4.375   2.655  11.345  0.2459  0.3647  0.2031
 3974SOL    HW123558   4.429   2.581  11.316  0.9685  0.8273  0.3684
 3974SOL    HW223559   4.386   2.642  11.439  3.1333  0.4306 -0.1168
 3975SOL     OW23560   3.181   0.950   8.231 -0.2612  0.2071  0.1314
 3975SOL    HW123561   3.201   0.856   8.235  1.6616  0.5298 -2.0636
 3975SOL    HW223562   3.085   0.946   8.231 -0.2305 -0.5575 -0.8258
 3976SOL     OW23563   2.314   2.298  14.622 -0.3019 -0.4294  0.1096
 3976SOL    HW123564   2.383   2.237  14.597  1.5832  0.8464  2.2078
 3976SOL    HW223565   2.354   2.383  14.609 -1.3466  0.2147  1.1119
 3977SOL     OW23566   2.528   4.019   6.603 -0.3654 -0.0332 -0.0835
 3977SOL    HW123567   2.477   4.003   6.682 -1.3369  0.8823 -0.5169
 3977SOL    HW223568   2.551   3.929   6.579 -2.1600 -0.5233  0.0028
 3978SOL     OW23569   3.950   3.537   6.628  0.0343  0.3661  0.9258
 3978SOL    HW123570   3.985   3.613   6.675  0.0036  2.5621 -2.6369
 3978SOL    HW223571   4.017   3.527   6.561 -0.3215 -1.3358  0.8377
 3979SOL     OW23572   2.430   1.383   3.296  0.5366 -0.1811  0.0063
 3979SOL    HW123573   2.355   1.439   3.273  0.3540 -0.2987  0.3086
 3979SOL    HW223574   2.492   1.456   3.290 -0.3744  0.6319  0.4480
 3980SOL     OW23575   1.858   0.972   4.806  0.3988  0.3351 -0.2812
 3980SOL    HW123576   1.835   0.879   4.805  1.5640  0.0027  1.9226
 3980SOL    HW223577   1.915   0.969   4.729  0.6316  1.3924 -0.1491
 3981SOL     OW23578   0.130   0.141   2.701 -0.0271 -0.9484 -0.2663
 3981SOL    HW123579   0.148   0.185   2.784  0.4654 -2.7603  0.5855
 3981SOL    HW223580   0.217   0.113   2.673  1.1924  1.9018  0.6532
 3982SOL     OW23581   0.091   2.885   3.859  0.1931  0.1692 -0.4573
 3982SOL    HW123582   0.008   2.850   3.892  0.8070  1.7407  2.7475
 3982SOL    HW223583   0.071   2.901   3.767  0.6815 -2.0395 -0.9623
 3983SOL     OW23584   0.561   2.133   2.287 -0.2110  0.4321  0.3203
 3983SOL    HW123585   0.624   2.126   2.358  0.6526 -1.0146 -0.5939
 3983SOL    HW223586   0.575   2.221   2.252  0.3324 -0.8450 -2.6267
 3984SOL     OW23587   2.037   3.304   5.632  0.2631  0.1125  0.2145
 3984SOL    HW123588   2.115   3.355   5.610 -0.0271 -0.4353 -2.0993
 3984SOL    HW223589   1.966   3.358   5.597 -2.0122 -1.1494  2.9319
 3985SOL     OW23590   3.544   1.681   1.294 -0.2975 -0.3311 -0.1531
 3985SOL    HW123591   3.628   1.647   1.324 -0.2533 -1.1177 -1.1758
 3985SOL    HW223592   3.574   1.770   1.276 -0.1885 -0.1988  0.6714
 3986SOL     OW23593   0.631   0.324  12.377 -0.1403 -0.0468  0.2492
 3986SOL    HW123594   0.616   0.386  12.306  1.6251  2.4084  2.0197
 3986SOL    HW223595   0.712   0.288  12.343 -0.9550 -0.8537 -0.8437
 3987SOL     OW23596   3.072   1.936   6.075 -0.3081 -0.4452 -0.2718
 3987SOL    HW123597   3.151   1.893   6.110 -0.4026 -0.9363 -0.6624
 3987SOL    HW223598   3.118   1.967   5.997 -0.9865 -3.3059 -1.8187
 3988SOL     OW23599   2.481   1.286  12.868  0.4123 -0.2741 -0.1612
 3988SOL    HW123600   2.509   1.372  12.837 -0.3891  0.5849  1.4644
 3988SOL    HW223601   2.560   1.237  12.847 -1.3045 -1.8310 -3.0114
 3989SOL     OW23602   1.639   1.173   2.723  0.1021 -0.1730  0.1698
 3989SOL    HW123603   1.581   1.232   2.771 -0.1992  0.0920 -0.5248
 3989SOL    HW223604   1.665   1.117   2.796 -0.3163  0.3085  0.6842
 3990SOL     OW23605   4.402   1.379   6.980 -0.1044 -0.0345  0.1228
 3990SOL    HW123606   4.376   1.349   6.893  0.4763  3.1188 -1.1402
 3990SOL    HW223607   4.323   1.361   7.030 -1.4005 -0.1071 -1.9338
 3991SOL     OW23608   0.168   0.026  10.657  0.4644  0.0546  0.2964
 3991SOL    HW123609   0.192   0.011  10.566 -1.0729  0.6528 -0.2179
 3991SOL    HW223610   0.257   0.037  10.689  0.8064  1.1245 -1.0154
 3992SOL     OW23611   3.243   3.542  15.037  0.2370 -0.3919 -0.3820
 3992SOL    HW123612   3.272   3.543  14.945  0.4581  0.6785 -0.3059
 3992SOL    HW223613   3.266   3.632  15.062  0.1340 -0.0061 -1.6785
 3993SOL     OW23614   1.598   1.651   5.841 -0.5368 -0.0766  0.2511
 3993SOL    HW123615   1.665   1.718   5.850 -0.9355  0.3032  0.4071
 3993SOL    HW223616   1.525   1.706   5.811 -1.2343 -1.5468 -0.7344
 3994SOL     OW23617   2.744   3.607   8.466  0.3349  0.6317  0.4752
 3994SOL    HW123618   2.668   3.622   8.410  0.2935 -0.8246  0.1290
 3994SOL    HW223619   2.708   3.565   8.544  0.9556 -0.6755  0.0543
 3995SOL     OW23620   2.241   4.718   5.220 -0.2123  0.1232  0.6872
 3995SOL    HW123621   2.188   4.643   5.191 -0.4263  1.5934 -2.7036
 3995SOL    HW223622   2.186   0.057   5.195 -0.6134 -0.4411 -0.1281
 3996SOL     OW23623   2.657   4.662  13.020 -0.0283 -0.2029 -0.1168
 3996SOL    HW123624   2.676   0.001  13.078  0.4254  0.4186 -1.0745
 3996SOL    HW223625   2.747   4.651  12.988  0.0069  0.8663 -0.3766
 3997SOL     OW23626   0.230   4.105  17.211  0.0339 -0.3325 -0.0354
 3997SOL    HW123627   0.244   4.142  17.124 -0.9902  0.1228 -0.0035
 3997SOL    HW223628   0.290   4.164  17.256 -1.0220  0.5779  0.1709
 3998SOL     OW23629   2.446   1.014   7.337  0.3493 -0.4672  0.2881
 3998SOL    HW123630   2.471   1.075   7.407 -0.1768 -1.1300  1.0557
 3998SOL    HW223631   2.436   1.080   7.268 -2.6385 -0.4339  0.7269
 3999SOL     OW23632   3.501   2.541  14.723  0.1647  0.1750  0.6601
 3999SOL    HW123633   3.586   2.584  14.731  0.7302 -0.0029 -4.1772
 3999SOL    HW223634   3.527   2.455  14.754  0.4855  0.2353  0.5535
 4000SOL     OW23635   2.209   2.242  15.768  0.1133 -0.3249 -0.5848
 4000SOL    HW123636   2.167   2.264  15.685 -2.3482 -0.5036  0.6214
 4000SOL    HW223637   2.277   2.309  15.769 -0.3044  0.0993 -1.0620
 4001SOL     OW23638   1.998   2.395  15.611  0.8794  0.3799  0.4845
 4001SOL    HW123639   2.041   2.363  15.532 -1.8345 -2.5661  0.2250
 4001SOL    HW223640   1.904   2.398  15.593  0.8475  1.0532  0.7384
 4002SOL     OW23641   4.356   3.908   7.609 -0.1332  0.3986 -0.1478
 4002SOL    HW123642   4.273   3.862   7.617  0.2304 -0.3595 -0.7434
 4002SOL    HW223643   4.340   3.958   7.528 -1.3318 -1.4399 -1.0484
 4003SOL     OW23644   3.572   3.830   6.108 -0.0294 -0.1574 -0.3234
 4003SOL    HW123645   3.617   3.767   6.052 -3.0465 -1.5629 -1.1635
 4003SOL    HW223646   3.505   3.852   6.043  0.7844  2.3612 -0.3032
 4004SOL     OW23647   0.854   0.523   8.720 -0.1891  0.0059 -0.0044
 4004SOL    HW123648   0.784   0.555   8.663 -0.7231 -0.6458  0.2897
 4004SOL    HW223649   0.827   0.444   8.766 -0.6965 -0.8825 -1.8097
 4005SOL     OW23650   3.453   4.326   1.178  0.0771  0.1335  0.0112
 4005SOL    HW123651   3.532   4.376   1.201  0.6968 -1.7788  1.9699
 4005SOL    HW223652   3.387   4.391   1.202 -0.7823 -1.6215  2.2713
 4006SOL     OW23653   4.346   1.188   1.070  0.5348  0.1888 -0.0867
 4006SOL    HW123654   4.281   1.124   1.100 -0.6714  2.6629  2.5813
 4006SOL    HW223655   4.426   1.151   1.106 -1.0204 -1.6074  1.5501
 4007SOL     OW23656   3.695   1.294  16.320 -0.5888  0.0548 -0.2587
 4007SOL    HW123657   3.770   1.245  16.288 -1.8599 -0.7019 -2.0225
 4007SOL    HW223658   3.699   1.269  16.412  1.0000  1.5324  0.0848
 4008SOL     OW23659   2.403   2.082  10.185 -0.2302 -0.1856  0.8823
 4008SOL    HW123660   2.484   2.132  10.195  1.0688 -1.8995 -1.2310
 4008SOL    HW223661   2.427   1.990  10.193  1.0584  0.1400  0.7377
 4009SOL     OW23662   2.089   4.145   8.638 -0.0597 -0.2340  0.1543
 4009SOL    HW123663   2.011   4.120   8.688 -0.4226 -2.2214 -1.3988
 4009SOL    HW223664   2.077   4.239   8.650 -0.3219 -0.1215 -1.0066
 4010SOL     OW23665   2.406   1.342  17.700 -0.1213  0.7010 -0.1911
 4010SOL    HW123666   2.455   1.298   0.029 -1.2560 -1.3958 -0.7019
 4010SOL    HW223667   2.465   1.416  17.692  0.0659  0.4177 -1.3604
 4011SOL     OW23668   2.836   0.919  10.050  0.0770  0.9157  0.5234
 4011SOL    HW123669   2.757   0.883  10.011  0.5884  0.7629 -0.3665
 4011SOL    HW223670   2.810   1.009  10.070 -0.0340  1.4054 -1.8648
 4012SOL     OW23671   0.263   2.454   1.235  0.1606 -0.3540 -0.0872
 4012SOL    HW123672   0.273   2.360   1.253 -0.0332 -0.2497  0.5617
 4012SOL    HW223673   0.252   2.447   1.140  0.7483  0.9268 -0.2486
 4013SOL     OW23674   4.009   3.749   2.628 -0.3725 -0.0966 -0.3618
 4013SOL    HW123675   4.088   3.719   2.672 -0.6142  0.1693  0.2504
 4013SOL    HW223676   4.049   3.802   2.560  1.8158 -1.8484 -0.4291
 4014SOL     OW23677   3.450   1.922   3.074 -0.0839  0.0040 -0.1813
 4014SOL    HW123678   3.392   1.949   3.146  0.1600  0.1642 -0.0469
 4014SOL    HW223679   3.539   1.931   3.107  0.3235 -2.5977 -0.5881
 4015SOL     OW23680   3.808   1.455   5.691 -0.0366 -0.2923  0.9013
 4015SOL    HW123681   3.764   1.378   5.655 -2.1652  0.9106  0.9592
 4015SOL    HW223682   3.846   1.495   5.613 -0.1316  1.0530  1.5468
 4016SOL     OW23683   2.671   0.693   5.980  0.2124 -0.3196 -0.1061
 4016SOL    HW123684   2.582   0.668   5.957  0.7433  0.5528 -3.1642
 4016SOL    HW223685   2.670   0.678   6.074  1.1847 -1.6809 -0.3246
 4017SOL     OW23686   2.455   3.579   2.452  0.0362 -0.1381  0.0263
 4017SOL    HW123687   2.475   3.619   2.368 -2.7360  2.7914  0.7300
 4017SOL    HW223688   2.396   3.509   2.424  1.3200 -1.2933  0.2132
 4018SOL     OW23689   1.568   1.174   3.226 -0.1249 -0.9136  0.1098
 4018SOL    HW123690   1.537   1.096   3.272 -2.5421 -0.7782 -1.2749
 4018SOL    HW223691   1.579   1.243   3.292  1.3120 -0.8744 -0.1692
 4019SOL     OW23692   2.087   3.541   7.952 -0.2555 -0.4633 -0.4087
 4019SOL    HW123693   2.153   3.507   7.892  0.6328 -1.5604  1.1909
 4019SOL    HW223694   2.124   3.541   8.040 -0.6474  0.2350 -0.2436
 4020SOL     OW23695   4.610   1.367   1.623 -0.0166 -0.2945  0.1431
 4020SOL    HW123696   4.520   1.333   1.623  0.8244 -2.4907 -0.3346
 4020SOL    HW223697   4.612   1.413   1.707 -0.5678 -0.6532  0.3532
 4021SOL     OW23698   4.168   0.968   5.779  0.4350 -0.0685  0.1678
 4021SOL    HW123699   4.125   0.962   5.694 -1.3346 -1.3274  1.1576
 4021SOL    HW223700   4.135   1.051   5.813  0.5165  0.9934 -2.3434
 4022SOL     OW23701   0.993   4.663  12.418  0.9158  0.5904  0.3028
 4022SOL    HW123702   1.082   4.641  12.390 -0.1803 -2.5233 -0.7948
 4022SOL    HW223703   0.988   4.637  12.510 -0.4174 -0.3901 -0.0506
 4023SOL     OW23704   2.128   1.956   9.668  0.4452  0.5776  0.2663
 4023SOL    HW123705   2.210   1.975   9.713  0.4794 -0.3864  0.6078
 4023SOL    HW223706   2.074   1.935   9.744  1.6944 -0.7553  0.7949
 4024SOL     OW23707   1.457   3.565   7.835  0.7180  0.6445  0.6866
 4024SOL    HW123708   1.366   3.595   7.841  1.3947  3.1500 -1.8318
 4024SOL    HW223709   1.480   3.586   7.744  0.4069  2.4698  1.0361
 4025SOL     OW23710   3.174   3.038   9.384 -0.6690  0.2911  0.4456
 4025SOL    HW123711   3.225   3.095   9.327 -2.3442  1.3222 -0.0221
 4025SOL    HW223712   3.154   2.965   9.326 -1.7853 -0.4472  1.7469
 4026SOL     OW23713   1.916   1.618   7.564  0.1841  0.5229 -0.0634
 4026SOL    HW123714   2.005   1.617   7.600  0.0526 -1.6054  0.2371
 4026SOL    HW223715   1.919   1.618   7.468  1.2241  1.3389 -0.0257
 4027SOL     OW23716   0.071   3.922  12.970 -0.7047 -0.3449  0.3199
 4027SOL    HW123717   0.033   3.880  13.047  0.3126 -1.3544  0.2802
 4027SOL    HW223718   0.116   3.998  13.007  0.1399 -1.0559  0.7644
 4028SOL     OW23719   4.556   2.790   1.611  0.1096  0.1821  0.1383
 4028SOL    HW123720   4.491   2.735   1.654  0.8441 -1.7810 -1.2927
 4028SOL    HW223721   4.504   2.846   1.554 -1.4952  0.0119  1.4364
 4029SOL     OW23722   3.694   3.367   2.418 -0.1759 -0.3858 -0.2900
 4029SOL    HW123723   3.756   3.373   2.345 -0.8382  0.4675 -0.7708
 4029SOL    HW223724   3.624   3.314   2.381 -0.3831 -0.6409  0.4600
 4030SOL     OW23725   4.631   1.999   6.701 -0.0835 -0.1408 -0.0904
 4030SOL    HW123726   4.623   1.947   6.781 -0.6127 -0.1157 -0.1281
 4030SOL    HW223727   4.622   1.938   6.628  1.5809  1.1166 -1.3303
 4031SOL     OW23728   1.684   2.822  11.297  0.1090  0.5301  0.3401
 4031SOL    HW123729   1.777   2.802  11.288 -0.3990 -1.8412  0.2636
 4031SOL    HW223730   1.677   2.901  11.349  0.4784  0.7970 -0.0179
 4032SOL     OW23731   3.497   0.020  12.179 -0.0958 -0.5785  0.2440
 4032SOL    HW123732   3.431   4.731  12.244 -1.2215  1.0847 -0.2624
 4032SOL    HW223733   3.478   4.688  12.114  0.2538 -0.3400 -0.1093
 4033SOL     OW23734   1.999   3.137  10.057 -0.0630 -0.2211 -0.5702
 4033SOL    HW123735   2.003   3.106  10.147 -2.8428 -0.6178 -0.5892
 4033SOL    HW223736   2.074   3.086  10.026  1.9735  1.6438  1.3160
 4034SOL     OW23737   1.049   3.396  13.066  0.2976  0.2068  0.1526
 4034SOL    HW123738   1.105   3.397  13.144  0.0517  3.6854  0.2793
 4034SOL    HW223739   1.111   3.378  12.995  1.8093 -0.0299  1.5477
 4035SOL     OW23740   2.176   0.655   3.611  0.2418  0.1879 -0.3664
 4035SOL    HW123741   2.234   0.731   3.605 -0.8122  1.0180 -0.1652
 4035SOL    HW223742   2.183   0.616   3.524 -0.0935 -1.4477  0.3416
 4036SOL     OW23743   2.139   0.482  15.510 -0.0542  0.0582 -0.3531
 4036SOL    HW123744   2.176   0.394  15.509 -0.8880 -0.3092  1.1846
 4036SOL    HW223745   2.147   0.514  15.600  2.8993  0.6684 -0.8353
 4037SOL     OW23746   4.511   3.060   5.774 -0.3720 -0.2009 -0.0866
 4037SOL    HW123747   4.563   3.088   5.849  1.4699 -1.7673 -0.7635
 4037SOL    HW223748   4.461   3.141   5.766 -1.5105 -0.5657  3.2855
 4038SOL     OW23749   0.513   0.972   1.204 -0.3967 -0.7075  0.8723
 4038SOL    HW123750   0.587   0.917   1.230  0.4590  1.5987  3.3612
 4038SOL    HW223751   0.547   1.014   1.125 -0.3731 -1.5393  0.4384
 4039SOL     OW23752   4.409   1.463  11.419 -0.0076  0.0137  0.1785
 4039SOL    HW123753   4.484   1.441  11.363  0.5917  2.0243  0.2187
 4039SOL    HW223754   4.374   1.545  11.384 -0.6563 -0.2651  0.1764
 4040SOL     OW23755   1.435   2.710  15.556 -0.1929 -0.6269  0.2212
 4040SOL    HW123756   1.407   2.780  15.616  0.9863 -0.2880  0.3774
 4040SOL    HW223757   1.529   2.729  15.561  0.1511 -2.1144 -0.5626
 4041SOL     OW23758   3.362   2.067   6.351  0.2732 -0.1154 -0.4091
 4041SOL    HW123759   3.306   2.122   6.296  0.1598  0.6116  0.4482
 4041SOL    HW223760   3.386   2.131   6.418  0.8886 -0.7955  0.0145
 4042SOL     OW23761   1.778   0.690  16.268 -0.0829  0.7816  0.0543
 4042SOL    HW123762   1.793   0.784  16.258  2.2211  0.2738 -1.2433
 4042SOL    HW223763   1.742   0.670  16.181  0.8561  0.9757 -0.3828
 4043SOL     OW23764   4.130   3.075  10.377  0.3418  0.3550 -0.0967
 4043SOL    HW123765   4.220   3.104  10.368  0.8615 -0.9691  0.8262
 4043SOL    HW223766   4.112   3.072  10.471 -0.3184 -0.1888 -0.2340
 4044SOL     OW23767   0.850   4.642   3.187  0.4634  0.0252 -0.4643
 4044SOL    HW123768   0.778   4.692   3.147 -0.3724  0.1005  1.1340
 4044SOL    HW223769   0.926   4.695   3.164  1.5825 -1.4708 -0.2344
 4045SOL     OW23770   0.758   2.870   1.381  0.0491 -0.4774  0.2256
 4045SOL    HW123771   0.672   2.911   1.372 -0.0786 -0.6080  0.8910
 4045SOL    HW223772   0.813   2.916   1.318  1.7882 -0.0919  2.0342
 4046SOL     OW23773   0.979   3.363   9.229 -0.1879  0.2011  0.0719
 4046SOL    HW123774   1.023   3.350   9.145  1.1575  2.1902  0.4690
 4046SOL    HW223775   1.019   3.299   9.288 -1.7812 -1.2095 -0.3737
 4047SOL     OW23776   1.486   3.866   9.283  0.5050  0.0211  0.0950
 4047SOL    HW123777   1.435   3.833   9.357  1.3217 -1.2904  0.0801
 4047SOL    HW223778   1.411   3.887   9.228  1.3818  0.1091 -1.0663
 4048SOL     OW23779   3.473   1.480  10.091  0.2742  0.2666  0.0667
 4048SOL    HW123780   3.389   1.475  10.137  0.6148  1.5801  0.8343
 4048SOL    HW223781   3.466   1.570  10.059  0.7685  0.3278  0.1269
 4049SOL     OW23782   0.116   1.694   6.661  0.3063 -0.2654  0.5931
 4049SOL    HW123783   0.208   1.723   6.660 -1.0647  4.0021 -1.1879
 4049SOL    HW223784   0.068   1.776   6.649  1.5190  0.6605  2.0554
 4050SOL     OW23785   4.019   1.738   5.675  0.4889  0.1736  0.0196
 4050SOL    HW123786   3.951   1.758   5.739  1.5888 -1.8201  1.7786
 4050SOL    HW223787   3.962   1.696   5.610 -2.0265  2.6572  0.5768
 4051SOL     OW23788   1.530   0.501   3.397  0.1069  0.6221  0.2015
 4051SOL    HW123789   1.614   0.476   3.436  1.1880  1.1246 -1.8079
 4051SOL    HW223790   1.486   0.552   3.465  0.1309  3.0855 -1.6148
 4052SOL     OW23791   1.742   0.096   4.755 -0.0620 -0.3275  0.5053
 4052SOL    HW123792   1.732   0.055   4.670 -1.3526  1.1178 -0.0360
 4052SOL    HW223793   1.809   0.042   4.798 -0.4731  1.5975  3.5516
 4053SOL     OW23794   1.119   0.782   5.136  0.0522  0.3385 -0.6697
 4053SOL    HW123795   1.093   0.830   5.214  1.0771 -0.6060  0.2620
 4053SOL    HW223796   1.038   0.754   5.094 -1.6678  1.1153  2.1118
 4054SOL     OW23797   1.266   2.919   2.562  0.2599 -0.1654  0.5136
 4054SOL    HW123798   1.359   2.927   2.580  0.0577 -0.2206  1.5929
 4054SOL    HW223799   1.228   2.908   2.650 -3.0353 -0.4178 -0.9440
 4055SOL     OW23800   1.386   2.271   3.159  0.1911 -0.5042  0.3599
 4055SOL    HW123801   1.480   2.272   3.147 -0.2006  1.3018 -2.3983
 4055SOL    HW223802   1.361   2.272   3.067 -1.0182 -1.8250  0.6702
 4056SOL     OW23803   2.843   2.851   2.226 -0.4556  0.3084  0.8763
 4056SOL    HW123804   2.912   2.887   2.282  1.7353  0.6971 -2.0467
 4056SOL    HW223805   2.869   2.760   2.234  0.8000  0.7545  1.9044
 4057SOL     OW23806   4.513   4.606  15.039 -0.5256 -0.1081 -0.3372
 4057SOL    HW123807   4.556   4.645  15.115 -1.8308 -1.4990  1.1063
 4057SOL    HW223808   4.444   4.556  15.083 -2.0936  1.4089 -1.0794
 4058SOL     OW23809   0.031   0.023  10.356 -0.6191  0.1082 -0.3405
 4058SOL    HW123810   0.126   0.010  10.364 -0.4456  1.0433 -0.8462
 4058SOL    HW223811   0.007   4.667  10.342  1.9625 -0.8762  1.6734
 4059SOL     OW23812   1.444   4.713   8.581  0.4536 -0.4540 -0.6906
 4059SOL    HW123813   1.420   0.069   8.572 -1.1473 -0.9790 -1.8192
 4059SOL    HW223814   1.468   4.709   8.489  0.2759 -2.2648 -0.6613
 4060SOL     OW23815   2.448   2.060  14.651  0.0597  0.5941 -0.0104
 4060SOL    HW123816   2.489   2.036  14.568  0.1043  0.6441 -0.0029
 4060SOL    HW223817   2.514   2.027  14.711  1.2778 -0.4463 -1.9145
 4061SOL     OW23818   2.585   2.070  15.144 -0.8273 -0.3776 -0.2311
 4061SOL    HW123819   2.555   1.993  15.193  1.0178 -2.3461 -2.1614
 4061SOL    HW223820   2.531   2.050  15.067 -0.0371 -3.3798 -0.0280
 4062SOL     OW23821   3.612   2.152  14.527  0.1162 -0.0842 -0.1412
 4062SOL    HW123822   3.647   2.063  14.541  1.1111  0.3775  0.3158
 4062SOL    HW223823   3.575   2.152  14.438 -2.7158  0.2974  1.0397
 4063SOL     OW23824   0.489   2.878  12.539  0.1890 -0.1053  0.2842
 4063SOL    HW123825   0.419   2.897  12.601  0.6602 -2.9078  1.6816
 4063SOL    HW223826   0.527   2.965  12.543 -0.7350  0.3768 -1.4421
 4064SOL     OW23827   3.043   0.492   0.680  0.2007 -0.2832  0.1665
 4064SOL    HW123828   3.055   0.462   0.590 -2.4225 -1.5055  0.2277
 4064SOL    HW223829   3.049   0.412   0.733 -0.2029 -1.3765 -1.4136
 4065SOL     OW23830   1.420   2.925  10.073 -0.0329  0.0161 -0.6362
 4065SOL    HW123831   1.464   2.915  10.158 -0.6351 -1.1697 -0.4544
 4065SOL    HW223832   1.333   2.956  10.098  0.2530  0.4602 -0.1879
 4066SOL     OW23833   2.696   2.742   5.287 -0.6310  0.2043  0.6398
 4066SOL    HW123834   2.749   2.735   5.366  0.3245  1.5058  0.1134
 4066SOL    HW223835   2.606   2.759   5.316  0.2617 -0.4590  3.6859
 4067SOL     OW23836   0.662   2.977   5.404 -0.1981  0.0393  0.2094
 4067SOL    HW123837   0.645   2.921   5.480 -0.4658 -0.3582 -0.1406
 4067SOL    HW223838   0.752   2.951   5.382 -0.1021  0.7045 -0.1713
 4068SOL     OW23839   4.599   3.359  10.232  0.0466 -0.5874 -0.0914
 4068SOL    HW123840   4.665   3.427  10.218 -0.0864 -0.5038 -0.3125
 4068SOL    HW223841   4.530   3.401  10.180 -1.0352 -0.3041  1.5909
 4069SOL     OW23842   4.212   1.443   4.525  0.1375 -0.3582  0.0800
 4069SOL    HW123843   4.151   1.510   4.556 -0.5242 -1.0709  0.3516
 4069SOL    HW223844   4.234   1.402   4.608  1.7514  1.6062  0.6257
 4070SOL     OW23845   2.727   0.026  15.988 -0.4136  0.5143 -0.0027
 4070SOL    HW123846   2.728   0.068  16.074  2.5486  0.4015  0.0166
 4070SOL    HW223847   2.633   0.022  15.970 -0.5342  0.8723  0.5456
 4071SOL     OW23848   1.654   4.415  14.759  0.4722 -0.1427 -0.2016
 4071SOL    HW123849   1.614   4.481  14.703 -0.5164  1.0806  1.9651
 4071SOL    HW223850   1.727   4.383  14.705 -0.3183 -0.3273 -1.1505
 4072SOL     OW23851   2.074   1.027   0.361  0.0728 -0.1008 -0.2018
 4072SOL    HW123852   2.078   1.054   0.453 -0.1714  1.3248 -0.6103
 4072SOL    HW223853   2.125   1.100   0.324  0.0987 -0.0843 -0.1342
 4073SOL     OW23854   1.693   2.237   4.986 -0.5225  0.0501  0.3640
 4073SOL    HW123855   1.736   2.322   4.975 -1.3264  0.3567 -0.4019
 4073SOL    HW223856   1.693   2.233   5.081 -0.2831  0.6928  0.3867
 4074SOL     OW23857   4.427   0.873   4.464  0.4975  0.3800 -0.1023
 4074SOL    HW123858   4.357   0.810   4.446 -0.3930  1.4831 -0.4899
 4074SOL    HW223859   4.510   0.841   4.428 -0.6145 -0.2696 -2.0898
 4075SOL     OW23860   3.258   3.866   6.342  0.1674 -0.2431  0.3448
 4075SOL    HW123861   3.246   3.771   6.331  2.6496 -0.4232 -0.8082
 4075SOL    HW223862   3.328   3.883   6.279  0.0759 -0.3405  0.2156
 4076SOL     OW23863   1.426   0.087  10.760  0.1451 -0.4496  0.3185
 4076SOL    HW123864   1.505   0.141  10.757 -1.6970  2.2742  1.3940
 4076SOL    HW223865   1.465   0.015  10.809  2.1562  0.6769  0.3623
 4077SOL     OW23866   4.433   0.138   0.436 -0.1662 -0.4545  0.2397
 4077SOL    HW123867   4.521   0.122   0.401 -0.4547 -2.4818  0.4462
 4077SOL    HW223868   4.385   0.065   0.399  2.4589 -1.8449 -0.4166
 4078SOL     OW23869   1.109   1.056  11.432 -0.8092 -0.9284 -0.2675
 4078SOL    HW123870   1.154   1.040  11.349 -1.5604  0.5619 -0.9484
 4078SOL    HW223871   1.049   1.124  11.403  0.0738  0.2549  0.6783
 4079SOL     OW23872   1.848   0.066   0.077  0.1796  0.3942 -0.0685
 4079SOL    HW123873   1.865   0.069  17.724  2.1295 -1.2938  0.2143
 4079SOL    HW223874   1.840   4.709   0.099  0.7933  0.2071 -0.6255
 4080SOL     OW23875   4.260   4.465   5.416 -0.2460  0.5887  0.3388
 4080SOL    HW123876   4.196   4.410   5.460 -1.1284  2.0284  0.8666
 4080SOL    HW223877   4.286   4.412   5.340  0.3990  0.0563  0.9380
 4081SOL     OW23878   4.142   1.406   4.890  0.6958  0.3282 -0.1494
 4081SOL    HW123879   4.163   1.370   4.976  1.1208 -1.1443 -0.8634
 4081SOL    HW223880   4.190   1.340   4.840  1.2906  0.5289  0.1608
 4082SOL     OW23881   3.529   3.183   6.488 -0.1253  0.1990  0.3778
 4082SOL    HW123882   3.444   3.187   6.445 -0.2552 -5.9433  0.0211
 4082SOL    HW223883   3.574   3.122   6.430  2.1824 -0.6770  3.0786
 4083SOL     OW23884   0.269   2.627   7.929 -0.2401  0.0046  0.0940
 4083SOL    HW123885   0.272   2.595   8.019  2.5403 -0.7476 -0.2889
 4083SOL    HW223886   0.237   2.562   7.866  0.6067  1.4421 -1.8171
 4084SOL     OW23887   3.354   2.000   2.124  0.2922  0.1836  0.7750
 4084SOL    HW123888   3.387   1.929   2.179  1.2347  0.9231  1.1703
 4084SOL    HW223889   3.382   1.977   2.035 -0.9242 -0.0182  0.4388
 4085SOL     OW23890   0.694   4.438  12.265  0.0298  0.1547  0.0654
 4085SOL    HW123891   0.730   4.524  12.243 -1.2150  0.7362  0.3396
 4085SOL    HW223892   0.758   4.377  12.228 -1.3004  0.6656 -3.0119
 4086SOL     OW23893   1.235   1.690   7.677 -0.2432 -0.0815  0.3926
 4086SOL    HW123894   1.185   1.653   7.604  0.8155 -1.9850  0.6212
 4086SOL    HW223895   1.226   1.783   7.657  0.7183  0.1350  0.9469
 4087SOL     OW23896   3.712   4.398   2.595  0.4069 -0.5555 -0.6977
 4087SOL    HW123897   3.701   4.305   2.616 -0.3273 -0.5313 -0.9717
 4087SOL    HW223898   3.730   4.397   2.501 -0.2893 -0.2196 -0.8358
 4088SOL     OW23899   3.380   4.468   8.296 -0.0134  0.5971  0.4552
 4088SOL    HW123900   3.316   4.420   8.242 -0.8202  1.6051  0.4978
 4088SOL    HW223901   3.392   4.541   8.235  0.5431 -0.3867 -0.6103
 4089SOL     OW23902   2.709   1.229  15.670  0.6781 -0.2897 -0.7957
 4089SOL    HW123903   2.793   1.228  15.622  0.3643 -0.1945 -1.3442
 4089SOL    HW223904   2.728   1.274  15.752  1.8358 -1.3031 -0.4947
 4090SOL     OW23905   3.924   1.864  11.278  0.4458  0.0810 -0.7357
 4090SOL    HW123906   3.884   1.872  11.364  0.3256  1.3437 -0.9087
 4090SOL    HW223907   3.947   1.955  11.259 -1.6963  0.6595 -0.5511
 4091SOL     OW23908   3.103   2.614  15.235 -0.1168  0.0922 -0.2997
 4091SOL    HW123909   3.085   2.585  15.145  3.3773  0.3072 -1.0728
 4091SOL    HW223910   3.032   2.574  15.286  0.8792 -0.4121  0.6958
 4092SOL     OW23911   3.699   0.837   9.557  0.6677 -0.0761 -0.0132
 4092SOL    HW123912   3.676   0.923   9.521  1.6591 -0.0566 -0.5886
 4092SOL    HW223913   3.788   0.846   9.589  0.4264 -0.5600  0.7914
 4093SOL     OW23914   1.262   3.961   9.154  0.2462  0.8632 -0.0800
 4093SOL    HW123915   1.191   3.976   9.092  0.3765  1.9783  0.0311
 4093SOL    HW223916   1.218   3.954   9.239 -1.2101 -2.1403 -1.0956
 4094SOL     OW23917   4.020   3.846   6.237 -0.8752  0.1063 -0.7491
 4094SOL    HW123918   3.989   3.793   6.163 -1.1017 -0.3136 -0.3537
 4094SOL    HW223919   3.933   3.883   6.256 -0.1970  0.4428  1.6392
 4095SOL     OW23920   2.587   0.789   7.327 -0.1437  0.1922 -0.3860
 4095SOL    HW123921   2.549   0.875   7.341 -1.3445 -0.2750 -0.7529
 4095SOL    HW223922   2.619   0.763   7.414  1.9827  1.5458 -0.7403
 4096SOL     OW23923   3.556   2.091   7.673 -0.0797 -0.1798  0.1174
 4096SOL    HW123924   3.585   2.036   7.745 -1.3527  0.1843  0.9035
 4096SOL    HW223925   3.474   2.048   7.648 -0.2189  0.0375  0.2028
 4097SOL     OW23926   3.901   1.078   8.723  0.2409  0.1086  0.5303
 4097SOL    HW123927   3.978   1.102   8.775  1.3643 -1.6724 -0.2978
 4097SOL    HW223928   3.876   1.154   8.671  0.0997 -1.0258 -1.0761
 4098SOL     OW23929   4.097   4.282   5.569  0.0690 -0.2913  0.2871
 4098SOL    HW123930   4.081   4.333   5.648  0.6219  0.6621 -0.2144
 4098SOL    HW223931   4.147   4.208   5.604  1.6909 -0.0163 -1.4552
 4099SOL     OW23932   1.126   3.262   9.015 -0.2360  1.0478  0.0788
 4099SOL    HW123933   1.216   3.271   8.984  0.1754  2.6642  1.6875
 4099SOL    HW223934   1.117   3.167   9.013 -1.0770  1.1078  1.2372
 4100SOL     OW23935   0.888   2.010   9.330  0.4069 -0.8670  0.6902
 4100SOL    HW123936   0.816   2.071   9.347  0.4707  0.1802 -2.8151
 4100SOL    HW223937   0.960   2.066   9.360  0.7918 -1.2662  0.5023
 4101SOL     OW23938   1.862   0.299   9.289 -0.2572 -0.1784  0.0538
 4101SOL    HW123939   1.878   0.280   9.197 -1.0703 -0.4256 -0.0370
 4101SOL    HW223940   1.829   0.389   9.285 -0.2990 -0.2458 -1.0860
 4102SOL     OW23941   4.335   2.372   2.259 -0.3505  0.4382 -0.0451
 4102SOL    HW123942   4.368   2.357   2.171 -1.5777 -1.6494 -0.1429
 4102SOL    HW223943   4.417   2.393   2.303 -0.3370  0.7606 -0.2306
 4103SOL     OW23944   1.732   1.454   4.286  0.1839  0.3314 -0.5133
 4103SOL    HW123945   1.682   1.375   4.266  2.6992 -1.2424 -0.6734
 4103SOL    HW223946   1.802   1.422   4.343 -0.9000  0.0703  0.6564
 4104SOL     OW23947   1.040   2.519   4.070 -0.7522  0.4433  0.0133
 4104SOL    HW123948   0.970   2.555   4.015 -1.3863  1.2036  1.3387
 4104SOL    HW223949   0.995   2.518   4.154 -1.2497 -1.2594 -0.2730
 4105SOL     OW23950   1.026   2.161   2.588 -0.2141 -0.2572  0.0029
 4105SOL    HW123951   1.097   2.148   2.524 -2.1899  0.3409 -2.2930
 4105SOL    HW223952   1.038   2.252   2.616 -0.0184  0.4401 -2.3264
 4106SOL     OW23953   3.185   2.394   8.960 -0.0759 -0.0570  0.4323
 4106SOL    HW123954   3.208   2.430   9.045 -0.8967 -0.2192  0.7142
 4106SOL    HW223955   3.249   2.323   8.952 -1.0648 -0.8107 -0.8906
 4107SOL     OW23956   0.315   0.345   8.914  0.1575 -0.4968 -0.1311
 4107SOL    HW123957   0.335   0.256   8.945 -0.0768 -0.4709  0.0885
 4107SOL    HW223958   0.322   0.388   8.999 -2.4227  0.7914 -0.5696
 4108SOL     OW23959   2.931   0.941   0.026 -0.0887  0.9489  0.2895
 4108SOL    HW123960   3.022   0.922   0.003  0.2875  1.8871  1.0160
 4108SOL    HW223961   2.914   0.956  17.674  1.2574  0.2674 -0.0670
 4109SOL     OW23962   0.347   1.341   8.415  0.2475 -0.3676  0.4463
 4109SOL    HW123963   0.336   1.293   8.497  0.9580  1.0692  1.3849
 4109SOL    HW223964   0.279   1.407   8.426  0.3926  0.0509 -1.1102
 4110SOL     OW23965   3.262   1.743   1.288 -0.3330 -0.1693  0.5273
 4110SOL    HW123966   3.236   1.655   1.314 -2.8804  0.4205 -0.0672
 4110SOL    HW223967   3.351   1.722   1.259  0.2879  0.6598  1.8242
 4111SOL     OW23968   2.129   0.113   4.868  0.1897 -0.8084  0.0019
 4111SOL    HW123969   2.105   0.196   4.826 -1.9167 -0.8345  1.1780
 4111SOL    HW223970   2.060   0.051   4.846 -1.5212  1.2728 -0.4947
 4112SOL     OW23971   4.495   3.450   6.033 -0.0721  0.3450 -0.5967
 4112SOL    HW123972   4.557   3.449   6.106 -0.2781 -1.4847 -0.4326
 4112SOL    HW223973   4.424   3.499   6.073 -0.1868 -0.7918  0.5870
 4113SOL     OW23974   3.618   0.489   8.023 -0.1248  0.3430 -0.1448
 4113SOL    HW123975   3.713   0.484   8.029 -0.1251  0.6647  0.0898
 4113SOL    HW223976   3.607   0.394   8.014 -0.0633  0.4400 -1.2667
 4114SOL     OW23977   2.810   2.014   6.394  0.6648 -0.9892  0.4622
 4114SOL    HW123978   2.850   1.983   6.475  0.4648  2.7974  2.0040
 4114SOL    HW223979   2.806   1.933   6.343  0.0985 -1.0943  0.6698
 4115SOL     OW23980   4.484   0.018  14.251  0.6382  0.2293  0.1897
 4115SOL    HW123981   4.400   0.053  14.280  0.7522  0.3778  0.3443
 4115SOL    HW223982   4.448   4.685  14.196  1.0448 -0.1633  0.4161
 4116SOL     OW23983   3.938   3.431  11.608  0.2454  0.1492 -0.1387
 4116SOL    HW123984   4.022   3.451  11.567 -0.0456  0.3052 -0.6524
 4116SOL    HW223985   3.934   3.335  11.609 -3.3530  0.2744 -1.3516
 4117SOL     OW23986   2.513   3.333   5.460  0.2250  0.0076 -0.0869
 4117SOL    HW123987   2.481   3.264   5.402  0.6522 -0.6051  0.4012
 4117SOL    HW223988   2.558   3.288   5.533 -1.1782  1.1283  1.4745
 4118SOL     OW23989   1.811   0.377   3.316  0.0132  0.2904 -0.3053
 4118SOL    HW123990   1.777   0.423   3.240  1.3751  1.3717 -0.2643
 4118SOL    HW223991   1.902   0.368   3.287 -0.1135 -1.0144 -0.3073
 4119SOL     OW23992   4.027   1.747   2.265 -0.4004  0.0881  0.5481
 4119SOL    HW123993   3.996   1.835   2.242 -0.3623 -0.1077 -0.2304
 4119SOL    HW223994   3.942   1.704   2.252  1.1406 -2.6802 -0.2509
 4120SOL     OW23995   4.684   2.595   8.138  1.0890  0.1873 -0.2647
 4120SOL    HW123996   0.024   2.543   8.108  0.1663 -1.8170  0.9406
 4120SOL    HW223997   4.689   2.586   8.233 -0.6469  0.3013 -0.1657
 4121SOL     OW23998   1.043   1.019   4.177 -0.3782 -0.2194  0.1471
 4121SOL    HW123999   1.053   1.072   4.256 -1.2962  2.7357 -1.7234
 4121SOL    HW224000   1.057   1.086   4.110 -3.2954  0.7157  0.4773
 4122SOL     OW24001   1.440   1.124   2.981 -0.3484 -0.2413  0.6148
 4122SOL    HW124002   1.492   1.139   3.060 -1.0208 -0.1684  1.0499
 4122SOL    HW224003   1.381   1.200   2.985 -0.2692 -0.2673  2.6604
 4123SOL     OW24004   3.782   0.361   6.115  0.9766  0.3105 -0.6549
 4123SOL    HW124005   3.812   0.449   6.093  1.5447  0.6614  1.4831
 4123SOL    HW224006   3.747   0.332   6.030 -1.3932  3.3257 -0.6962
 4124SOL     OW24007   1.542   2.324   3.902  0.2789 -0.1891  0.9384
 4124SOL    HW124008   1.634   2.315   3.927  0.6749  0.5059 -0.2448
 4124SOL    HW224009   1.548   2.410   3.859  0.8078 -0.5339  0.3211
 4125SOL     OW24010   0.298   3.759   6.865 -0.2499  0.3745  0.1828
 4125SOL    HW124011   0.249   3.819   6.809 -2.2757  0.5623  2.1394
 4125SOL    HW224012   0.372   3.731   6.812 -0.3801 -1.4435  0.9517
 4126SOL     OW24013   3.633   4.117   5.232 -0.0215  0.6544  0.1130
 4126SOL    HW124014   3.572   4.044   5.244 -1.3239  1.8222  0.7223
 4126SOL    HW224015   3.678   4.119   5.316  1.2292  1.0477 -0.5685
 4127SOL     OW24016   1.351   4.010  12.255 -0.8007  0.0351  0.4191
 4127SOL    HW124017   1.337   3.938  12.316 -2.2757 -0.9611 -1.0819
 4127SOL    HW224018   1.412   3.971  12.193 -0.1423 -0.2462  1.2517
 4128SOL     OW24019   2.231   0.315   1.275  0.0455  0.1986  0.7702
 4128SOL    HW124020   2.146   0.320   1.318 -0.5187  1.2105 -0.4871
 4128SOL    HW224021   2.257   0.407   1.285  0.7692  0.1482 -0.7334
 4129SOL     OW24022   1.218   3.166   6.735 -0.3926  0.5620  0.3102
 4129SOL    HW124023   1.172   3.148   6.816  1.1257 -0.7962  0.8676
 4129SOL    HW224024   1.194   3.259   6.730 -2.2397  0.0739  0.2484
 4130SOL     OW24025   0.960   1.789  15.349  0.3700 -0.2081  0.0257
 4130SOL    HW124026   1.003   1.824  15.427  2.4544  1.2884 -1.8036
 4130SOL    HW224027   0.997   1.845  15.281 -0.9396  0.5516 -0.0644
 4131SOL     OW24028   4.426   1.475  15.436 -0.2534 -0.2173  0.0419
 4131SOL    HW124029   4.379   1.518  15.365 -0.0181 -0.9409 -0.5612
 4131SOL    HW224030   4.354   1.415  15.457  0.3056 -1.3392 -1.2227
 4132SOL     OW24031   2.468   3.913   5.319 -0.3357 -0.0422 -1.1251
 4132SOL    HW124032   2.417   3.910   5.238 -3.1113 -2.0630  0.6615
 4132SOL    HW224033   2.499   3.822   5.320  1.7874  0.7049 -0.1288
 4133SOL     OW24034   1.714   1.071   8.366 -0.0384 -0.2201  0.0186
 4133SOL    HW124035   1.637   1.083   8.421  0.5978  0.2520  0.8026
 4133SOL    HW224036   1.691   1.123   8.288  0.5571 -1.5052 -1.0153
 4134SOL     OW24037   3.435   0.503   0.510 -1.0631 -0.3591  0.1591
 4134SOL    HW124038   3.434   0.476   0.419 -1.1954  3.1390 -0.9030
 4134SOL    HW224039   3.524   0.472   0.529 -0.1610  0.3341 -2.9935
 4135SOL     OW24040   1.839   3.131   4.620 -0.3185  0.1436 -0.1914
 4135SOL    HW124041   1.930   3.145   4.646 -0.1412 -2.3018  0.4908
 4135SOL    HW224042   1.800   3.181   4.692  0.1184  0.2301 -0.0188
 4136SOL     OW24043   1.794   3.466   4.294 -0.2803 -0.1578 -0.5275
 4136SOL    HW124044   1.876   3.416   4.292 -0.1398  0.1749 -2.7275
 4136SOL    HW224045   1.725   3.406   4.265  0.9294 -2.5349  1.5134
 4137SOL     OW24046   2.072   1.850  10.171 -0.0830 -0.9791 -0.4173
 4137SOL    HW124047   2.033   1.936  10.187 -0.8135 -1.8576  2.4658
 4137SOL    HW224048   2.053   1.797  10.248 -0.3292  0.9154  0.8402
 4138SOL     OW24049   3.661   0.354   3.028  0.2105  0.8867 -0.0425
 4138SOL    HW124050   3.597   0.337   2.959  1.0356 -1.1417 -0.3126
 4138SOL    HW224051   3.651   0.449   3.031 -3.6043  0.4968  0.0003
 4139SOL     OW24052   4.005   1.620   3.735  0.2395 -0.3411 -0.2952
 4139SOL    HW124053   4.099   1.636   3.742 -0.1834  2.5384 -1.3623
 4139SOL    HW224054   3.975   1.658   3.652  3.0028  0.6619 -0.8512
 4140SOL     OW24055   4.081   2.467   5.748 -0.0899 -0.0124  0.3038
 4140SOL    HW124056   4.108   2.442   5.836 -0.8602 -0.0051  0.5456
 4140SOL    HW224057   4.083   2.561   5.764 -1.0027  0.4461 -2.1878
 4141SOL     OW24058   3.105   4.637   3.371  0.0292  0.0101  0.1524
 4141SOL    HW124059   3.123   4.659   3.463 -1.3455  2.3701 -0.1432
 4141SOL    HW224060   3.145   4.714   3.331 -0.9823  1.2973  1.6363
 4142SOL     OW24061   4.683   4.608   9.163 -0.4855 -0.0725  0.1178
 4142SOL    HW124062   4.695   4.555   9.242  0.0968 -1.3584 -0.8402
 4142SOL    HW224063   4.726   4.691   9.183  1.2562 -0.9104 -0.1372
 4143SOL     OW24064   4.680   4.479   8.177 -0.2036 -1.0590  0.9414
 4143SOL    HW124065   4.594   4.517   8.196  0.7555  0.7242  1.6769
 4143SOL    HW224066   4.706   4.445   8.263 -0.1566  0.2094  1.4198
 4144SOL     OW24067   2.256   1.749   7.046 -0.4011  0.8601  0.7291
 4144SOL    HW124068   2.167   1.741   7.010 -0.6817  0.6514  1.4773
 4144SOL    HW224069   2.240   1.777   7.136 -0.6397  1.0164  0.6360
 4145SOL     OW24070   0.892   3.125   6.765  0.2766 -0.1692 -0.6484
 4145SOL    HW124071   0.916   3.050   6.710 -1.2745 -1.5741  0.6206
 4145SOL    HW224072   0.962   3.126   6.830  0.0684  0.0397 -0.4311
 4146SOL     OW24073   0.511   1.054  15.828 -0.0825  0.2524  0.0511
 4146SOL    HW124074   0.435   1.102  15.797 -0.5688 -0.8231 -0.4135
 4146SOL    HW224075   0.581   1.116  15.808 -0.6858  0.8463 -0.1849
 4147SOL     OW24076   1.838   1.361  14.516  0.3044 -0.5538 -0.0966
 4147SOL    HW124077   1.809   1.354  14.606  2.6193 -3.5280  0.4204
 4147SOL    HW224078   1.862   1.270  14.497  0.4489 -0.1348 -1.9115
 4148SOL     OW24079   1.734   3.265   0.248  0.0103  0.2728 -0.3085
 4148SOL    HW124080   1.695   3.182   0.277  0.9041  0.8220  2.4472
 4148SOL    HW224081   1.656   3.319   0.236 -0.8989 -0.0336  4.2676
 4149SOL     OW24082   0.840   1.219   8.671 -0.2108  0.8114 -0.3362
 4149SOL    HW124083   0.789   1.145   8.703  1.3140  1.3090  3.2639
 4149SOL    HW224084   0.775   1.286   8.646 -0.3332  0.7338 -0.2228
 4150SOL     OW24085   3.522   2.482   3.278  0.1253  0.1163  0.4496
 4150SOL    HW124086   3.446   2.434   3.313  1.6847 -1.7149  1.3145
 4150SOL    HW224087   3.559   2.410   3.228  0.0811  0.0748  0.4764
 4151SOL     OW24088   0.819   4.332   2.489  0.6083  0.5097  1.0553
 4151SOL    HW124089   0.807   4.394   2.418  1.2046 -0.4663  0.1041
 4151SOL    HW224090   0.793   4.391   2.560  0.9386  0.0923  1.5250
 4152SOL     OW24091   3.387   0.458   2.056 -0.1229 -0.1196 -0.0338
 4152SOL    HW124092   3.452   0.420   2.115  1.7670  1.7787 -0.8852
 4152SOL    HW224093   3.338   0.518   2.112 -0.6621  0.6205 -1.2972
 4153SOL     OW24094   0.277   0.713  11.690  0.0186 -0.2334  0.1777
 4153SOL    HW124095   0.323   0.669  11.619  1.3580  1.4757  0.0134
 4153SOL    HW224096   0.244   0.795  11.653  1.5405 -0.5905 -1.9652
 4154SOL     OW24097   3.842   3.339   2.642 -0.0089 -0.1043  0.2051
 4154SOL    HW124098   3.860   3.424   2.682 -1.3936  1.0519 -1.6403
 4154SOL    HW224099   3.770   3.358   2.582  1.5985  1.4434 -1.2052
 4155SOL     OW24100   0.392   0.970   3.963  0.4207  0.0177 -0.2994
 4155SOL    HW124101   0.428   0.976   4.051 -0.3646 -2.5101  0.1877
 4155SOL    HW224102   0.389   0.875   3.951  2.4329  0.0905 -1.3842
 4156SOL     OW24103   0.206   1.020  16.244 -0.1197  0.2276 -0.2408
 4156SOL    HW124104   0.281   0.977  16.202 -0.9397 -1.2085 -0.2190
 4156SOL    HW224105   0.216   1.097  16.188 -0.9180  1.4141  1.2587
 4157SOL     OW24106   1.930   0.216   7.543 -0.2534  0.0188  0.2402
 4157SOL    HW124107   1.886   0.169   7.473  1.3520  1.1766 -1.5341
 4157SOL    HW224108   1.899   0.306   7.535  1.9466  0.7445 -0.0139
 4158SOL     OW24109   1.166   2.480   7.204 -0.3002 -0.1741  0.6473
 4158SOL    HW124110   1.172   2.468   7.299  2.3993  4.4028  1.0596
 4158SOL    HW224111   1.097   2.546   7.201 -0.4255 -0.3228  0.2329
 4159SOL     OW24112   1.765   1.015   7.823  0.5149  0.8587 -0.6057
 4159SOL    HW124113   1.769   1.048   7.734 -2.1815 -3.7150 -2.4332
 4159SOL    HW224114   1.775   1.091   7.880  1.1633 -0.6035  1.2470
 4160SOL     OW24115   2.218   1.829   2.561 -0.3008 -0.4483  0.1462
 4160SOL    HW124116   2.172   1.797   2.639 -1.5731  1.8139  0.3361
 4160SOL    HW224117   2.168   1.788   2.491 -1.2889  1.1529 -0.0722
 4161SOL     OW24118   3.534   2.312   9.452 -0.3222 -0.3601 -0.6122
 4161SOL    HW124119   3.558   2.357   9.371 -0.7107 -2.6595 -2.0186
 4161SOL    HW224120   3.599   2.241   9.450  1.6354  1.3718  1.7434
 4162SOL     OW24121   3.509   3.443   2.837  0.3651 -0.2991 -0.3643
 4162SOL    HW124122   3.448   3.455   2.765 -1.1770 -0.9099  0.8339
 4162SOL    HW224123   3.505   3.350   2.860 -0.3849 -0.3659 -0.7685
 4163SOL     OW24124   3.474   2.368   6.649  0.3305  0.7197  0.5612
 4163SOL    HW124125   3.545   2.378   6.586  0.0686  1.7097  0.4113
 4163SOL    HW224126   3.436   2.283   6.629  1.7863  0.2759 -0.2348
 4164SOL     OW24127   0.369   0.992  15.041  0.0984 -0.2793  0.4886
 4164SOL    HW124128   0.298   0.958  14.987  1.7382 -2.4682 -0.3011
 4164SOL    HW224129   0.413   1.049  14.978  1.2060 -0.0568  1.4570
 4165SOL     OW24130   1.203   3.076   4.620  0.5239 -0.4892  0.2728
 4165SOL    HW124131   1.185   3.149   4.679  1.8378 -0.4836  0.6703
 4165SOL    HW224132   1.251   3.120   4.550  0.2323 -1.5681 -0.5933
 4166SOL     OW24133   0.516   0.129  15.151  0.0815  0.1717 -0.2284
 4166SOL    HW124134   0.490   0.047  15.193 -0.5741  1.4949  1.9144
 4166SOL    HW224135   0.609   0.116  15.132  0.0649 -1.1004  0.5892
 4167SOL     OW24136   2.162   2.178  17.730  0.6406  0.1536 -0.1085
 4167SOL    HW124137   2.147   2.135  17.645 -1.4976  1.1638 -0.2363
 4167SOL    HW224138   2.228   2.124   0.033  0.8731  0.8928  0.4441
 4168SOL     OW24139   4.085   3.106  12.658 -0.2559  0.3959 -0.3709
 4168SOL    HW124140   4.158   3.048  12.682 -1.0859 -0.5362 -0.1062
 4168SOL    HW224141   4.093   3.168  12.731 -0.5425  0.8578 -0.7295
 4169SOL     OW24142   1.140   2.522   8.681 -0.2084  0.7140 -0.4071
 4169SOL    HW124143   1.202   2.459   8.646 -1.8947  0.0133 -2.1514
 4169SOL    HW224144   1.193   2.575   8.740  1.1921 -1.2876  0.1299
 4170SOL     OW24145   1.187   2.131  13.689  0.3659  0.0087  0.4641
 4170SOL    HW124146   1.160   2.223  13.683  2.2788  0.4530 -1.1829
 4170SOL    HW224147   1.281   2.130  13.672 -0.1395 -0.5152 -2.2289
 4171SOL     OW24148   1.231   3.111   3.592  0.6374 -0.5379 -0.5121
 4171SOL    HW124149   1.175   3.047   3.637 -1.4823  1.5799 -0.1420
 4171SOL    HW224150   1.287   3.065   3.530  2.2994  1.2227 -0.2917
 4172SOL     OW24151   4.543   4.529   5.137 -0.5929  0.0304  0.2136
 4172SOL    HW124152   4.549   4.592   5.208  0.0561  1.5489 -1.1799
 4172SOL    HW224153   4.611   4.465   5.155 -0.3988 -0.4406 -2.1365
 4173SOL     OW24154   3.403   0.270  11.280  0.3788  0.3563  0.0205
 4173SOL    HW124155   3.398   0.235  11.369  2.0227  0.6321  0.2338
 4173SOL    HW224156   3.323   0.323  11.284  0.4967  0.6319 -1.2794
 4174SOL     OW24157   2.408   2.790   7.854 -0.4173 -0.6011  0.4227
 4174SOL    HW124158   2.395   2.768   7.762  1.0540 -2.1293  0.5672
 4174SOL    HW224159   2.342   2.728   7.886 -1.3692  0.6587  0.8542
 4175SOL     OW24160   1.292   1.415   3.389  0.3402 -0.3139  0.5570
 4175SOL    HW124161   1.277   1.405   3.483 -0.4276  1.9165  0.6786
 4175SOL    HW224162   1.379   1.454   3.394  0.4881 -0.3139 -2.0136
 4176SOL     OW24163   2.540   3.753   9.319  0.0043 -0.0260  0.4378
 4176SOL    HW124164   2.555   3.845   9.295 -1.8102  0.5580  1.5435
 4176SOL    HW224165   2.619   3.733   9.368  1.2737 -1.3523 -2.1935
 4177SOL     OW24166   2.596   3.629  14.628 -0.7928 -0.4707  0.4641
 4177SOL    HW124167   2.605   3.533  14.627 -0.3362 -0.4322  0.7033
 4177SOL    HW224168   2.606   3.643  14.722  1.7759  0.9422 -0.0242
 4178SOL     OW24169   4.228   2.679   2.368 -0.0551  0.1064  0.5618
 4178SOL    HW124170   4.161   2.741   2.340  1.2783  1.5198  0.5094
 4178SOL    HW224171   4.173   2.601   2.379 -1.0623  1.0481  2.1824
 4179SOL     OW24172   0.507   3.384  14.809 -0.5617 -0.0952  0.1162
 4179SOL    HW124173   0.438   3.432  14.855 -0.3589  1.9712 -1.7414
 4179SOL    HW224174   0.462   3.312  14.765  1.3007  0.0445 -2.0077
 4180SOL     OW24175   0.490   2.912  11.199 -0.4051  0.4202  0.2312
 4180SOL    HW124176   0.470   2.967  11.275 -2.0569  1.3793 -0.9261
 4180SOL    HW224177   0.520   2.832  11.244  1.7901  1.8742  1.3483
 4181SOL     OW24178   3.561   1.888   7.455  0.3393  0.0662 -0.0542
 4181SOL    HW124179   3.573   1.794   7.461  1.4055  0.0755 -1.9438
 4181SOL    HW224180   3.564   1.897   7.360  0.6786  0.2513 -0.0265
 4182SOL     OW24181   0.267   3.693  12.714  0.0237 -0.5208  0.0689
 4182SOL    HW124182   0.261   3.623  12.778 -0.6977  0.1603  0.7468
 4182SOL    HW224183   0.345   3.740  12.745  1.0322 -1.8247 -0.4840
 4183SOL     OW24184   3.957   4.550   2.180  0.0618 -0.2391 -0.1854
 4183SOL    HW124185   4.052   4.542   2.181  0.0049 -0.9038  0.3275
 4183SOL    HW224186   3.956   4.609   2.256 -0.0703  1.0089 -1.1577
 4184SOL     OW24187   4.129   2.135  16.272  0.3468  0.0132 -0.0948
 4184SOL    HW124188   4.107   2.177  16.188 -0.4779  0.5321  0.3809
 4184SOL    HW224189   4.057   2.074  16.287  0.3169 -0.2488 -1.3150
 4185SOL     OW24190   2.067   3.155   1.686 -0.6272 -0.5301  0.7108
 4185SOL    HW124191   2.102   3.118   1.767  1.0366  1.5024  0.9496
 4185SOL    HW224192   2.074   3.249   1.707  0.6934 -0.4456 -0.0938
 4186SOL     OW24193   3.042   1.277   5.733 -0.2439 -0.1291  0.0713
 4186SOL    HW124194   3.120   1.227   5.708 -1.0084 -1.3343  0.1076
 4186SOL    HW224195   2.975   1.210   5.748  0.9706 -0.9811  1.7454
 4187SOL     OW24196   1.730   3.456   6.900  0.0744 -0.1790 -0.1271
 4187SOL    HW124197   1.709   3.549   6.893 -2.1921 -0.6122  0.7830
 4187SOL    HW224198   1.643   3.417   6.894 -0.4415  0.7502  1.1529
 4188SOL     OW24199   1.544   3.460   1.655 -0.3565 -0.1441  0.1961
 4188SOL    HW124200   1.562   3.490   1.745  1.8854  2.0166 -0.9655
 4188SOL    HW224201   1.595   3.528   1.611 -1.2302  0.5069  0.1814
 4189SOL     OW24202   2.668   4.719   5.315 -0.1091 -0.6380  0.0792
 4189SOL    HW124203   2.707   4.662   5.249 -1.5919 -1.5234 -0.0347
 4189SOL    HW224204   2.581   0.013   5.287 -0.4163 -1.0360  0.5926
 4190SOL     OW24205   2.757   1.650   4.731  0.4019  0.3051 -0.0913
 4190SOL    HW124206   2.767   1.565   4.773 -1.1534  0.7245  1.1273
 4190SOL    HW224207   2.792   1.701   4.804 -0.3501  0.1942  0.3523
 4191SOL     OW24208   1.132   1.536   4.121 -0.3955 -0.0859  0.5007
 4191SOL    HW124209   1.188   1.527   4.199 -0.2886 -1.1321  0.3128
 4191SOL    HW224210   1.188   1.595   4.071  0.3466  0.6539  2.1710
 4192SOL     OW24211   2.923   1.350  17.621  0.4039  0.1217 -0.1128
 4192SOL    HW124212   2.970   1.306  17.550  0.7565 -2.0179  1.4232
 4192SOL    HW224213   2.977   1.428  17.630 -0.2162  0.8012 -2.1466
 4193SOL     OW24214   3.117   2.961   9.643 -0.4397 -0.0530  0.7234
 4193SOL    HW124215   3.076   2.874   9.645 -0.7949  0.1497  1.8492
 4193SOL    HW224216   3.117   2.981   9.549  1.2769 -0.6094  0.5959
 4194SOL     OW24217   3.882   2.839   4.232  0.1679 -1.1008  0.1165
 4194SOL    HW124218   3.943   2.824   4.305 -0.6722 -1.9317  0.6475
 4194SOL    HW224219   3.864   2.748   4.209 -0.2331 -0.7410 -0.9959
 4195SOL     OW24220   1.058   1.215   3.991  0.1779 -0.0414  0.5342
 4195SOL    HW124221   0.977   1.265   3.979  0.1149 -0.2601  0.0383
 4195SOL    HW224222   1.119   1.271   4.037 -1.1025 -0.9982  3.3606
 4196SOL     OW24223   2.858   2.286   3.103  0.2356 -0.1893  0.1130
 4196SOL    HW124224   2.829   2.253   3.017 -0.7565 -3.1003  1.5771
 4196SOL    HW224225   2.780   2.270   3.155  0.6243 -2.5862 -0.0520
 4197SOL     OW24226   2.532   4.619   7.421  0.0889  0.4840  0.0971
 4197SOL    HW124227   2.615   4.666   7.428  0.1492  0.1216  1.7960
 4197SOL    HW224228   2.546   4.576   7.337 -0.3805  0.5927 -0.0387
 4198SOL     OW24229   4.694   0.015   8.010  0.4870  0.0060 -0.3084
 4198SOL    HW124230   0.014   4.678   8.038  0.9863  0.5475  0.0998
 4198SOL    HW224231   4.646   4.707   7.938 -0.2368  0.1069  0.1099
 4199SOL     OW24232   4.729   4.630  15.931  0.5932  0.2490  0.2137
 4199SOL    HW124233   0.048   4.585  15.866  1.5866  1.9188 -0.0885
 4199SOL    HW224234   0.033   4.717  15.932 -1.0799  0.9963  0.7859
 4200SOL     OW24235   1.376   4.498   5.677 -0.0816 -0.5632 -0.4242
 4200SOL    HW124236   1.335   4.507   5.592 -1.1780  1.8313  0.3612
 4200SOL    HW224237   1.468   4.491   5.651  0.5577  2.7746  0.9646
 4201SOL     OW24238   2.256   0.293   5.388 -0.1191  0.1655  0.0520
 4201SOL    HW124239   2.170   0.254   5.404  0.4083 -1.0834 -0.1284
 4201SOL    HW224240   2.282   0.291   5.481  0.4403 -0.8855 -0.1231
 4202SOL     OW24241   0.604   1.154   5.913  0.0612 -0.1623  0.0943
 4202SOL    HW124242   0.542   1.091   5.949  0.4813 -0.4537  0.3086
 4202SOL    HW224243   0.687   1.111   5.935 -0.9715 -0.9588  2.4760
 4203SOL     OW24244   3.757   3.137   7.254 -0.2748  0.1244  0.4640
 4203SOL    HW124245   3.747   3.210   7.193  3.7659 -0.7522 -1.2850
 4203SOL    HW224246   3.700   3.163   7.326  0.5429  0.4299  1.0066
 4204SOL     OW24247   0.633   3.524   6.698 -0.2133 -0.0068  0.7958
 4204SOL    HW124248   0.666   3.528   6.787  1.8647 -0.0533  0.0325
 4204SOL    HW224249   0.628   3.428   6.696 -2.5254  0.1308 -0.3945
 4205SOL     OW24250   4.729   4.637   6.638  0.1886 -0.1679  0.4211
 4205SOL    HW124251   4.729   4.668   6.729  0.2783  1.5306 -0.1684
 4205SOL    HW224252   0.015   4.544   6.645 -1.3277 -0.3390  2.8925
 4206SOL     OW24253   2.571   0.584   2.094  0.3005 -0.3292 -0.5894
 4206SOL    HW124254   2.547   0.501   2.136 -2.2512  0.9905  0.5808
 4206SOL    HW224255   2.666   0.578   2.087  0.6111  0.1894  3.0788
 4207SOL     OW24256   2.904   0.488   7.661  0.6754  0.2171  0.3707
 4207SOL    HW124257   2.890   0.458   7.751  1.5532 -2.7753 -0.4674
 4207SOL    HW224258   2.825   0.462   7.614  0.7284 -2.0573  1.5099
 4208SOL     OW24259   0.405   2.307   1.532 -0.1523  0.1748 -0.1300
 4208SOL    HW124260   0.494   2.298   1.498  0.7419 -0.1091  2.2527
 4208SOL    HW224261   0.362   2.264   1.459 -2.0640  2.0020 -0.0926
 4209SOL     OW24262   4.194   4.330   3.768  0.1719  0.0443 -0.3948
 4209SOL    HW124263   4.252   4.293   3.834 -0.2795 -0.2331 -0.1560
 4209SOL    HW224264   4.133   4.263   3.736  0.9375 -1.3133  1.0346
 4210SOL     OW24265   3.125   4.373   4.261  0.0877 -0.6265 -0.1723
 4210SOL    HW124266   3.104   4.427   4.337 -0.8306 -1.1848 -0.0316
 4210SOL    HW224267   3.090   4.430   4.193 -0.4467  0.6480  1.1766
 4211SOL     OW24268   0.327   1.502  11.837  0.4225  0.3373  0.2094
 4211SOL    HW124269   0.349   1.410  11.822  1.2230  0.8041 -1.4532
 4211SOL    HW224270   0.409   1.537  11.801  0.1676 -0.1086 -0.7909
 4212SOL     OW24271   0.880   3.426  12.391  0.8737 -0.0323  0.1772
 4212SOL    HW124272   0.829   3.481  12.450 -0.2370 -0.0754 -0.7382
 4212SOL    HW224273   0.884   3.336  12.422  0.6381 -0.3132 -0.5929
 4213SOL     OW24274   0.564   3.259  15.626  0.4165 -0.0281 -0.5628
 4213SOL    HW124275   0.585   3.333  15.682 -1.7455  0.6752 -0.7156
 4213SOL    HW224276   0.649   3.243  15.584  0.1851  1.8338 -1.7312
 4214SOL     OW24277   2.879   1.268  12.267  0.1597  0.0531  0.1581
 4214SOL    HW124278   2.973   1.248  12.266  0.4959  1.5981  0.7383
 4214SOL    HW224279   2.848   1.194  12.215  0.7075  0.4148 -0.6910
 4215SOL     OW24280   1.144   3.692   9.106 -0.4193  0.5036  0.1857
 4215SOL    HW124281   1.137   3.762   9.041 -1.4277  1.0120  0.8453
 4215SOL    HW224282   1.235   3.664   9.106 -1.4728 -2.9881 -0.9343
 4216SOL     OW24283   2.900   1.774   3.654 -0.2229 -0.5220  1.0161
 4216SOL    HW124284   2.950   1.851   3.680 -0.1554 -0.9137  2.0235
 4216SOL    HW224285   2.813   1.805   3.678 -0.2595 -0.6458  1.0427
 4217SOL     OW24286   1.169   3.075   8.386 -0.2068 -0.2481 -0.2382
 4217SOL    HW124287   1.171   3.061   8.481  1.4627  0.6590 -0.1499
 4217SOL    HW224288   1.075   3.094   8.382 -0.2044  0.1078  1.4322
 4218SOL     OW24289   1.858   2.313   7.446  0.2457  0.3009 -0.7850
 4218SOL    HW124290   1.902   2.373   7.386 -0.3599  1.7548  0.2370
 4218SOL    HW224291   1.836   2.362   7.525  0.4333 -2.0524  0.7202
 4219SOL     OW24292   1.485   4.490   2.738 -0.1296 -0.0593  0.1614
 4219SOL    HW124293   1.534   4.424   2.690  0.4481 -0.3966  1.2100
 4219SOL    HW224294   1.562   4.525   2.782 -0.8964  2.4735 -0.5462
 4220SOL     OW24295   1.139   0.846   1.686 -0.1234 -0.2716  0.2121
 4220SOL    HW124296   1.134   0.926   1.634  0.9775 -0.5508 -0.3103
 4220SOL    HW224297   1.108   0.878   1.771  0.5204  0.8673  0.0188
 4221SOL     OW24298   1.032   4.314   8.521  0.1673 -0.0491  0.0534
 4221SOL    HW124299   1.047   4.383   8.456  2.0198  1.0579  1.6700
 4221SOL    HW224300   1.072   4.349   8.601  1.2450  0.3347 -0.6655
 4222SOL     OW24301   1.132   1.057   3.783 -0.2323  0.4641  0.1835
 4222SOL    HW124302   1.093   1.101   3.858  1.7365  1.8124  0.4181
 4222SOL    HW224303   1.225   1.060   3.806 -0.0226 -1.1856 -0.4782
 4223SOL     OW24304   0.423   4.649   9.008  0.3070  0.6261  0.3590
 4223SOL    HW124305   0.460   4.717   8.952  0.9945  0.1389  0.2071
 4223SOL    HW224306   0.422   4.697   9.090 -1.1196  0.5138  0.4125
 4224SOL     OW24307   1.838   3.529   0.618 -0.4341 -0.3946  0.1769
 4224SOL    HW124308   1.802   3.445   0.589  0.3166  0.1461 -2.3245
 4224SOL    HW224309   1.859   3.559   0.529  1.7619 -0.6917  0.6070
 4225SOL     OW24310   0.070   0.325  17.355  0.1040  0.3276  0.3133
 4225SOL    HW124311   0.133   0.372  17.301  0.6652 -1.0479 -0.2393
 4225SOL    HW224312   0.008   0.286  17.293  0.8051  0.2193 -0.3189
 4226SOL     OW24313   3.918   0.589   6.351  0.1003 -0.6802  0.2957
 4226SOL    HW124314   3.950   0.498   6.350 -0.7893 -0.9733 -0.9152
 4226SOL    HW224315   3.883   0.602   6.263 -0.2961 -2.2016  0.2270
 4227SOL     OW24316   4.150   2.036   7.660  0.2889  0.4289  0.0349
 4227SOL    HW124317   4.094   2.015   7.585  0.0277  1.2000  0.0140
 4227SOL    HW224318   4.107   1.989   7.732 -0.0592  0.9069  0.1360
 4228SOL     OW24319   4.663   0.278   2.560  0.3022 -0.1371 -0.1051
 4228SOL    HW124320   4.582   0.226   2.557 -0.4586  1.0274  0.5470
 4228SOL    HW224321   4.727   0.224   2.606 -0.2001  0.2843  1.0673
 4229SOL     OW24322   0.319   2.597  12.853 -0.1817 -0.3819  0.1811
 4229SOL    HW124323   0.325   2.527  12.788 -1.3488  1.4667 -1.9175
 4229SOL    HW224324   0.342   2.550  12.934 -2.8563  1.4860  2.0358
 4230SOL     OW24325   2.310   2.914   0.310  0.6650  0.4233  0.4080
 4230SOL    HW124326   2.396   2.895   0.348  0.4787 -0.2673  0.4791
 4230SOL    HW224327   2.298   2.845   0.245 -1.3111  0.2184  1.0012
 4231SOL     OW24328   1.578   2.157   3.360  0.0664  0.0551 -0.4394
 4231SOL    HW124329   1.591   2.238   3.409 -1.4303 -0.7245  1.2415
 4231SOL    HW224330   1.668   2.132   3.339 -0.3530  0.6718 -3.0239
 4232SOL     OW24331   1.095   3.494  13.684 -0.1044  0.2149  0.2444
 4232SOL    HW124332   1.154   3.424  13.657  1.4170  1.1319  1.1841
 4232SOL    HW224333   1.075   3.547  13.607  2.4555 -2.1249 -2.0069
 4233SOL     OW24334   3.355   3.439   2.615 -0.3448  0.2046  0.0049
 4233SOL    HW124335   3.385   3.486   2.537 -0.8427  0.4416 -0.0427
 4233SOL    HW224336   3.335   3.352   2.583 -1.7883  1.2232 -1.8668
 4234SOL     OW24337   0.327   2.900   3.320  0.3041 -0.1194 -0.1162
 4234SOL    HW124338   0.365   2.984   3.344  0.7325 -1.2798  3.1512
 4234SOL    HW224339   0.383   2.889   3.243 -0.0638 -0.2617 -0.3641
 4235SOL     OW24340   3.351   0.650   9.684  0.2410  0.1130  0.4971
 4235SOL    HW124341   3.335   0.563   9.722 -0.6966 -0.4473 -1.1973
 4235SOL    HW224342   3.323   0.709   9.754  2.1058  1.1245  0.3966
 4236SOL     OW24343   0.277   3.611   8.868  0.3098 -0.2530 -0.2392
 4236SOL    HW124344   0.352   3.561   8.897  1.4915  0.1807 -2.5334
 4236SOL    HW224345   0.219   3.580   8.938 -0.4163 -0.0934 -0.7710
 4237SOL     OW24346   1.147   1.478   5.250 -0.1570 -0.0214 -0.0236
 4237SOL    HW124347   1.055   1.491   5.271 -0.3986 -1.1136 -0.4072
 4237SOL    HW224348   1.138   1.404   5.190 -1.1620 -1.0774  1.4181
 4238SOL     OW24349   2.868   3.151   2.891  0.4371 -0.0909  0.5313
 4238SOL    HW124350   2.813   3.130   2.815 -0.4253  0.6057  0.9588
 4238SOL    HW224351   2.905   3.063   2.900  1.9555  0.8069  3.0354
 4239SOL     OW24352   0.737   0.483  11.178 -0.1326 -0.5175  0.0356
 4239SOL    HW124353   0.759   0.391  11.161  0.2498 -0.5269  0.5810
 4239SOL    HW224354   0.810   0.513  11.233  1.8515 -1.8091 -1.9261
 4240SOL     OW24355   4.708   2.635  11.956 -0.1955 -0.4954 -0.0045
 4240SOL    HW124356   0.040   2.673  12.013  0.0680  0.2906 -0.8304
 4240SOL    HW224357   0.000   2.544  11.950  0.1211 -0.4617  1.0303
 4241SOL     OW24358   3.245   1.044   0.197  0.1045  0.4131  0.0503
 4241SOL    HW124359   3.212   1.125   0.159 -0.7602 -0.6810 -1.5853
 4241SOL    HW224360   3.219   1.055   0.288  3.6002 -0.4581  1.1504
 4242SOL     OW24361   0.707   0.786   2.340 -0.1150 -0.0941  0.1041
 4242SOL    HW124362   0.776   0.721   2.332  0.8322  1.1030 -1.3880
 4242SOL    HW224363   0.743   0.852   2.282  1.5004 -1.7201 -0.7496
 4243SOL     OW24364   4.484   2.386  11.256 -0.1580 -0.2616 -0.4826
 4243SOL    HW124365   4.545   2.458  11.240 -1.0507  0.8610  1.1718
 4243SOL    HW224366   4.437   2.380  11.173 -1.4380 -0.5243  0.2480
 4244SOL     OW24367   3.200   3.671   6.831 -0.0060  0.7748  0.0783
 4244SOL    HW124368   3.111   3.704   6.818 -0.5535 -1.6027 -2.1532
 4244SOL    HW224369   3.195   3.591   6.779  0.5695  0.4019  0.6085
 4245SOL     OW24370   2.130   4.650   7.953 -0.0313  0.3353 -0.8509
 4245SOL    HW124371   2.096   4.701   7.880 -0.5892 -0.1227 -0.9128
 4245SOL    HW224372   2.156   4.718   8.015  0.5114 -0.0652 -0.6345
 4246SOL     OW24373   4.458   3.410   2.834 -0.1442 -0.0230  0.2602
 4246SOL    HW124374   4.462   3.477   2.765 -1.3463  0.1640  0.3760
 4246SOL    HW224375   4.438   3.464   2.911  1.4629 -0.7478  1.1946
 4247SOL     OW24376   3.968   1.327   1.137  0.1809 -0.2893  0.6375
 4247SOL    HW124377   4.039   1.391   1.149  0.8453 -0.8520 -0.2924
 4247SOL    HW224378   3.999   1.309   1.048 -0.8476  1.3917 -0.0528
 4248SOL     OW24379   0.898   3.257   4.923 -0.4242  0.0593 -0.0904
 4248SOL    HW124380   0.843   3.317   4.871 -1.9530  0.3266  1.8227
 4248SOL    HW224381   0.912   3.190   4.856 -0.6173 -0.0068 -0.0648
 4249SOL     OW24382   2.078   3.970   4.255 -0.1553  0.2785 -0.4433
 4249SOL    HW124383   2.170   3.992   4.237 -0.3296  0.3417 -1.2623
 4249SOL    HW224384   2.066   3.889   4.205 -1.6482 -2.4033  4.2786
 4250SOL     OW24385   1.308   1.518   7.886 -0.0071  0.2551  0.1486
 4250SOL    HW124386   1.215   1.524   7.908  0.4207 -0.0910  2.0391
 4250SOL    HW224387   1.308   1.582   7.814  0.9520 -0.3213 -0.3678
 4251SOL     OW24388   4.197   0.412  14.603 -0.3955 -0.2481 -0.0205
 4251SOL    HW124389   4.123   0.403  14.664 -2.8179 -1.2245 -3.0848
 4251SOL    HW224390   4.203   0.505  14.581 -1.6255  0.0230  0.7820
 4252SOL     OW24391   2.708   3.807  17.678  0.2752 -0.4485 -0.4645
 4252SOL    HW124392   2.636   3.788  17.737 -0.7489 -0.2373 -1.6574
 4252SOL    HW224393   2.675   3.747  17.611 -2.3407  1.5322 -0.9238
 4253SOL     OW24394   1.052   1.286   3.604  0.1000  1.1255  0.3002
 4253SOL    HW124395   1.109   1.218   3.641 -1.5728  0.0557  0.9136
 4253SOL    HW224396   1.043   1.249   3.517 -2.0792  0.5114  0.7918
 4254SOL     OW24397   4.030   1.451  11.088 -0.7581  0.2169  0.3228
 4254SOL    HW124398   4.004   1.530  11.041  0.4811 -1.1048 -2.6201
 4254SOL    HW224399   4.029   1.476  11.180  0.7603 -0.2591  0.4695
 4255SOL     OW24400   4.383   0.681  14.835 -0.2704 -0.5570 -0.1715
 4255SOL    HW124401   4.298   0.688  14.879 -0.1458 -1.6960  0.2524
 4255SOL    HW224402   4.354   0.629  14.760  1.4919  0.1275 -1.3295
 4256SOL     OW24403   1.969   1.337   7.248 -0.1387 -0.1370  0.5396
 4256SOL    HW124404   2.033   1.288   7.197  0.2908 -1.2140  2.0938
 4256SOL    HW224405   1.892   1.323   7.193 -0.3587  0.0269  0.8043
 4257SOL     OW24406   2.497   2.079   7.249 -0.3268  0.1530  0.1425
 4257SOL    HW124407   2.467   2.056   7.337 -1.3672 -0.9913 -0.5058
 4257SOL    HW224408   2.502   2.174   7.257 -0.9902  0.4202 -2.4781
 4258SOL     OW24409   4.607   1.635  17.522 -0.2956  0.1322  0.7718
 4258SOL    HW124410   4.602   1.729  17.541  1.1921 -0.0042  1.8130
 4258SOL    HW224411   4.518   1.598  17.520 -0.6540  1.1024 -1.5524
 4259SOL     OW24412   1.209   0.347   1.655 -0.2130 -0.6530  0.1002
 4259SOL    HW124413   1.216   0.338   1.560  0.9598 -0.7054  0.1889
 4259SOL    HW224414   1.119   0.376   1.668  0.0046  0.9204 -2.0285
 4260SOL     OW24415   4.212   2.415  14.528  0.3205  0.1474  0.0388
 4260SOL    HW124416   4.152   2.470  14.580 -0.0336  0.0102 -0.2220
 4260SOL    HW224417   4.153   2.343  14.508 -0.4999  0.9917 -0.6362
 4261SOL     OW24418   0.328   4.694  10.420 -0.1092  0.4101  0.3245
 4261SOL    HW124419   0.362   0.046  10.434 -1.9373  1.3745 -1.2155
 4261SOL    HW224420   0.404   4.660  10.373 -0.9698 -1.0319 -0.0372
 4262SOL     OW24421   2.295   3.107   4.439 -0.5080 -0.7574  0.3430
 4262SOL    HW124422   2.220   3.087   4.383 -1.3952 -0.4473  1.4189
 4262SOL    HW224423   2.268   3.061   4.518  1.1738  1.3047  2.1237
 4263SOL     OW24424   3.412   1.151   9.521  0.1798  0.1170  0.0517
 4263SOL    HW124425   3.403   1.152   9.616 -2.7078  1.3853 -0.2332
 4263SOL    HW224426   3.508   1.150   9.516  0.1815 -0.3214  0.1679
 4264SOL     OW24427   3.736   2.779   5.567  0.1079  0.1264  0.2451
 4264SOL    HW124428   3.688   2.747   5.491  1.3554 -2.3849  0.5131
 4264SOL    HW224429   3.824   2.763   5.532  0.3617  0.8178  0.5659
 4265SOL     OW24430   0.737   0.331   1.851 -0.1248  0.2060 -0.6817
 4265SOL    HW124431   0.653   0.320   1.894  0.7962  0.1542  1.0853
 4265SOL    HW224432   0.718   0.278   1.773  0.9204  2.3847 -2.4270
 4266SOL     OW24433   3.301   0.577   7.277 -0.1539 -0.6027 -0.6242
 4266SOL    HW124434   3.228   0.535   7.232 -1.1380  0.8246 -0.3478
 4266SOL    HW224435   3.257   0.652   7.317 -0.8194 -0.5941 -1.3699
 4267SOL     OW24436   0.790   1.261   7.099 -0.0129 -0.3265  0.0805
 4267SOL    HW124437   0.756   1.188   7.047 -0.1332 -0.8418  0.8836
 4267SOL    HW224438   0.864   1.209   7.129  0.0475 -0.2677  0.0343
 4268SOL     OW24439   1.392   3.867   8.581 -0.2749  0.0580 -0.0147
 4268SOL    HW124440   1.336   3.942   8.561 -1.9681 -0.8789  1.2669
 4268SOL    HW224441   1.357   3.800   8.522  0.2403  1.2397 -1.6771
 4269SOL     OW24442   1.257   1.736  16.179  0.0972 -1.0882 -0.0382
 4269SOL    HW124443   1.274   1.760  16.270  2.2650 -3.5551  0.1924
 4269SOL    HW224444   1.251   1.822  16.137 -1.5236 -1.1095  0.1514
 4270SOL     OW24445   3.231   1.335   1.696  0.2099  0.6780  0.7348
 4270SOL    HW124446   3.250   1.360   1.787  2.1063  1.0484  0.2327
 4270SOL    HW224447   3.148   1.290   1.709  0.1335  0.5428 -0.2577
 4271SOL     OW24448   2.998   0.201   4.550  0.4775  0.1064  0.1732
 4271SOL    HW124449   2.988   0.106   4.551 -0.2948  0.2231  2.4668
 4271SOL    HW224450   3.000   0.215   4.455  3.8392 -1.5913 -0.0211
 4272SOL     OW24451   0.633   3.437   5.350  0.2483  0.2965 -0.6899
 4272SOL    HW124452   0.632   3.448   5.255  0.2236 -3.0768 -1.1071
 4272SOL    HW224453   0.547   3.478   5.354 -0.1017 -0.5795  0.9366
 4273SOL     OW24454   0.372   0.998   3.406 -0.6959  0.0758  0.3887
 4273SOL    HW124455   0.460   1.033   3.397 -0.2462 -1.1271  0.1579
 4273SOL    HW224456   0.317   1.077   3.404  0.3658  0.7524 -1.6794
 4274SOL     OW24457   4.518   2.956  14.533  0.3037 -0.4609 -0.1273
 4274SOL    HW124458   4.569   2.994  14.461  1.9904  2.1742  2.4495
 4274SOL    HW224459   4.453   2.907  14.481  0.6212 -0.3304 -0.6476
 4275SOL     OW24460   1.603   3.684   6.960 -0.1400  0.2962  0.6485
 4275SOL    HW124461   1.546   3.704   6.885 -0.8657 -2.8363  0.3530
 4275SOL    HW224462   1.674   3.748   6.956  0.3646 -0.2851  0.2451
 4276SOL     OW24463   0.581   4.706   4.970  0.3605 -0.2704 -0.0923
 4276SOL    HW124464   0.656   4.660   4.934  0.5649  1.9246 -2.4416
 4276SOL    HW224465   0.543   4.631   5.015  0.2726 -0.5066 -0.5586
 4277SOL     OW24466   0.263   4.575   3.237  0.4121  0.7543  0.1800
 4277SOL    HW124467   0.206   4.498   3.234  0.5284  0.6452  0.6986
 4277SOL    HW224468   0.351   4.537   3.230 -0.0355 -0.2668  0.1833
 4278SOL     OW24469   1.789   2.441   1.803 -0.7678 -0.1064  0.2244
 4278SOL    HW124470   1.722   2.435   1.871  0.1991  3.8206  1.5558
 4278SOL    HW224471   1.848   2.368   1.824 -1.1563  0.2593  2.6050
 4279SOL     OW24472   1.802   2.965  15.058 -0.6964  0.3095  0.4593
 4279SOL    HW124473   1.751   3.028  15.008  0.6808  2.5253  1.8500
 4279SOL    HW224474   1.861   2.937  14.988 -1.4702 -0.4458  0.1071
 4280SOL     OW24475   4.460   1.520   5.387  0.2931  0.6538 -0.1735
 4280SOL    HW124476   4.370   1.524   5.417  0.7565 -0.4949  1.3778
 4280SOL    HW224477   4.502   1.522   5.473 -0.5423 -1.4924  0.2919
 4281SOL     OW24478   3.827   1.547  16.229  0.0249 -0.4844 -0.2882
 4281SOL    HW124479   3.914   1.508  16.238  0.6789  1.3806  1.3224
 4281SOL    HW224480   3.806   1.528  16.321  3.2709 -1.9184  0.1442
 4282SOL     OW24481   3.006   0.348   0.445  0.0517  0.5224  0.8177
 4282SOL    HW124482   2.912   0.329   0.453 -0.6327  2.6094 -2.3834
 4282SOL    HW224483   3.014   0.372   0.352  0.0989 -2.5482  0.0038
 4283SOL     OW24484   1.569   0.647   6.466 -0.1087 -0.2003 -0.3082
 4283SOL    HW124485   1.633   0.719   6.462 -1.2326  0.7006 -2.3103
 4283SOL    HW224486   1.539   0.678   6.551  0.5180 -1.0308  0.2177
 4284SOL     OW24487   3.244   2.709   4.149  0.1209 -0.0509  0.6202
 4284SOL    HW124488   3.291   2.673   4.224  1.7845 -0.2409 -0.5404
 4284SOL    HW224489   3.186   2.639   4.120 -2.1302  1.0793  2.3288
 4285SOL     OW24490   0.531   4.169   3.313 -0.3096  0.2691 -0.1063
 4285SOL    HW124491   0.613   4.142   3.354 -0.7577 -1.8746 -0.6202
 4285SOL    HW224492   0.473   4.170   3.389 -0.6889  1.6374 -0.4077
 4286SOL     OW24493   1.205   0.319   3.937  0.5990  0.9726 -0.5034
 4286SOL    HW124494   1.241   0.231   3.940  0.0204  0.7830  0.8409
 4286SOL    HW224495   1.172   0.329   3.848 -0.9289 -0.7519 -0.1236
 4287SOL     OW24496   1.312   2.312   4.523  0.4845 -0.0933 -0.2121
 4287SOL    HW124497   1.367   2.246   4.564 -0.0466  0.3084  1.1496
 4287SOL    HW224498   1.361   2.353   4.452 -1.2170 -1.2375 -2.0491
 4288SOL     OW24499   2.551   1.826   8.218  0.0974 -0.4359 -0.2787
 4288SOL    HW124500   2.569   1.919   8.205  1.4668 -0.6131  0.3260
 4288SOL    HW224501   2.497   1.799   8.144  0.8291 -1.7066 -0.3488
 4289SOL     OW24502   2.832   4.243  17.662  0.0703  0.2831 -0.1943
 4289SOL    HW124503   2.917   4.200  17.655  0.5788  0.9165  2.0743
 4289SOL    HW224504   2.807   4.213   0.009  2.0629 -0.5480  0.0906
 4290SOL     OW24505   2.072   0.703   5.279 -0.2608  0.2965  0.1660
 4290SOL    HW124506   2.010   0.709   5.353 -3.0676  1.8776 -2.3022
 4290SOL    HW224507   2.010   0.699   5.206  1.0888  0.1503 -0.9560
 4291SOL     OW24508   4.145   0.432   8.304  0.9562  0.6853  0.2172
 4291SOL    HW124509   4.078   0.477   8.354  0.0572  0.4722 -0.7861
 4291SOL    HW224510   4.167   0.353   8.354  0.1829 -0.2676 -0.9302
 4292SOL     OW24511   4.370   0.404   3.225  0.0214 -0.1889  0.0775
 4292SOL    HW124512   4.460   0.385   3.198 -0.0954  2.3541 -2.0524
 4292SOL    HW224513   4.354   0.372   3.314  0.2242  1.0702  0.5562
 4293SOL     OW24514   0.227   2.783   1.613 -0.3803  0.1543  0.5914
 4293SOL    HW124515   0.322   2.781   1.601 -0.4866  4.4719 -1.0385
 4293SOL    HW224516   0.221   2.856   1.675 -1.3002  0.4173  0.1787
 4294SOL     OW24517   4.496   0.637   7.002 -0.2257 -0.0870 -0.3907
 4294SOL    HW124518   4.466   0.621   6.913 -2.2567 -1.9763  0.6363
 4294SOL    HW224519   4.582   0.679   6.999  1.0605 -2.8767 -2.0620
 4295SOL     OW24520   4.584   2.787   5.236  0.1486  0.5312 -0.8357
 4295SOL    HW124521   4.546   2.866   5.275  2.7470  1.6672 -0.5847
 4295SOL    HW224522   4.659   2.819   5.185  2.3548 -1.1276  1.3615
 4296SOL     OW24523   4.095   1.429  16.194  0.0745  0.4368 -0.0251
 4296SOL    HW124524   4.099   1.385  16.109 -0.0905  1.4901 -0.5823
 4296SOL    HW224525   4.146   1.507  16.172 -0.9493  0.9949 -0.4434
 4297SOL     OW24526   0.053   4.730   7.219 -0.0135  0.2863  0.3191
 4297SOL    HW124527   0.061   4.683   7.303  0.0764  0.1034  0.2090
 4297SOL    HW224528   4.717   0.057   7.230 -1.1429 -0.8865 -0.3949
 4298SOL     OW24529   0.481   1.825   8.708 -0.1573  0.5158 -0.2376
 4298SOL    HW124530   0.464   1.808   8.801 -2.5868  0.2555 -0.7239
 4298SOL    HW224531   0.572   1.797   8.710 -0.5626 -0.8190 -0.4741
 4299SOL     OW24532   2.260   4.371   1.926 -0.1742 -0.0381 -0.4136
 4299SOL    HW124533   2.329   4.432   1.899 -0.4443  0.6619  0.4685
 4299SOL    HW224534   2.244   4.319   1.847  1.7375 -0.7217 -0.3558
 4300SOL     OW24535   3.113   1.007   4.617 -0.3554  0.2536  0.5598
 4300SOL    HW124536   3.116   1.096   4.652 -0.3355 -0.1316  1.5425
 4300SOL    HW224537   3.042   1.021   4.554 -0.4153  0.1206  0.5987
 4301SOL     OW24538   0.011   3.846   9.049  0.5763 -0.3676 -0.0171
 4301SOL    HW124539   0.042   3.756   9.049 -0.8611 -0.8701  1.4344
 4301SOL    HW224540   4.679   3.845   9.117  0.2302 -0.9864 -0.3741
 4302SOL     OW24541   1.637   1.307   3.441  0.2034  0.1044 -0.7107
 4302SOL    HW124542   1.628   1.399   3.415 -2.2105  0.2483  0.6158
 4302SOL    HW224543   1.628   1.311   3.536 -1.3757 -1.5430 -0.8032
 4303SOL     OW24544   4.050   1.691   3.445  0.5059  0.2585  0.1294
 4303SOL    HW124545   4.055   1.749   3.369  0.2192  0.6216  0.3858
 4303SOL    HW224546   4.102   1.615   3.419  2.1194  1.1764  0.6969
 4304SOL     OW24547   3.876   4.442   3.171 -0.5778  0.4140 -0.3400
 4304SOL    HW124548   3.890   4.483   3.256 -1.7267  0.9328 -0.3978
 4304SOL    HW224549   3.832   4.514   3.126 -1.0252  1.5348  1.8920
 4305SOL     OW24550   0.663   2.661   4.714 -0.4945  0.5403 -0.6563
 4305SOL    HW124551   0.745   2.709   4.721 -1.1075  1.4402  0.3242
 4305SOL    HW224552   0.668   2.634   4.622  2.1342 -0.4371 -0.2106
 4306SOL     OW24553   0.617   1.654   5.279 -0.1898  0.0278 -0.2993
 4306SOL    HW124554   0.648   1.737   5.242  0.8311 -0.6581 -0.9592
 4306SOL    HW224555   0.571   1.675   5.361  0.5470 -0.2058  0.1708
 4307SOL     OW24556   3.323   0.186   5.645  0.2574  0.2854  0.7951
 4307SOL    HW124557   3.262   0.232   5.703 -0.5404 -0.4882  0.5624
 4307SOL    HW224558   3.391   0.154   5.705  0.7672  0.7470  0.4623
 4308SOL     OW24559   4.004   4.182   4.767  0.5469 -0.4085 -0.0526
 4308SOL    HW124560   4.092   4.179   4.803  0.4617  0.1606  0.2108
 4308SOL    HW224561   3.963   4.105   4.806  1.2374 -0.7584 -0.0302
 4309SOL     OW24562   2.234   4.192  11.891  0.3464 -0.0349  0.1414
 4309SOL    HW124563   2.282   4.251  11.949 -0.3727  1.5269 -0.8591
 4309SOL    HW224564   2.185   4.255  11.838  1.2499  2.1396  1.8857
 4310SOL     OW24565   0.866   3.706   3.024 -0.8029  0.0994 -0.0799
 4310SOL    HW124566   0.813   3.637   2.984 -0.9414  1.1742 -1.7738
 4310SOL    HW224567   0.799   3.740   3.083 -0.0831 -1.0305  1.3865
 4311SOL     OW24568   3.958   2.976   3.281 -0.6219  0.1060  0.1680
 4311SOL    HW124569   4.001   2.926   3.351 -3.2795 -0.9920  1.0218
 4311SOL    HW224570   3.997   2.938   3.203  1.7838 -0.7053  1.7498
 4312SOL     OW24571   1.051   1.557   0.546 -0.0191  0.1527  0.2397
 4312SOL    HW124572   1.000   1.477   0.548 -0.9365  0.7662  1.2035
 4312SOL    HW224573   1.096   1.529   0.626 -0.4202 -0.0832  0.3786
 4313SOL     OW24574   3.815   3.397   4.602 -0.3536  0.5198 -0.2554
 4313SOL    HW124575   3.811   3.436   4.690  1.7097 -1.2314  0.6097
 4313SOL    HW224576   3.798   3.306   4.628  0.6740  0.5192  0.4350
 4314SOL     OW24577   1.545   0.772   2.441 -0.2133  0.8633  0.7070
 4314SOL    HW124578   1.453   0.745   2.438 -0.2300  0.6608  2.9021
 4314SOL    HW224579   1.566   0.775   2.348 -1.3807 -1.0678  0.3687
 4315SOL     OW24580   2.424   2.089   4.930 -0.3349  0.1868  0.4588
 4315SOL    HW124581   2.438   2.176   4.894 -2.0810  0.2575 -0.0153
 4315SOL    HW224582   2.486   2.040   4.876  0.7364  0.7111  1.2194
 4316SOL     OW24583   0.771   2.834  17.398 -0.0993  0.5953  0.3547
 4316SOL    HW124584   0.690   2.839  17.449  1.0671 -0.4507  2.2942
 4316SOL    HW224585   0.796   2.924  17.375  0.0464 -0.0598 -2.0573
 4317SOL     OW24586   0.327   1.328   3.670 -0.0215  0.2086 -0.1255
 4317SOL    HW124587   0.345   1.234   3.678  2.1739  0.3939 -2.9250
 4317SOL    HW224588   0.411   1.363   3.641  0.1495  0.5554  0.7916
 4318SOL     OW24589   0.115   1.369   1.503 -0.0918 -0.0138 -0.0848
 4318SOL    HW124590   0.111   1.280   1.537  0.0306  0.6030  1.5267
 4318SOL    HW224591   0.028   1.393   1.535 -0.3441  0.4917 -1.1503
 4319SOL     OW24592   0.454   3.928   9.470 -0.3187  0.5556  0.3421
 4319SOL    HW124593   0.430   4.011   9.429 -0.4694  0.6806  0.6841
 4319SOL    HW224594   0.396   3.863   9.432 -1.8846  2.5366 -0.6418
 4320SOL     OW24595   3.006   3.732   4.153  0.0281  0.0489  0.3724
 4320SOL    HW124596   3.101   3.717   4.158  0.0260 -0.4188 -0.9734
 4320SOL    HW224597   2.969   3.655   4.110  2.2468  0.0289 -1.4783
 4321SOL     OW24598   2.396   2.159   4.486  0.2395 -0.8001 -0.9407
 4321SOL    HW124599   2.331   2.224   4.461  0.7914  0.6267  1.2921
 4321SOL    HW224600   2.345   2.113   4.552 -0.5106  0.6149 -0.5403
 4322SOL     OW24601   3.822   0.900   7.009  0.1824 -0.3385  0.6052
 4322SOL    HW124602   3.795   0.984   6.972 -0.4308 -1.2702 -1.0588
 4322SOL    HW224603   3.840   0.928   7.098  0.2773 -0.6512  0.6847
 4323SOL     OW24604   1.860   0.038  12.514  0.2114  0.1134 -0.6473
 4323SOL    HW124605   1.777   0.042  12.562  1.3723 -0.9362  1.4493
 4323SOL    HW224606   1.829   0.016  12.426 -0.0775 -1.0857 -0.2601
 4324SOL     OW24607   0.486   1.261  14.559 -0.2733 -0.1247 -0.3931
 4324SOL    HW124608   0.509   1.190  14.499  3.2117  0.2265  0.5206
 4324SOL    HW224609   0.549   1.331  14.542 -2.6314  1.9044 -0.7855
 4325SOL     OW24610   1.633   3.093   1.479 -0.0705 -0.1988  0.1204
 4325SOL    HW124611   1.711   3.054   1.518 -0.0052 -0.1177  0.0716
 4325SOL    HW224612   1.666   3.150   1.409 -0.7208 -0.3353 -0.3005
 4326SOL     OW24613   2.456   1.559   6.999 -0.7340 -0.2990 -0.6649
 4326SOL    HW124614   2.374   1.597   7.030  0.3793  0.9147  0.8315
 4326SOL    HW224615   2.410   1.505   6.935 -1.5657  0.4508 -0.7098
 4327SOL     OW24616   1.079   0.905  14.565 -0.1493 -0.1530 -0.0842
 4327SOL    HW124617   1.041   0.820  14.540 -0.1820  0.0566 -0.7481
 4327SOL    HW224618   0.994   0.939  14.592 -0.4521 -1.0746  0.1184
 4328SOL     OW24619   2.690   0.178   6.331 -0.3685 -0.1634  0.1371
 4328SOL    HW124620   2.742   0.238   6.278 -1.4072 -0.1434 -0.8551
 4328SOL    HW224621   2.727   0.093   6.305 -1.3379  0.0002 -1.8410
 4329SOL     OW24622   0.411   0.106   9.694  0.1778 -0.3304 -0.0199
 4329SOL    HW124623   0.472   0.101   9.621 -1.7310 -2.6510 -1.4715
 4329SOL    HW224624   0.454   0.051   9.759 -0.3611 -1.5746 -0.7199
 4330SOL     OW24625   3.008   0.255   6.498  0.2564  0.0772  0.2985
 4330SOL    HW124626   3.021   0.334   6.445  0.6343 -0.1799  0.0110
 4330SOL    HW224627   3.029   0.184   6.439 -2.2506 -0.0726 -0.4055
 4331SOL     OW24628   1.265   2.709   3.445 -0.0329 -0.0433 -0.1543
 4331SOL    HW124629   1.246   2.648   3.517 -1.2310  0.3072 -0.1684
 4331SOL    HW224630   1.196   2.687   3.383 -0.2941 -2.7058  1.0680
 4332SOL     OW24631   0.538   1.797   2.235  0.2111  0.2427  0.1768
 4332SOL    HW124632   0.534   1.878   2.286 -1.1675 -1.6141  3.0236
 4332SOL    HW224633   0.631   1.773   2.240  0.3842  0.5376 -1.7664
 4333SOL     OW24634   0.959   1.853   1.062 -0.1226  0.7558 -0.8462
 4333SOL    HW124635   1.004   1.893   1.136  1.1423  0.2434 -1.3520
 4333SOL    HW224636   1.038   1.843   1.009 -0.3287  2.0322 -1.4161
 4334SOL     OW24637   0.286   3.792   2.193  0.6002  0.2034 -0.5652
 4334SOL    HW124638   0.262   3.718   2.137  1.9101  1.1919 -2.4434
 4334SOL    HW224639   0.221   3.789   2.263  1.1311 -1.2603 -0.1358
 4335SOL     OW24640   0.926   1.858   5.563 -0.8500 -0.0582  0.1404
 4335SOL    HW124641   0.934   1.874   5.469  2.0624 -0.0264  0.3958
 4335SOL    HW224642   0.929   1.763   5.562 -0.6208 -0.0368 -1.0222
 4336SOL     OW24643   0.854   2.100   2.163 -0.5552 -0.2815  0.1429
 4336SOL    HW124644   0.764   2.068   2.171 -0.7730 -0.2870 -2.2630
 4336SOL    HW224645   0.863   2.119   2.256  0.5149  0.0628 -0.0208
 4337SOL     OW24646   0.584   4.682   1.996  0.1788 -0.1438  0.0504
 4337SOL    HW124647   0.671   4.722   1.996  1.2196 -2.4464 -1.5324
 4337SOL    HW224648   0.543   4.720   1.919 -0.8133 -1.1479  0.0835
 4338SOL     OW24649   3.272   2.760  16.095 -0.3089  0.2793  0.4561
 4338SOL    HW124650   3.357   2.720  16.079 -1.5430 -2.1974  0.2160
 4338SOL    HW224651   3.284   2.845  16.052  0.2059 -0.9647 -1.8268
 4339SOL     OW24652   0.229   4.145   0.651  0.3701 -0.0787  0.1746
 4339SOL    HW124653   0.201   4.081   0.586 -0.3809 -0.0701  0.4902
 4339SOL    HW224654   0.255   4.075   0.711 -0.6298 -0.8543 -0.3034
 4340SOL     OW24655   1.499   1.385   4.533 -0.4050 -0.7278 -0.1098
 4340SOL    HW124656   1.506   1.372   4.628 -1.5500  1.0143  0.1932
 4340SOL    HW224657   1.593   1.381   4.513 -0.4750 -0.5860 -0.4443
 4341SOL     OW24658   0.311   1.746   6.219  0.8866 -0.2850  0.0692
 4341SOL    HW124659   0.318   1.808   6.291 -1.7438 -1.6381  1.4706
 4341SOL    HW224660   0.232   1.702   6.251  0.4206 -0.3961 -1.2146
 4342SOL     OW24661   2.469   1.938   5.382 -0.1895 -0.1151 -0.2480
 4342SOL    HW124662   2.510   2.020   5.410 -0.3423  0.0717 -0.5661
 4342SOL    HW224663   2.506   1.874   5.443 -1.3368  1.2693  1.8708
 4343SOL     OW24664   2.305   2.784  17.305 -0.6720  0.5799  0.0806
 4343SOL    HW124665   2.286   2.878  17.313  0.7367  0.6625  2.3875
 4343SOL    HW224666   2.226   2.736  17.332 -0.3568 -1.1845 -2.1129
 4344SOL     OW24667   1.516   0.818   3.626 -0.1864 -0.4759 -0.0317
 4344SOL    HW124668   1.569   0.850   3.698 -0.6906 -0.9782  0.5588
 4344SOL    HW224669   1.549   0.729   3.631 -1.3645 -0.9644 -0.7182
 4345SOL     OW24670   2.946   3.447   1.843 -0.3162 -0.1084  0.0145
 4345SOL    HW124671   2.886   3.410   1.908  1.7465 -1.8766  0.9240
 4345SOL    HW224672   2.894   3.526   1.832 -1.3169 -0.6732  0.7551
 4346SOL     OW24673   3.808   0.404   8.512 -0.6312  0.3362  0.0460
 4346SOL    HW124674   3.853   0.323   8.536 -1.5298  0.1093  1.0070
 4346SOL    HW224675   3.739   0.397   8.579  0.0162 -2.1655  0.4749
 4347SOL     OW24676   2.470   2.845  12.866 -0.2275 -0.3958  0.0746
 4347SOL    HW124677   2.383   2.850  12.827  0.2292 -4.4247 -1.4354
 4347SOL    HW224678   2.529   2.895  12.809 -1.5258  0.9206 -0.0966
 4348SOL     OW24679   2.898   3.414  17.373  0.0489 -0.4444 -0.1352
 4348SOL    HW124680   2.845   3.360  17.433 -0.4035  0.5762  0.3727
 4348SOL    HW224681   2.962   3.345  17.354  1.1988  0.5679  0.0333
 4349SOL     OW24682   2.464   2.697  12.022  0.4565  0.7880 -0.0486
 4349SOL    HW124683   2.455   2.632  12.091 -0.9712  0.2953 -0.7001
 4349SOL    HW224684   2.511   2.645  11.957  0.9562  0.4349  0.5951
 4350SOL     OW24685   4.430   0.049  12.636  0.5159  0.3866 -0.5835
 4350SOL    HW124686   4.492   0.039  12.709 -0.1835  0.4660  0.0196
 4350SOL    HW224687   4.430   0.143  12.616  0.1028  0.5100 -0.0254
 4351SOL     OW24688   3.385   1.763   4.400 -0.5175  0.1231  0.4891
 4351SOL    HW124689   3.423   1.713   4.327 -0.6680 -0.2757  0.6815
 4351SOL    HW224690   3.303   1.792   4.361  0.9297 -0.4157 -2.9759
 4352SOL     OW24691   1.261   2.967   8.151 -0.9334  0.8061  0.5465
 4352SOL    HW124692   1.230   3.028   8.084 -0.2722  0.5225 -0.0202
 4352SOL    HW224693   1.201   2.969   8.225 -1.4124  2.6425  0.1078
 4353SOL     OW24694   2.692   0.164   7.538  0.0540  0.4006 -0.1490
 4353SOL    HW124695   2.783   0.163   7.570  0.3156 -0.5355 -0.9359
 4353SOL    HW224696   2.692   0.168   7.442 -0.9045  1.9052 -0.0848
 4354SOL     OW24697   0.796   0.376   2.168 -0.5335 -0.1927 -0.0411
 4354SOL    HW124698   0.828   0.460   2.134  2.2045 -1.1821  0.1147
 4354SOL    HW224699   0.870   0.317   2.182 -0.8571 -0.7190 -0.5169
 4355SOL     OW24700   4.435   0.760  15.245  0.3324  0.2960 -0.4973
 4355SOL    HW124701   4.350   0.802  15.237  0.2239  0.0467 -0.6442
 4355SOL    HW224702   4.430   0.671  15.210 -1.9709 -0.1807  1.0280
 4356SOL     OW24703   1.766   3.340   8.610  0.3219  0.1314  0.1464
 4356SOL    HW124704   1.854   3.306   8.625 -0.5115 -2.4311 -0.7516
 4356SOL    HW224705   1.749   3.364   8.701 -1.4151  1.8992 -0.6275
 4357SOL     OW24706   1.686   4.333   2.596  0.1616 -0.1001 -0.1638
 4357SOL    HW124707   1.753   4.267   2.618 -0.2981 -0.7897 -0.8195
 4357SOL    HW224708   1.641   4.287   2.525  2.0811 -0.3536 -1.2362
 4358SOL     OW24709   1.771   1.188   7.140 -0.0030  0.3050  0.3098
 4358SOL    HW124710   1.756   1.150   7.226  2.3472  1.7352  1.3354
 4358SOL    HW224711   1.817   1.112   7.104 -1.3286  0.0774 -0.9430
 4359SOL     OW24712   2.067   1.668  15.076  0.0236  0.4678 -0.2802
 4359SOL    HW124713   1.991   1.627  15.117  1.4048 -1.1475  0.6498
 4359SOL    HW224714   2.123   1.675  15.153  0.4509  2.9147 -0.8155
 4360SOL     OW24715   2.566   1.258   4.465 -0.1248  0.3268 -0.2882
 4360SOL    HW124716   2.631   1.227   4.528 -0.6339 -0.3080 -0.0699
 4360SOL    HW224717   2.602   1.341   4.434  3.1365 -0.8889  0.3063
 4361SOL     OW24718   1.309   3.244   1.505 -0.3267  0.4060  0.1762
 4361SOL    HW124719   1.252   3.317   1.478  1.3083  1.8680  0.6728
 4361SOL    HW224720   1.389   3.290   1.530  0.3522  0.8316 -2.7625
 4362SOL     OW24721   1.149   1.084  17.511 -0.4184  0.2680 -0.4675
 4362SOL    HW124722   1.224   1.071  17.569  0.0296  0.0200 -1.1025
 4362SOL    HW224723   1.086   1.147  17.546  0.0717  2.0593 -2.8234
 4363SOL     OW24724   2.995   1.555   6.565  0.1088 -0.0652 -0.6059
 4363SOL    HW124725   2.933   1.540   6.494 -0.9695 -0.2077  0.3621
 4363SOL    HW224726   2.935   1.568   6.639 -0.8301 -1.4153 -1.1421
 4364SOL     OW24727   3.706   0.039   3.936  0.2818 -0.3194  0.2249
 4364SOL    HW124728   3.785   0.068   3.891  0.2058 -0.4190  0.0275
 4364SOL    HW224729   3.698   4.686   3.900 -0.9132  0.4028 -1.3132
 4365SOL     OW24730   2.381   3.905   5.064 -0.4585 -0.1910 -0.0195
 4365SOL    HW124731   2.446   3.854   5.016 -0.3758  0.0860 -0.1987
 4365SOL    HW224732   2.318   3.836   5.086 -0.5664 -0.4889 -1.3057
 4366SOL     OW24733   1.025   4.368  16.646 -0.0393  0.1886  0.0041
 4366SOL    HW124734   1.108   4.400  16.681 -0.5267 -0.0820  1.3922
 4366SOL    HW224735   0.980   4.326  16.719  0.4030  3.4254  2.1194
 4367SOL     OW24736   4.076   0.650   0.012 -0.2029 -0.0791 -0.4302
 4367SOL    HW124737   4.022   0.573   0.031 -1.8021  0.9507 -0.8208
 4367SOL    HW224738   4.161   0.631   0.052 -0.2307 -0.9194 -0.7641
 4368SOL     OW24739   0.146   0.817   8.908  0.1668  0.1481 -0.2024
 4368SOL    HW124740   0.086   0.855   8.844  0.1940 -2.2640 -1.6686
 4368SOL    HW224741   0.092   0.755   8.957  1.0184  1.1067  1.9446
 4369SOL     OW24742   2.270   3.404   2.361  0.5300 -0.4011 -0.6218
 4369SOL    HW124743   2.199   3.450   2.406  2.6671  1.1332  1.1871
 4369SOL    HW224744   2.234   3.382   2.276  2.3799 -0.8895 -1.2835
 4370SOL     OW24745   0.476   1.447   2.423  0.1493 -0.4959  0.1879
 4370SOL    HW124746   0.446   1.538   2.427 -1.4694 -1.0532  0.3260
 4370SOL    HW224747   0.419   1.420   2.351 -2.2634  1.8731  1.1958
 4371SOL     OW24748   3.558   0.870   3.918  0.1309 -0.0405 -0.1691
 4371SOL    HW124749   3.484   0.908   3.871 -0.5653 -0.6029  0.4698
 4371SOL    HW224750   3.588   0.941   3.976 -3.8561  0.6751  1.0454
 4372SOL     OW24751   3.385   2.446   1.631 -0.0152  0.2488  0.6908
 4372SOL    HW124752   3.290   2.457   1.639 -0.0135  1.9337 -1.7052
 4372SOL    HW224753   3.389   2.355   1.658  0.0523 -0.8138 -2.8838
 4373SOL     OW24754   2.699   0.417   8.782  0.1629  0.9836  0.4422
 4373SOL    HW124755   2.754   0.416   8.860  1.0103 -0.4042 -0.1528
 4373SOL    HW224756   2.724   0.501   8.744 -0.1426  0.2608 -1.3850
 4374SOL     OW24757   1.281   3.078   4.935  0.1309  0.2268 -0.2088
 4374SOL    HW124758   1.267   3.165   4.897  2.2111  0.4436 -0.4832
 4374SOL    HW224759   1.373   3.070   4.912 -0.2254 -1.9355 -0.8499
 4375SOL     OW24760   0.744   1.752  11.915 -0.2549 -0.0736  0.0440
 4375SOL    HW124761   0.769   1.771  12.005 -0.3943 -0.3307  0.1389
 4375SOL    HW224762   0.797   1.817  11.868 -1.4383  0.2758 -0.8112
 4376SOL     OW24763   3.419   2.944   5.171  0.8376  0.3142  0.1002
 4376SOL    HW124764   3.363   3.021   5.172 -0.0901 -0.3662 -2.2088
 4376SOL    HW224765   3.373   2.879   5.119 -0.0238  1.5294 -0.6444
 4377SOL     OW24766   3.806   1.444   6.567  0.3613 -0.3907  0.3528
 4377SOL    HW124767   3.835   1.425   6.656  1.0276 -0.8270  0.0450
 4377SOL    HW224768   3.727   1.494   6.585  0.5462 -0.7146  2.0228
 4378SOL     OW24769   3.266   2.438   3.387  0.1854 -0.3439  0.2269
 4378SOL    HW124770   3.195   2.501   3.390 -0.1533 -0.6893 -0.7049
 4378SOL    HW224771   3.241   2.400   3.303 -0.7651 -2.3378  1.4086
 4379SOL     OW24772   1.147   2.249   6.722  0.4782  0.1824 -0.1975
 4379SOL    HW124773   1.220   2.194   6.752 -0.2315 -0.2577  0.6970
 4379SOL    HW224774   1.192   2.295   6.651  0.7835  0.7279  0.3505
 4380SOL     OW24775   0.604   0.846   6.147  1.0502  0.3241  0.4887
 4380SOL    HW124776   0.676   0.797   6.186  1.8200  0.4875 -0.7159
 4380SOL    HW224777   0.655   0.924   6.124  1.3315  0.0038  0.0473
 4381SOL     OW24778   0.460   0.078  12.478 -0.4599 -0.1221 -0.6189
 4381SOL    HW124779   0.446   0.038  12.392 -1.0935 -2.2671  0.4843
 4381SOL    HW224780   0.505   0.162  12.469  1.1358 -0.8452  0.5410
 4382SOL     OW24781   4.644   1.671   4.437  0.2740  0.6442 -0.3175
 4382SOL    HW124782   4.577   1.604   4.426  0.8303  0.2270 -1.1616
 4382SOL    HW224783   4.591   1.734   4.485 -0.5688 -0.2781 -0.0498
 4383SOL     OW24784   3.331   3.830   2.241 -0.6027  0.5593 -0.5295
 4383SOL    HW124785   3.371   3.892   2.302  0.6905  1.3694 -2.2181
 4383SOL    HW224786   3.289   3.888   2.178 -0.2245  1.5758  0.1456
 4384SOL     OW24787   4.287   3.773   9.324 -0.0431 -0.1341  0.1084
 4384SOL    HW124788   4.294   3.863   9.357 -2.1157 -0.3583  1.1792
 4384SOL    HW224789   4.256   3.719   9.397  1.2954 -1.8318 -0.5837
 4385SOL     OW24790   1.831   1.184  11.238 -0.0990  0.0562 -0.2825
 4385SOL    HW124791   1.784   1.104  11.262  0.8280  0.0441  1.5210
 4385SOL    HW224792   1.778   1.255  11.273 -1.4686 -1.1629  0.0932
 4386SOL     OW24793   3.065   2.447   6.414  0.2856 -0.6236 -0.3105
 4386SOL    HW124794   3.122   2.514   6.376 -2.2768  0.2244 -2.6391
 4386SOL    HW224795   2.985   2.496   6.429  0.8321 -0.0613  0.7697
 4387SOL     OW24796   1.254   1.067   7.163  0.5589  0.3731 -0.0285
 4387SOL    HW124797   1.299   1.136   7.213  1.4277 -0.3057  0.1310
 4387SOL    HW224798   1.304   0.988   7.185  0.8783  1.1229  1.9878
 4388SOL     OW24799   4.304   2.923   6.761 -0.4484 -0.3093 -0.4299
 4388SOL    HW124800   4.217   2.885   6.747 -1.1925  1.3759 -0.3954
 4388SOL    HW224801   4.341   2.920   6.673  0.7237  0.4307  0.0397
 4389SOL     OW24802   1.450   4.285   1.336 -0.1584  0.2003 -0.4496
 4389SOL    HW124803   1.367   4.303   1.292  1.4653  2.1265 -2.7394
 4389SOL    HW224804   1.424   4.207   1.385 -2.2731  0.7817 -0.6240
 4390SOL     OW24805   0.557   0.025   8.800 -0.3383 -0.2450  0.1866
 4390SOL    HW124806   0.558   4.668   8.777  1.6818 -0.3243  0.6347
 4390SOL    HW224807   0.578   0.062   8.714  1.6635 -1.8671 -0.0197
 4391SOL     OW24808   1.882   1.858   4.025  0.4677 -0.4114  0.0448
 4391SOL    HW124809   1.952   1.899   3.974  1.2212  2.1483  3.1261
 4391SOL    HW224810   1.904   1.766   4.043  1.2740 -0.2086  0.1063
 4392SOL     OW24811   1.301   2.464   0.641 -0.4674  0.5650 -0.4700
 4392SOL    HW124812   1.333   2.421   0.720 -2.1656  0.5483  0.1989
 4392SOL    HW224813   1.213   2.426   0.634  0.3299 -1.3910  0.0813
 4393SOL     OW24814   0.554   2.970  15.699 -0.5391 -0.3734  0.2538
 4393SOL    HW124815   0.480   2.991  15.642 -0.0711 -0.9571 -0.5781
 4393SOL    HW224816   0.606   3.051  15.695  0.5487 -0.9630  2.6682
 4394SOL     OW24817   2.855   3.640  10.408  0.0682  0.1826  0.0944
 4394SOL    HW124818   2.885   3.556  10.442 -2.4256 -1.3025 -1.3777
 4394SOL    HW224819   2.912   3.645  10.331  1.4005  0.1578  1.0679
 4395SOL     OW24820   4.713   2.065  12.052 -0.1369  0.1742 -0.3159
 4395SOL    HW124821   4.636   2.013  12.074 -0.3937  0.3682 -0.7563
 4395SOL    HW224822   0.044   2.034  12.114 -1.4504 -2.0275 -0.0244
 4396SOL     OW24823   1.317   2.672   6.723 -0.2874  0.4368 -0.2704
 4396SOL    HW124824   1.328   2.608   6.794  2.0853  1.5854  0.3583
 4396SOL    HW224825   1.328   2.748   6.779 -0.3928 -0.4146  0.9066
 4397SOL     OW24826   4.218   1.918   4.554  0.3036 -0.0600 -0.4164
 4397SOL    HW124827   4.219   1.851   4.623  0.0521  1.3062  0.8968
 4397SOL    HW224828   4.303   1.918   4.510  0.3942  2.2720 -0.2258
 4398SOL     OW24829   3.762   0.988   5.678  0.1187  0.4232 -0.4684
 4398SOL    HW124830   3.776   1.023   5.766  0.6862 -1.2079  0.1016
 4398SOL    HW224831   3.836   0.929   5.666 -0.2235  0.1879 -1.3616
 4399SOL     OW24832   4.121   1.589   2.513 -0.2098  0.3023  0.0441
 4399SOL    HW124833   4.120   1.643   2.434  0.2847  2.7462  1.7278
 4399SOL    HW224834   4.133   1.657   2.579  1.0223 -2.5902  2.8057
 4400SOL     OW24835   4.369   1.220   8.266 -0.3413 -0.0117  0.2220
 4400SOL    HW124836   4.326   1.229   8.181 -3.5602  1.3898  2.0009
 4400SOL    HW224837   4.418   1.302   8.260  1.1119 -0.7157  2.4357
 4401SOL     OW24838   2.506   1.962   1.837  0.2351 -0.1467 -0.2447
 4401SOL    HW124839   2.577   2.019   1.807  0.4900 -0.8034 -0.9014
 4401SOL    HW224840   2.469   1.924   1.758 -1.1972 -0.8381  0.7540
 4402SOL     OW24841   2.812   1.397   6.392  0.2178 -0.6352 -0.0971
 4402SOL    HW124842   2.785   1.397   6.300 -0.7314 -1.7163  0.1720
 4402SOL    HW224843   2.810   1.303   6.409 -0.5291 -0.9154 -1.7397
 4403SOL     OW24844   4.674   1.413  15.302  0.2986 -0.1422 -0.1430
 4403SOL    HW124845   4.715   1.495  15.329  1.6148 -0.8899  0.1447
 4403SOL    HW224846   4.580   1.429  15.313 -0.2071 -1.7114 -2.0156
 4404SOL     OW24847   2.918   3.169  16.765 -0.0391 -0.6832 -0.5995
 4404SOL    HW124848   3.001   3.137  16.800  0.4787  0.8578 -0.4010
 4404SOL    HW224849   2.882   3.097  16.713 -0.5955 -1.3658  0.7073
 4405SOL     OW24850   2.399   4.012   9.015 -0.0324 -0.2897 -0.0454
 4405SOL    HW124851   2.341   4.026   9.089  1.9657 -0.7040  1.6000
 4405SOL    HW224852   2.356   4.068   8.950  0.5122 -1.0695 -1.0878
 4406SOL     OW24853   3.365   4.278   1.514 -0.2688  0.0687 -0.3599
 4406SOL    HW124854   3.345   4.204   1.457  0.4661 -1.0478  0.7925
 4406SOL    HW224855   3.425   4.239   1.579 -0.0153 -0.0305 -0.6519
 4407SOL     OW24856   0.734   0.234   5.386  0.0071  0.6166  0.2060
 4407SOL    HW124857   0.782   0.217   5.467 -0.8741 -0.8062  0.4207
 4407SOL    HW224858   0.791   0.189   5.323 -1.4519 -0.9355 -0.0061
 4408SOL     OW24859   1.823   0.299  17.066  0.2991 -0.6652  0.2101
 4408SOL    HW124860   1.819   0.394  17.077  1.1182 -0.4675 -1.2369
 4408SOL    HW224861   1.909   0.280  17.102  0.0946 -0.4464  0.8290
 4409SOL     OW24862   2.362   2.656  13.853  1.0713 -0.2644 -0.6776
 4409SOL    HW124863   2.400   2.720  13.793 -2.2640  0.8132 -1.6312
 4409SOL    HW224864   2.440   2.616  13.891  0.7544 -0.2634 -0.0056
 4410SOL     OW24865   2.618   3.587   1.516 -0.1848 -0.3107  0.0250
 4410SOL    HW124866   2.710   3.602   1.539  0.1558 -2.3205  0.0086
 4410SOL    HW224867   2.584   3.562   1.602 -1.3282 -1.5009 -0.7641
 4411SOL     OW24868   0.254   1.280   7.418 -0.4018 -0.5342 -0.3080
 4411SOL    HW124869   0.159   1.283   7.421 -0.4246 -0.5731 -1.1107
 4411SOL    HW224870   0.275   1.371   7.397 -1.1825 -0.6442 -1.5351
 4412SOL     OW24871   2.840   4.190   3.524  0.4707 -0.1378 -0.3196
 4412SOL    HW124872   2.769   4.126   3.519 -1.4333  2.1030 -1.5884
 4412SOL    HW224873   2.883   4.178   3.439  0.5063 -1.0332 -0.1778
 4413SOL     OW24874   1.563   3.291   4.649 -0.3960  0.4207 -0.0722
 4413SOL    HW124875   1.605   3.367   4.609 -1.3865  0.2253 -1.5286
 4413SOL    HW224876   1.546   3.228   4.579 -0.9508  0.8276 -0.3058
 4414SOL     OW24877   3.637   2.571  14.422  0.3935 -0.0076 -0.0669
 4414SOL    HW124878   3.682   2.507  14.477  1.1018  1.6130  1.2525
 4414SOL    HW224879   3.654   2.544  14.332  0.9086  1.4446 -0.4034
 4415SOL     OW24880   0.325   1.337   8.119  0.2323  0.3664 -0.4337
 4415SOL    HW124881   0.332   1.336   8.214 -0.5343  0.4823 -0.3810
 4415SOL    HW224882   0.400   1.280   8.103 -0.6651 -1.3619  1.5327
 4416SOL     OW24883   2.640   1.050  12.855 -1.1121 -0.3086 -0.5607
 4416SOL    HW124884   2.592   1.014  12.930  1.2384 -1.3502  0.4460
 4416SOL    HW224885   2.731   1.033  12.878 -1.3140 -0.9159 -0.2012
 4417SOL     OW24886   3.301   2.920   5.466  0.6162  0.3431  0.4145
 4417SOL    HW124887   3.366   2.925   5.396 -0.0725  0.5277 -0.2077
 4417SOL    HW224888   3.321   2.833   5.500 -0.9660  0.4198  1.5211
 4418SOL     OW24889   3.722   0.007   1.809  0.0092  0.3109  0.1389
 4418SOL    HW124890   3.702   4.714   1.898  1.7176 -0.7184  0.1793
 4418SOL    HW224891   3.795   4.687   1.783  0.6930  1.2247  0.1235
 4419SOL     OW24892   2.406   1.522   8.316 -0.0831 -0.8198  0.0647
 4419SOL    HW124893   2.480   1.583   8.313  0.9901 -2.0242  1.8781
 4419SOL    HW224894   2.452   1.450   8.359  1.1794 -0.0805 -0.0585
 4420SOL     OW24895   4.068   0.198   8.910  0.0465  0.1126 -0.3538
 4420SOL    HW124896   4.121   0.210   8.989 -0.2946  1.0764 -0.2775
 4420SOL    HW224897   3.982   0.207   8.952 -1.4643 -0.6457 -3.2805
 4421SOL     OW24898   1.298   0.646   4.331 -0.0700 -0.5502  0.0072
 4421SOL    HW124899   1.318   0.578   4.266 -0.0361  2.1674 -2.8276
 4421SOL    HW224900   1.324   0.719   4.275 -0.1157  0.1375  0.8858
 4422SOL     OW24901   0.680   1.716  10.635 -0.1155 -0.6362  0.1070
 4422SOL    HW124902   0.741   1.790  10.637 -0.8583 -0.0488  1.0671
 4422SOL    HW224903   0.630   1.739  10.714  0.6869 -0.7217  0.6429
 4423SOL     OW24904   1.320   0.892   9.896  0.1509  0.5488 -0.1760
 4423SOL    HW124905   1.298   0.879   9.803 -0.4044  0.5107 -0.0420
 4423SOL    HW224906   1.415   0.900   9.891 -0.0994  0.1789 -5.5730
 4424SOL     OW24907   3.615   2.958   2.562 -0.0648  0.6011 -0.2930
 4424SOL    HW124908   3.599   3.024   2.494  2.6238 -0.7294 -2.2057
 4424SOL    HW224909   3.703   2.982   2.592 -0.5737  1.6340  0.3533
 4425SOL     OW24910   2.734   4.098   6.089  0.5468  0.2660  0.0331
 4425SOL    HW124911   2.686   4.174   6.123 -1.2594 -0.0835 -1.7354
 4425SOL    HW224912   2.653   4.050   6.071  2.5974 -3.1675  0.0638
 4426SOL     OW24913   2.320   4.055   2.685  0.4122 -0.2744  0.8862
 4426SOL    HW124914   2.408   4.018   2.687 -0.8174 -3.3158 -0.7764
 4426SOL    HW224915   2.266   3.976   2.686  0.8982 -0.6144 -0.1240
 4427SOL     OW24916   0.293   2.409   6.890  0.2940 -0.0900  0.1301
 4427SOL    HW124917   0.362   2.348   6.867  0.0580 -0.5830  0.7209
 4427SOL    HW224918   0.257   2.362   6.966  0.5616 -0.6194 -0.0720
 4428SOL     OW24919   1.508   0.904   6.553 -0.1220  0.7490 -0.0963
 4428SOL    HW124920   1.484   0.929   6.642 -0.5616  2.7223 -0.7741
 4428SOL    HW224921   1.598   0.874   6.568  0.2240  0.2617 -3.1600
 4429SOL     OW24922   3.116   0.507   2.110 -0.1491  0.1053  0.3724
 4429SOL    HW124923   3.115   0.414   2.134 -0.3152  0.3504  1.3284
 4429SOL    HW224924   3.106   0.544   2.198 -2.1962  2.8451 -1.0289
 4430SOL     OW24925   1.204   0.432   6.941 -0.4761  0.3862 -0.5427
 4430SOL    HW124926   1.173   0.509   6.894  1.9489 -0.2998 -3.2255
 4430SOL    HW224927   1.262   0.396   6.874  0.5910  1.4547 -0.1766
 4431SOL     OW24928   4.494   1.865  10.481  0.3862  0.7282  0.4452
 4431SOL    HW124929   4.507   1.786  10.533  0.3429  1.0013  0.8751
 4431SOL    HW224930   4.409   1.898  10.512  0.1457 -0.6817  1.2785
 4432SOL     OW24931   4.188   2.691   2.651  0.0355  0.4710  0.0150
 4432SOL    HW124932   4.096   2.683   2.673  0.0282 -0.2860 -0.2977
 4432SOL    HW224933   4.195   2.675   2.557  1.6151 -0.5536  0.3060
 4433SOL     OW24934   2.625   3.120   5.630 -0.0824 -0.3336 -0.3671
 4433SOL    HW124935   2.619   3.085   5.720 -0.2203  0.5872 -0.0192
 4433SOL    HW224936   2.705   3.172   5.640  0.6226 -1.4694  0.0125
 4434SOL     OW24937   2.837   1.690   8.006  0.2254 -0.0414 -0.3538
 4434SOL    HW124938   2.792   1.630   7.948  0.0264  0.2147 -0.4605
 4434SOL    HW224939   2.823   1.642   8.088  2.6248  0.1155  0.1474
 4435SOL     OW24940   0.640   3.798   2.476  0.2860 -0.1995  0.1233
 4435SOL    HW124941   0.575   3.846   2.527  0.4485  0.1922 -0.0290
 4435SOL    HW224942   0.676   3.744   2.546  1.9213 -0.1893 -0.7145
 4436SOL     OW24943   1.123   3.999   3.075  0.3693 -0.0045 -0.7711
 4436SOL    HW124944   1.104   3.905   3.080  0.1071 -0.0113 -1.8152
 4436SOL    HW224945   1.146   4.009   2.982  1.2209 -0.9822 -0.6591
 4437SOL     OW24946   3.881   1.647   1.808 -0.2470 -0.0701  0.4880
 4437SOL    HW124947   3.788   1.623   1.812 -0.2001 -0.1196  1.4149
 4437SOL    HW224948   3.923   1.562   1.821  0.3602  0.3992  1.6038
 4438SOL     OW24949   1.749   1.851   6.509 -0.4436  0.0039 -0.1662
 4438SOL    HW124950   1.795   1.826   6.589 -0.8773 -0.1655  0.0309
 4438SOL    HW224951   1.658   1.877   6.528 -0.6935 -1.0508  0.0761
 4439SOL     OW24952   2.013   3.245   8.669  0.5620 -0.0686  0.4223
 4439SOL    HW124953   2.004   3.181   8.740  0.1364  0.1844  0.5943
 4439SOL    HW224954   2.007   3.327   8.718 -2.9334 -0.1186  0.0810
 4440SOL     OW24955   3.383   0.020   7.552 -0.0899 -0.1617 -0.0554
 4440SOL    HW124956   3.341   0.049   7.471 -2.3411 -2.4679  0.2847
 4440SOL    HW224957   3.473   0.030   7.520 -0.2012  1.3101  0.1031
 4441SOL     OW24958   2.104   3.082   0.264 -0.0232  0.0645  0.6453
 4441SOL    HW124959   2.081   2.990   0.251 -0.4692  0.1871  0.5554
 4441SOL    HW224960   2.197   3.066   0.277  0.1097 -0.2930 -0.8629
 4442SOL     OW24961   3.321   0.200   5.364 -0.6570 -0.1300 -0.2925
 4442SOL    HW124962   3.396   0.154   5.326  0.5833  0.9186  0.8752
 4442SOL    HW224963   3.354   0.191   5.454 -3.9228  0.0125  0.8956
 4443SOL     OW24964   0.564   0.656   5.130 -0.3891  0.2482 -0.1205
 4443SOL    HW124965   0.553   0.576   5.183  0.5153  1.0572  1.2872
 4443SOL    HW224966   0.481   0.699   5.152 -1.4943 -2.4235  1.0400
 4444SOL     OW24967   0.217   3.878   9.303  0.3644  0.4019  0.2209
 4444SOL    HW124968   0.164   3.805   9.334  0.6677  0.7257  1.4986
 4444SOL    HW224969   0.192   3.959   9.348  0.5130 -0.1597  1.3235
 4445SOL     OW24970   3.715   0.523   1.686  0.1689  0.0653  0.0615
 4445SOL    HW124971   3.627   0.513   1.650 -0.4334 -1.1582  1.9128
 4445SOL    HW224972   3.703   0.512   1.780 -0.1542 -1.0618 -0.1163
 4446SOL     OW24973   1.594   0.300   5.870 -0.5574  0.2587 -0.3462
 4446SOL    HW124974   1.529   0.366   5.895 -2.5021 -1.2624 -1.4016
 4446SOL    HW224975   1.594   0.321   5.777 -0.6848 -0.2560 -0.4628
 4447SOL     OW24976   0.525   3.293   3.749  0.1714  0.2291 -0.2491
 4447SOL    HW124977   0.454   3.295   3.814  0.4793 -2.3830  0.1862
 4447SOL    HW224978   0.477   3.316   3.669 -0.8471 -2.1460 -0.3213
 4448SOL     OW24979   0.825   2.249   4.914  0.5586 -0.2428 -1.0835
 4448SOL    HW124980   0.748   2.221   4.963 -0.2440 -0.4330 -2.4795
 4448SOL    HW224981   0.879   2.170   4.922 -0.7913 -1.1947 -1.3338
 4449SOL     OW24982   0.199   4.674   1.986 -0.3030 -0.0843 -0.1923
 4449SOL    HW124983   0.184   4.624   1.906  0.0162  1.3253 -1.1221
 4449SOL    HW224984   0.115   4.648   2.024  0.0345  0.5609  0.9841
 4450SOL     OW24985   3.601   2.132  13.449 -0.2110 -0.4373  0.2893
 4450SOL    HW124986   3.628   2.213  13.405 -3.0099  0.6939  0.6344
 4450SOL    HW224987   3.507   2.143  13.430 -0.6530 -0.9123  2.1850
 4451SOL     OW24988   1.960   3.463   8.843 -0.0104 -0.2519  0.3396
 4451SOL    HW124989   1.954   3.460   8.939  1.4265 -1.5272  0.3840
 4451SOL    HW224990   1.960   3.557   8.827 -1.9878 -0.1396  0.9241
 4452SOL     OW24991   1.269   2.673   8.845 -0.4512 -0.0329 -0.3325
 4452SOL    HW124992   1.344   2.730   8.832 -1.3808  1.3803  0.5097
 4452SOL    HW224993   1.300   2.623   8.920  1.4658  1.8880  0.1494
 4453SOL     OW24994   4.034   1.852   3.239 -0.3089  0.3302 -0.1063
 4453SOL    HW124995   4.119   1.886   3.211 -1.4822  3.8609  0.5757
 4453SOL    HW224996   3.982   1.932   3.253  2.0697  2.0401 -1.0094
 4454SOL     OW24997   4.043   3.648   4.875  0.0491  0.2005  0.0583
 4454SOL    HW124998   4.086   3.567   4.900  2.3544  0.5068 -2.9928
 4454SOL    HW224999   4.014   3.623   4.787  3.0324 -0.0639 -0.8337
 4455SOL     OW25000   3.540   0.746  15.988  0.0242 -0.0305  0.1152
 4455SOL    HW125001   3.535   0.746  15.893  1.0964  4.0830  0.0581
 4455SOL    HW225002   3.545   0.840  16.002  0.1982  0.2320 -1.7463
 4456SOL     OW25003   3.036   2.097   0.134  0.1555 -0.3258  0.1739
 4456SOL    HW125004   3.109   2.157   0.149 -0.8606  0.2022  3.0953
 4456SOL    HW225005   3.003   2.124   0.049  1.3790 -2.8464 -1.1151
 4457SOL     OW25006   4.092   3.829   3.889  0.9162  0.0016  0.1760
 4457SOL    HW125007   4.163   3.766   3.902  1.1635  0.3440  0.4931
 4457SOL    HW225008   4.035   3.766   3.845  1.9118  1.6538 -3.4392
 4458SOL     OW25009   3.413   1.403   5.308  0.0643  0.3010 -0.4156
 4458SOL    HW125010   3.447   1.314   5.316  1.7841  0.7702 -2.2941
 4458SOL    HW225011   3.356   1.376   5.236 -1.0279 -0.2882  0.6746
 4459SOL     OW25012   4.581   0.767   3.175  0.1727 -0.5984 -0.1568
 4459SOL    HW125013   4.540   0.733   3.255 -1.7222  0.5792 -0.6318
 4459SOL    HW225014   4.654   0.821   3.207  0.0290 -0.4169 -0.1314
 4460SOL     OW25015   2.941   4.571   1.746  0.3746  0.5063 -0.3049
 4460SOL    HW125016   3.017   4.523   1.714  1.6033  2.3458 -0.1233
 4460SOL    HW225017   2.904   4.620   1.672  2.0744  1.7789 -0.3043
 4461SOL     OW25018   2.015   3.930   2.824  0.6813 -0.3734 -0.4295
 4461SOL    HW125019   1.988   3.839   2.836 -0.9263  0.1191 -0.2822
 4461SOL    HW225020   2.095   3.906   2.779  0.7824 -0.0442 -0.4232
 4462SOL     OW25021   3.720   3.749  16.635  0.5920  0.5045  0.1607
 4462SOL    HW125022   3.661   3.674  16.636  1.3977 -0.1239  0.8407
 4462SOL    HW225023   3.660   3.814  16.598 -0.1275 -1.1351 -1.5403
 4463SOL     OW25024   3.128   0.266   6.960  0.3514 -0.1611  0.1378
 4463SOL    HW125025   3.074   0.187   6.953  0.4272 -0.2084  0.0735
 4463SOL    HW225026   3.184   0.248   6.884 -0.4508 -2.1001  0.0039
 4464SOL     OW25027   1.575   3.070   3.298  0.1766 -0.3533  0.1510
 4464SOL    HW125028   1.522   3.116   3.232 -0.0733 -1.8144 -0.6664
 4464SOL    HW225029   1.597   3.135   3.365 -0.3416  0.9521 -0.9439
 4465SOL     OW25030   2.617   3.437   6.487 -0.1663 -0.0174  0.0842
 4465SOL    HW125031   2.692   3.488   6.456 -0.1465 -0.1592 -0.0973
 4465SOL    HW225032   2.610   3.464   6.578  0.6547  1.8170 -0.3957
 4466SOL     OW25033   2.191   3.798  12.544 -0.3681 -0.2841 -0.5914
 4466SOL    HW125034   2.127   3.740  12.504  0.5699 -2.0990  0.5449
 4466SOL    HW225035   2.146   3.882  12.535 -3.6741 -1.9496  0.3907
 4467SOL     OW25036   3.503   2.695  14.127 -0.2574  0.3773  0.1451
 4467SOL    HW125037   3.557   2.714  14.051 -1.3775  2.7417 -0.0624
 4467SOL    HW225038   3.552   2.618  14.155  0.3477  0.0750 -1.8141
 4468SOL     OW25039   2.323   4.288   6.762 -0.2746  0.3777  0.1422
 4468SOL    HW125040   2.277   4.343   6.699 -1.0635  0.4098  0.7414
 4468SOL    HW225041   2.244   4.243   6.793 -0.4432 -0.4658 -1.5444
 4469SOL     OW25042   3.061   2.549   1.146  0.2917 -0.0843 -1.0726
 4469SOL    HW125043   3.072   2.455   1.161  1.2423  0.1878 -0.0664
 4469SOL    HW225044   2.967   2.555   1.166  0.7119  0.5124  0.7055
 4470SOL     OW25045   4.603   0.899   1.837 -0.5747  0.5182 -0.0532
 4470SOL    HW125046   4.507   0.899   1.844 -0.7243 -0.9079 -2.2007
 4470SOL    HW225047   4.613   0.986   1.798  1.1878 -0.1256 -1.0261
 4471SOL     OW25048   0.470   4.291   5.283  0.6596  0.8075 -0.0439
 4471SOL    HW125049   0.446   4.203   5.255  2.7830 -0.0512  0.8342
 4471SOL    HW225050   0.446   4.282   5.375  0.0054 -1.2933 -0.4220
 4472SOL     OW25051   0.488   2.194  11.496  0.5228  0.8392 -0.4079
 4472SOL    HW125052   0.435   2.130  11.542  0.5154  1.4169  0.3819
 4472SOL    HW225053   0.526   2.250  11.565  0.3872  1.4252 -0.8052
 4473SOL     OW25054   4.312   4.068   7.368 -0.0802 -0.0101 -0.0759
 4473SOL    HW125055   4.288   4.102   7.282  2.0531  4.3858  1.1164
 4473SOL    HW225056   4.231   4.067   7.419 -0.4020 -2.0133 -0.6169
 4474SOL     OW25057   0.427   2.507   4.256  0.1623  0.7479 -0.6880
 4474SOL    HW125058   0.502   2.566   4.260  0.7246  0.1481 -2.2994
 4474SOL    HW225059   0.377   2.534   4.179  1.1108 -1.4559 -2.0911
 4475SOL     OW25060   3.725   1.994   4.121  0.3659 -0.1681 -0.4680
 4475SOL    HW125061   3.630   1.984   4.124  0.4062 -0.9984 -2.3154
 4475SOL    HW225062   3.751   2.031   4.206  1.4726  0.1204 -0.9386
 4476SOL     OW25063   1.063   2.107  11.488  0.6395 -0.1215 -0.0073
 4476SOL    HW125064   0.992   2.148  11.538  1.1277 -1.7909  2.0444
 4476SOL    HW225065   1.022   2.113  11.401  0.0693  0.1815  0.2810
 4477SOL     OW25066   1.414   4.345  16.129 -0.1589 -0.2401  0.6242
 4477SOL    HW125067   1.324   4.311  16.126 -0.2076 -0.0299 -0.2626
 4477SOL    HW225068   1.389   4.424  16.176  0.7018  1.2054 -1.3786
 4478SOL     OW25069   3.001   0.371   9.541  0.4526  0.0061 -0.0141
 4478SOL    HW125070   2.981   0.293   9.489  0.4049 -0.9833  1.4925
 4478SOL    HW225071   2.927   0.364   9.602  0.3391 -0.1501 -0.1689
 4479SOL     OW25072   0.305   3.992   8.660  0.4781 -0.2863 -0.1698
 4479SOL    HW125073   0.364   4.036   8.721 -0.4794  1.4633 -0.5168
 4479SOL    HW225074   0.226   4.004   8.712  0.9073 -1.4057  0.7617
 4480SOL     OW25075   0.821   0.346   7.119  0.0776  0.0725 -0.5911
 4480SOL    HW125076   0.775   0.403   7.181  1.1139 -1.0169  1.1986
 4480SOL    HW225077   0.763   0.357   7.044  0.7688 -0.6619 -1.2431
 4481SOL     OW25078   3.579   0.606   1.099  0.6460 -0.0095  0.1267
 4481SOL    HW125079   3.518   0.602   1.026  0.2893  2.1433  0.2964
 4481SOL    HW225080   3.531   0.654   1.167  0.3855 -2.3416  1.5943
 4482SOL     OW25081   3.535   1.944   5.037 -0.1142  0.1535 -0.4615
 4482SOL    HW125082   3.541   2.029   4.993  0.0536 -0.5530 -1.8340
 4482SOL    HW225083   3.583   1.953   5.119  0.9693  0.2705 -1.1147
 4483SOL     OW25084   2.587   3.760  15.878 -0.1908 -0.4437  0.0365
 4483SOL    HW125085   2.502   3.803  15.883  0.2091  0.2685  0.8789
 4483SOL    HW225086   2.646   3.834  15.895  1.6538 -1.8694 -0.1368
 4484SOL     OW25087   0.199   4.492   6.821  0.0815 -0.2009 -0.2915
 4484SOL    HW125088   0.157   4.443   6.750 -0.1666 -3.5564  2.1616
 4484SOL    HW225089   0.125   4.545   6.852  1.5736  0.3684  2.3423
 4485SOL     OW25090   2.594   4.036  17.647  0.3716  0.6196  0.6891
 4485SOL    HW125091   2.642   3.962  17.609 -2.7805 -0.5414 -1.0711
 4485SOL    HW225092   2.665   4.100  17.652  0.4244  0.5186  1.1607
 4486SOL     OW25093   2.416   3.601   3.444 -0.2470  0.2517 -0.3938
 4486SOL    HW125094   2.486   3.660   3.414  0.1612 -1.2326 -2.3739
 4486SOL    HW225095   2.440   3.521   3.397  0.7163  1.7656 -2.5277
 4487SOL     OW25096   0.812   3.508   4.244  0.5710 -0.5327 -0.4780
 4487SOL    HW125097   0.846   3.554   4.167 -0.2269  1.2881  0.2619
 4487SOL    HW225098   0.728   3.544   4.271 -0.0408 -2.0369 -0.4020
 4488SOL     OW25099   2.268   4.238   3.849 -0.4644  0.2930 -0.2433
 4488SOL    HW125100   2.248   4.289   3.928  1.1190  1.6112 -0.7023
 4488SOL    HW225101   2.342   4.183   3.875  0.2174  0.8204 -1.0901
 4489SOL     OW25102   2.648   0.111  11.600  0.1653 -0.2307 -0.0255
 4489SOL    HW125103   2.567   0.088  11.646  1.2065 -2.1732  0.8609
 4489SOL    HW225104   2.643   0.062  11.518 -0.5697 -1.2547  0.6245
 4490SOL     OW25105   4.574   3.340  17.257  0.1267  0.1090 -1.1463
 4490SOL    HW125106   4.551   3.431  17.236 -1.2375 -0.1196 -0.6112
 4490SOL    HW225107   4.485   3.308  17.247 -0.6432  1.3364  1.7006
 4491SOL     OW25108   1.975   3.810   3.557  0.0874  0.2403  0.6292
 4491SOL    HW125109   2.055   3.830   3.605  0.4115  0.9052 -0.1893
 4491SOL    HW225110   2.010   3.789   3.470  0.3212 -0.0367  0.7878
 4492SOL     OW25111   4.129   4.056   3.751 -0.1549  0.3342 -0.0768
 4492SOL    HW125112   4.212   4.041   3.707  0.0689 -0.3794  0.5928
 4492SOL    HW225113   4.128   3.981   3.810 -0.0462 -0.6235 -1.3037
 4493SOL     OW25114   2.313   1.165   9.235  0.1436 -0.1303 -1.0003
 4493SOL    HW125115   2.357   1.080   9.232  0.0084 -0.2114 -0.6802
 4493SOL    HW225116   2.299   1.180   9.328  0.6881 -1.3642 -0.7263
 4494SOL     OW25117   1.811   4.294  10.549 -0.7447 -0.0464 -0.2650
 4494SOL    HW125118   1.860   4.343  10.483 -0.7840 -1.0447 -1.0330
 4494SOL    HW225119   1.744   4.254  10.495  1.2492 -1.0008 -2.0288
 4495SOL     OW25120   3.557   2.012   4.441  0.1971 -0.3110 -0.1322
 4495SOL    HW125121   3.552   2.020   4.537  2.1755 -1.6721  0.0929
 4495SOL    HW225122   3.535   1.919   4.435 -0.3017 -0.1937 -0.0607
 4496SOL     OW25123   2.917   2.547   4.840 -0.2426 -0.6500  0.2301
 4496SOL    HW125124   2.989   2.604   4.816  0.0218 -0.5412  1.2941
 4496SOL    HW225125   2.888   2.597   4.916 -1.0913 -0.2358 -0.3575
 4497SOL     OW25126   3.031   4.435  10.037 -0.5162  0.3596  0.2299
 4497SOL    HW125127   3.054   4.483   9.958 -3.1458  0.8939 -0.2190
 4497SOL    HW225128   3.090   4.476  10.101 -0.7974  0.1726  0.6151
 4498SOL     OW25129   1.284   3.658   4.330 -0.1093 -0.3222 -0.6182
 4498SOL    HW125130   1.193   3.681   4.348 -0.0223 -0.0034 -0.6020
 4498SOL    HW225131   1.298   3.700   4.245 -0.0487  0.2176 -0.3411
 4499SOL     OW25132   4.150   3.509  11.487 -0.2662  0.0774 -0.3790
 4499SOL    HW125133   4.209   3.434  11.492 -2.1933 -1.4641 -1.1667
 4499SOL    HW225134   4.198   3.572  11.541  0.5005 -0.0181 -0.9445
 4500SOL     OW25135   3.935   3.427   5.741 -0.5519  0.4594 -0.3701
 4500SOL    HW125136   3.945   3.508   5.691 -0.1200  0.9764  0.5389
 4500SOL    HW225137   3.971   3.353   5.691 -2.0039 -1.3676  1.2728
 4501SOL     OW25138   3.505   4.016  16.035  0.3710  1.2948 -0.1638
 4501SOL    HW125139   3.410   4.013  16.031  0.4864 -1.2606 -1.3679
 4501SOL    HW225140   3.522   4.036  16.127  0.5789 -1.5723  0.4277
 4502SOL     OW25141   0.094   2.417   7.783 -0.2629  0.0397  0.6352
 4502SOL    HW125142   0.044   2.353   7.731 -0.5314  1.0902 -0.3881
 4502SOL    HW225143   0.112   2.479   7.712 -2.5772 -3.1492 -2.7768
 4503SOL     OW25144   4.505   0.175   6.171  0.0234 -0.1029  0.0185
 4503SOL    HW125145   4.529   0.249   6.226 -2.3157  0.4557  0.2893
 4503SOL    HW225146   4.430   0.141   6.220  0.0416 -1.1034 -0.6441
 4504SOL     OW25147   2.080   1.272   6.093  0.1455 -0.2338 -0.1195
 4504SOL    HW125148   2.036   1.207   6.148  0.5601 -0.3336  0.0935
 4504SOL    HW225149   2.099   1.232   6.008  1.9515  0.4498 -0.0411
 4505SOL     OW25150   4.192   4.171   1.323 -0.0666 -0.2651  0.2975
 4505SOL    HW125151   4.142   4.209   1.250 -1.5116 -1.1562  0.8144
 4505SOL    HW225152   4.150   4.085   1.321 -0.9051  0.1877 -2.0773
 4506SOL     OW25153   4.451   4.439   4.564  0.5852 -0.1194 -0.1511
 4506SOL    HW125154   4.529   4.492   4.552  0.6333 -0.3961 -1.0464
 4506SOL    HW225155   4.478   4.391   4.642 -1.4119  0.8685  1.1722
 4507SOL     OW25156   3.812   0.496   0.959 -0.4049 -0.5040 -1.2073
 4507SOL    HW125157   3.726   0.509   0.999  0.8592 -0.9724  1.6334
 4507SOL    HW225158   3.851   0.580   0.985  0.0078 -0.8558 -0.6920
 4508SOL     OW25159   3.986   2.722   5.860 -0.1106 -0.0098  0.3540
 4508SOL    HW125160   3.905   2.731   5.810  0.4691 -1.5305 -0.8677
 4508SOL    HW225161   3.951   2.685   5.942  2.8364 -2.1985  0.6028
 4509SOL     OW25162   3.402   2.681   5.563  0.1045 -0.5428  0.2567
 4509SOL    HW125163   3.487   2.718   5.541 -1.2341  2.5311  0.1586
 4509SOL    HW225164   3.398   2.613   5.497  1.2134 -2.1879  1.8903
 4510SOL     OW25165   4.733   1.728   8.907  0.3947 -0.1939  0.3834
 4510SOL    HW125166   0.068   1.764   8.853 -1.0468  1.0048 -0.6716
 4510SOL    HW225167   4.692   1.659   8.856 -2.2255  3.2142 -2.0929
 4511SOL     OW25168   0.145   1.573  15.570  0.1282 -0.1576  1.0196
 4511SOL    HW125169   0.073   1.510  15.564 -1.8979  2.3354 -1.5694
 4511SOL    HW225170   0.210   1.514  15.606  0.2884  0.1609  1.2446
 4512SOL     OW25171   2.562   3.268   8.510  0.5699 -0.5740 -0.0530
 4512SOL    HW125172   2.626   3.256   8.439 -1.1652  0.4780 -1.8113
 4512SOL    HW225173   2.605   3.322   8.576 -0.2356  0.2327 -0.1878
 4513SOL     OW25174   2.717   0.520   3.603 -0.5793 -0.5289 -0.0682
 4513SOL    HW125175   2.784   0.588   3.599  0.9575 -1.9611  1.1073
 4513SOL    HW225176   2.664   0.555   3.674  0.1510 -2.5999  1.4931
 4514SOL     OW25177   1.073   4.395   6.759  0.5119  0.5698 -0.4496
 4514SOL    HW125178   1.137   4.439   6.816  1.4764  0.7006 -1.6496
 4514SOL    HW225179   1.013   4.351   6.819  3.0038 -0.9158  0.9469
 4515SOL     OW25180   3.786   0.017   7.124  0.1718 -0.3818 -0.3459
 4515SOL    HW125181   3.705   0.037   7.169  1.1244  1.6245  0.4979
 4515SOL    HW225182   3.777   0.077   7.049 -2.8363 -1.5865 -0.9205
 4516SOL     OW25183   0.799   2.792   6.126  0.1770 -0.2714 -0.3964
 4516SOL    HW125184   0.893   2.808   6.128  0.1315  0.1845 -2.0310
 4516SOL    HW225185   0.762   2.842   6.053 -0.7907  1.3011  1.2027
 4517SOL     OW25186   3.224   3.946   1.072  0.0344 -0.0706  0.1246
 4517SOL    HW125187   3.206   3.963   0.980 -1.8920 -1.3179  0.2746
 4517SOL    HW225188   3.256   3.856   1.075  0.6157  0.0719 -1.6328
 4518SOL     OW25189   0.427   0.230   1.437  0.2350  0.2213  0.4984
 4518SOL    HW125190   0.443   0.259   1.527  2.3980  2.6874 -0.6881
 4518SOL    HW225191   0.356   0.168   1.451  1.7060 -1.5839 -0.0780
 4519SOL     OW25192   2.028   3.138   5.833  0.2576 -0.4093 -0.5185
 4519SOL    HW125193   2.116   3.136   5.869 -0.1534 -0.5594  0.4844
 4519SOL    HW225194   2.042   3.193   5.756 -1.9765 -0.0992 -0.7058
 4520SOL     OW25195   0.435   2.390   7.273 -0.1241 -0.0079 -0.1583
 4520SOL    HW125196   0.504   2.356   7.215  1.1884  0.3272  1.2224
 4520SOL    HW225197   0.471   2.359   7.355 -1.1680 -1.2585 -0.1571
 4521SOL     OW25198   1.117   2.374   7.799 -0.3049  0.2843  0.1601
 4521SOL    HW125199   1.115   2.280   7.820 -0.3348  0.1191 -0.5722
 4521SOL    HW225200   1.208   2.392   7.823  0.2842  1.4157 -2.8702
 4522SOL     OW25201   2.814   1.432   3.711  0.0942  0.2135  0.0059
 4522SOL    HW125202   2.878   1.424   3.781  1.0400  0.0067 -0.8868
 4522SOL    HW225203   2.734   1.472   3.746  1.9904  1.9182  2.3736
 4523SOL     OW25204   1.476   0.880   8.822 -0.4442  0.0075 -0.0610
 4523SOL    HW125205   1.564   0.870   8.858 -0.5639  1.7072  0.6730
 4523SOL    HW225206   1.494   0.844   8.735 -1.2075  0.6018 -0.4636
 4524SOL     OW25207   0.332   0.727   3.585 -0.5426 -0.1647  0.6794
 4524SOL    HW125208   0.248   0.712   3.542 -0.2899 -1.2306  0.5419
 4524SOL    HW225209   0.313   0.676   3.664 -1.4698  1.8260  1.7201
 4525SOL     OW25210   0.275   2.178   4.708 -0.0145 -0.4382  0.2001
 4525SOL    HW125211   0.340   2.236   4.671  0.0749 -1.4170 -1.1819
 4525SOL    HW225212   0.256   2.124   4.631  2.9204  1.5654 -1.9035
 4526SOL     OW25213   1.045   2.019  15.217 -0.1351 -0.1200 -0.4163
 4526SOL    HW125214   1.033   2.047  15.126  0.5980  1.0280 -0.1674
 4526SOL    HW225215   1.137   2.041  15.233  0.4687 -2.5077 -0.6928
 4527SOL     OW25216   1.313   1.157   6.684  0.0494  0.2404  0.8460
 4527SOL    HW125217   1.266   1.082   6.649 -0.6436  0.8906  0.3859
 4527SOL    HW225218   1.240   1.197   6.732  1.9042  2.4641  1.8094
 4528SOL     OW25219   2.479   4.517   3.245 -0.1669  0.2097 -0.1988
 4528SOL    HW125220   2.497   4.587   3.308 -0.8437  0.8926 -0.7697
 4528SOL    HW225221   2.519   4.440   3.286 -0.5408  0.1991  0.1487
 4529SOL     OW25222   2.544   2.831   1.671  0.3450  0.0843  0.0803
 4529SOL    HW125223   2.524   2.886   1.595 -0.6165  0.8439  0.8680
 4529SOL    HW225224   2.582   2.883   1.743 -3.3987  2.0869  0.6430
 4530SOL     OW25225   1.236   2.303   8.356 -0.1099  0.6922 -0.4655
 4530SOL    HW125226   1.194   2.246   8.420 -0.5846  2.3884  0.7155
 4530SOL    HW225227   1.327   2.299   8.386  0.2274 -0.7854 -1.6743
 4531SOL     OW25228   4.156   1.321   3.384  0.3889  0.0679  0.3099
 4531SOL    HW125229   4.075   1.271   3.396  0.0879  0.1746 -1.1845
 4531SOL    HW225230   4.218   1.269   3.435  0.2260  1.0954  1.5474
 4532SOL     OW25231   1.663   3.817   6.200 -0.0487 -0.4638  0.3208
 4532SOL    HW125232   1.574   3.797   6.230 -0.3678  2.3104  1.2121
 4532SOL    HW225233   1.649   3.807   6.105  0.0594 -0.7167  0.3300
 4533SOL     OW25234   0.827   0.392   3.150 -0.2652  0.3460 -0.2012
 4533SOL    HW125235   0.801   0.396   3.242 -3.4464 -1.6472 -0.9792
 4533SOL    HW225236   0.870   0.307   3.139  0.1059  0.4129  0.8253
 4534SOL     OW25237   0.160   1.917   7.705  0.0624 -0.1448  0.0278
 4534SOL    HW125238   0.074   1.929   7.746  0.8099  0.8827  1.3028
 4534SOL    HW225239   0.204   1.989   7.749  1.1800 -1.1021  0.4775
 4535SOL     OW25240   2.577   0.887   4.647  0.6921 -0.1443 -0.0413
 4535SOL    HW125241   2.543   0.828   4.579 -0.6932  0.7518 -0.1306
 4535SOL    HW225242   2.663   0.847   4.658  0.5394 -0.3542  0.3852
 4536SOL     OW25243   0.793   2.313   4.654 -0.1623 -0.9212 -0.4163
 4536SOL    HW125244   0.863   2.378   4.642  1.2827 -2.7853 -2.0833
 4536SOL    HW225245   0.808   2.281   4.743 -0.4933 -1.4443 -0.5492
 4537SOL     OW25246   0.234   0.931   7.044  0.2531 -0.6259  0.8087
 4537SOL    HW125247   0.220   1.011   6.994  2.9301 -0.8132 -0.2876
 4537SOL    HW225248   0.232   0.966   7.133 -1.7483 -0.0855  0.5346
 4538SOL     OW25249   2.934   1.303  15.523 -0.5050 -0.3910  0.4788
 4538SOL    HW125250   3.017   1.342  15.549 -1.4690  2.6625 -1.0714
 4538SOL    HW225251   2.915   1.323  15.432  0.8997  1.3300  0.5753
 4539SOL     OW25252   0.162   1.679   8.427  0.1527  0.7910 -0.0768
 4539SOL    HW125253   0.176   1.728   8.346 -0.0825 -3.1173 -2.4777
 4539SOL    HW225254   0.122   1.598   8.396  0.3433  0.6474  0.0538
 4540SOL     OW25255   4.618   3.392  10.770  0.3545  0.2225 -0.6504
 4540SOL    HW125256   4.642   3.422  10.858 -0.0674  0.3458 -0.5769
 4540SOL    HW225257   4.539   3.343  10.790  1.5857 -1.3463  0.3203
 4541SOL     OW25258   2.973   4.591   8.099 -0.5004 -0.4708  0.0018
 4541SOL    HW125259   3.010   4.555   8.018 -0.1687  1.9008 -0.8895
 4541SOL    HW225260   2.879   4.585   8.086 -0.1284 -3.4746 -1.4370
 4542SOL     OW25261   3.644   2.333   8.530 -0.3100 -0.4096 -0.0831
 4542SOL    HW125262   3.721   2.387   8.513 -0.3849 -0.0027  0.8365
 4542SOL    HW225263   3.668   2.242   8.513  2.2794  0.0026  1.4831
 4543SOL     OW25264   0.744   3.771   5.616 -0.7820  0.0390  0.1416
 4543SOL    HW125265   0.750   3.791   5.523 -0.7871  0.5605  0.2525
 4543SOL    HW225266   0.694   3.844   5.652  0.1472  0.3700  0.7806
 4544SOL     OW25267   1.703   1.167   5.660  0.3292 -0.1862 -0.0142
 4544SOL    HW125268   1.646   1.209   5.724 -0.7697 -0.9118 -0.5255
 4544SOL    HW225269   1.692   1.240   5.599 -2.6657 -0.8070 -0.2022
 4545SOL     OW25270   3.812   0.329   8.249 -0.7068  0.2230  0.2638
 4545SOL    HW125271   3.851   0.396   8.192  0.7371 -1.7089 -1.0148
 4545SOL    HW225272   3.797   0.365   8.337 -0.7206 -0.2334  0.4453
 4546SOL     OW25273   2.555   2.231   8.904  0.2213  0.1724  0.1352
 4546SOL    HW125274   2.530   2.143   8.874 -0.3349 -0.2132  1.7129
 4546SOL    HW225275   2.536   2.222   8.997 -2.2825 -2.5663 -0.6503
 4547SOL     OW25276   0.820   1.819   7.702 -0.4248  0.1697  0.0029
 4547SOL    HW125277   0.853   1.903   7.734 -2.3112  0.3101  1.5860
 4547SOL    HW225278   0.823   1.762   7.780 -0.2530 -1.0559 -0.8963
 4548SOL     OW25279   2.485   2.212  15.392 -0.6102  0.2669  0.1137
 4548SOL    HW125280   2.544   2.148  15.352 -0.7327 -1.4910  2.8043
 4548SOL    HW225281   2.403   2.186  15.348 -1.9203  2.5106  1.2529
 4549SOL     OW25282   2.220   3.803  11.350 -0.4154 -0.6323 -0.0821
 4549SOL    HW125283   2.258   3.754  11.423  1.1419  0.3080 -0.2679
 4549SOL    HW225284   2.282   3.763  11.290  1.1374 -0.7152  1.5641
 4550SOL     OW25285   2.852   2.116  10.189  0.0090  0.3709 -0.4558
 4550SOL    HW125286   2.868   2.188  10.250 -1.4404  0.7256 -0.4972
 4550SOL    HW225287   2.936   2.108  10.143 -0.1775 -0.0655 -0.7215
 4551SOL     OW25288   2.030   1.497   5.110 -0.0563  0.3802 -0.2346
 4551SOL    HW125289   2.099   1.529   5.169  1.3238 -1.5228 -0.8328
 4551SOL    HW225290   2.085   1.457   5.042 -0.8811 -0.5919 -0.3197
 4552SOL     OW25291   3.115   1.294   2.014 -0.0853  0.1277  0.2768
 4552SOL    HW125292   3.205   1.309   2.043  0.0719  1.7252 -1.0730
 4552SOL    HW225293   3.110   1.199   2.013 -0.6085  0.1696 -0.8686
 4553SOL     OW25294   1.720   0.215  13.488  0.2394 -0.0058 -0.8910
 4553SOL    HW125295   1.758   0.290  13.441  0.0269  0.7543  0.1642
 4553SOL    HW225296   1.641   0.201  13.436  1.1562 -0.3570 -2.2089
 4554SOL     OW25297   3.097   3.245  16.076 -0.1374  0.1243  0.5410
 4554SOL    HW125298   3.077   3.306  16.005  0.4333 -0.5536 -0.2019
 4554SOL    HW225299   3.146   3.302  16.136  0.6561  1.7093 -1.6094
 4555SOL     OW25300   2.231   4.633   9.421 -0.2159 -0.6790 -0.0708
 4555SOL    HW125301   2.266   4.660   9.505 -3.0387  0.4017  0.7572
 4555SOL    HW225302   2.162   4.698   9.409  0.2672 -0.3843 -1.2344
 4556SOL     OW25303   4.673   4.513  10.274 -0.7598  0.7488 -0.4658
 4556SOL    HW125304   4.676   4.460  10.195 -1.6642 -1.4230  0.9501
 4556SOL    HW225305   4.598   4.462  10.304  0.2812 -0.7849 -0.4869
 4557SOL     OW25306   1.083   0.816   2.960 -0.0272 -0.6441  0.3501
 4557SOL    HW125307   1.164   0.836   3.006  0.4819 -0.5417 -0.5870
 4557SOL    HW225308   1.042   0.757   3.023  1.8828 -1.1506  1.1224
 4558SOL     OW25309   2.158   4.527   1.625 -0.1538 -0.0844 -0.8981
 4558SOL    HW125310   2.129   4.540   1.715 -2.8994  0.1277 -1.8229
 4558SOL    HW225311   2.075   4.552   1.585 -0.7404 -1.8771 -0.8270
 4559SOL     OW25312   4.614   3.924   2.744  0.1945 -0.0299 -0.6787
 4559SOL    HW125313   4.618   4.020   2.753 -0.0337  0.1065 -2.0232
 4559SOL    HW225314   4.541   3.918   2.682 -1.4985  1.4415  1.1576
 4560SOL     OW25315   3.896   1.784   3.021 -0.2553  0.1283  0.1199
 4560SOL    HW125316   3.977   1.796   3.070 -0.8972 -0.1127  1.2529
 4560SOL    HW225317   3.830   1.782   3.090  0.8872  2.0305  1.2675
 4561SOL     OW25318   2.724   0.107   8.307  0.2177 -0.4066 -0.6473
 4561SOL    HW125319   2.661   0.146   8.367  0.0790 -0.2768 -0.8778
 4561SOL    HW225320   2.804   0.131   8.354 -0.8725  2.0043 -0.0587
 4562SOL     OW25321   3.966   2.158   8.452 -0.4871  0.6410 -0.1212
 4562SOL    HW125322   4.004   2.073   8.476  0.5436  1.2692  0.4602
 4562SOL    HW225323   4.011   2.219   8.511  1.0269 -1.8821  1.3362
 4563SOL     OW25324   3.240   3.842  12.852  0.0780  0.2654  0.3469
 4563SOL    HW125325   3.215   3.756  12.821  3.0116 -0.2526 -0.6031
 4563SOL    HW225326   3.268   3.882  12.769 -0.9795 -0.6470 -0.4514
 4564SOL     OW25327   3.107   0.229   2.360 -0.0284 -0.0951 -0.1543
 4564SOL    HW125328   3.096   0.322   2.383 -0.9163  0.0305 -1.0635
 4564SOL    HW225329   3.102   0.227   2.264 -3.0675  1.1886 -0.0510
 4565SOL     OW25330   4.591   2.275  12.191 -0.4507  0.4418  0.6691
 4565SOL    HW125331   4.592   2.319  12.106 -1.3778  0.9888  0.9366
 4565SOL    HW225332   4.577   2.184  12.165  0.1819  0.7495 -0.7465
 4566SOL     OW25333   4.183   2.348   9.479  0.2307 -0.4578  0.0531
 4566SOL    HW125334   4.121   2.368   9.548  0.8096  0.5052  0.2973
 4566SOL    HW225335   4.229   2.432   9.470 -1.3019  0.3738 -0.1055
 4567SOL     OW25336   3.551   0.234   2.382 -1.0946  0.0450 -0.2509
 4567SOL    HW125337   3.487   0.180   2.337 -0.9458  0.0196 -0.4335
 4567SOL    HW225338   3.632   0.192   2.351  0.6968  0.9262  3.1921
 4568SOL     OW25339   4.034   0.530   2.160  0.5790 -0.0431  0.6424
 4568SOL    HW125340   4.010   0.590   2.230  0.0433  3.1558 -2.2570
 4568SOL    HW225341   4.030   0.452   2.215  0.4822 -2.4540 -2.7595
 4569SOL     OW25342   2.726   0.611   5.719 -0.4861 -0.4477 -0.4415
 4569SOL    HW125343   2.726   0.621   5.815 -1.2697  0.6162 -0.5544
 4569SOL    HW225344   2.668   0.685   5.701 -0.3863 -0.2689 -0.0425
 4570SOL     OW25345   0.679   3.520   1.823 -0.3790 -0.1666 -0.2028
 4570SOL    HW125346   0.687   3.494   1.731 -3.3762 -0.6723 -0.3306
 4570SOL    HW225347   0.644   3.609   1.813 -0.3327 -0.0104  1.0787
 4571SOL     OW25348   3.572   2.756   4.900  0.2594 -0.0543 -0.2447
 4571SOL    HW125349   3.514   2.824   4.933 -0.9819 -0.7041 -1.0876
 4571SOL    HW225350   3.554   2.758   4.806 -1.0365  0.4299  0.0219
 4572SOL     OW25351   0.195   3.297   3.227 -0.0909 -0.2388  0.0256
 4572SOL    HW125352   0.288   3.292   3.248 -0.0297  2.0643  0.3094
 4572SOL    HW225353   0.201   3.311   3.133  0.5958 -0.8687 -0.0248
 4573SOL     OW25354   1.837   4.630   7.623  0.2818  0.0351 -0.0929
 4573SOL    HW125355   1.908   4.625   7.558  0.7731  1.6962  0.3159
 4573SOL    HW225356   1.821   4.536   7.635 -0.4478 -0.0280 -1.4851
 4574SOL     OW25357   3.744   1.564   0.913 -0.4182 -0.3938 -0.2885
 4574SOL    HW125358   3.832   1.591   0.938  0.3219 -1.3987 -1.7914
 4574SOL    HW225359   3.723   1.487   0.967  1.0410 -1.5351 -1.3484
 4575SOL     OW25360   0.288   2.191   1.289  0.4168 -0.7977 -0.6124
 4575SOL    HW125361   0.326   2.115   1.246  3.2614 -0.8272  1.9884
 4575SOL    HW225362   0.192   2.181   1.293  0.2198  1.5163  0.4720
 4576SOL     OW25363   1.927   4.649   1.556 -0.0220 -0.1831 -0.4667
 4576SOL    HW125364   1.875   4.681   1.629 -0.3927 -0.3782 -0.6485
 4576SOL    HW225365   1.900   4.557   1.549 -1.4606  0.1395  0.7730
 4577SOL     OW25366   2.529   0.451   2.713  0.2253  0.0819 -0.5403
 4577SOL    HW125367   2.587   0.375   2.720 -1.9196 -1.5004  0.0470
 4577SOL    HW225368   2.470   0.414   2.647 -0.5405  0.4938 -0.0821
 4578SOL     OW25369   3.404   4.517   9.282  0.3808  0.1000  0.0407
 4578SOL    HW125370   3.430   4.551   9.196 -2.1748  1.3567 -0.2214
 4578SOL    HW225371   3.333   4.458   9.257  0.2237 -0.3295  1.5175
 4579SOL     OW25372   3.397   2.032  17.634 -0.1209  0.0026 -0.4955
 4579SOL    HW125373   3.338   2.033  17.559 -0.1484 -1.3635 -0.4839
 4579SOL    HW225374   3.470   1.979  17.602 -0.9626 -0.3746 -1.7828
 4580SOL     OW25375   4.565   2.500   3.151 -0.1320  0.5885 -0.0587
 4580SOL    HW125376   4.554   2.571   3.087 -0.7253  0.5800  0.0315
 4580SOL    HW225377   4.535   2.419   3.110  0.3734  0.5237 -0.2931
 4581SOL     OW25378   3.910   1.541  17.467 -0.7511 -0.1396 -0.1083
 4581SOL    HW125379   3.970   1.545  17.541  1.9414 -0.9440 -2.2609
 4581SOL    HW225380   3.825   1.566  17.504 -1.1024  1.9593 -2.3471
 4582SOL     OW25381   0.082   0.301   5.905  0.5241 -0.2530 -0.1823
 4582SOL    HW125382   0.150   0.355   5.865 -0.4958 -0.3235 -2.0357
 4582SOL    HW225383   0.119   0.280   5.990 -1.0795 -3.1425 -0.2183
 4583SOL     OW25384   3.220   3.199   8.584  0.1005  0.2785 -1.0310
 4583SOL    HW125385   3.136   3.165   8.616  0.4987  1.4381  1.2371
 4583SOL    HW225386   3.190   3.261   8.518 -0.1307  1.5585  0.2838
 4584SOL     OW25387   0.969   1.082  16.293 -0.7132  0.6132 -0.2092
 4584SOL    HW125388   1.022   1.024  16.239 -1.0575  0.6016 -0.5354
 4584SOL    HW225389   0.941   1.024  16.364 -0.7259  0.4006 -0.3891
 4585SOL     OW25390   2.254   4.052   7.001  0.3555  0.1809 -0.1460
 4585SOL    HW125391   2.216   4.009   7.078  0.1786  0.7925  0.1071
 4585SOL    HW225392   2.175   4.091   6.966  0.0705  1.2336  1.6662
 4586SOL     OW25393   2.968   0.497   0.234 -0.0685  0.0811 -0.1340
 4586SOL    HW125394   3.048   0.550   0.226 -1.0615  1.7077  0.6821
 4586SOL    HW225395   2.929   0.507   0.148  0.1803  3.1023  0.0942
 4587SOL     OW25396   3.900   0.958   9.733 -0.8040 -0.0248 -0.1230
 4587SOL    HW125397   3.866   0.971   9.822  1.2969 -1.4059  0.8708
 4587SOL    HW225398   3.971   0.900   9.761 -0.0844  0.1369 -1.6489
 4588SOL     OW25399   3.705   4.343  13.501 -0.1897  0.3745 -1.0115
 4588SOL    HW125400   3.715   4.288  13.423 -0.0717 -2.0104  0.7105
 4588SOL    HW225401   3.610   4.357  13.494 -0.4178 -1.3835 -1.4841
 4589SOL     OW25402   2.588   1.020   6.979  0.2952  0.4004  0.2964
 4589SOL    HW125403   2.515   1.046   7.035 -0.4573 -0.0366 -0.5038
 4589SOL    HW225404   2.657   1.016   7.046 -1.4327 -0.7306  2.0061
 4590SOL     OW25405   1.892   0.724  14.527  0.2372  0.2478 -0.3552
 4590SOL    HW125406   1.876   0.631  14.509  1.3660 -0.2332  1.1246
 4590SOL    HW225407   1.838   0.774  14.466 -0.5762  1.0170  1.0108
 4591SOL     OW25408   2.750   2.269  12.495  0.7863  0.8240 -0.7716
 4591SOL    HW125409   2.782   2.184  12.527 -2.0452  0.4247  1.0184
 4591SOL    HW225410   2.786   2.264  12.406  0.7332 -0.4568 -0.7319
 4592SOL     OW25411   0.449   2.699   2.182  0.1342  0.7162  0.0515
 4592SOL    HW125412   0.391   2.627   2.160 -1.2843  1.7288  0.4573
 4592SOL    HW225413   0.428   2.775   2.127  0.2006  0.1294 -0.7929
 4593SOL     OW25414   4.419   3.157   7.781  0.3260  0.1330  0.1248
 4593SOL    HW125415   4.447   3.105   7.856 -0.9862  0.9592  1.1933
 4593SOL    HW225416   4.331   3.120   7.776 -0.1372  1.6071 -2.5555
 4594SOL     OW25417   2.917   3.305  11.854 -0.6085 -0.0461 -0.0262
 4594SOL    HW125418   2.964   3.381  11.886 -0.0055  0.3193 -1.7586
 4594SOL    HW225419   2.978   3.238  11.885  0.3534  1.0210  0.3677
 4595SOL     OW25420   4.381   1.630   4.386 -0.0728 -0.6845 -0.7853
 4595SOL    HW125421   4.328   1.568   4.436 -0.1792 -0.9690 -1.2604
 4595SOL    HW225422   4.321   1.678   4.329  1.3101  0.9035 -0.9171
 4596SOL     OW25423   4.146   1.756   5.281  0.4538  0.6059  0.2863
 4596SOL    HW125424   4.092   1.781   5.206  0.4913 -1.3954 -0.4044
 4596SOL    HW225425   4.234   1.747   5.245  0.2994  0.2392  0.0025
 4597SOL     OW25426   0.464   3.401   7.011  0.3533  0.3695 -0.2925
 4597SOL    HW125427   0.474   3.422   7.104  0.1062  0.2089 -0.2283
 4597SOL    HW225428   0.552   3.417   6.978 -1.6811  2.3147 -4.7109
 4598SOL     OW25429   2.965   0.050   6.949  0.4735  0.2685 -0.3006
 4598SOL    HW125430   2.971   0.007   6.864 -0.6619  2.1097 -1.2905
 4598SOL    HW225431   3.017   4.730   7.008  1.0182  2.8332  1.6275
 4599SOL     OW25432   0.581   3.468  15.816 -0.2153  0.2514  0.0210
 4599SOL    HW125433   0.602   3.561  15.824 -0.8444  0.5254 -1.6033
 4599SOL    HW225434   0.561   3.438  15.905 -1.3661 -0.4560 -0.4685
 4600SOL     OW25435   4.070   1.177   2.872 -0.3679 -0.2165 -0.2462
 4600SOL    HW125436   4.043   1.265   2.845  1.4902  0.4644  0.1408
 4600SOL    HW225437   4.056   1.178   2.966 -0.4844 -1.5123 -0.2472
 4601SOL     OW25438   3.143   4.157  13.886 -0.3728 -0.4504 -0.1798
 4601SOL    HW125439   3.052   4.139  13.910  0.3282 -0.2354  2.5977
 4601SOL    HW225440   3.184   4.125  13.966 -0.1192  1.2923  0.3811
 4602SOL     OW25441   1.849   2.099   2.324  0.3405  0.1248  0.3043
 4602SOL    HW125442   1.857   2.011   2.286 -1.7049  0.0020  0.1877
 4602SOL    HW225443   1.903   2.099   2.403 -3.1754 -1.3214  2.7316
 4603SOL     OW25444   2.638   3.727   6.199  0.3352  0.2160 -0.5170
 4603SOL    HW125445   2.678   3.701   6.116 -0.1935  0.6819 -0.9230
 4603SOL    HW225446   2.602   3.815   6.188  0.1614  0.5775  3.0772
 4604SOL     OW25447   0.877   3.026  13.811  0.2911  0.6356 -0.1562
 4604SOL    HW125448   0.797   2.980  13.785  2.5651 -3.0891 -0.6664
 4604SOL    HW225449   0.933   3.024  13.733  0.4821 -0.9946  0.0115
 4605SOL     OW25450   1.388   2.314   0.864 -0.6701 -0.3367 -0.0994
 4605SOL    HW125451   1.352   2.228   0.884 -1.3026  0.1739  0.9687
 4605SOL    HW225452   1.449   2.327   0.936 -0.4246 -0.9406 -0.1993
 4606SOL     OW25453   4.103   0.136   6.970 -0.5858  0.4250  0.0790
 4606SOL    HW125454   4.064   0.177   7.047 -1.3384 -0.2866  0.0700
 4606SOL    HW225455   4.041   0.155   6.900 -1.4355  2.4004  1.3825
 4607SOL     OW25456   3.901   0.558  17.028  0.0614  0.3347  0.4515
 4607SOL    HW125457   3.979   0.528  17.074 -0.1992  0.4698  0.9942
 4607SOL    HW225458   3.880   0.476  16.984  3.0460  0.4331 -1.0808
 4608SOL     OW25459   1.855   3.831   5.174  0.1057  0.2566 -0.1244
 4608SOL    HW125460   1.872   3.737   5.182  0.3115  0.3419  0.4598
 4608SOL    HW225461   1.763   3.823   5.149 -0.1492  0.7479  0.6348
 4609SOL     OW25462   3.896   0.677   7.316  0.1211  0.0601  0.2835
 4609SOL    HW125463   3.961   0.607   7.326 -0.9203 -1.0265 -0.4841
 4609SOL    HW225464   3.818   0.623   7.329 -0.1257  0.1014 -1.0347
 4610SOL     OW25465   4.346   1.355   6.086  0.0126  0.1934 -0.2881
 4610SOL    HW125466   4.333   1.416   6.158  0.2139 -0.1072  0.0034
 4610SOL    HW225467   4.260   1.340   6.047 -0.8521  0.8048  1.3896
 4611SOL     OW25468   2.432   3.412   5.989  0.6156  0.2480 -0.1696
 4611SOL    HW125469   2.446   3.493   6.037 -0.0861  0.6140 -0.5715
 4611SOL    HW225470   2.401   3.361   6.064  0.2593  1.3493  0.4425
 4612SOL     OW25471   0.189   0.234   6.159 -0.0501 -0.3559 -0.6510
 4612SOL    HW125472   0.281   0.235   6.185  0.2440  2.1621 -1.7661
 4612SOL    HW225473   0.145   0.176   6.221 -1.7395  0.0420 -1.4702
 4613SOL     OW25474   2.686   4.477   1.233 -0.1581 -0.2800  0.5102
 4613SOL    HW125475   2.626   4.450   1.304  0.3475 -2.4026  0.1239
 4613SOL    HW225476   2.640   4.431   1.163 -0.3031  0.1865  0.2986
 4614SOL     OW25477   0.413   2.116  11.788  0.3188  0.3373 -0.2310
 4614SOL    HW125478   0.434   2.025  11.809  1.7363  0.2733 -1.8955
 4614SOL    HW225479   0.499   2.153  11.810  0.1672 -0.2291  1.3112
 4615SOL     OW25480   2.907   0.877   2.192  0.2178  0.2085 -0.0929
 4615SOL    HW125481   2.919   0.922   2.276  1.0383 -0.8912  0.3887
 4615SOL    HW225482   2.980   0.904   2.137 -0.2530 -2.3635 -1.9995
 4616SOL     OW25483   3.156   3.036   8.278 -0.5082 -0.3349 -0.2686
 4616SOL    HW125484   3.186   3.119   8.315 -1.8433 -0.1765  0.4621
 4616SOL    HW225485   3.066   3.067   8.265 -1.2434 -2.8311 -1.1434
 4617SOL     OW25486   2.154   0.778  15.105 -0.3376  0.1230  0.1558
 4617SOL    HW125487   2.176   0.727  15.183  0.9399 -1.0677 -0.9811
 4617SOL    HW225488   2.217   0.850  15.112  0.4927 -0.4335 -1.7964
 4618SOL     OW25489   4.244   1.311  13.546 -0.3286 -0.2630 -0.1617
 4618SOL    HW125490   4.278   1.387  13.498 -1.4311  0.5549  0.3589
 4618SOL    HW225491   4.205   1.254  13.481 -0.6805  1.0035 -1.0688
 4619SOL     OW25492   1.570   3.633   3.106 -0.2226 -0.1743 -0.5794
 4619SOL    HW125493   1.650   3.581   3.092  0.8336  1.7964 -1.8819
 4619SOL    HW225494   1.508   3.565   3.133 -0.5992  0.3944 -0.0165
 4620SOL     OW25495   0.510   3.061  17.340  0.9565  0.0608 -0.3635
 4620SOL    HW125496   0.520   3.137  17.397  0.5645  0.8548 -1.3430
 4620SOL    HW225497   0.601   3.049  17.314  1.0321  0.3558 -0.2435
 4621SOL     OW25498   2.016   3.659   6.074  0.4247 -0.8185 -0.1855
 4621SOL    HW125499   1.949   3.590   6.079 -1.0424  0.4642 -1.8361
 4621SOL    HW225500   2.070   3.648   6.152 -2.7483  0.2827  2.1437
 4622SOL     OW25501   1.980   3.784   5.632  0.3921 -0.1730  0.2019
 4622SOL    HW125502   1.896   3.797   5.587  0.3738 -0.4915  0.1411
 4622SOL    HW225503   2.035   3.729   5.576 -1.3005 -1.6128 -0.0563
 4623SOL     OW25504   0.484   4.214   7.553 -0.2687  0.6921  0.2833
 4623SOL    HW125505   0.429   4.198   7.476  0.6456  1.6154 -0.5661
 4623SOL    HW225506   0.428   4.279   7.596  0.0501  1.5834 -0.6432
 4624SOL     OW25507   1.159   4.154   2.816 -0.0948  0.5749  0.0572
 4624SOL    HW125508   1.249   4.122   2.821 -0.2836  0.3327  1.9192
 4624SOL    HW225509   1.164   4.231   2.759  1.4070 -0.1572 -0.8081
 4625SOL     OW25510   4.014   2.492  17.580  0.0008  0.1193  0.3443
 4625SOL    HW125511   4.083   2.504  17.514 -0.7933  1.7169 -0.2080
 4625SOL    HW225512   4.008   2.568  17.638  0.2403  0.3154  0.1176
 4626SOL     OW25513   1.731   3.057   3.837 -0.1761 -0.1248 -0.4523
 4626SOL    HW125514   1.644   3.038   3.801  0.1319  0.1904 -1.3703
 4626SOL    HW225515   1.735   3.148   3.805 -0.5587 -0.2463 -0.8373
 4627SOL     OW25516   3.126   3.048   8.970 -0.3057 -0.1908 -0.1857
 4627SOL    HW125517   3.046   3.018   9.011  1.6998 -0.9008  3.2324
 4627SOL    HW225518   3.111   3.138   8.940 -1.0569 -0.5242 -0.8216
 4628SOL     OW25519   1.165   2.704  15.129 -0.1028  0.2474  0.3580
 4628SOL    HW125520   1.166   2.663  15.215 -0.2651  0.1914  0.3336
 4628SOL    HW225521   1.256   2.714  15.101 -0.6505  2.0269 -0.8570
 4629SOL     OW25522   3.436   2.052   4.093  0.0240 -0.0317  0.5859
 4629SOL    HW125523   3.342   2.045   4.080  0.0326  2.7009 -0.8280
 4629SOL    HW225524   3.449   2.143   4.067 -0.5009  0.2271  1.2260
 4630SOL     OW25525   2.382   2.967   8.580 -0.0422 -0.3671 -0.4243
 4630SOL    HW125526   2.417   2.951   8.492 -0.8866  0.8772 -0.9927
 4630SOL    HW225527   2.372   3.062   8.588  1.3602 -0.0938 -1.8560
 4631SOL     OW25528   2.835   1.183   4.924  0.2326 -0.6362 -0.4399
 4631SOL    HW125529   2.877   1.254   4.972 -1.1921  0.5953 -1.0110
 4631SOL    HW225530   2.893   1.111   4.952 -1.5696 -1.8045  0.2497
 4632SOL     OW25531   4.628   0.295   0.647  0.0652 -0.3220 -0.4393
 4632SOL    HW125532   4.542   0.259   0.671  0.6219 -0.3017  1.5780
 4632SOL    HW225533   4.603   0.379   0.609  0.2916  0.3829  0.9665
 4633SOL     OW25534   1.274   0.937  11.704  0.0385 -0.5216 -0.3509
 4633SOL    HW125535   1.322   0.969  11.628  0.3590  0.3885  0.2340
 4633SOL    HW225536   1.342   0.900  11.759 -0.2430 -1.0784 -0.3799
 4634SOL     OW25537   2.566   3.678   4.963  0.2421 -0.1642  0.3532
 4634SOL    HW125538   2.637   3.728   4.920 -1.6223  2.2617  0.0755
 4634SOL    HW225539   2.610   3.598   4.990 -0.7935 -0.4101  1.2852
 4635SOL     OW25540   3.973   3.628   5.541  0.8203  0.1491  0.5537
 4635SOL    HW125541   3.965   3.596   5.451 -1.7781 -1.3383  1.3168
 4635SOL    HW225542   3.993   3.722   5.537 -0.9835  0.4481 -1.3727
 4636SOL     OW25543   1.764   2.890   3.209  0.1001 -0.1525  0.6616
 4636SOL    HW125544   1.844   2.935   3.181 -1.8898  3.0010  0.1518
 4636SOL    HW225545   1.696   2.956   3.202  0.4888  0.0290 -1.5132
 4637SOL     OW25546   3.055   2.557   5.649  0.6416 -0.2279  0.6900
 4637SOL    HW125547   3.133   2.528   5.695 -0.2290 -3.3481  0.2361
 4637SOL    HW225548   3.073   2.515   5.565 -0.5097 -0.0970  0.3786
 4638SOL     OW25549   0.373   2.462   6.314  0.1830 -0.1432  0.0586
 4638SOL    HW125550   0.346   2.553   6.300  0.5216  0.0244  0.4823
 4638SOL    HW225551   0.459   2.473   6.273 -0.9017  2.5471 -1.4762
 4639SOL     OW25552   2.766   4.109   7.525  0.1463  0.0430 -0.2771
 4639SOL    HW125553   2.676   4.078   7.532 -0.1270  0.9816  0.3471
 4639SOL    HW225554   2.780   4.110   7.430 -0.9287  0.1332 -0.4305
 4640SOL     OW25555   0.462   1.561  10.581 -0.2377  0.3479 -0.4089
 4640SOL    HW125556   0.471   1.547  10.487  0.6338  1.1264 -0.4446
 4640SOL    HW225557   0.534   1.619  10.607  0.2106 -0.4160  0.0295
 4641SOL     OW25558   0.318   3.162   7.371  0.3337  0.2145  0.1598
 4641SOL    HW125559   0.243   3.127   7.323 -0.1542  1.7477 -0.1941
 4641SOL    HW225560   0.354   3.085   7.415  1.2208  1.0785  0.9548
 4642SOL     OW25561   1.244   1.530   3.726  0.5156 -0.4774  0.6687
 4642SOL    HW125562   1.304   1.458   3.747 -0.0270 -1.4363 -0.9985
 4642SOL    HW225563   1.176   1.486   3.675 -2.0061  3.0121  1.0887
 4643SOL     OW25564   3.064   0.162   5.219 -0.4727  0.5602  0.0926
 4643SOL    HW125565   2.990   0.179   5.277 -1.5678  0.7012 -1.3389
 4643SOL    HW225566   3.145   0.165   5.269  0.3369 -2.3056 -1.0890
 4644SOL     OW25567   1.264   4.319  12.606  0.0211 -0.2516  0.0819
 4644SOL    HW125568   1.243   4.232  12.572  0.5671  0.4923 -2.1403
 4644SOL    HW225569   1.188   4.359  12.563 -0.8442 -0.5049  1.3781
 4645SOL     OW25570   1.042   4.179   7.494  0.2939  0.1298 -0.2136
 4645SOL    HW125571   1.054   4.273   7.483 -0.5640  0.0418 -1.8439
 4645SOL    HW225572   0.955   4.188   7.533  0.1386 -1.6951 -0.1206
 4646SOL     OW25573   3.267   0.956   7.275  0.1506 -0.1951  0.0667
 4646SOL    HW125574   3.206   1.029   7.260  0.1541  0.1231  1.5884
 4646SOL    HW225575   3.209   0.889   7.311 -0.1682 -0.0473 -0.1820
 4647SOL     OW25576   2.094   3.630   8.224 -0.1540 -0.1958 -0.4198
 4647SOL    HW125577   2.053   3.694   8.282 -0.7765 -2.0055  1.1369
 4647SOL    HW225578   2.061   3.546   8.257 -0.4315 -0.5857 -1.6565
 4648SOL     OW25579   3.360   0.199   1.919  0.0231  0.0308 -0.4644
 4648SOL    HW125580   3.352   0.282   1.967  2.1337  0.7614 -1.3767
 4648SOL    HW225581   3.287   0.206   1.857 -1.8039 -1.9095  1.4860
 4649SOL     OW25582   1.607   3.609  13.074 -0.0021  0.4469  0.1756
 4649SOL    HW125583   1.644   3.622  12.987 -0.5692 -0.9205 -0.2801
 4649SOL    HW225584   1.662   3.533  13.095  0.7262  1.8458  3.3045
 4650SOL     OW25585   1.897   3.796   1.898  0.2358 -0.5331  0.0217
 4650SOL    HW125586   1.819   3.819   1.949  0.9873 -2.5348  2.0444
 4650SOL    HW225587   1.872   3.813   1.807 -0.2566  0.0931  0.2717
 4651SOL     OW25588   3.689   2.444   6.500 -0.2234  0.5087 -0.1496
 4651SOL    HW125589   3.738   2.422   6.421  0.9967 -2.1671  1.3623
 4651SOL    HW225590   3.759   2.427   6.563  0.1008 -0.0366 -0.6688
 4652SOL     OW25591   2.831   4.688   6.203 -0.0561  0.2174  0.0803
 4652SOL    HW125592   2.799   4.639   6.127  0.2652 -1.5778  1.0824
 4652SOL    HW225593   2.803   4.633   6.276 -1.7220 -1.7892 -2.0706
 4653SOL     OW25594   2.415   0.893   6.765  0.1081  0.3793 -0.5844
 4653SOL    HW125595   2.435   0.800   6.778  3.4229  0.7763 -2.8617
 4653SOL    HW225596   2.421   0.914   6.858  0.9325 -2.1412 -0.0543
 4654SOL     OW25597   2.534   2.463   2.295 -0.0711 -0.4256  0.3166
 4654SOL    HW125598   2.483   2.543   2.284 -0.5784 -0.8998 -0.7508
 4654SOL    HW225599   2.622   2.494   2.318 -0.2116 -0.6714  1.1835
 4655SOL     OW25600   1.026   2.361   3.220  0.0758 -0.2267  0.4050
 4655SOL    HW125601   0.937   2.327   3.211  0.4360 -0.4923 -1.9135
 4655SOL    HW225602   1.085   2.287   3.236 -1.3974 -1.2808  0.9673
 4656SOL     OW25603   2.303   2.310   2.096 -0.1744 -0.3931 -0.2536
 4656SOL    HW125604   2.221   2.359   2.089  0.0183  0.3542  2.7712
 4656SOL    HW225605   2.346   2.363   2.163  1.3064 -0.7438 -0.9242
 4657SOL     OW25606   1.740   4.125   8.244 -0.3188 -0.1878 -0.2769
 4657SOL    HW125607   1.696   4.077   8.173  2.9827 -1.1625 -1.6721
 4657SOL    HW225608   1.692   4.207   8.233 -1.5018 -0.6407  1.4421
 4658SOL     OW25609   0.256   4.084   5.882 -0.3819  0.4647  0.4126
 4658SOL    HW125610   0.284   4.022   5.815 -1.2362 -0.6930  1.1427
 4658SOL    HW225611   0.333   4.141   5.882  0.1862 -0.3240 -0.0767
 4659SOL     OW25612   0.620   4.019   5.676  0.3181  0.1516 -0.3932
 4659SOL    HW125613   0.704   4.060   5.659  1.2780 -0.3248  3.1177
 4659SOL    HW225614   0.571   4.092   5.715 -0.5375 -0.6431  0.0395
 4660SOL     OW25615   4.037   1.654  15.947 -0.4867  0.2590  0.1429
 4660SOL    HW125616   4.120   1.607  15.958 -0.5381 -0.0207 -0.6739
 4660SOL    HW225617   4.067   1.745  15.943  2.7769 -0.9480 -3.1396
 4661SOL     OW25618   3.372   2.964   3.785  0.2161 -0.4562  0.6394
 4661SOL    HW125619   3.413   3.009   3.859  1.4401  0.9329 -0.9051
 4661SOL    HW225620   3.287   2.936   3.820  0.8145 -0.3098  2.2305
 4662SOL     OW25621   0.491   2.937   7.086  0.4804  0.2038 -0.6379
 4662SOL    HW125622   0.559   2.871   7.103 -0.2950 -0.5796 -0.5396
 4662SOL    HW225623   0.524   3.020   7.120 -0.7033 -0.4913  2.1832
 4663SOL     OW25624   1.786   4.145   5.778 -0.4589 -0.0330 -0.4312
 4663SOL    HW125625   1.733   4.095   5.716  0.3373 -2.2392  0.6429
 4663SOL    HW225626   1.874   4.129   5.742  0.0865 -0.0999  0.9105
 4664SOL     OW25627   4.382   2.074   1.657  0.0594 -0.2844 -0.2990
 4664SOL    HW125628   4.417   2.091   1.744  2.3974 -2.1323 -0.8585
 4664SOL    HW225629   4.350   1.984   1.668 -1.5330  0.1729 -1.2054
 4665SOL     OW25630   2.700   1.632   8.373 -0.3828  0.1084 -0.0701
 4665SOL    HW125631   2.675   1.702   8.314  2.7699  2.6016  1.5244
 4665SOL    HW225632   2.741   1.684   8.442  1.3180 -2.2310  0.6959
 4666SOL     OW25633   2.643   3.766  13.395  0.5731 -0.4431  0.3388
 4666SOL    HW125634   2.678   3.846  13.355  0.1982  1.0425  2.9809
 4666SOL    HW225635   2.556   3.794  13.425  1.1776 -0.1321  1.8196
 4667SOL     OW25636   3.633   1.307  10.245 -0.2974  0.3720  0.1016
 4667SOL    HW125637   3.701   1.270  10.189 -1.5975  1.1269 -1.9457
 4667SOL    HW225638   3.560   1.328  10.187  0.8828  0.8271 -1.2046
 4668SOL     OW25639   3.511   2.600   6.374  0.1536  0.1515 -0.2518
 4668SOL    HW125640   3.531   2.681   6.421 -1.9038  0.5213 -0.0224
 4668SOL    HW225641   3.555   2.534   6.429  4.5458  1.4064 -2.2695
 4669SOL     OW25642   1.500   1.341  14.456  0.2745  0.2152 -0.3658
 4669SOL    HW125643   1.580   1.380  14.491  2.2692 -1.6249 -2.8295
 4669SOL    HW225644   1.443   1.362  14.529 -0.2048  1.2885 -1.0588
 4670SOL     OW25645   2.436   0.217   0.019  0.1192 -0.5779  0.2509
 4670SOL    HW125646   2.455   0.137   0.068  0.8580 -1.6313 -1.7640
 4670SOL    HW225647   2.458   0.190  17.671  0.5120  0.2156  0.1008
 4671SOL     OW25648   3.962   4.532   3.824 -0.1573  0.6705 -0.1012
 4671SOL    HW125649   4.009   4.451   3.803 -0.1136  0.2673  1.5031
 4671SOL    HW225650   3.876   4.501   3.854 -0.2689  1.5667  0.4907
 4672SOL     OW25651   2.903   2.976   9.165  0.3397  0.0423  0.7496
 4672SOL    HW125652   2.842   3.044   9.193  1.0400  1.3794 -1.0187
 4672SOL    HW225653   2.867   2.958   9.079 -2.2683  3.2526  1.1703
 4673SOL     OW25654   0.284   4.620   7.470 -0.5104  0.8854 -0.5252
 4673SOL    HW125655   0.351   4.578   7.416  0.2061  0.3779  0.7800
 4673SOL    HW225656   0.290   4.571   7.551 -0.0982  0.8806 -0.5568
 4674SOL     OW25657   1.850   1.094   3.039 -0.2182 -0.4432 -0.2331
 4674SOL    HW125658   1.863   1.003   3.066  3.2567 -0.2154 -1.1697
 4674SOL    HW225659   1.761   1.113   3.069 -0.9145 -3.0342 -0.6386
 4675SOL     OW25660   0.921   3.171   2.363  0.0572 -0.2904 -0.6723
 4675SOL    HW125661   0.849   3.119   2.327  0.2614 -1.9936  1.4117
 4675SOL    HW225662   0.889   3.256   2.333  1.5721 -0.2613 -2.1764
 4676SOL     OW25663   0.074   0.365   0.094 -0.0309  0.0149 -0.2459
 4676SOL    HW125664   0.016   0.379   0.019  0.2487  0.5028 -0.3726
 4676SOL    HW225665   0.091   0.457   0.116 -1.2444  0.2213 -0.1538
 4677SOL     OW25666   3.166   1.562  11.972 -0.0427  0.3116 -0.1602
 4677SOL    HW125667   3.214   1.636  11.936  0.6115  0.4128  0.9201
 4677SOL    HW225668   3.166   1.507  11.893  1.0142 -1.4280  1.0528
 4678SOL     OW25669   2.758   1.396   3.449 -0.0528 -0.4606 -0.0338
 4678SOL    HW125670   2.777   1.410   3.542  0.6082  1.2881 -0.4367
 4678SOL    HW225671   2.759   1.300   3.446 -2.8128 -0.3615 -4.1509
 4679SOL     OW25672   3.656   4.351   8.708 -0.2237 -0.4082  0.8382
 4679SOL    HW125673   3.590   4.420   8.698  0.6911  0.2937 -0.3851
 4679SOL    HW225674   3.709   4.402   8.769  0.6011  0.5712 -0.6923
 4680SOL     OW25675   3.421   1.875  13.766  0.3494 -0.1061 -0.0200
 4680SOL    HW125676   3.391   1.853  13.677  1.5350  1.8955 -0.9143
 4680SOL    HW225677   3.345   1.921  13.803 -0.1763 -0.0824 -1.1305
 4681SOL     OW25678   4.536   2.349   5.071 -0.0296 -0.5809 -0.4677
 4681SOL    HW125679   4.583   2.395   5.001  1.5341  0.0566  1.0100
 4681SOL    HW225680   4.590   2.269   5.073  2.3853  1.0471 -0.0453
 4682SOL     OW25681   1.826   1.117   0.503 -0.1890  0.2548  0.1101
 4682SOL    HW125682   1.818   1.155   0.415  2.3130  1.6990  0.5102
 4682SOL    HW225683   1.817   1.022   0.492 -2.5043  0.2937  1.6523
 4683SOL     OW25684   3.703   3.091   2.126  0.0931  0.2400  0.2631
 4683SOL    HW125685   3.717   3.134   2.041  3.1229  0.7007  1.0180
 4683SOL    HW225686   3.620   3.045   2.109  0.7795 -0.8068 -0.2509
 4684SOL     OW25687   1.088   1.001   2.296 -0.0647  0.9285 -0.2717
 4684SOL    HW125688   1.023   1.023   2.362 -0.0903  3.1430 -1.0169
 4684SOL    HW225689   1.025   0.973   2.230 -2.3095  2.5556  1.1865
 4685SOL     OW25690   1.186   1.358  16.952 -0.2116  0.0061 -0.1049
 4685SOL    HW125691   1.242   1.285  16.975  1.5283  1.1956 -0.5167
 4685SOL    HW225692   1.119   1.316  16.898 -1.1273  2.6659 -1.0945
 4686SOL     OW25693   3.957   1.999  14.563 -0.5310  0.3045 -0.0366
 4686SOL    HW125694   3.983   1.926  14.506 -3.3077 -0.5934 -0.1522
 4686SOL    HW225695   3.875   1.961  14.594 -0.7753  1.2222  0.4436
 4687SOL     OW25696   4.537   3.254  12.005 -0.1834  0.4938  0.2505
 4687SOL    HW125697   4.582   3.337  11.992 -0.8590  0.6651 -1.0141
 4687SOL    HW225698   4.531   3.217  11.917 -0.6121  0.3835  0.3258
 4688SOL     OW25699   4.012   1.579   7.969 -0.1109  0.7159 -0.2918
 4688SOL    HW125700   3.980   1.535   7.890 -0.2879  0.9216 -0.3331
 4688SOL    HW225701   4.103   1.596   7.947  0.7767  0.4233  3.0581
 4689SOL     OW25702   3.715   3.551   5.147  0.2707  0.1564 -0.0382
 4689SOL    HW125703   3.683   3.573   5.059  0.4075 -1.5405 -0.5105
 4689SOL    HW225704   3.639   3.575   5.201  0.9754  2.3748 -0.0276
 4690SOL     OW25705   3.756   1.879   6.180 -0.2769 -0.3395 -0.6743
 4690SOL    HW125706   3.834   1.904   6.230  1.1164 -1.6694 -2.1874
 4690SOL    HW225707   3.693   1.885   6.252 -0.5373 -0.7648 -0.8670
 4691SOL     OW25708   4.531   0.511  12.583 -0.7683  0.3343  0.1712
 4691SOL    HW125709   4.512   0.554  12.667 -0.0701 -0.8850  0.9537
 4691SOL    HW225710   4.495   0.423  12.595  1.0868 -0.6022 -1.2196
 4692SOL     OW25711   3.600   3.726   7.739  0.4990  0.0656  0.0506
 4692SOL    HW125712   3.571   3.811   7.771  1.5534  0.7807 -0.8705
 4692SOL    HW225713   3.517   3.679   7.743 -0.1990  1.2111 -1.1560
 4693SOL     OW25714   1.345   1.678   4.025 -0.2851 -0.0557 -0.5035
 4693SOL    HW125715   1.384   1.708   4.107 -2.3348  1.1448  0.0337
 4693SOL    HW225716   1.414   1.701   3.963 -0.3381  0.8933 -0.1984
 4694SOL     OW25717   1.242   1.867   2.713 -0.1664  0.1157 -0.7435
 4694SOL    HW125718   1.185   1.916   2.654 -1.5178  0.3124  0.7334
 4694SOL    HW225719   1.174   1.859   2.779 -0.8828 -1.0828 -1.6258
 4695SOL     OW25720   4.685   0.011   2.393 -0.1996 -0.4488  0.5571
 4695SOL    HW125721   4.654   4.717   2.479 -0.2858  0.0660  0.7019
 4695SOL    HW225722   4.617   0.076   2.376  1.5634  0.4785 -2.7810
 4696SOL     OW25723   3.698   2.065   2.281  0.0531 -0.5486 -0.4359
 4696SOL    HW125724   3.685   2.090   2.372 -0.9779 -0.9617 -0.4634
 4696SOL    HW225725   3.624   2.004   2.270 -0.1490 -0.1480 -1.3378
 4697SOL     OW25726   1.429   2.873   5.228 -0.3677 -0.2294 -0.5529
 4697SOL    HW125727   1.387   2.830   5.153 -0.0129 -0.3821 -0.6646
 4697SOL    HW225728   1.399   2.818   5.300 -0.0995 -2.0298 -1.8351
 4698SOL     OW25729   1.986   2.673  13.036  0.0660  0.5819 -0.2805
 4698SOL    HW125730   1.926   2.712  13.099 -0.4959 -2.4718  1.1055
 4698SOL    HW225731   2.062   2.642  13.085  2.0099  3.6174 -1.3572
 4699SOL     OW25732   1.279   0.819   8.477  0.0894  0.2562  0.1691
 4699SOL    HW125733   1.207   0.760   8.499 -0.3398 -1.0593 -4.7010
 4699SOL    HW225734   1.273   0.820   8.382  1.3761 -0.5916  0.0696
 4700SOL     OW25735   2.978   1.451  15.799  0.5279  0.4384 -0.2315
 4700SOL    HW125736   2.946   1.497  15.721  2.4207  0.6783 -0.8901
 4700SOL    HW225737   2.895   1.420  15.834  1.1144 -0.5520  0.2762
 4701SOL     OW25738   4.087   3.467   1.308  0.1213 -0.6648 -0.5510
 4701SOL    HW125739   4.004   3.488   1.265  0.7708  2.8628 -0.0452
 4701SOL    HW225740   4.078   3.372   1.307  0.7329 -0.7823  3.5118
 4702SOL     OW25741   0.908   3.286  15.236  0.3387 -0.2114  0.6300
 4702SOL    HW125742   0.993   3.244  15.239  1.4314  1.9529 -0.1568
 4702SOL    HW225743   0.925   3.379  15.223  0.2182 -0.4473 -1.3225
 4703SOL     OW25744   4.700   0.358   9.153 -0.3664  0.3828 -0.0515
 4703SOL    HW125745   4.617   0.401   9.132 -0.3356 -0.8031 -2.6115
 4703SOL    HW225746   0.015   0.436   9.177  0.5665  0.0121 -0.7959
 4704SOL     OW25747   0.909   4.290   8.106 -0.9629  0.1859  0.2384
 4704SOL    HW125748   0.870   4.251   8.028 -0.2834  0.6529 -0.3298
 4704SOL    HW225749   0.979   4.333   8.057 -0.4522  0.6002  1.3392
 4705SOL     OW25750   4.103   2.445   1.736 -0.0363 -0.2123 -0.0113
 4705SOL    HW125751   4.092   2.489   1.652  0.7955 -1.3222 -0.6968
 4705SOL    HW225752   4.141   2.363   1.703 -2.1278 -0.7849 -0.9751
 4706SOL     OW25753   0.050   4.207   2.358 -0.3461 -0.8508  0.0926
 4706SOL    HW125754   0.085   4.179   2.273  1.3560 -0.3693  0.6341
 4706SOL    HW225755   0.026   4.297   2.334  0.7366  0.2531  3.1159
 4707SOL     OW25756   3.739   4.005   6.526  0.4806  0.2157  0.0035
 4707SOL    HW125757   3.795   4.042   6.595 -2.4837 -1.7872  3.5046
 4707SOL    HW225758   3.763   3.913   6.515 -1.1033 -0.2702  0.4894
 4708SOL     OW25759   2.410   2.912   3.285  0.2213  0.5857 -0.0026
 4708SOL    HW125760   2.326   2.931   3.325  0.4191  1.2844  0.0863
 4708SOL    HW225761   2.470   2.948   3.351  0.1989  0.8077 -0.1020
 4709SOL     OW25762   3.924   0.448   4.726 -0.3938 -0.3230  0.6195
 4709SOL    HW125763   3.878   0.393   4.664  0.1214 -1.4979  1.2770
 4709SOL    HW225764   3.933   0.529   4.676  0.7512 -1.6388 -1.2882
 4710SOL     OW25765   3.671   1.176  15.822 -0.4741 -0.5538  0.7483
 4710SOL    HW125766   3.669   1.120  15.900  0.2279  1.2332  2.0349
 4710SOL    HW225767   3.733   1.246  15.843  1.4574 -1.3153 -2.4474
 4711SOL     OW25768   3.298   4.495   1.329 -0.8327 -0.3976 -0.1241
 4711SOL    HW125769   3.315   4.438   1.404 -1.0897  0.0415  0.2652
 4711SOL    HW225770   3.328   4.581   1.359  0.8500 -0.7944 -0.6924
 4712SOL     OW25771   2.905   2.774   2.565 -0.1525 -0.8555  0.4270
 4712SOL    HW125772   2.993   2.752   2.534 -0.8894 -1.8658 -0.9480
 4712SOL    HW225773   2.894   2.692   2.613 -2.9359 -0.3061  0.7494
 4713SOL     OW25774   1.837   3.312   2.842 -0.5939  0.0204 -0.5103
 4713SOL    HW125775   1.748   3.288   2.819  0.1597 -2.2606 -1.0569
 4713SOL    HW225776   1.834   3.407   2.857  1.9492  0.2382 -1.2137
 4714SOL     OW25777   0.350   1.541  14.530  0.1146  0.2894  0.3304
 4714SOL    HW125778   0.317   1.521  14.617  0.5384  0.7740  0.6002
 4714SOL    HW225779   0.445   1.537  14.542 -0.0685 -2.2480  0.8440
 4715SOL     OW25780   1.167   1.286   5.045  0.1097 -0.4476 -0.4794
 4715SOL    HW125781   1.181   1.325   4.959  1.1388  0.0190 -0.0902
 4715SOL    HW225782   1.255   1.253   5.064 -0.4058 -0.8027  1.2908
 4716SOL     OW25783   2.081   1.284   6.528 -0.9122 -0.4670 -0.0715
 4716SOL    HW125784   2.084   1.371   6.569  0.4865  0.7860 -2.8625
 4716SOL    HW225785   2.161   1.245   6.564  0.7150  0.1634 -3.0311
 4717SOL     OW25786   1.611   2.338   8.801  0.8560  0.6477  0.6841
 4717SOL    HW125787   1.621   2.272   8.732  0.5081  0.6373  0.6471
 4717SOL    HW225788   1.683   2.398   8.782 -0.2049  1.5344 -0.5120
 4718SOL     OW25789   2.996   1.791   2.437  0.5839 -0.4485  0.0866
 4718SOL    HW125790   2.915   1.740   2.440  0.4340 -0.2170 -0.0533
 4718SOL    HW225791   2.960   1.872   2.402 -3.1554 -2.4969 -0.8464
 4719SOL     OW25792   3.740   0.447  15.702 -0.1165 -0.0932  0.7757
 4719SOL    HW125793   3.750   0.389  15.778  1.3275  0.1220  0.7354
 4719SOL    HW225794   3.681   0.392  15.650  0.8480  0.9824 -1.4433
 4720SOL     OW25795   3.968   4.246   2.880  1.0313  0.0896 -0.0240
 4720SOL    HW125796   3.885   4.276   2.916  0.8130 -1.3200  0.6303
 4720SOL    HW225797   4.009   4.332   2.869  0.7458  0.2085 -0.1390
 4721SOL     OW25798   3.153   3.973   3.759  0.4037  0.4960  0.2408
 4721SOL    HW125799   3.118   3.994   3.845 -0.1001 -0.5824  0.2964
 4721SOL    HW225800   3.181   4.064   3.746 -1.6477  1.6691  3.9917
 4722SOL     OW25801   0.147   3.998  15.840  0.4202 -0.1366 -0.4267
 4722SOL    HW125802   0.095   3.939  15.894  1.4559 -0.0904  0.6360
 4722SOL    HW225803   0.187   3.931  15.785  0.0420  0.0905 -0.9748
 4723SOL     OW25804   2.103   4.594  14.519 -0.1191  0.3554  0.4438
 4723SOL    HW125805   2.107   4.499  14.532 -0.4830 -0.0412 -2.1929
 4723SOL    HW225806   2.009   4.615  14.516  0.1910  1.5699 -0.9122
 4724SOL     OW25807   4.463   1.311  17.652  0.2532  0.4822 -0.5625
 4724SOL    HW125808   4.416   1.237  17.613 -0.2549  1.1994 -1.3117
 4724SOL    HW225809   4.510   1.333  17.571  0.9119 -0.1288 -0.3472
 4725SOL     OW25810   3.240   0.104   7.748  0.3971 -0.0399 -0.1720
 4725SOL    HW125811   3.162   0.121   7.696 -1.8758 -3.9279  1.9399
 4725SOL    HW225812   3.290   0.050   7.686  1.2111  1.1126 -0.5184
 4726SOL     OW25813   3.725   2.831   9.531  0.0984  0.6437  0.1840
 4726SOL    HW125814   3.655   2.782   9.573  0.3199 -0.4382 -0.6902
 4726SOL    HW225815   3.676   2.873   9.460  0.1630 -0.5020 -0.5401
 4727SOL     OW25816   4.079   4.268   3.173  0.1508  0.0407 -0.4569
 4727SOL    HW125817   4.007   4.332   3.168 -0.0383 -0.2176 -1.0263
 4727SOL    HW225818   4.078   4.254   3.267 -0.1346  1.3731 -0.2523
 4728SOL     OW25819   1.935   4.431   9.208 -0.7700  0.2941  0.7308
 4728SOL    HW125820   1.849   4.403   9.177 -0.1601 -2.7292  1.7557
 4728SOL    HW225821   1.934   4.526   9.208  0.6944  0.3085  0.6851
 4729SOL     OW25822   3.461   0.871   4.327 -0.1039  0.0630  0.1778
 4729SOL    HW125823   3.440   0.964   4.320  0.6684  0.3089  1.2075
 4729SOL    HW225824   3.442   0.856   4.419  2.3914  2.7011  1.1034
 4730SOL     OW25825   0.160   4.236   1.863  0.1713  0.3815  0.2624
 4730SOL    HW125826   0.069   4.253   1.884  0.4985 -0.9373  2.8059
 4730SOL    HW225827   0.144   4.179   1.788  0.7683  1.0347 -0.3603
 4731SOL     OW25828   0.455   2.253  12.863  0.6135  0.0588 -0.3799
 4731SOL    HW125829   0.469   2.332  12.812 -2.5738  0.0150 -1.3246
 4731SOL    HW225830   0.428   2.300  12.943 -1.5920 -1.3207 -0.3099
 4732SOL     OW25831   2.436   1.667  17.468  0.0300  0.2303  0.4194
 4732SOL    HW125832   2.401   1.580  17.447  0.9574  0.3923 -1.8200
 4732SOL    HW225833   2.468   1.688  17.380 -0.7736  0.3791  0.1635
 4733SOL     OW25834   2.659   4.688   2.484  0.5619  0.3216 -1.4591
 4733SOL    HW125835   2.735   4.709   2.430  0.9580 -0.2836 -1.1474
 4733SOL    HW225836   2.682   4.709   2.575 -1.1231  0.3333 -1.0395
 4734SOL     OW25837   0.226   4.237  12.418 -0.3653 -0.0976 -0.3809
 4734SOL    HW125838   0.319   4.261  12.422  0.1149 -1.8475 -1.3365
 4734SOL    HW225839   0.213   4.150  12.454 -0.6277  0.2270  0.3093
 4735SOL     OW25840   2.624   2.995  12.448  0.1413 -0.2403  0.9696
 4735SOL    HW125841   2.707   3.037  12.423  0.4694 -2.7303 -2.2438
 4735SOL    HW225842   2.560   3.044  12.397 -0.7719 -2.1069  0.3434
 4736SOL     OW25843   0.017   3.387   1.100  0.6813 -0.3542  0.4738
 4736SOL    HW125844   4.723   3.302   1.132  1.4890 -0.7480  0.1419
 4736SOL    HW225845   0.091   3.395   1.159  1.3532  0.4432 -0.4781
 4737SOL     OW25846   2.962   1.034   3.611 -0.5225 -0.0124  0.0473
 4737SOL    HW125847   3.020   1.102   3.646 -0.1428 -0.3194  0.0167
 4737SOL    HW225848   3.027   0.966   3.591 -0.2223 -0.2382  1.7517
 4738SOL     OW25849   3.106   1.297   0.173  0.4035  0.2146  0.1116
 4738SOL    HW125850   3.090   1.373   0.229 -0.6038  0.2646 -0.2444
 4738SOL    HW225851   3.019   1.257   0.173  0.1502  0.7574 -1.0083
 4739SOL     OW25852   1.291   3.538   9.307 -0.0700 -0.3630 -0.4574
 4739SOL    HW125853   1.337   3.585   9.377 -0.5649 -0.3056 -0.1763
 4739SOL    HW225854   1.359   3.506   9.247  1.7990  1.2427  0.7881
 4740SOL     OW25855   1.309   4.466  11.986  0.0023 -0.0411  0.5272
 4740SOL    HW125856   1.232   4.410  11.973  1.4327 -1.9308  0.1877
 4740SOL    HW225857   1.306   4.518  11.906  1.2197  0.6826  0.9528
 4741SOL     OW25858   1.758   3.784   8.862  0.2380 -0.4320 -0.1032
 4741SOL    HW125859   1.848   3.754   8.876  0.2409  1.3778  3.7733
 4741SOL    HW225860   1.711   3.744   8.935 -0.7260 -0.0589 -0.5178
 4742SOL     OW25861   4.031   3.306   0.936  0.1312  0.4058 -0.0359
 4742SOL    HW125862   3.965   3.303   1.005  0.0477 -0.0285 -0.1349
 4742SOL    HW225863   4.112   3.311   0.988  0.9711 -2.2489 -1.1025
 4743SOL     OW25864   4.233   4.704   7.852  0.3606  0.2609 -0.0006
 4743SOL    HW125865   4.323   4.671   7.856  0.1391 -0.4363 -0.7023
 4743SOL    HW225866   4.186   4.633   7.807 -0.9211  1.2241 -0.1917
 4744SOL     OW25867   3.698   2.403   2.557 -0.0964  0.2604  0.3121
 4744SOL    HW125868   3.708   2.461   2.633 -2.2729 -1.4839  1.9240
 4744SOL    HW225869   3.739   2.322   2.587  0.5925  0.0359 -1.2527
 4745SOL     OW25870   3.304   3.679   3.090  0.2349  0.3729  0.1588
 4745SOL    HW125871   3.268   3.701   3.004  0.9871 -0.6965 -0.4409
 4745SOL    HW225872   3.277   3.587   3.089 -1.3886  0.8530  0.3012
 4746SOL     OW25873   0.453   2.604   7.659  0.1723  0.3090  0.7945
 4746SOL    HW125874   0.408   2.614   7.574  0.9545  1.3075  0.4988
 4746SOL    HW225875   0.378   2.626   7.715 -0.7985 -1.0382  0.0223
 4747SOL     OW25876   3.742   2.312   5.689 -0.4605 -0.0836  0.0558
 4747SOL    HW125877   3.812   2.287   5.749 -0.1200  0.0025 -0.3067
 4747SOL    HW225878   3.699   2.386   5.732  0.5102  0.8015 -0.4886
 4748SOL     OW25879   2.924   3.956   8.106  0.0866 -0.0840  0.2291
 4748SOL    HW125880   2.904   3.909   8.187  2.5141 -2.3874 -0.4877
 4748SOL    HW225881   3.018   3.958   8.124  0.3479 -2.5229 -0.8299
 4749SOL     OW25882   4.143   4.544   8.754  0.2024  0.4379  0.4528
 4749SOL    HW125883   4.163   4.458   8.716  0.6056  1.0639 -0.7544
 4749SOL    HW225884   4.103   4.509   8.834  0.2352  0.1649  0.3492
 4750SOL     OW25885   3.336   4.186   3.105  0.3489 -0.1918  0.0155
 4750SOL    HW125886   3.292   4.147   3.181  0.9070  0.0050  0.4444
 4750SOL    HW225887   3.306   4.276   3.112  3.1301  0.6311  1.3933
 4751SOL     OW25888   2.742   1.430   2.336 -0.0802 -0.0598 -0.0344
 4751SOL    HW125889   2.668   1.382   2.300  1.9111 -1.8513 -1.7234
 4751SOL    HW225890   2.761   1.493   2.267  0.5618 -1.4477 -1.1322
 4752SOL     OW25891   4.499   1.138  11.648 -0.4299 -0.9133 -0.2177
 4752SOL    HW125892   4.453   1.155  11.731 -2.1978 -5.0123 -0.3770
 4752SOL    HW225893   4.434   1.125  11.579  0.3925  0.0593 -1.1669
 4753SOL     OW25894   4.627   1.023   4.663 -0.1354  0.2343  0.1853
 4753SOL    HW125895   4.574   0.984   4.733  1.5287 -0.0925  1.2551
 4753SOL    HW225896   4.548   1.051   4.617  0.9796  1.3756 -1.0229
 4754SOL     OW25897   2.104   0.277  17.177 -0.0567 -0.1338  1.0981
 4754SOL    HW125898   2.152   0.223  17.240  1.3888  0.4074  0.4554
 4754SOL    HW225899   2.166   0.342  17.145  2.5384 -1.0012  4.4102
 4755SOL     OW25900   1.624   4.131   0.411  0.8018  0.0023 -0.0210
 4755SOL    HW125901   1.592   4.044   0.387  1.5828  0.0342 -1.1908
 4755SOL    HW225902   1.570   4.149   0.488 -0.4888  0.2179 -0.9954
 4756SOL     OW25903   0.431   2.819   6.388 -0.3074  0.1643 -0.2939
 4756SOL    HW125904   0.363   2.784   6.330  1.1020  2.5716 -3.4087
 4756SOL    HW225905   0.400   2.910   6.394 -1.0691 -0.0323 -1.1195
 4757SOL     OW25906   0.019   2.883   0.578 -0.1398 -0.4085  0.2613
 4757SOL    HW125907   4.704   2.841   0.508 -0.7185  0.0067  0.4352
 4757SOL    HW225908   0.111   2.864   0.560  0.2547  0.9898  0.7971
 4758SOL     OW25909   0.520   3.115   5.651  0.3230 -0.2478  0.1919
 4758SOL    HW125910   0.544   3.204   5.625 -1.2830  0.1068 -0.1205
 4758SOL    HW225911   0.604   3.071   5.642  0.5719 -0.0997  1.9145
 4759SOL     OW25912   0.427   3.982  16.815 -0.0742 -0.1036 -0.6225
 4759SOL    HW125913   0.431   4.010  16.906  1.3709  0.0387 -0.7328
 4759SOL    HW225914   0.464   4.056  16.768  0.2951  0.6464  0.8668
 4760SOL     OW25915   0.093   3.810   7.067  0.0155 -0.3916 -0.0970
 4760SOL    HW125916   0.163   3.798   7.003 -0.0544 -0.4924 -0.1556
 4760SOL    HW225917   0.120   3.759   7.143  0.6611 -1.5054 -1.0683
 4761SOL     OW25918   4.605   3.676   4.843 -1.0406  0.0772  0.2081
 4761SOL    HW125919   4.669   3.631   4.898 -2.1635 -0.6131  0.9501
 4761SOL    HW225920   4.663   3.732   4.792  0.6867 -0.9468  1.0256
 4762SOL     OW25921   2.541   1.100   3.235  0.4772  1.0152 -0.1593
 4762SOL    HW125922   2.496   1.183   3.244  0.9396  1.4229 -1.5016
 4762SOL    HW225923   2.597   1.108   3.312  3.0508 -0.0420 -1.9110
 4763SOL     OW25924   1.866   4.149   1.028  0.1607 -0.4161 -0.0257
 4763SOL    HW125925   1.903   4.064   1.048  0.2988 -0.2826  0.2950
 4763SOL    HW225926   1.863   4.145   0.932  1.2643 -0.3076 -0.0606
 4764SOL     OW25927   3.493   1.040   5.904  0.0793  0.7694 -0.2172
 4764SOL    HW125928   3.404   1.023   5.937  0.9074 -1.1394  1.0031
 4764SOL    HW225929   3.490   1.032   5.809  1.1344  2.3663 -0.3760
 4765SOL     OW25930   0.831   3.670   5.857  0.2690  0.1730 -0.2326
 4765SOL    HW125931   0.796   3.582   5.869 -0.3054  0.5550  0.8785
 4765SOL    HW225932   0.792   3.697   5.774 -3.1059 -1.0260  0.9425
 4766SOL     OW25933   1.548   1.184   6.113 -0.0232 -0.2266  0.0251
 4766SOL    HW125934   1.575   1.257   6.058 -2.7185 -0.2420 -1.3217
 4766SOL    HW225935   1.609   1.207   6.183 -1.1096  0.1240  0.8613
 4767SOL     OW25936   0.126   3.917   6.727 -0.4667 -0.1676  0.2920
 4767SOL    HW125937   0.072   3.989   6.698  0.7446  0.3571 -0.6470
 4767SOL    HW225938   0.055   3.852   6.726  0.7128 -1.4801  0.4761
 4768SOL     OW25939   4.115   1.231   5.909  0.2053  0.5744 -0.4866
 4768SOL    HW125940   4.108   1.183   5.991 -0.9170  0.8856 -0.3898
 4768SOL    HW225941   4.053   1.303   5.923 -1.0668 -0.4586 -0.8021
 4769SOL     OW25942   3.089   0.940  13.477  0.1317 -0.6194  0.4691
 4769SOL    HW125943   3.160   0.880  13.499  1.8995  1.7777  1.2927
 4769SOL    HW225944   3.061   0.902  13.393 -0.7063  0.3896  0.2946
 4770SOL     OW25945   1.886   1.616  14.110  0.2541 -0.1349  0.2811
 4770SOL    HW125946   1.934   1.694  14.137  2.0803 -0.9511 -0.5735
 4770SOL    HW225947   1.906   1.550  14.176  1.2006 -0.2635 -0.1299
 4771SOL     OW25948   2.028   0.803   1.906 -0.1011 -0.5984 -0.6716
 4771SOL    HW125949   2.012   0.728   1.962  0.2337 -0.4691 -0.4083
 4771SOL    HW225950   1.998   0.775   1.819 -2.9696 -1.4183  0.6072
 4772SOL     OW25951   4.519   2.873  12.281 -0.4652 -0.1993  0.3774
 4772SOL    HW125952   4.501   2.780  12.267  3.3429 -0.4282 -3.2651
 4772SOL    HW225953   4.439   2.906  12.321  0.8478  1.6137  1.5159
 4773SOL     OW25954   0.171   2.629   7.605 -0.0270 -0.3653 -0.4488
 4773SOL    HW125955   0.243   2.625   7.542 -1.0768 -0.5878 -1.6381
 4773SOL    HW225956   0.092   2.599   7.560 -1.1155 -0.8050  1.7549
 4774SOL     OW25957   0.266   0.599   5.437 -0.0271  0.0542  0.0096
 4774SOL    HW125958   0.309   0.514   5.453 -3.0126 -1.5616 -0.5807
 4774SOL    HW225959   0.190   0.610   5.493 -0.9041 -0.7954 -1.0151
 4775SOL     OW25960   0.634   2.188  15.280 -0.2241  0.1546  0.1619
 4775SOL    HW125961   0.645   2.097  15.254 -1.2504 -0.0296  0.3761
 4775SOL    HW225962   0.563   2.217  15.224 -0.7845  0.4387  1.0170
 4776SOL     OW25963   4.030   4.144   7.742 -0.6204 -0.8267 -0.4420
 4776SOL    HW125964   4.081   4.125   7.820 -0.5509  0.1529 -0.2507
 4776SOL    HW225965   4.033   4.055   7.708  1.9545 -0.6107 -0.7479
 4777SOL     OW25966   1.487   2.029   6.273  0.6415  0.1424 -0.1587
 4777SOL    HW125967   1.575   1.997   6.251  0.1760 -0.8340 -0.6473
 4777SOL    HW225968   1.446   2.049   6.189 -0.3180 -1.1872 -0.0031
 4778SOL     OW25969   1.120   0.912   5.652 -0.4394  0.1423 -0.1271
 4778SOL    HW125970   1.206   0.928   5.613 -0.5698 -0.0849 -0.5024
 4778SOL    HW225971   1.107   0.817   5.648 -3.2465  0.4970  0.5743
 4779SOL     OW25972   4.434   0.938   4.827 -0.1012  0.4715  0.1313
 4779SOL    HW125973   4.354   0.886   4.815  0.1147 -0.0512  0.9822
 4779SOL    HW225974   4.429   0.957   4.921  0.0787  1.3628 -0.0394
 4780SOL     OW25975   1.668   0.386   1.621 -0.6278  0.4963  0.2446
 4780SOL    HW125976   1.731   0.380   1.549 -0.5973  3.1628  0.0386
 4780SOL    HW225977   1.617   0.308   1.599  0.1497  0.0104  0.1977
 4781SOL     OW25978   4.090   4.164  15.427 -0.3983  0.0065  0.3240
 4781SOL    HW125979   4.097   4.253  15.460 -0.1382  0.0002  0.2868
 4781SOL    HW225980   4.016   4.182  15.370  1.3140  2.2191 -1.2255
 4782SOL     OW25981   0.552   0.863   3.608 -0.2899 -0.4814  0.5818
 4782SOL    HW125982   0.467   0.818   3.606 -0.0469 -0.9130 -0.0553
 4782SOL    HW225983   0.569   0.852   3.514  1.7694 -0.0137  0.9071
 4783SOL     OW25984   3.811   1.931   9.258  0.4226 -0.5557  0.0849
 4783SOL    HW125985   3.807   2.024   9.284  0.0659 -1.1614  2.2178
 4783SOL    HW225986   3.737   1.927   9.198 -2.2152 -0.3162  3.3729
 4784SOL     OW25987   1.697   1.755   7.355  0.0606 -0.0251 -0.0243
 4784SOL    HW125988   1.720   1.798   7.438 -3.6675  1.1096  0.4338
 4784SOL    HW225989   1.781   1.717   7.328 -0.1972 -1.5430  1.3093
 4785SOL     OW25990   4.486   1.616  10.562  0.0153  0.5416 -0.2241
 4785SOL    HW125991   4.436   1.559  10.504  2.2345 -0.6722 -0.9571
 4785SOL    HW225992   4.443   1.598  10.646 -0.8816 -0.8968 -1.0078
 4786SOL     OW25993   1.670   4.332  15.243  0.1337 -0.1129  0.2588
 4786SOL    HW125994   1.723   4.256  15.220 -0.4910 -0.9774  1.6816
 4786SOL    HW225995   1.609   4.302  15.310  0.4863 -0.4255  0.4317
 4787SOL     OW25996   0.524   1.657   5.552  0.2507  0.0533  0.2939
 4787SOL    HW125997   0.589   1.611   5.604  1.3041  0.4890 -0.6320
 4787SOL    HW225998   0.517   1.731   5.613 -1.4849  1.6581 -1.8224
 4788SOL     OW25999   0.324   3.331  12.250 -0.3438 -0.3766 -0.5424
 4788SOL    HW126000   0.306   3.256  12.193 -3.3968 -0.0507  0.0027
 4788SOL    HW226001   0.413   3.311  12.280 -0.1906  2.4145  0.8560
 4789SOL     OW26002   3.301   4.061   4.668  0.3907 -0.4246 -0.2397
 4789SOL    HW126003   3.301   4.157   4.676 -0.0423 -0.5322  1.0728
 4789SOL    HW226004   3.381   4.052   4.617  1.1821 -0.9758  1.1018
 4790SOL     OW26005   0.716   1.189   2.743 -0.1647  0.0595  0.5229
 4790SOL    HW126006   0.635   1.173   2.790 -0.4046 -1.9342 -0.5760
 4790SOL    HW226007   0.708   1.128   2.669 -2.5107  0.2486  0.6254
 4791SOL     OW26008   3.197   0.758   3.254  0.3079 -0.7393 -0.1075
 4791SOL    HW126009   3.109   0.721   3.261  0.4661 -1.5291 -2.1847
 4791SOL    HW226010   3.219   0.729   3.165 -0.2471 -2.5705  0.3599
 4792SOL     OW26011   3.148   2.499   5.068  0.6210 -0.2113 -0.1203
 4792SOL    HW126012   3.077   2.441   5.097 -0.6825  0.6332 -1.6055
 4792SOL    HW226013   3.210   2.433   5.036  0.0704  0.4029 -2.4732
 4793SOL     OW26014   3.213   2.032  16.643  0.5396 -0.2236 -0.1695
 4793SOL    HW126015   3.302   2.021  16.678  1.4177  1.8472 -1.7862
 4793SOL    HW226016   3.175   2.095  16.704 -1.1316 -0.1637 -1.2805
 4794SOL     OW26017   0.636   2.275   7.099  0.1018  0.8419  0.5235
 4794SOL    HW126018   0.674   2.269   7.011 -2.9951  1.7438 -0.8851
 4794SOL    HW226019   0.711   2.237   7.145  0.7617  2.3022  0.6363
 4795SOL     OW26020   4.147   2.149   6.139  0.3742  0.1113 -0.8355
 4795SOL    HW126021   4.163   2.220   6.201  0.4046 -0.0289 -0.6826
 4795SOL    HW226022   4.124   2.074   6.193  3.9513  0.6028  1.3391
 4796SOL     OW26023   0.158   3.442   0.852  0.2916  0.2971 -1.0181
 4796SOL    HW126024   0.233   3.399   0.894 -0.6034 -0.6237 -0.3897
 4796SOL    HW226025   0.096   3.425   0.922  1.1676  2.3794  0.2834
 4797SOL     OW26026   2.549   0.388   6.748 -0.4035 -0.1891  0.0754
 4797SOL    HW126027   2.561   0.305   6.794  0.0087  1.2984  2.6297
 4797SOL    HW226028   2.622   0.388   6.686 -0.1851  1.7663  0.3345
 4798SOL     OW26029   1.806   4.555  11.877  0.3527  0.0960  0.0467
 4798SOL    HW126030   1.748   4.526  11.947 -0.9844 -1.3233 -1.6418
 4798SOL    HW226031   1.755   4.531  11.800 -3.5432  0.3752  2.5761
 4799SOL     OW26032   0.540   0.795  16.390  0.4800  0.0941  0.5228
 4799SOL    HW126033   0.607   0.792  16.321  0.1368 -1.4126  0.2759
 4799SOL    HW226034   0.497   0.713  16.369  0.8176 -0.5456  2.2834
 4800SOL     OW26035   3.517   0.311   7.137  0.3406 -0.3927 -0.3597
 4800SOL    HW126036   3.490   0.380   7.077 -1.5541 -1.7763 -1.0879
 4800SOL    HW226037   3.535   0.232   7.086  1.6047  1.1855 -2.3593
 4801SOL     OW26038   3.428   0.504   6.933 -0.0772  0.3103  0.0082
 4801SOL    HW126039   3.405   0.596   6.947  4.2982  1.1120  1.6920
 4801SOL    HW226040   3.343   0.479   6.895 -0.2143  1.2892 -0.3163
 4802SOL     OW26041   3.399   1.945  12.427 -0.2470  0.1502  0.4284
 4802SOL    HW126042   3.457   1.882  12.384 -0.6403 -0.9905  1.5631
 4802SOL    HW226043   3.434   1.947  12.517  2.2813 -1.0412 -0.5407
 4803SOL     OW26044   2.381   2.460  14.234 -0.1201 -0.1023 -0.1967
 4803SOL    HW126045   2.332   2.539  14.256  2.9056  1.8425 -0.5718
 4803SOL    HW226046   2.316   2.406  14.189 -0.4115  0.1694 -0.0990
 4804SOL     OW26047   2.461   0.882   4.887 -0.2965 -0.6245  0.1999
 4804SOL    HW126048   2.526   0.864   4.819  0.0304 -2.2142  0.9474
 4804SOL    HW226049   2.461   0.976   4.869 -0.6733 -0.8936 -1.2116
 4805SOL     OW26050   1.155   1.879   6.651  0.0820 -0.2865  0.2127
 4805SOL    HW126051   1.195   1.810   6.598 -2.0458  0.1921 -1.9763
 4805SOL    HW226052   1.095   1.917   6.587 -0.4574 -1.4615  0.0241
 4806SOL     OW26053   4.077   0.880  11.494 -0.1563  0.6262 -0.1733
 4806SOL    HW126054   4.171   0.885  11.481  0.3143  0.4505  3.1976
 4806SOL    HW226055   4.055   0.803  11.442  3.7428 -0.9879  0.6157
 4807SOL     OW26056   4.719   2.290   2.049 -0.6821 -0.1693 -0.5388
 4807SOL    HW126057   4.681   2.276   1.961 -0.4416  2.7444 -1.1094
 4807SOL    HW226058   0.077   2.290   2.027 -0.6735 -0.8216 -0.5004
 4808SOL     OW26059   1.249   0.648   3.928 -0.3211 -0.0740  0.1949
 4808SOL    HW126060   1.170   0.655   3.981 -1.2700  0.8347 -1.3411
 4808SOL    HW226061   1.265   0.740   3.906 -1.3440  0.5281  1.9867
 4809SOL     OW26062   0.715   1.715   2.882  0.3116 -0.4084  0.5472
 4809SOL    HW126063   0.720   1.712   2.978 -0.5091  0.2075  0.6076
 4809SOL    HW226064   0.793   1.665   2.861  1.2311 -0.2494  3.6168
 4810SOL     OW26065   0.023   4.383   5.171  0.0880  0.2719 -0.2962
 4810SOL    HW126066   0.088   4.444   5.134  0.7628 -0.2646  0.0139
 4810SOL    HW226067   0.080   4.329   5.225 -0.1241 -0.0380 -0.3871
 4811SOL     OW26068   0.345   1.974   5.270 -0.1374 -0.2083 -0.2522
 4811SOL    HW126069   0.300   1.932   5.344 -0.1235 -0.0102 -0.1310
 4811SOL    HW226070   0.302   1.925   5.200  0.6689 -0.3333 -0.6573
 4812SOL     OW26071   1.548   1.211   4.298 -0.0149 -0.0974  0.2755
 4812SOL    HW126072   1.525   1.240   4.387 -0.6496  0.0879  0.0541
 4812SOL    HW226073   1.572   1.121   4.319 -0.2805 -0.4753 -1.0454
 4813SOL     OW26074   2.563   2.980   1.444  0.3322 -0.1136  0.0969
 4813SOL    HW126075   2.653   2.951   1.463  0.9566 -0.6062 -3.7071
 4813SOL    HW226076   2.553   2.935   1.360 -0.6015 -0.9097  0.6347
 4814SOL     OW26077   3.935   2.653   6.110  0.3327 -0.0449 -0.3040
 4814SOL    HW126078   3.943   2.604   6.192  0.7066 -0.4246 -0.5643
 4814SOL    HW226079   3.909   2.739   6.141  0.3470 -0.4252  0.7725
 4815SOL     OW26080   3.520   2.864  16.395  0.1565  0.7265  0.2102
 4815SOL    HW126081   3.600   2.837  16.351  0.5811 -1.3345  2.2372
 4815SOL    HW226082   3.481   2.911  16.321  0.8092  0.8257 -0.0657
 4816SOL     OW26083   1.935   3.635   7.702  0.1332  0.3144  0.6118
 4816SOL    HW126084   1.954   3.636   7.796 -0.0566 -1.0816  0.6651
 4816SOL    HW226085   1.964   3.547   7.675 -2.0792  0.0442 -0.8499
 4817SOL     OW26086   2.497   3.535  13.127  0.0423 -0.3793 -0.1106
 4817SOL    HW126087   2.546   3.509  13.049 -1.6402 -0.9175 -0.9889
 4817SOL    HW226088   2.435   3.597  13.088 -1.6638 -2.2004 -0.3067
 4818SOL     OW26089   3.482   2.490   7.097  0.0920  0.1151 -0.1876
 4818SOL    HW126090   3.498   2.451   7.182 -0.6144 -0.5951 -0.3793
 4818SOL    HW226091   3.475   2.410   7.046 -0.6528  1.4857 -2.2541
 4819SOL     OW26092   3.066   0.688  13.683 -0.1431  0.2477  0.4701
 4819SOL    HW126093   3.095   0.605  13.720 -0.2674  0.2337  0.5367
 4819SOL    HW226094   3.092   0.678  13.592  0.6048  1.2382  0.5701
 4820SOL     OW26095   4.159   1.895  15.958 -0.2401 -0.1088  0.2280
 4820SOL    HW126096   4.210   1.884  15.878 -0.3693 -0.7162  0.2318
 4820SOL    HW226097   4.136   1.988  15.952  1.0372  0.1805 -0.1295
 4821SOL     OW26098   0.005   0.618   2.914  0.3526  0.3448 -0.4214
 4821SOL    HW126099   4.726   0.648   3.003  2.2495  0.2574 -0.0837
 4821SOL    HW226100   0.054   0.678   2.859  0.6849 -0.7255 -1.2940
 4822SOL     OW26101   3.699   0.092   4.500 -0.0712  0.1588  0.2730
 4822SOL    HW126102   3.772   0.150   4.478 -1.1749  0.1904 -3.2835
 4822SOL    HW226103   3.654   0.147   4.565 -0.4271  0.8116 -0.5351
 4823SOL     OW26104   4.385   3.787  15.005  0.2320  0.1399  0.0546
 4823SOL    HW126105   4.467   3.830  15.029  0.3620 -1.9542  3.3839
 4823SOL    HW226106   4.377   3.792  14.910 -0.6941  1.0478  0.1828
 4824SOL     OW26107   0.047   2.555   3.545  0.2622 -0.0241 -0.4574
 4824SOL    HW126108   0.034   2.504   3.624 -0.4061  1.1449  0.1812
 4824SOL    HW226109   0.110   2.497   3.502  2.5592  2.1438 -0.0087
 4825SOL     OW26110   2.198   4.296   1.021  0.2985  0.6830  0.9017
 4825SOL    HW126111   2.116   4.256   0.994  0.6305  0.6134  0.0117
 4825SOL    HW226112   2.208   4.247   1.103  1.1198 -0.4770  0.1003
 4826SOL     OW26113   0.796   4.648  16.240  0.2494  0.5416  0.2280
 4826SOL    HW126114   0.803   4.586  16.312  0.2459  0.4514  0.1502
 4826SOL    HW226115   0.706   4.632  16.212  0.1120 -2.0041  2.0550
 4827SOL     OW26116   4.662   3.863   8.543  0.5950  0.1474  0.0333
 4827SOL    HW126117   4.612   3.827   8.617  0.9307 -3.5542 -1.5367
 4827SOL    HW226118   4.720   3.921   8.592  2.2190 -2.5157  1.2833
 4828SOL     OW26119   1.040   4.158   5.808 -0.0398 -0.0466  0.4510
 4828SOL    HW126120   1.129   4.181   5.835 -0.6628  2.5998  0.2766
 4828SOL    HW226121   0.995   4.242   5.820  0.8565  0.5357 -0.2528
 4829SOL     OW26122   0.575   1.664   6.427 -0.5024  0.3648  0.3779
 4829SOL    HW126123   0.597   1.575   6.401 -0.8239  0.1195  0.9406
 4829SOL    HW226124   0.641   1.717   6.381  0.5171 -0.0690  1.3513
 4830SOL     OW26125   2.630   1.327   6.154 -0.5680  0.2160 -0.4487
 4830SOL    HW126126   2.547   1.310   6.108 -0.0243  2.2945 -2.1877
 4830SOL    HW226127   2.651   1.236   6.177 -0.4024 -0.4749 -3.2475
 4831SOL     OW26128   4.358   1.156   9.661  0.5668  0.3083  0.1148
 4831SOL    HW126129   4.263   1.151   9.665  0.4681  0.5089 -2.3598
 4831SOL    HW226130   4.375   1.221   9.593 -0.4642  0.8554  0.3815
 4832SOL     OW26131   2.770   2.157   8.355 -0.3104  0.0650 -0.4988
 4832SOL    HW126132   2.851   2.131   8.310  0.3597 -0.1653  0.8414
 4832SOL    HW226133   2.797   2.192   8.440  1.4393 -1.3685 -0.4558
 4833SOL     OW26134   3.616   3.022   3.253  0.1797 -0.3393  0.4939
 4833SOL    HW126135   3.667   3.069   3.320  0.0578  0.9638 -0.3246
 4833SOL    HW226136   3.608   3.101   3.200 -0.8562 -1.6368 -1.2824
 4834SOL     OW26137   2.417   3.497   4.827  0.0486  0.2059  0.4274
 4834SOL    HW126138   2.459   3.565   4.880  1.1560 -1.9242  2.3312
 4834SOL    HW226139   2.330   3.519   4.860 -0.3016  0.1918 -0.4932
 4835SOL     OW26140   2.377   0.870   0.142 -0.1104  0.9533  0.4214
 4835SOL    HW126141   2.457   0.922   0.150 -0.5548  1.2620  2.7509
 4835SOL    HW226142   2.348   0.877   0.233 -0.7081  1.2026  0.2132
 4836SOL     OW26143   0.394   3.763  12.189 -0.2214  0.6498 -0.2393
 4836SOL    HW126144   0.338   3.730  12.259  0.2519  0.8612  0.2357
 4836SOL    HW226145   0.480   3.722  12.194 -1.4464 -1.5100  2.4529
 4837SOL     OW26146   3.658   4.138   4.951  0.2304 -0.2747 -0.1923
 4837SOL    HW126147   3.634   4.052   4.918  2.9943 -1.1638  0.0839
 4837SOL    HW226148   3.670   4.124   5.045  1.4441  1.8505 -0.0377
 4838SOL     OW26149   1.926   0.029   3.877 -0.4326  0.0296 -0.6437
 4838SOL    HW126150   1.930   0.082   3.797  0.6747 -0.3979 -0.8758
 4838SOL    HW226151   1.861   4.696   3.864 -0.3297  0.6656 -4.4853
 4839SOL     OW26152   0.175   3.796   3.048 -0.4718  0.6859  0.5104
 4839SOL    HW126153   0.253   3.847   3.023 -0.1103 -0.7407 -1.2895
 4839SOL    HW226154   0.198   3.711   3.009  2.9983  0.5287  2.8751
 4840SOL     OW26155   0.244   0.610   7.645  0.5858  0.4759 -0.1154
 4840SOL    HW126156   0.264   0.621   7.738  0.4942 -1.1169  0.1035
 4840SOL    HW226157   0.159   0.567   7.642 -0.1159  1.8564  0.0242
 4841SOL     OW26158   3.128   4.186  10.118 -0.3576  0.2889 -0.1342
 4841SOL    HW126159   3.102   4.274  10.090 -0.0640  0.1828 -0.7468
 4841SOL    HW226160   3.104   4.174  10.210  2.2151 -0.5207  0.4284
 4842SOL     OW26161   1.785   2.783  12.159  0.6378  0.0419  0.5984
 4842SOL    HW126162   1.733   2.858  12.189  2.2756  0.5829  2.0997
 4842SOL    HW226163   1.719   2.724  12.123 -1.9659  1.1170  3.6106
 4843SOL     OW26164   4.177   4.548   6.537  0.7305 -0.5826 -0.2438
 4843SOL    HW126165   4.182   4.495   6.458  1.3136  0.1883 -0.7287
 4843SOL    HW226166   4.097   4.599   6.521  0.7943  0.7423  3.7033
 4844SOL     OW26167   0.930   0.146  16.176 -0.4917 -0.1203 -0.2585
 4844SOL    HW126168   0.918   0.176  16.267 -1.1059  1.1302 -0.7467
 4844SOL    HW226169   0.884   0.062  16.179 -1.2952  0.3073 -0.7115
 4845SOL     OW26170   2.116   2.230   3.192  0.9994 -0.0930  0.2577
 4845SOL    HW126171   2.131   2.141   3.223  1.1606 -0.4504 -0.8479
 4845SOL    HW226172   2.148   2.222   3.102  0.3932 -0.6443  0.0960
 4846SOL     OW26173   2.907   2.639   1.568 -0.0368  0.0530  0.4322
 4846SOL    HW126174   2.951   2.716   1.604 -0.2716  1.0738 -1.4983
 4846SOL    HW226175   2.835   2.623   1.629 -1.8147 -0.5974 -1.8310
 4847SOL     OW26176   2.913   1.776   8.816 -0.2083  0.0058  0.2610
 4847SOL    HW126177   2.991   1.757   8.763 -0.4263 -0.1780  0.0096
 4847SOL    HW226178   2.876   1.846   8.763 -2.3320 -1.2898  0.0091
 4848SOL     OW26179   0.070   2.587   1.355  0.3872  0.4727 -0.0266
 4848SOL    HW126180   0.151   2.558   1.312  1.6150  1.9199  1.3260
 4848SOL    HW226181   0.093   2.568   1.446 -0.0765 -1.5702 -0.3345
 4849SOL     OW26182   2.785   3.948   3.678 -0.4021  0.3143 -0.3791
 4849SOL    HW126183   2.819   3.902   3.755 -0.5760 -0.2232 -0.6293
 4849SOL    HW226184   2.851   4.018   3.674  2.0105 -1.6989  3.5615
 4850SOL     OW26185   1.493   3.389   0.241  0.2778 -0.3556 -0.1357
 4850SOL    HW126186   1.443   3.327   0.295  0.0788 -0.0185  0.0646
 4850SOL    HW226187   1.462   3.363   0.154  1.2457  1.2753 -0.9496
 4851SOL     OW26188   4.354   3.893   6.235  0.3786 -0.2047 -0.4555
 4851SOL    HW126189   4.281   3.850   6.188  1.0297 -1.6059 -0.1908
 4851SOL    HW226190   4.309   3.956   6.291  0.2924 -2.3813  1.9209
 4852SOL     OW26191   0.677   1.273  15.818  0.1066  0.3278  0.6326
 4852SOL    HW126192   0.761   1.269  15.773  0.0001 -2.8131  0.6640
 4852SOL    HW226193   0.679   1.361  15.855  4.3372  0.5968 -0.2417
 4853SOL     OW26194   1.339   1.930   0.026  0.2409 -0.1424  0.1994
 4853SOL    HW126195   1.290   1.867   0.079  0.9926 -0.8254  0.0703
 4853SOL    HW226196   1.317   2.009   0.076  3.9210  0.4949  0.7908
 4854SOL     OW26197   3.574   3.239  14.131 -0.6271 -0.3040 -0.5584
 4854SOL    HW126198   3.666   3.264  14.134 -0.4731 -0.5530 -3.9512
 4854SOL    HW226199   3.564   3.144  14.140  1.4218 -0.6506 -1.9826
 4855SOL     OW26200   2.612   2.836   2.538 -0.3162 -0.0713 -1.0545
 4855SOL    HW126201   2.676   2.770   2.512 -1.2007 -1.2628 -0.2261
 4855SOL    HW226202   2.581   2.863   2.451 -1.0027  2.8757  0.1183
 4856SOL     OW26203   0.104   1.544  10.772  0.4593  0.5180 -0.1679
 4856SOL    HW126204   0.086   1.520  10.863  2.3254  0.3399  0.1547
 4856SOL    HW226205   0.057   1.473  10.728 -1.1501  0.6334  1.3586
 4857SOL     OW26206   0.518   1.758   4.624  0.0396  0.3566  0.3306
 4857SOL    HW126207   0.573   1.736   4.548 -0.1997  2.3245 -0.4200
 4857SOL    HW226208   0.587   1.772   4.688  0.1194 -1.0618  0.5560
 4858SOL     OW26209   0.566   4.593   9.507  0.2158  0.0190 -0.1464
 4858SOL    HW126210   0.528   4.548   9.582 -2.4326  0.6731 -1.0547
 4858SOL    HW226211   0.641   4.537   9.489  0.1537 -0.0570 -0.1654
 4859SOL     OW26212   4.468   2.065   1.907 -0.5557  0.0968  0.2585
 4859SOL    HW126213   4.555   2.028   1.889 -0.8284  1.6214 -4.0397
 4859SOL    HW226214   4.424   1.985   1.936 -1.9855  0.6973 -0.2734
 4860SOL     OW26215   4.475   3.797   9.595 -0.8571 -0.4449 -0.2896
 4860SOL    HW126216   4.403   3.841   9.640  1.1362  0.5648  1.9535
 4860SOL    HW226217   4.433   3.720   9.557  1.8598 -2.6600  1.1595
 4861SOL     OW26218   4.304   0.205   5.451 -0.2018 -0.2794  0.9806
 4861SOL    HW126219   4.302   0.180   5.543 -1.1061  1.6161  1.4611
 4861SOL    HW226220   4.275   0.123   5.410  0.7041 -1.1920  2.1867
 4862SOL     OW26221   0.810   1.750   2.236  0.3477 -0.1921 -0.2709
 4862SOL    HW126222   0.839   1.732   2.325 -1.1865  0.2772  0.3168
 4862SOL    HW226223   0.886   1.787   2.190  1.2764 -0.7302  0.8502
 4863SOL     OW26224   0.169   3.601  15.427 -0.2639 -0.3085 -0.2350
 4863SOL    HW126225   0.106   3.614  15.498  1.4126 -0.5842  1.2842
 4863SOL    HW226226   0.250   3.581  15.474  1.0707  1.1913 -1.9272
 4864SOL     OW26227   0.821   2.257   0.678  0.8122  0.0053 -0.2902
 4864SOL    HW126228   0.854   2.249   0.767 -0.0557  2.1186  0.2246
 4864SOL    HW226229   0.768   2.336   0.674 -0.8537 -1.0166  1.2894
 4865SOL     OW26230   3.939   2.211   6.360 -0.3607 -0.7792 -0.3982
 4865SOL    HW126231   3.885   2.192   6.437  1.6552  1.0653  1.4617
 4865SOL    HW226232   3.959   2.120   6.336 -1.7117 -0.8495 -1.2565
 4866SOL     OW26233   3.885   3.851   1.472 -0.0647  0.2015  0.2670
 4866SOL    HW126234   3.840   3.769   1.451 -1.0526  0.5994  0.8672
 4866SOL    HW226235   3.816   3.914   1.456  1.2312  1.8861  1.3464
 4867SOL     OW26236   3.946   0.211   2.816 -0.1118  0.2704  0.0712
 4867SOL    HW126237   3.884   0.262   2.868  0.7503  1.7491 -0.3736
 4867SOL    HW226238   4.017   0.180   2.872 -1.8290 -2.5038  0.7068
 4868SOL     OW26239   3.265   0.726   2.664  0.7100 -0.1868  0.4209
 4868SOL    HW126240   3.184   0.764   2.633 -0.1393 -2.8729 -0.6266
 4868SOL    HW226241   3.304   0.801   2.710  2.1722 -0.5652 -0.1779
 4869SOL     OW26242   0.317   2.105   6.743 -0.0984 -0.3511  0.0895
 4869SOL    HW126243   0.396   2.140   6.786 -0.1489  0.1303 -0.2052
 4869SOL    HW226244   0.324   2.144   6.656  0.5490 -0.4964  0.0752
 4870SOL     OW26245   3.548   1.092   7.052  0.0308  0.3036  0.6898
 4870SOL    HW126246   3.462   1.126   7.028  0.3412  0.7061  0.1649
 4870SOL    HW226247   3.541   1.065   7.144  0.2274  1.2024  0.9602
 4871SOL     OW26248   2.191   3.689   5.786  0.1295 -0.0015  0.0274
 4871SOL    HW126249   2.147   3.653   5.863  0.5209  1.0110  0.7198
 4871SOL    HW226250   2.116   3.734   5.747  1.3784  2.4019  0.4105
 4872SOL     OW26251   3.067   4.697   9.022 -0.4920 -0.4030 -0.1821
 4872SOL    HW126252   3.007   4.623   9.015 -1.7814  0.4485  1.8486
 4872SOL    HW226253   3.024   0.026   8.966 -2.5516 -0.3319  1.5120
 4873SOL     OW26254   2.368   0.694  17.261 -0.3141 -0.2902 -0.1173
 4873SOL    HW126255   2.345   0.777  17.218 -0.0196 -0.6635 -0.9836
 4873SOL    HW226256   2.346   0.712  17.353  1.3091 -1.4991  0.4928
 4874SOL     OW26257   1.403   4.425   1.669  0.4962 -0.1872  0.0089
 4874SOL    HW126258   1.479   4.435   1.611  0.9737 -2.0426  0.2953
 4874SOL    HW226259   1.333   4.393   1.612 -0.7412  1.2969  0.7191
 4875SOL     OW26260   0.733   2.345   3.580 -0.1621  0.1307  0.2467
 4875SOL    HW126261   0.689   2.265   3.609 -1.5151  0.2263 -1.5307
 4875SOL    HW226262   0.822   2.335   3.613 -0.3314 -0.9025  0.3805
 4876SOL     OW26263   2.771   2.535   2.398 -0.3185  0.0572  0.3675
 4876SOL    HW126264   2.837   2.588   2.353 -0.2974  0.9038  1.3901
 4876SOL    HW226265   2.812   2.524   2.484 -2.6575  0.4195  1.5109
 4877SOL     OW26266   2.789   1.017  12.155  0.2224  0.4291  0.1949
 4877SOL    HW126267   2.852   0.946  12.161 -0.5638 -0.4324 -1.5976
 4877SOL    HW226268   2.749   1.003  12.069 -0.3127  1.0759  0.3326
 4878SOL     OW26269   4.139   1.441  13.277  0.1007 -0.1994  0.2962
 4878SOL    HW126270   4.048   1.458  13.301 -0.0154  1.1631 -1.1321
 4878SOL    HW226271   4.192   1.477  13.349  0.9104 -2.3132  0.7369
 4879SOL     OW26272   4.544   3.056   1.801  0.1818 -0.7245  1.1322
 4879SOL    HW126273   4.577   3.141   1.774  0.2029 -1.0462  0.1516
 4879SOL    HW226274   4.620   3.000   1.817  1.9874  1.3932 -0.0995
 4880SOL     OW26275   3.911   1.392  16.857  0.0674 -0.1470  0.1196
 4880SOL    HW126276   3.988   1.334  16.862  2.0049  2.3458 -0.9865
 4880SOL    HW226277   3.900   1.392  16.762  2.1388 -0.5876 -0.1220
 4881SOL     OW26278   2.674   0.452   3.173  0.3266 -0.0132 -0.2987
 4881SOL    HW126279   2.719   0.380   3.217  0.2782 -0.6316 -1.2539
 4881SOL    HW226280   2.593   0.447   3.222 -1.4132 -1.4358 -3.3118
 4882SOL     OW26281   3.587   0.497  11.173  0.2745 -0.6583  0.0082
 4882SOL    HW126282   3.580   0.466  11.083  0.1074 -3.3918  0.9716
 4882SOL    HW226283   3.534   0.428  11.212 -0.2731  0.2084  0.7944
 4883SOL     OW26284   3.552   2.208  14.275  0.2607 -0.7577  0.0726
 4883SOL    HW126285   3.485   2.261  14.232 -1.0145 -2.2202  0.2732
 4883SOL    HW226286   3.621   2.229  14.211 -0.7631 -0.0696 -0.8071
 4884SOL     OW26287   2.216   0.647   0.038 -0.2705  0.2819 -0.2291
 4884SOL    HW126288   2.180   0.701  17.709  1.4678  2.1976  0.3582
 4884SOL    HW226289   2.264   0.714   0.087 -1.7868  0.3355  1.1728
 4885SOL     OW26290   2.300   2.358   5.653 -0.2959 -0.3032 -0.1008
 4885SOL    HW126291   2.214   2.338   5.615 -0.1209 -0.3972 -0.4424
 4885SOL    HW226292   2.295   2.311   5.737  0.1159 -1.3312 -0.6553
 4886SOL     OW26293   2.938   2.562  17.696  0.0324 -0.1169  0.1566
 4886SOL    HW126294   2.870   2.540  17.632 -0.3851  0.0896  0.5316
 4886SOL    HW226295   2.923   2.645  17.740 -1.9391 -0.8557  0.8971
 4887SOL     OW26296   2.217   4.509   1.313 -0.5101  0.1184  0.0336
 4887SOL    HW126297   2.299   4.468   1.340 -0.2480  1.4023  1.2060
 4887SOL    HW226298   2.157   4.435   1.316  0.4864 -0.7393 -1.3210
 4888SOL     OW26299   3.404   1.288   0.872 -0.4249  0.0306  0.3462
 4888SOL    HW126300   3.427   1.197   0.891 -0.2735 -0.3658 -1.7715
 4888SOL    HW226301   3.340   1.294   0.943 -0.7485  0.1548  0.0384
 4889SOL     OW26302   3.152   3.094   5.933  0.5352  0.1958  0.0594
 4889SOL    HW126303   3.149   3.089   6.029 -2.1255 -1.3840 -0.1265
 4889SOL    HW226304   3.066   3.131   5.915 -0.1671 -1.6005 -0.2040
 4890SOL     OW26305   2.065   0.100   9.478 -0.1750  0.0707 -0.2150
 4890SOL    HW126306   2.089   0.173   9.535  1.7064  0.0175 -0.9642
 4890SOL    HW226307   2.000   0.134   9.417 -1.2688  0.5669  1.2207
 4891SOL     OW26308   3.558   0.552   4.526  0.4708 -0.5397  0.5232
 4891SOL    HW126309   3.562   0.500   4.447  1.5695  0.7360 -0.2725
 4891SOL    HW226310   3.524   0.488   4.589  0.3481 -1.3542 -0.3815
 4892SOL     OW26311   1.078   1.076  16.789  0.1981  0.2539  0.1737
 4892SOL    HW126312   1.164   1.039  16.809  0.3603 -0.1692 -1.3056
 4892SOL    HW226313   1.019   1.002  16.776  0.3923 -0.0640  1.0864
 4893SOL     OW26314   0.741   2.654   4.431 -0.5433  0.8043 -0.1117
 4893SOL    HW126315   0.831   2.661   4.400 -0.7439 -0.7617 -1.0904
 4893SOL    HW226316   0.697   2.629   4.349  1.7594  0.8305 -1.3592
 4894SOL     OW26317   2.001   4.603  11.679  0.1599 -0.5535 -0.4195
 4894SOL    HW126318   1.951   4.571  11.754 -0.8783 -0.8125 -1.2221
 4894SOL    HW226319   1.942   4.667  11.639  2.0191  1.0899 -0.5389
 4895SOL     OW26320   3.837   4.136  15.643  0.4790  0.1063 -0.4477
 4895SOL    HW126321   3.756   4.157  15.596  1.3251 -0.3484 -2.0972
 4895SOL    HW226322   3.893   4.213  15.634 -0.7218  0.9977 -0.2323
 4896SOL     OW26323   1.866   0.179   8.001 -0.0707  0.5011  0.4374
 4896SOL    HW126324   1.909   0.176   7.916 -1.8138  0.8455 -0.4467
 4896SOL    HW226325   1.950   0.170   8.046  0.0394  2.4404  0.5890
 4897SOL     OW26326   0.162   3.280   6.126  1.0271  0.0543  0.6603
 4897SOL    HW126327   0.137   3.335   6.051 -0.7811 -0.0116  1.2190
 4897SOL    HW226328   0.254   3.305   6.133  0.7109  1.9473 -1.7077
 4898SOL     OW26329   1.306   0.091   2.580  0.1113  0.1150  0.1886
 4898SOL    HW126330   1.394   0.082   2.615  0.6810 -3.2274 -2.1835
 4898SOL    HW226331   1.304   0.181   2.548  1.1234  0.2335  0.4789
 4899SOL     OW26332   0.145   4.077   5.157  0.0060  0.3518 -0.4303
 4899SOL    HW126333   0.240   4.074   5.169 -0.0501 -0.9960 -0.3383
 4899SOL    HW226334   0.122   4.074   5.250 -1.4669  3.0644 -0.6903
 4900SOL     OW26335   3.314   4.588   0.234  0.1062 -0.0354  0.3404
 4900SOL    HW126336   3.369   4.666   0.241  0.0183 -0.0105  0.7533
 4900SOL    HW226337   3.382   4.522   0.220  0.5147  0.2012  1.1947
 4901SOL     OW26338   4.013   0.925   6.065 -0.0955  0.6889 -0.5321
 4901SOL    HW126339   3.921   0.925   6.039 -0.6151 -2.7430  1.2581
 4901SOL    HW226340   4.056   0.873   5.998  1.5421 -1.6718  2.3304
 4902SOL     OW26341   3.683   0.596   1.997 -0.9672  0.3283 -0.0894
 4902SOL    HW126342   3.694   0.509   2.038  1.9595  0.2527 -1.0485
 4902SOL    HW226343   3.720   0.659   2.059 -1.1098 -0.3940  0.7470
 4903SOL     OW26344   2.724   1.127   4.650  0.4848 -0.0272 -0.6244
 4903SOL    HW126345   2.647   1.070   4.659 -0.6143  1.5948  0.0638
 4903SOL    HW226346   2.740   1.144   4.742 -2.7401 -0.3627 -0.0246
 4904SOL     OW26347   4.356   2.671   5.132 -0.0624 -0.2003 -0.0894
 4904SOL    HW126348   4.428   2.719   5.173 -1.8295  1.9013  0.5329
 4904SOL    HW226349   4.402   2.622   5.063 -1.9299  0.0977 -1.5597
 4905SOL     OW26350   0.152   1.626   4.285 -0.2600  0.2272  0.1089
 4905SOL    HW126351   0.084   1.676   4.330 -1.7635  0.0291 -1.9874
 4905SOL    HW226352   0.099   1.559   4.242  0.8835 -1.5799  1.4928
 4906SOL     OW26353   4.664   4.103   4.552 -0.0425  0.0478  0.4338
 4906SOL    HW126354   4.644   4.075   4.462 -3.0580  1.0520  0.8018
 4906SOL    HW226355   0.020   4.133   4.544  0.3835 -1.7476 -1.6771
 4907SOL     OW26356   0.806   2.245  12.388  0.2187  0.0750 -0.4803
 4907SOL    HW126357   0.776   2.185  12.457  1.0582  1.2017  0.8382
 4907SOL    HW226358   0.747   2.320  12.382 -1.7243 -1.3767  0.2837
 4908SOL     OW26359   4.513   3.743   2.273 -0.0162 -0.1761  0.0562
 4908SOL    HW126360   4.448   3.703   2.215  1.0806 -0.2717 -1.1153
 4908SOL    HW226361   4.532   3.824   2.226 -0.3712 -0.7981 -1.1501
 4909SOL     OW26362   3.951   1.366  14.326 -0.5650  0.5502  0.3184
 4909SOL    HW126363   3.958   1.353  14.420  0.4716 -0.0348  0.1705
 4909SOL    HW226364   3.978   1.456  14.308 -1.0863  0.7138  0.3643
 4910SOL     OW26365   3.101   2.484   1.688  0.2643  0.2845 -0.2817
 4910SOL    HW126366   3.020   2.498   1.638  0.0552 -0.6376 -0.2065
 4910SOL    HW226367   3.118   2.578   1.695 -1.1341  0.4694  0.6416
 4911SOL     OW26368   1.275   1.584   2.707 -0.0300  0.1056  0.3309
 4911SOL    HW126369   1.240   1.617   2.624 -1.4291  0.5868  1.1113
 4911SOL    HW226370   1.292   1.671   2.742  2.0340  1.5949 -4.3163
 4912SOL     OW26371   3.576   0.876  15.331  0.4173  0.2765  0.2135
 4912SOL    HW126372   3.556   0.924  15.250  3.1287  0.5210 -0.2936
 4912SOL    HW226373   3.544   0.793  15.295  0.6026  0.7602 -1.0836
 4913SOL     OW26374   3.175   4.531   4.587  0.0202  0.4548 -0.4037
 4913SOL    HW126375   3.084   4.558   4.603 -0.3073 -0.9021  0.0213
 4913SOL    HW226376   3.198   4.491   4.671 -1.1418 -1.1305 -0.8239
 4914SOL     OW26377   2.670   2.646   8.262 -0.2374 -0.6232 -0.0066
 4914SOL    HW126378   2.759   2.611   8.268  0.2611  1.0342  2.2746
 4914SOL    HW226379   2.660   2.657   8.357 -2.6102  0.3717 -0.3760
 4915SOL     OW26380   2.762   1.596  12.540 -0.1537  0.0398  0.3537
 4915SOL    HW126381   2.749   1.510  12.580  1.3711 -0.8226 -0.9986
 4915SOL    HW226382   2.832   1.628  12.598  0.0010  0.2735  0.0368
 4916SOL     OW26383   1.331   1.639   8.710  0.0500 -0.0130 -0.0180
 4916SOL    HW126384   1.380   1.708   8.755 -0.4287  0.3276 -0.0196
 4916SOL    HW226385   1.244   1.652   8.747 -0.8197  0.3703 -2.1901
 4917SOL     OW26386   0.167   0.824   9.521 -0.3128  0.3685 -0.0632
 4917SOL    HW126387   0.181   0.912   9.485  0.3269  0.5736  0.6759
 4917SOL    HW226388   0.097   0.795   9.463  0.4287  1.6786 -1.6247
 4918SOL     OW26389   3.409   0.099   3.609  0.3506 -0.2736 -0.0178
 4918SOL    HW126390   3.402   0.175   3.667 -0.7930 -0.0992 -0.3773
 4918SOL    HW226391   3.352   0.122   3.536 -1.6650 -1.1372  1.3053
 4919SOL     OW26392   1.590   1.811   6.819  0.4621 -0.2176 -0.5539
 4919SOL    HW126393   1.510   1.768   6.788  0.6396 -0.3872 -0.7746
 4919SOL    HW226394   1.555   1.873   6.883 -0.7620 -0.2302 -1.2105
 4920SOL     OW26395   3.344   2.201   2.561 -0.1123  0.2345 -0.1525
 4920SOL    HW126396   3.391   2.118   2.569  0.2914  0.3650 -1.0618
 4920SOL    HW226397   3.257   2.163   2.548 -0.5692  1.5500 -0.9607
 4921SOL     OW26398   1.715   0.289  15.589 -0.2987 -0.2658 -0.0275
 4921SOL    HW126399   1.703   0.224  15.520  2.7781  0.8434 -1.6131
 4921SOL    HW226400   1.708   0.370  15.538 -2.0025  0.6190  1.6148
 4922SOL     OW26401   0.550   1.384   6.879  0.6827 -0.5565 -0.1110
 4922SOL    HW126402   0.515   1.333   6.953 -2.4545  1.5484 -0.1460
 4922SOL    HW226403   0.610   1.319   6.842 -0.1151 -1.2519 -0.1690
 4923SOL     OW26404   0.213   0.204   7.028  0.2785  0.3867 -0.3251
 4923SOL    HW126405   0.178   0.267   7.091  0.2204 -2.1198  2.1484
 4923SOL    HW226406   0.277   0.169   7.090  0.0304 -2.2493 -1.6026
 4924SOL     OW26407   1.442   2.080   8.438 -0.0130 -1.0225  0.7882
 4924SOL    HW126408   1.374   2.036   8.488 -0.5526 -0.1763  0.8063
 4924SOL    HW226409   1.500   2.006   8.419  1.2306  0.2544 -0.4152
 4925SOL     OW26410   1.292   2.318   1.329 -0.2222 -0.2322 -0.8003
 4925SOL    HW126411   1.247   2.309   1.245  0.2106 -1.4961 -0.8933
 4925SOL    HW226412   1.261   2.406   1.352  0.6888 -0.1390  0.0602
 4926SOL     OW26413   2.873   3.816   3.894 -0.1539 -0.2574 -0.0108
 4926SOL    HW126414   2.818   3.770   3.958  1.2200 -2.6011 -0.5276
 4926SOL    HW226415   2.954   3.765   3.901  0.8828  1.3784 -0.0305
 4927SOL     OW26416   3.647   2.668   7.421  0.4000  0.3209  0.0060
 4927SOL    HW126417   3.666   2.575   7.425  0.1275  0.3285  1.4588
 4927SOL    HW226418   3.706   2.684   7.347 -0.2540 -0.6281 -0.7227
 4928SOL     OW26419   4.061   2.133   4.509  0.0612  0.3438 -0.1206
 4928SOL    HW126420   4.027   2.158   4.595  3.1722 -1.3462  1.5771
 4928SOL    HW226421   4.127   2.072   4.541  0.9329  1.2400 -0.2254
 4929SOL     OW26422   2.959   0.017  12.640  0.2952  0.5715  0.4276
 4929SOL    HW126423   2.925   4.735  12.552  0.2622  2.0373  0.1510
 4929SOL    HW226424   3.006   4.671  12.653 -1.4053 -0.1446  2.1417
 4930SOL     OW26425   1.623   3.074   7.995 -0.5967  0.6604  0.5261
 4930SOL    HW126426   1.648   3.150   7.943  1.5374  1.6937  3.0603
 4930SOL    HW226427   1.558   3.104   8.058 -1.3012 -0.3562  0.2840
 4931SOL     OW26428   0.661   0.356   6.883 -0.7006  0.3427 -0.0859
 4931SOL    HW126429   0.617   0.427   6.836  2.1036  1.5882 -0.7808
 4931SOL    HW226430   0.699   0.304   6.812  2.5504  0.4825  1.5680
 4932SOL     OW26431   3.671   4.677  16.112 -0.0087  0.1634 -0.2484
 4932SOL    HW126432   3.712   4.590  16.114 -1.0145 -0.2611  1.7027
 4932SOL    HW226433   3.690   4.709  16.024 -0.2110  1.5327  0.2001
 4933SOL     OW26434   0.362   0.472   9.148 -0.3910  0.1986 -0.6001
 4933SOL    HW126435   0.393   0.439   9.233 -1.7827  2.6924  0.8731
 4933SOL    HW226436   0.277   0.514   9.165 -1.1142 -0.7915 -1.8212
 4934SOL     OW26437   2.249   1.672   4.268  0.0222  0.4758  0.4024
 4934SOL    HW126438   2.201   1.660   4.187 -1.1279  2.1004  0.8381
 4934SOL    HW226439   2.258   1.767   4.267 -0.7355  0.4970 -3.0679
 4935SOL     OW26440   0.418   3.850   5.854 -0.0620  0.5788 -0.3604
 4935SOL    HW126441   0.406   3.774   5.797 -0.4382  1.3680 -1.3215
 4935SOL    HW226442   0.501   3.884   5.819 -0.7448  1.7383 -0.8462
 4936SOL     OW26443   2.260   2.598  17.110  0.3387 -0.2592  0.0548
 4936SOL    HW126444   2.165   2.595  17.113  0.3323  0.2284  0.3408
 4936SOL    HW226445   2.281   2.657  17.183  1.2475  1.7188 -1.8021
 4937SOL     OW26446   4.475   4.350   7.612 -0.2686 -0.0379 -0.3226
 4937SOL    HW126447   4.504   4.289   7.544  0.9413  1.2609 -0.9532
 4937SOL    HW226448   4.557   4.370   7.657 -0.7814 -0.5647  0.8603
 4938SOL     OW26449   2.180   2.390   4.615  0.0579  0.2656 -0.4065
 4938SOL    HW126450   2.185   2.368   4.522 -0.1335  0.5123 -0.4730
 4938SOL    HW226451   2.138   2.311   4.650  1.8353 -0.0638  0.9812
 4939SOL     OW26452   3.724   1.226  17.655 -0.9647  0.0053 -0.5911
 4939SOL    HW126453   3.758   1.247   0.001 -0.9227  1.8664 -1.0618
 4939SOL    HW226454   3.809   1.200  17.619 -2.5234 -2.2615 -2.6493
 4940SOL     OW26455   2.291   0.956   1.960  0.2504 -0.0824 -0.1734
 4940SOL    HW126456   2.307   0.863   1.976 -1.9501 -0.1881  1.4880
 4940SOL    HW226457   2.201   0.962   1.928  0.6790 -0.6658 -1.4693
 4941SOL     OW26458   2.622   2.376   1.663  1.4552  0.1067  0.4284
 4941SOL    HW126459   2.543   2.415   1.625  0.0867 -0.6030  2.4749
 4941SOL    HW226460   2.660   2.453   1.705 -1.5434  0.7147  2.0401
 4942SOL     OW26461   2.264   4.665  13.469  0.1915 -0.2283 -0.1844
 4942SOL    HW126462   2.177   4.693  13.498  1.4435  0.7786  2.6292
 4942SOL    HW226463   2.243   4.642  13.379 -0.4721  1.0099 -0.3400
 4943SOL     OW26464   3.174   2.825   3.364  0.1196 -0.0547  0.6263
 4943SOL    HW126465   3.268   2.822   3.347  0.3651  1.1922  1.8199
 4943SOL    HW226466   3.150   2.884   3.292  1.6834  1.4747  1.3568
 4944SOL     OW26467   1.426   0.745   6.245  0.0464 -0.3793  0.2718
 4944SOL    HW126468   1.454   0.662   6.207  1.3097  0.4908 -0.7074
 4944SOL    HW226469   1.460   0.730   6.333 -2.4272  0.4188  1.3744
 4945SOL     OW26470   2.026   0.849   5.837 -0.4145 -0.5894 -0.3420
 4945SOL    HW126471   1.947   0.828   5.886 -1.2400 -0.1584 -1.4987
 4945SOL    HW226472   2.098   0.842   5.900  0.0131  2.3331 -0.5037
 4946SOL     OW26473   2.174   2.931   9.178  0.3381 -0.3374 -0.2726
 4946SOL    HW126474   2.104   2.957   9.119  0.5790 -1.0580 -0.8685
 4946SOL    HW226475   2.185   3.003   9.240  0.9713  0.2982 -1.1279
 4947SOL     OW26476   3.629   1.508   7.386  0.1476 -0.3859 -0.1669
 4947SOL    HW126477   3.577   1.581   7.353 -0.3793 -1.0776 -0.8427
 4947SOL    HW226478   3.573   1.437   7.357 -1.6162  0.7709  0.4253
 4948SOL     OW26479   3.052   3.999   3.996  0.1230 -0.0366 -0.3641
 4948SOL    HW126480   3.046   3.965   4.085  0.3690 -0.6365 -0.5779
 4948SOL    HW226481   3.006   3.926   3.954  1.7684 -2.2129  1.6545
 4949SOL     OW26482   0.473   1.078   2.847  0.0186 -0.3903  0.3174
 4949SOL    HW126483   0.425   0.996   2.837 -1.6367  0.7593 -1.0941
 4949SOL    HW226484   0.483   1.095   2.754 -1.0188  1.4608  0.5361
 4950SOL     OW26485   1.560   2.966  13.453  0.3337  0.0527 -0.0667
 4950SOL    HW126486   1.644   3.001  13.425 -0.3371  0.3227 -1.7155
 4950SOL    HW226487   1.498   2.981  13.381 -0.1082 -0.9886  0.0993
 4951SOL     OW26488   4.215   0.689   5.008 -0.0810  0.5932  0.0928
 4951SOL    HW126489   4.301   0.713   5.043  0.8683 -0.9892 -1.1475
 4951SOL    HW226490   4.161   0.767   5.020  0.1283  0.8244 -0.4781
 4952SOL     OW26491   1.739   2.733   6.467 -0.0187 -0.5286 -0.3578
 4952SOL    HW126492   1.754   2.665   6.533  0.9908  1.8946  1.9341
 4952SOL    HW226493   1.729   2.814   6.517 -1.2647 -0.5051 -0.6401
 4953SOL     OW26494   4.512   0.256   7.499  0.4783  0.2088 -0.5283
 4953SOL    HW126495   4.508   0.310   7.578  1.9303  1.4380 -1.3062
 4953SOL    HW226496   4.427   0.211   7.498  1.3788 -1.4886 -0.0558
 4954SOL     OW26497   3.111   0.816   6.871  0.4059 -1.3297  0.3357
 4954SOL    HW126498   3.185   0.783   6.921  2.0476  2.5708  0.4065
 4954SOL    HW226499   3.148   0.801   6.784  1.2063  0.5055  0.3727
 4955SOL     OW26500   2.986   3.035  16.188 -0.1742 -0.0597  0.6864
 4955SOL    HW126501   3.009   3.116  16.143 -1.4588 -0.1922 -0.2130
 4955SOL    HW226502   2.949   2.977  16.121  1.0488  0.7595 -0.7168
 4956SOL     OW26503   1.611   3.649   8.054 -0.3525 -0.2827 -0.1286
 4956SOL    HW126504   1.570   3.576   8.099  0.6020  0.6305  2.2517
 4956SOL    HW226505   1.558   3.662   7.976 -2.2488 -2.2718  0.8112
 4957SOL     OW26506   1.299   3.005   5.897  0.2535 -0.3024  0.8976
 4957SOL    HW126507   1.262   2.959   5.822  1.2704  0.8347 -0.3108
 4957SOL    HW226508   1.383   2.959   5.903  1.1487  0.8690 -2.4658
 4958SOL     OW26509   1.319   4.315  15.207  0.3826 -0.4639 -0.7848
 4958SOL    HW126510   1.400   4.333  15.255  0.1176 -1.6410  0.0868
 4958SOL    HW226511   1.352   4.352  15.125 -0.0988  2.1832  0.2156
 4959SOL     OW26512   0.979   3.136   7.392 -0.7957  0.4467 -0.4106
 4959SOL    HW126513   1.023   3.054   7.415  0.9782  1.6921  0.7084
 4959SOL    HW226514   0.983   3.136   7.297 -0.1096 -0.8315 -0.3792
 4960SOL     OW26515   3.275   3.694   4.223  0.3405 -0.2703 -0.9269
 4960SOL    HW126516   3.340   3.623   4.222  0.5437 -0.0979  0.8357
 4960SOL    HW226517   3.332   3.761   4.187 -0.2891  0.1352 -1.1658
 4961SOL     OW26518   2.307   2.016   6.124 -0.0415 -0.5061 -0.1179
 4961SOL    HW126519   2.297   2.059   6.210 -0.3448  2.2830 -1.5485
 4961SOL    HW226520   2.403   2.010   6.129  0.1388  1.6364 -1.1299
 4962SOL     OW26521   1.960   0.626   5.704 -0.7122 -0.2996 -0.3557
 4962SOL    HW126522   2.043   0.596   5.741 -0.7604  1.8106  1.4237
 4962SOL    HW226523   1.951   0.704   5.759 -1.2640  2.2506 -4.1279
 4963SOL     OW26524   0.338   1.573   4.899  0.1543  0.0726  0.3797
 4963SOL    HW126525   0.409   1.525   4.857  0.4970 -0.5205  1.6478
 4963SOL    HW226526   0.289   1.498   4.932 -1.5468  0.3813 -1.4251
 4964SOL     OW26527   4.406   2.972   4.906  0.1346 -0.2475 -0.1718
 4964SOL    HW126528   4.335   2.910   4.891 -0.0773 -0.6058  2.3655
 4964SOL    HW226529   4.457   2.947   4.829 -1.0393 -3.7071  0.1780
 4965SOL     OW26530   4.486   1.109   0.422 -0.1876  0.2170 -0.3022
 4965SOL    HW126531   4.484   1.145   0.333  1.8647  2.0975  0.4092
 4965SOL    HW226532   4.575   1.074   0.422  0.4418  1.8361 -1.1635
 4966SOL     OW26533   1.779   4.629   3.106 -0.0034  0.3545  0.6397
 4966SOL    HW126534   1.867   4.654   3.134 -0.2549 -0.6496  2.3436
 4966SOL    HW226535   1.731   4.698   3.153 -0.5881  1.5199 -1.7054
 4967SOL     OW26536   0.763   0.806  15.914  0.0840  0.2872  0.3902
 4967SOL    HW126537   0.711   0.769  15.985 -3.8745  2.7958 -1.1833
 4967SOL    HW226538   0.711   0.791  15.835  1.3424  1.2829 -0.6369
 4968SOL     OW26539   3.947   3.978  13.414  0.1980 -0.1288  0.4043
 4968SOL    HW126540   3.885   3.918  13.373  1.8504 -1.6918  0.1648
 4968SOL    HW226541   3.982   4.020  13.335 -0.3920  2.6452  1.6117
 4969SOL     OW26542   2.451   0.554   5.641 -0.1200  0.0470 -0.7280
 4969SOL    HW126543   2.498   0.480   5.679  0.8186  0.0165 -1.9552
 4969SOL    HW226544   2.489   0.563   5.554 -0.9059 -0.1956 -1.0994
 4970SOL     OW26545   0.488   1.721   1.788 -0.0668 -0.1506  0.3734
 4970SOL    HW126546   0.440   1.747   1.866 -1.7874 -0.1610 -0.6868
 4970SOL    HW226547   0.474   1.799   1.735 -1.3634  0.8218  2.1386
 4971SOL     OW26548   4.175   1.303   8.676  0.4204  0.5943 -0.7225
 4971SOL    HW126549   4.136   1.269   8.595 -2.3034  2.7781 -0.3181
 4971SOL    HW226550   4.143   1.231   8.732  1.1233  1.4452  0.7604
 4972SOL     OW26551   0.941   3.189  12.494 -0.1065  0.3992 -0.0448
 4972SOL    HW126552   1.028   3.158  12.471 -0.3680 -0.4741  0.1305
 4972SOL    HW226553   0.887   3.122  12.451 -1.3164  1.3318  0.0106
 4973SOL     OW26554   4.661   0.914   8.784 -0.3931  0.2258  0.3088
 4973SOL    HW126555   4.601   0.876   8.720  1.5417  0.0165 -1.4085
 4973SOL    HW226556   4.687   1.004   8.762 -1.3853  0.0330 -1.6075
 4974SOL     OW26557   0.151   2.421  12.057  0.5363 -0.3039 -0.4280
 4974SOL    HW126558   0.114   2.367  12.127  0.8122  0.6255  0.4417
 4974SOL    HW226559   0.224   2.461  12.105  0.0441  0.6682 -0.4811
 4975SOL     OW26560   0.426   3.615   5.316  0.0841 -0.1139  0.2647
 4975SOL    HW126561   0.419   3.697   5.365 -1.6944 -1.6471  2.5407
 4975SOL    HW226562   0.358   3.622   5.249  0.8487  1.1742 -0.3806
 4976SOL     OW26563   2.954   2.314   5.139  0.2861  0.1533 -0.3212
 4976SOL    HW126564   2.861   2.294   5.135  0.1751  0.1713  2.0078
 4976SOL    HW226565   2.983   2.222   5.138  1.3509  0.4831  0.3297
 4977SOL     OW26566   4.256   1.781   6.878 -0.0363 -0.0582 -0.1899
 4977SOL    HW126567   4.188   1.727   6.838 -1.3149 -0.8308  3.0096
 4977SOL    HW226568   4.327   1.718   6.891 -0.8380 -1.1974 -1.4344
 4978SOL     OW26569   3.296   3.250  14.428  0.1794  0.5312  0.2828
 4978SOL    HW126570   3.296   3.293  14.342  3.1916  1.5277  0.7785
 4978SOL    HW226571   3.317   3.161  14.400  1.6901  0.5702  1.2748
 4979SOL     OW26572   1.537   3.331   1.090 -0.1557 -0.0412 -0.0945
 4979SOL    HW126573   1.514   3.239   1.104 -0.6067  0.2701  1.2124
 4979SOL    HW226574   1.631   3.335   1.101 -0.0594 -1.9693 -0.2544
 4980SOL     OW26575   0.517   0.411   1.021  0.4407 -0.1994 -0.0642
 4980SOL    HW126576   0.452   0.346   1.046  0.5860 -2.1599 -4.8086
 4980SOL    HW226577   0.497   0.486   1.078 -0.3437 -1.3522  1.1643
 4981SOL     OW26578   1.462   1.315   7.661  0.2543 -0.6586 -0.5637
 4981SOL    HW126579   1.442   1.228   7.694 -4.4282  0.6729  0.1514
 4981SOL    HW226580   1.370   1.341   7.657  0.5965  0.3269 -1.8162
 4982SOL     OW26581   1.234   4.453   3.173 -0.2090 -0.1240  0.2924
 4982SOL    HW126582   1.253   4.469   3.080 -2.4047 -0.1705 -0.1608
 4982SOL    HW226583   1.318   4.482   3.208 -0.4350 -0.8630  1.4285
 4983SOL     OW26584   0.372   4.721   8.522  0.1753 -0.0882 -0.1295
 4983SOL    HW126585   0.361   4.634   8.484 -3.0677  0.0173  0.4985
 4983SOL    HW226586   0.285   4.734   8.561 -0.4240  0.2724 -1.5750
 4984SOL     OW26587   3.852   2.044   4.707 -0.4109 -0.0515 -0.3667
 4984SOL    HW126588   3.806   2.011   4.630 -0.7441  1.8282 -0.9919
 4984SOL    HW226589   3.824   1.993   4.783 -0.7901  0.2863 -0.2783
 4985SOL     OW26590   1.132   1.178  11.673 -0.1190  0.3100 -0.4048
 4985SOL    HW126591   1.114   1.119  11.600 -0.3350  0.0777 -0.1628
 4985SOL    HW226592   1.207   1.138  11.717  0.4819  0.8182 -0.9555
 4986SOL     OW26593   3.260   2.384   7.945  0.0702  0.8973 -0.2544
 4986SOL    HW126594   3.318   2.321   7.902  0.4522 -0.8541  2.8524
 4986SOL    HW226595   3.278   2.377   8.038  0.9378 -0.1222 -0.5021
 4987SOL     OW26596   0.969   1.639   6.551 -0.2211 -0.3056  0.3553
 4987SOL    HW126597   1.005   1.588   6.479 -0.5396 -2.0777  1.4660
 4987SOL    HW226598   0.909   1.700   6.507  0.8774  1.0239  0.6823
 4988SOL     OW26599   0.922   2.366   1.713 -0.2793 -0.0480  0.2904
 4988SOL    HW126600   0.847   2.308   1.702 -0.1208 -0.6050  2.1810
 4988SOL    HW226601   0.943   2.387   1.621  0.0562 -1.1212  0.1266
 4989SOL     OW26602   2.911   3.576   2.347 -0.2552 -0.0964 -0.0696
 4989SOL    HW126603   2.994   3.616   2.369 -0.9297  2.3552 -1.9822
 4989SOL    HW226604   2.864   3.594   2.428  0.5405 -0.8662  0.5609
 4990SOL     OW26605   4.508   0.303   4.630  0.6961  0.2464  0.1991
 4990SOL    HW126606   4.490   0.355   4.708 -0.1227  1.7675 -1.0073
 4990SOL    HW226607   4.599   0.322   4.609 -0.4193  3.1545 -2.1062
 4991SOL     OW26608   2.994   2.314   6.012  0.1609  0.5145  0.5240
 4991SOL    HW126609   3.008   2.259   5.935  0.8739  0.5870  0.5960
 4991SOL    HW226610   2.947   2.256   6.071  0.6626 -0.2011  0.2266
 4992SOL     OW26611   2.626   3.614  11.260  0.1804 -0.2680 -0.3056
 4992SOL    HW126612   2.686   3.610  11.335  0.2203 -1.8833 -0.4206
 4992SOL    HW226613   2.622   3.519  11.248 -2.3370 -0.2876  0.7229
 4993SOL     OW26614   1.626   0.050   8.923 -0.0321 -0.2361 -0.0669
 4993SOL    HW126615   1.626   0.057   9.019 -0.7594  0.4941 -0.1201
 4993SOL    HW226616   1.545   0.100   8.911  0.0289 -0.4057 -1.1814
 4994SOL     OW26617   1.737   0.727   4.876 -0.3797  0.4794  0.1443
 4994SOL    HW126618   1.700   0.752   4.792  1.2252  0.2299 -0.6556
 4994SOL    HW226619   1.702   0.638   4.879 -3.0546  1.4672 -2.6251
 4995SOL     OW26620   4.716   1.223   4.808 -0.3026 -0.2165 -0.0542
 4995SOL    HW126621   0.004   1.303   4.761  0.4847 -0.1992  0.3645
 4995SOL    HW226622   4.694   1.156   4.744  0.2733 -1.6290  1.2206
 4996SOL     OW26623   3.567   2.007   2.602  0.4608 -0.2876  0.0794
 4996SOL    HW126624   3.526   2.003   2.688 -1.0116 -0.4580 -0.6281
 4996SOL    HW226625   3.517   1.946   2.547 -0.7217  2.1966 -1.6129
 4997SOL     OW26626   4.012   3.800   6.762  0.3866 -0.0583  0.2981
 4997SOL    HW126627   4.051   3.845   6.836  1.3688 -1.7377  0.7956
 4997SOL    HW226628   3.940   3.857   6.733  2.4535  2.1334 -0.5025
 4998SOL     OW26629   4.264   1.110  11.792 -0.3052  0.1862 -0.0462
 4998SOL    HW126630   4.175   1.106  11.829 -0.1853 -2.0097 -0.0031
 4998SOL    HW226631   4.256   1.195  11.747  1.7394 -0.3896 -1.4472
 4999SOL     OW26632   0.968   2.142  14.995  0.2350  0.3509  0.0430
 4999SOL    HW126633   0.874   2.139  14.982  0.0819  1.0219  0.9690
 4999SOL    HW226634   0.987   2.233  14.974 -0.2208  0.3390 -0.4158
 5000SOL     OW26635   2.736   3.761   3.464 -0.4378 -0.4483 -0.1651
 5000SOL    HW126636   2.753   3.785   3.555 -0.2944 -2.3438  0.3037
 5000SOL    HW226637   2.823   3.729   3.438 -0.6819 -0.0914 -1.4273
 5001SOL     OW26638   1.810   0.587   9.260 -0.0766 -0.4831 -0.0990
 5001SOL    HW126639   1.765   0.599   9.343  0.0638 -0.9828  0.0461
 5001SOL    HW226640   1.736   0.581   9.199 -1.8057 -3.1936  2.3198
 5002SOL     OW26641   1.464   4.089   4.230  0.2459 -0.2483  0.0618
 5002SOL    HW126642   1.517   4.057   4.157  1.4969  0.4923  0.6579
 5002SOL    HW226643   1.436   4.006   4.269 -0.2631  1.3832  3.1641
 5003SOL     OW26644   1.190   0.666   5.913 -0.2980 -0.1012  0.5563
 5003SOL    HW126645   1.111   0.696   5.957  0.7508 -0.8805  2.9573
 5003SOL    HW226646   1.155   0.640   5.828 -1.7149  0.8077  0.8618
 5004SOL     OW26647   4.645   0.333  10.348  0.0834  0.9534 -0.3410
 5004SOL    HW126648   4.693   0.339  10.431  0.2151 -0.8358 -0.2794
 5004SOL    HW226649   4.650   0.239  10.334 -1.8451  0.5742  1.4359
 5005SOL     OW26650   3.710   2.488   7.922  0.0786  0.0571 -0.1757
 5005SOL    HW126651   3.746   2.504   8.010 -3.4893  1.4554  1.0120
 5005SOL    HW226652   3.670   2.572   7.900 -2.7463 -0.9819  0.9346
 5006SOL     OW26653   0.938   0.441  10.316 -0.2260 -0.8534 -0.0026
 5006SOL    HW126654   0.938   0.537  10.310  1.1692 -0.8808 -0.3700
 5006SOL    HW226655   1.012   0.419  10.372 -0.1917 -0.6334  0.0410
 5007SOL     OW26656   2.045   2.543   8.931 -0.1787 -0.5870 -0.4891
 5007SOL    HW126657   2.138   2.564   8.937 -0.5347  0.9298 -0.1493
 5007SOL    HW226658   2.029   2.491   9.009  1.3827 -2.2226 -1.2700
 5008SOL     OW26659   1.964   3.527   3.668 -0.4466 -0.5543 -0.4904
 5008SOL    HW126660   2.048   3.486   3.649  0.6092 -0.0779  3.1574
 5008SOL    HW226661   1.987   3.620   3.659  1.2171 -0.9832 -0.6610
 5009SOL     OW26662   1.435   3.386   4.895 -0.6244  0.1218 -0.2454
 5009SOL    HW126663   1.512   3.392   4.953 -0.7718  3.2243 -0.3465
 5009SOL    HW226664   1.491   3.371   4.819  2.0186  0.7584  1.5462
 5010SOL     OW26665   2.907   4.627  12.929  0.2161  0.2770  0.2551
 5010SOL    HW126666   2.984   4.589  12.971  0.2221  2.9089  2.6278
 5010SOL    HW226667   2.920   4.599  12.838 -0.1866  1.5655 -0.1993
 5011SOL     OW26668   0.679   0.763   8.575  0.0453 -0.1059  0.1285
 5011SOL    HW126669   0.612   0.770   8.507  0.2056 -0.4424 -0.0651
 5011SOL    HW226670   0.741   0.833   8.554 -0.1279  0.1214  0.3801
 5012SOL     OW26671   2.900   1.067   5.831 -0.2264 -0.0486 -0.2428
 5012SOL    HW126672   2.902   0.984   5.785  0.1048  0.2123 -0.6981
 5012SOL    HW226673   2.809   1.074   5.861 -0.7395  0.1897 -1.8462
 5013SOL     OW26674   0.443   0.030   4.167 -0.5789  0.2772  0.1801
 5013SOL    HW126675   0.350   0.035   4.143 -0.3430 -1.2020 -1.0156
 5013SOL    HW226676   0.481   0.004   4.084 -1.5965 -0.4779 -0.0551
 5014SOL     OW26677   2.000   2.464   2.640  0.0838 -0.6716  0.0395
 5014SOL    HW126678   1.961   2.468   2.553  1.0751 -1.4599 -0.4329
 5014SOL    HW226679   2.080   2.512   2.620  0.2149 -0.4816  0.9791
 5015SOL     OW26680   1.566   3.163   8.825  0.0285 -0.6150 -0.4779
 5015SOL    HW126681   1.628   3.234   8.836 -2.3710  1.1518  1.5329
 5015SOL    HW226682   1.490   3.197   8.873 -0.4662 -0.6553 -1.2225
 5016SOL     OW26683   2.262   2.094   2.440 -0.5001 -0.2114 -0.5546
 5016SOL    HW126684   2.220   2.033   2.500  0.6320  0.2687  0.7107
 5016SOL    HW226685   2.350   2.089   2.476  0.4565 -0.0680 -2.8619
 5017SOL     OW26686   0.583   2.233   5.624 -0.2603 -0.6656  0.0406
 5017SOL    HW126687   0.607   2.143   5.603  3.1489  0.9021 -2.7768
 5017SOL    HW226688   0.549   2.229   5.713  0.8065 -3.0946  0.3400
 5018SOL     OW26689   0.885   1.312   0.903 -0.2728 -0.5734 -0.2042
 5018SOL    HW126690   0.911   1.392   0.857  0.2877 -0.1264  0.8710
 5018SOL    HW226691   0.944   1.251   0.860  0.1256  0.9478 -1.8420
 5019SOL     OW26692   0.973   3.919  11.304  0.2553 -0.0903  0.5065
 5019SOL    HW126693   0.890   3.883  11.273 -0.9463  4.1015 -1.0909
 5019SOL    HW226694   0.992   3.984  11.237 -0.7842  1.0785  1.3320
 5020SOL     OW26695   4.336   0.101   7.330  0.2326 -0.1442 -0.3123
 5020SOL    HW126696   4.294   0.103   7.416  0.5773  0.3473 -0.1530
 5020SOL    HW226697   4.342   0.008   7.311  0.9588 -0.2899  0.6135
 5021SOL     OW26698   2.494   3.272   1.610  0.1934 -0.1716  0.1659
 5021SOL    HW126699   2.480   3.277   1.515 -0.0578 -0.6394  0.1775
 5021SOL    HW226700   2.459   3.183   1.622 -1.4248  0.4661  0.1988
 5022SOL     OW26701   4.251   3.022   5.610  0.4301  0.9269  0.2795
 5022SOL    HW126702   4.195   3.063   5.676  1.0254  1.0470  0.7067
 5022SOL    HW226703   4.330   3.014   5.662  0.2602 -2.2933  0.0444
 5023SOL     OW26704   3.585   1.071  16.509 -0.3849  0.2407  0.4114
 5023SOL    HW126705   3.630   1.041  16.588 -1.8786 -2.3429  0.3008
 5023SOL    HW226706   3.570   0.982  16.479 -0.9143  0.5390 -0.2095
 5024SOL     OW26707   4.186   0.979   3.269 -0.4414  0.1040  0.6142
 5024SOL    HW126708   4.149   0.926   3.340  0.7354 -0.6672  0.6547
 5024SOL    HW226709   4.159   0.929   3.192 -0.7759 -0.0389  0.8236
 5025SOL     OW26710   3.811   2.457   5.273  0.0223  0.7017  0.6681
 5025SOL    HW126711   3.889   2.512   5.269  0.8749 -0.5718 -0.1769
 5025SOL    HW226712   3.817   2.384   5.334 -2.9755 -0.3639 -0.3138
 5026SOL     OW26713   0.592   0.567   1.338 -0.2953 -0.5089  0.3621
 5026SOL    HW126714   0.669   0.513   1.319  0.1432  0.7491 -1.3935
 5026SOL    HW226715   0.631   0.636   1.391 -0.3342  0.8224 -1.3393
 5027SOL     OW26716   1.399   3.643   0.370  0.0042 -0.5807 -0.3853
 5027SOL    HW126717   1.431   3.564   0.326  2.6471 -0.9594  2.1638
 5027SOL    HW226718   1.382   3.598   0.453  0.8482  0.0924  0.1580
 5028SOL     OW26719   3.650   4.694   8.568  0.3480 -0.2072 -0.7844
 5028SOL    HW126720   3.595   4.681   8.645 -0.5093  1.3670 -1.1326
 5028SOL    HW226721   3.610   0.040   8.537 -0.9006 -1.2761 -2.0393
 5029SOL     OW26722   4.251   1.756   0.240  1.4105  0.5092  0.4106
 5029SOL    HW126723   4.248   1.690   0.309 -0.3212  0.1488 -0.0184
 5029SOL    HW226724   4.246   1.835   0.294 -1.1536 -0.7016  1.9085
 5030SOL     OW26725   4.635   3.564  11.690 -0.7059 -0.3477  0.2429
 5030SOL    HW126726   4.580   3.590  11.616 -2.3093 -1.2860  1.1067
 5030SOL    HW226727   4.715   3.582  11.641 -1.4712 -0.3846 -1.0317
 5031SOL     OW26728   1.439   0.526  13.906 -0.5342 -0.0053  0.5829
 5031SOL    HW126729   1.378   0.583  13.860  1.5773  2.2993  0.6701
 5031SOL    HW226730   1.389   0.444  13.916 -2.0839  0.7491 -0.9695
 5032SOL     OW26731   1.943   1.471   6.802  0.3354  0.2270 -0.1749
 5032SOL    HW126732   1.894   1.497   6.880  0.6483  1.7802 -0.5007
 5032SOL    HW226733   1.889   1.400   6.767 -0.6038  0.3317  1.0525
 5033SOL     OW26734   0.224   2.309   7.123 -0.7305 -0.1640  0.0274
 5033SOL    HW126735   0.292   2.335   7.186  0.7583 -0.9525 -1.2577
 5033SOL    HW226736   0.190   2.234   7.172  0.2323  0.7346  2.0948
 5034SOL     OW26737   2.960   2.726   4.243 -0.5985 -0.0348 -0.6410
 5034SOL    HW126738   2.870   2.728   4.210 -0.5565  0.3277 -0.7342
 5034SOL    HW226739   3.003   2.673   4.175  0.0064  1.0648 -1.1185
 5035SOL     OW26740   4.534   1.373  10.938 -0.6183 -0.1536  0.2181
 5035SOL    HW126741   4.450   1.386  10.983 -0.6957 -0.0083  0.0284
 5035SOL    HW226742   4.557   1.284  10.965 -0.0932 -0.0899 -0.0295
 5036SOL     OW26743   2.670   1.241  17.265 -0.0915  0.6577  0.0650
 5036SOL    HW126744   2.653   1.193  17.345  1.0517  0.2081  0.0364
 5036SOL    HW226745   2.722   1.307  17.310 -1.5401  1.5824  0.3921
 5037SOL     OW26746   0.555   4.468   4.483 -0.3797  0.0682  1.0624
 5037SOL    HW126747   0.554   4.389   4.428  0.6290  1.7126 -1.3372
 5037SOL    HW226748   0.497   4.528   4.435  0.8107  0.0421 -0.4258
 5038SOL     OW26749   3.479   3.007  16.161  0.1342 -0.0802 -0.0036
 5038SOL    HW126750   3.426   3.034  16.085  0.9065  0.9518 -0.1869
 5038SOL    HW226751   3.549   3.072  16.171  1.1870 -1.8456  3.8714
 5039SOL     OW26752   3.313   0.976   3.858  0.6166  0.7477  0.3829
 5039SOL    HW126753   3.257   0.899   3.871  0.3145  0.6408 -1.6877
 5039SOL    HW226754   3.313   1.012   3.947  1.0228  3.0757 -0.5452
 5040SOL     OW26755   3.489   4.075   6.639  0.1621 -0.4265 -0.0469
 5040SOL    HW126756   3.543   4.027   6.577 -0.0855 -0.9195  0.1148
 5040SOL    HW226757   3.400   4.050   6.613  0.1925 -0.9515  0.3380
 5041SOL     OW26758   1.465   0.094  17.667  0.4791 -0.3979  0.1000
 5041SOL    HW126759   1.454   0.002  17.690 -0.2045 -0.3437 -0.0152
 5041SOL    HW226760   1.399   0.142  17.717 -0.8813 -1.3353 -0.8095
 5042SOL     OW26761   1.321   0.103   4.599  0.5702  0.0792  0.2291
 5042SOL    HW126762   1.382   0.030   4.585  1.0142  0.3010  1.0253
 5042SOL    HW226763   1.380   0.168   4.638  2.1124 -0.9364 -0.4127
 5043SOL     OW26764   4.624   0.824   1.339  0.4045 -0.0274  0.5091
 5043SOL    HW126765   4.671   0.810   1.257 -0.4609  2.7358 -0.4489
 5043SOL    HW226766   4.638   0.738   1.380 -0.9476  0.4046  1.8570
 5044SOL     OW26767   0.923   2.923   5.377  0.0911  0.5785 -0.1516
 5044SOL    HW126768   0.978   2.966   5.442 -0.2109  0.8123 -0.0493
 5044SOL    HW226769   0.985   2.904   5.307 -1.5421  1.3152 -1.7687
 5045SOL     OW26770   4.660   1.864   7.824 -0.4921  0.5088  0.0405
 5045SOL    HW126771   4.612   1.789   7.860 -1.4766  1.2903  0.3469
 5045SOL    HW226772   4.597   1.932   7.847 -1.2428 -0.8554  2.0744
 5046SOL     OW26773   0.854   3.116   1.914  0.3660 -0.1678  0.0448
 5046SOL    HW126774   0.827   3.038   1.964  0.2453  0.1227  0.4303
 5046SOL    HW226775   0.935   3.145   1.954  0.3225 -1.8616  1.3754
 5047SOL     OW26776   2.236   0.368   7.596 -0.0575  0.1258  0.1723
 5047SOL    HW126777   2.153   0.348   7.640 -1.5342 -0.3139 -2.7925
 5047SOL    HW226778   2.241   0.461   7.621  0.7749 -0.1298  0.9420
 5048SOL     OW26779   2.045   2.415   3.396 -0.0523 -0.1264 -0.3967
 5048SOL    HW126780   1.974   2.464   3.353 -0.1424  0.1995  0.1234
 5048SOL    HW226781   2.081   2.363   3.324  0.8708 -2.4030  1.6977
 5049SOL     OW26782   0.875   3.315  13.743 -0.0506  0.7244 -0.0194
 5049SOL    HW126783   0.932   3.391  13.752 -0.6335  1.0872  0.6090
 5049SOL    HW226784   0.915   3.234  13.774 -1.0172  0.2326 -0.0379
 5050SOL     OW26785   1.113   0.087  13.265 -0.2781  0.2188  0.3066
 5050SOL    HW126786   1.024   0.122  13.262 -1.0706 -1.8277  0.3345
 5050SOL    HW226787   1.120   0.045  13.179 -0.8765 -1.5057  1.1115
 5051SOL     OW26788   4.551   1.824   2.319 -0.0823  0.1037 -0.3529
 5051SOL    HW126789   4.563   1.919   2.323  1.0409 -0.1386  2.4640
 5051SOL    HW226790   4.472   1.811   2.371  0.1354 -0.6424 -0.2157
 5052SOL     OW26791   0.655   0.327   8.003 -0.1911  0.7577 -0.3044
 5052SOL    HW126792   0.566   0.293   8.002  0.2140 -0.2458 -1.9445
 5052SOL    HW226793   0.686   0.291   8.086 -4.1541 -2.9458 -0.4572
 5053SOL     OW26794   3.177   2.043   0.432  0.5527 -0.4982  0.5840
 5053SOL    HW126795   3.257   1.995   0.411  1.4214  1.9904 -1.7450
 5053SOL    HW226796   3.210   2.129   0.456  1.7683 -0.9305  0.4275
 5054SOL     OW26797   3.055   3.866   1.729 -0.7130  0.0614  0.2262
 5054SOL    HW126798   2.985   3.815   1.767  0.8835 -1.5109  1.0673
 5054SOL    HW226799   3.133   3.817   1.755 -0.9008 -0.5411 -0.3575
 5055SOL     OW26800   3.212   1.548   8.086 -0.0847  0.3702 -0.6505
 5055SOL    HW126801   3.283   1.489   8.110 -0.4033  0.7136  1.1074
 5055SOL    HW226802   3.264   1.619   8.046  1.0359 -1.9147 -3.2700
 5056SOL     OW26803   2.314   1.967   4.258  0.2477  0.0105 -0.2841
 5056SOL    HW126804   2.407   1.961   4.236 -0.2431 -0.5024 -2.2478
 5056SOL    HW226805   2.331   2.035   4.324  0.9726 -0.2135 -0.2325
 5057SOL     OW26806   4.682   0.830   4.167 -0.0386  0.0987  0.0098
 5057SOL    HW126807   4.678   0.770   4.241 -0.2807 -0.5576 -0.5362
 5057SOL    HW226808   0.024   0.797   4.121 -0.7408  1.0846 -1.8817
 5058SOL     OW26809   4.483   0.032  10.310  0.1470  0.1954 -0.3026
 5058SOL    HW126810   4.417   0.018  10.378 -1.4050  1.4939 -1.5416
 5058SOL    HW226811   4.562   0.006  10.358  0.5957  1.4023 -0.4001
 5059SOL     OW26812   2.607   1.355   0.708  0.3409  0.2964  0.2689
 5059SOL    HW126813   2.587   1.305   0.630 -2.5871 -0.0213  1.2209
 5059SOL    HW226814   2.594   1.446   0.679  1.6503  0.4439  0.1183
 5060SOL     OW26815   2.442   0.304   4.710 -0.4339  0.1245  0.1974
 5060SOL    HW126816   2.430   0.334   4.620  0.0929  2.3194  0.8655
 5060SOL    HW226817   2.486   0.222   4.687 -0.1113  0.2251  0.4564
 5061SOL     OW26818   1.448   0.896   4.224 -0.3136  0.1938  0.0293
 5061SOL    HW126819   1.403   0.972   4.188  1.0917  1.7486  1.5520
 5061SOL    HW226820   1.517   0.887   4.159 -0.2823  1.5510 -0.1096
 5062SOL     OW26821   1.476   2.518   2.203 -0.3746 -0.2939  0.0319
 5062SOL    HW126822   1.383   2.497   2.206  0.2677 -3.0445  0.0419
 5062SOL    HW226823   1.495   2.489   2.113  0.0690  1.8803 -0.5902
 5063SOL     OW26824   0.583   3.788   2.096  0.4660  0.7258  0.2945
 5063SOL    HW126825   0.560   3.777   2.003  0.2865  2.3439  0.1583
 5063SOL    HW226826   0.490   3.784   2.118 -0.4476 -0.0422 -3.6152
 5064SOL     OW26827   4.664   3.642   2.009 -0.3206  0.0402 -0.8286
 5064SOL    HW126828   4.655   3.634   1.915 -0.9044 -0.8434 -0.6963
 5064SOL    HW226829   4.597   3.702   2.041  0.3120  0.8237 -0.9560
 5065SOL     OW26830   0.220   4.101  16.131 -0.0266 -0.0528 -0.3873
 5065SOL    HW126831   0.135   4.062  16.147  0.2210 -0.2186  0.5055
 5065SOL    HW226832   0.229   4.086  16.037  0.2246  0.6520 -0.4783
 5066SOL     OW26833   0.077   3.560   0.002  0.0194 -0.0698  0.3062
 5066SOL    HW126834   0.046   3.498  17.676 -0.8391  1.7180 -0.9483
 5066SOL    HW226835   4.733   3.610   0.021 -0.1646 -0.0576 -0.5232
 5067SOL     OW26836   3.357   4.646   8.933 -0.2531  0.6026 -0.7387
 5067SOL    HW126837   3.411   4.668   9.009  0.5857 -0.1102 -1.1355
 5067SOL    HW226838   3.274   4.632   8.979  0.8878  0.5994  1.2893
 5068SOL     OW26839   1.242   4.545   9.011  0.1341  0.0416 -0.4369
 5068SOL    HW126840   1.310   4.533   9.077 -0.2279 -2.6629 -0.5548
 5068SOL    HW226841   1.291   4.544   8.929 -0.3091  2.3780 -0.7198
 5069SOL     OW26842   4.686   4.165  12.166 -0.6000 -0.1301 -0.3900
 5069SOL    HW126843   4.637   4.089  12.196 -0.3000 -0.6157 -1.1315
 5069SOL    HW226844   4.671   4.215  12.247  1.5156 -0.7835  0.4148
 5070SOL     OW26845   3.573   3.514  16.634 -0.4404  0.2261  0.0210
 5070SOL    HW126846   3.490   3.488  16.674 -0.4523 -0.2848 -0.3315
 5070SOL    HW226847   3.563   3.460  16.556 -0.4126  0.8470 -0.4137
 5071SOL     OW26848   2.908   3.978   5.600  0.1929 -0.1896 -0.1501
 5071SOL    HW126849   2.848   3.999   5.529 -1.8009  0.6801  1.8224
 5071SOL    HW226850   2.991   4.008   5.563  0.5315  0.8184  1.4358
 5072SOL     OW26851   2.149   2.579   4.340 -0.3377  0.1912  0.4081
 5072SOL    HW126852   2.167   2.661   4.294  0.6082  0.2985  0.9783
 5072SOL    HW226853   2.057   2.561   4.320 -0.2753 -0.5962  0.8479
 5073SOL     OW26854   3.352   4.408   5.901 -0.0334 -0.2361 -0.2287
 5073SOL    HW126855   3.441   4.441   5.917  0.3100  0.1980 -2.9864
 5073SOL    HW226856   3.340   4.452   5.817 -1.8792 -1.5775 -0.6605
 5074SOL     OW26857   4.038   2.449   9.698  1.0551 -0.3459  0.4632
 5074SOL    HW126858   3.999   2.433   9.784  0.9519 -0.0256  0.4749
 5074SOL    HW226859   4.046   2.544   9.695 -2.8931 -0.0273  0.1227
 5075SOL     OW26860   0.258   3.503   8.010 -0.1688  0.3449 -0.2298
 5075SOL    HW126861   0.333   3.501   7.951 -0.9464  2.6335 -1.2867
 5075SOL    HW226862   0.284   3.430   8.067 -0.8468 -0.5614 -1.0874
 5076SOL     OW26863   4.302   1.555   1.668  0.6515  0.3800  0.5746
 5076SOL    HW126864   4.322   1.501   1.744 -0.2534 -1.1341 -0.2734
 5076SOL    HW226865   4.227   1.507   1.632  1.5696 -0.8521  0.3368
 5077SOL     OW26866   2.396   3.711  11.180 -0.4750  0.0486 -0.1125
 5077SOL    HW126867   2.478   3.673  11.211  0.2526  1.6856 -0.0257
 5077SOL    HW226868   2.439   3.776  11.125  0.3071 -0.4371 -0.0711
 5078SOL     OW26869   3.783   4.172   8.030 -0.6875  0.9051 -0.5069
 5078SOL    HW126870   3.841   4.247   8.043  0.3116 -0.0670  0.5985
 5078SOL    HW226871   3.838   4.111   7.981 -1.6659 -0.6269  0.2975
 5079SOL     OW26872   3.749   4.513  12.027 -0.9258 -0.5636 -0.2873
 5079SOL    HW126873   3.738   4.499  11.933 -0.5089 -0.0290 -0.4197
 5079SOL    HW226874   3.752   4.422  12.054  1.8728 -0.0247  1.1536
 5080SOL     OW26875   3.300   4.654   1.747 -0.6127  0.3070  0.2023
 5080SOL    HW126876   3.282   0.011   1.762 -2.6150  0.1351 -1.1487
 5080SOL    HW226877   3.324   4.626   1.835 -0.5661  0.5104  0.2533
 5081SOL     OW26878   0.142   0.038   8.699 -0.0656 -0.6002  0.6385
 5081SOL    HW126879   0.049   0.056   8.685  0.2549  1.5447  1.3492
 5081SOL    HW226880   0.137   4.688   8.741 -0.0014 -0.7059  0.4344
 5082SOL     OW26881   0.849   3.546   1.422 -0.6632  0.5551  0.0752
 5082SOL    HW126882   0.869   3.622   1.368  0.1660  0.6469  0.5060
 5082SOL    HW226883   0.934   3.509   1.445 -2.3143 -2.1280  1.9032
 5083SOL     OW26884   3.793   0.175   2.263  0.0192  0.3124 -0.5559
 5083SOL    HW126885   3.788   0.216   2.176 -2.4584  0.5336 -0.3050
 5083SOL    HW226886   3.871   0.221   2.293  0.3675 -0.2419 -0.6111
 5084SOL     OW26887   2.776   0.914  15.750  0.0840  0.1338 -0.3595
 5084SOL    HW126888   2.825   0.975  15.696  1.2002  0.8436  1.4532
 5084SOL    HW226889   2.839   0.890  15.819 -1.6238 -2.0281  0.4773
 5085SOL     OW26890   0.395   1.984   8.517 -0.5040 -0.1082 -0.4552
 5085SOL    HW126891   0.373   1.931   8.440 -1.6592  0.4802 -0.5327
 5085SOL    HW226892   0.405   1.907   8.573  1.7241  0.0097 -0.6871
 5086SOL     OW26893   2.162   1.434   4.597 -0.5971  0.0654  0.7941
 5086SOL    HW126894   2.166   1.436   4.693 -0.0926  2.5467  0.7217
 5086SOL    HW226895   2.180   1.347   4.561  2.4863  1.0504 -0.0456
 5087SOL     OW26896   4.038   0.709   3.369 -0.2833 -0.2299 -0.4548
 5087SOL    HW126897   3.963   0.768   3.358  0.0163  0.4751  1.2084
 5087SOL    HW226898   3.995   0.624   3.358  0.3577 -0.1990 -3.1761
 5088SOL     OW26899   0.797   0.159   8.455  0.6630  0.1511  0.2811
 5088SOL    HW126900   0.819   0.249   8.430  2.6466 -0.5476 -0.4880
 5088SOL    HW226901   0.728   0.160   8.522 -0.2348 -2.4891 -0.6111
 5089SOL     OW26902   1.229   1.005  17.262 -0.1321  0.6711 -0.1534
 5089SOL    HW126903   1.170   1.057  17.207 -0.3208  0.2822 -0.3172
 5089SOL    HW226904   1.190   1.002  17.349 -0.8526  0.5166 -0.4883
 5090SOL     OW26905   2.837   1.296  16.507  0.2144 -0.4085 -0.0001
 5090SOL    HW126906   2.850   1.238  16.582  0.9533  1.1631  1.1072
 5090SOL    HW226907   2.911   1.356  16.515 -0.9181  0.8483  1.0693
 5091SOL     OW26908   4.006   2.715   9.639  0.0301  0.2140 -0.0190
 5091SOL    HW126909   4.051   2.783   9.689  1.3994  0.1827 -1.2133
 5091SOL    HW226910   3.931   2.762   9.602 -0.5496 -0.1237  0.7315
 5092SOL     OW26911   1.039   0.591   9.209  0.5266  0.1562  0.2996
 5092SOL    HW126912   0.955   0.575   9.252  0.4888  1.0645  0.5513
 5092SOL    HW226913   1.008   0.583   9.119  0.2589 -0.4355  0.4422
 5093SOL     OW26914   3.757   1.136   6.865  0.6649  0.1621  0.1288
 5093SOL    HW126915   3.802   1.220   6.866 -1.4676  1.3126 -1.2259
 5093SOL    HW226916   3.674   1.161   6.906  1.3441  1.1166  0.9287
 5094SOL     OW26917   1.809   0.054   7.338 -0.1078 -0.2297 -0.0161
 5094SOL    HW126918   1.742   4.722   7.326  0.0827 -0.6282  1.1207
 5094SOL    HW226919   1.809   0.086   7.248  1.3898 -1.1977 -0.3695
 5095SOL     OW26920   1.847   1.711   4.990  1.0115  0.4659 -0.9487
 5095SOL    HW126921   1.918   1.678   5.045 -1.2841 -0.0938  1.6787
 5095SOL    HW226922   1.862   1.805   4.983 -1.8843  0.9592 -0.4920
 5096SOL     OW26923   0.334   2.583   3.989 -0.0358 -0.4086  0.6322
 5096SOL    HW126924   0.343   2.678   3.985  0.5543 -0.6096 -2.4856
 5096SOL    HW226925   0.312   2.543   3.905  2.6860 -1.3333  0.3395
 5097SOL     OW26926   2.032   4.715   3.171  0.1571 -0.1621 -0.3315
 5097SOL    HW126927   2.062   0.070   3.174 -2.7190  0.8311 -1.6026
 5097SOL    HW226928   2.116   4.676   3.143 -1.1835 -0.8696 -3.3775
 5098SOL     OW26929   2.409   2.096   3.215  0.1385 -0.4259  0.2976
 5098SOL    HW126930   2.391   2.061   3.128  0.6575 -1.6349  0.6794
 5098SOL    HW226931   2.455   2.031   3.268  0.3042 -0.8944 -0.4256
 5099SOL     OW26932   4.407   0.469  10.397 -0.1787  0.0033 -0.5480
 5099SOL    HW126933   4.449   0.555  10.396  0.7902 -0.4655  1.5253
 5099SOL    HW226934   4.473   0.400  10.387  1.6015  1.4831  0.8805
 5100SOL     OW26935   1.390   0.579   2.990  1.0767  0.4013 -0.5042
 5100SOL    HW126936   1.432   0.635   2.924 -1.0602  2.0908 -0.4251
 5100SOL    HW226937   1.354   0.650   3.043  3.8166 -1.8771  4.3079
 5101SOL     OW26938   0.990   4.096   5.371 -0.0043  0.2586  0.2231
 5101SOL    HW126939   0.951   4.162   5.314  0.3015 -0.0708 -0.3793
 5101SOL    HW226940   0.958   4.013   5.335 -2.0161  1.5986 -1.0368
 5102SOL     OW26941   3.410   2.288   5.948  0.0366  0.0055  0.6085
 5102SOL    HW126942   3.450   2.205   5.923 -0.3706  0.5117 -1.6489
 5102SOL    HW226943   3.479   2.340   5.989 -1.0629  0.9435  1.2686
 5103SOL     OW26944   1.404   3.307  13.396  0.0223 -0.0293 -0.0424
 5103SOL    HW126945   1.320   3.333  13.358  0.0978  1.1581  0.6044
 5103SOL    HW226946   1.438   3.235  13.342 -0.9752  0.5671 -1.4581
 5104SOL     OW26947   2.516   0.577   7.136 -0.0847 -0.2314  0.0371
 5104SOL    HW126948   2.488   0.624   7.214  0.7823  0.4358 -0.0573
 5104SOL    HW226949   2.474   0.491   7.144 -3.7615  1.5906  0.4652
 5105SOL     OW26950   0.358   1.988   5.621 -0.3211  0.0527  0.4549
 5105SOL    HW126951   0.294   2.049   5.658 -0.5742 -2.0527  3.4292
 5105SOL    HW226952   0.296   1.935   5.571 -1.6864  0.9561  1.2097
 5106SOL     OW26953   4.641   2.059   5.029  0.3665 -0.4377  0.2732
 5106SOL    HW126954   4.590   1.988   4.991 -2.0165  1.1421  0.5277
 5106SOL    HW226955   4.699   2.085   4.957  0.3022  0.8080  0.6657
 5107SOL     OW26956   4.020   1.592  11.329 -0.8413 -0.0366  0.2694
 5107SOL    HW126957   3.990   1.682  11.319 -1.5103 -0.3219 -0.3117
 5107SOL    HW226958   4.114   1.611  11.326 -0.8832  0.0112 -0.7211
 5108SOL     OW26959   0.442   2.478  12.022 -0.2893 -0.2323  0.3843
 5108SOL    HW126960   0.536   2.478  12.008 -0.2788  1.2311  0.4969
 5108SOL    HW226961   0.436   2.466  12.117  0.9811 -0.1979  0.4644
 5109SOL     OW26962   0.698   2.866   3.659  0.2780  0.1450 -0.5190
 5109SOL    HW126963   0.613   2.904   3.681  0.9380  1.6828 -0.6331
 5109SOL    HW226964   0.693   2.774   3.687 -0.1413  0.3279  0.0163
 5110SOL     OW26965   1.853   4.650   6.058 -0.1171 -0.5094  0.4657
 5110SOL    HW126966   1.853   4.633   5.964  1.8047 -0.5229  0.4744
 5110SOL    HW226967   1.831   0.008   6.057  1.0285 -0.2507 -0.4518
 5111SOL     OW26968   1.630   0.379   7.956 -0.0247  0.1086 -0.1809
 5111SOL    HW126969   1.704   0.428   7.991 -0.0989 -0.0625  0.2135
 5111SOL    HW226970   1.650   0.291   7.986  0.0330  0.2656  0.2411
 5112SOL     OW26971   0.228   1.144   4.158 -0.4109 -0.2842 -0.0290
 5112SOL    HW126972   0.254   1.054   4.177  3.4129  0.4163 -1.8635
 5112SOL    HW226973   0.144   1.127   4.115 -0.4068  0.6915 -0.4384
 5113SOL     OW26974   3.807   1.823   5.806  0.9257 -0.3013  0.1422
 5113SOL    HW126975   3.720   1.793   5.777 -0.2254  1.4905  1.7505
 5113SOL    HW226976   3.819   1.907   5.763  0.0897 -0.0321  0.4229
 5114SOL     OW26977   2.606   2.262   1.342  0.3590 -0.0934  0.1440
 5114SOL    HW126978   2.580   2.313   1.265 -1.3533 -1.4726 -0.2227
 5114SOL    HW226979   2.687   2.301   1.373  1.3723 -2.8204  0.9949
 5115SOL     OW26980   4.033   2.593   2.919 -0.3054 -0.0409 -0.3077
 5115SOL    HW126981   3.956   2.560   2.966 -1.5895  1.1082 -1.6049
 5115SOL    HW226982   3.987   2.673   2.894  0.3913 -0.0099 -1.4882
 5116SOL     OW26983   3.750   1.503  11.959  0.3885 -0.4896  0.2220
 5116SOL    HW126984   3.672   1.462  11.923 -1.6197  1.5161  2.3424
 5116SOL    HW226985   3.817   1.454  11.911 -0.4514  0.0401 -1.4700
 5117SOL     OW26986   4.045   3.304   7.882 -0.0076  0.7900 -0.4105
 5117SOL    HW126987   4.027   3.274   7.971  0.2071  1.5774 -0.1061
 5117SOL    HW226988   4.024   3.397   7.886  0.9624  0.9558  1.1331
 5118SOL     OW26989   4.547   2.624   4.937 -0.2059  0.4383 -0.4727
 5118SOL    HW126990   4.570   2.683   4.865 -0.4983  0.2966 -0.6808
 5118SOL    HW226991   4.620   2.637   4.998  0.2918 -0.1811 -0.9290
 5119SOL     OW26992   2.676   4.727   2.098  0.1429 -0.0611 -0.1806
 5119SOL    HW126993   2.708   0.054   2.033 -1.0510  1.8107  1.0358
 5119SOL    HW226994   2.732   0.016   2.172 -0.4583 -2.0001  0.9235
 5120SOL     OW26995   3.795   2.889   0.542  0.2739  0.2395 -0.1485
 5120SOL    HW126996   3.781   2.862   0.632 -0.5613 -0.8023 -0.5797
 5120SOL    HW226997   3.715   2.848   0.507  0.4176 -0.3117  0.1610
 5121SOL     OW26998   3.043   1.216  17.385 -0.2163 -0.2626 -0.5828
 5121SOL    HW126999   3.013   1.242  17.297 -1.3149 -0.5933 -0.3062
 5121SOL    HW227000   3.132   1.252  17.386  0.4634 -2.0165  0.7532
 5122SOL     OW27001   0.464   3.662   6.105 -0.6112  0.5468  0.3508
 5122SOL    HW127002   0.494   3.682   6.194  1.6096 -1.0768 -0.0260
 5122SOL    HW227003   0.500   3.738   6.059  0.0506 -0.6191 -1.0576
 5123SOL     OW27004   2.545   0.869   2.098  0.4006  0.1662 -0.5405
 5123SOL    HW127005   2.559   0.775   2.110  1.1108  0.2122 -0.9975
 5123SOL    HW227006   2.461   0.872   2.051  1.1843  0.8655 -1.8948
 5124SOL     OW27007   0.346   1.511   1.405  0.0169 -0.0736 -0.1691
 5124SOL    HW127008   0.390   1.448   1.348 -0.5628 -0.4198 -0.2318
 5124SOL    HW227009   0.257   1.479   1.391  0.8161 -1.6762 -1.5648
 5125SOL     OW27010   1.968   1.021   2.294 -0.4192 -0.6475 -0.2740
 5125SOL    HW127011   2.044   0.963   2.299 -0.4157 -0.5974  0.2779
 5125SOL    HW227012   1.952   1.030   2.200  2.7105  2.7236 -0.5028
 5126SOL     OW27013   2.677   0.758   8.387  0.0723 -0.4819  0.1209
 5126SOL    HW127014   2.729   0.729   8.462  2.1339 -0.0748 -1.1580
 5126SOL    HW227015   2.651   0.671   8.356  1.0054 -1.1218  1.1792
 5127SOL     OW27016   2.808   4.414   6.705  0.0978  0.5723  0.3142
 5127SOL    HW127017   2.755   4.363   6.644 -1.0517  1.0804  0.8869
 5127SOL    HW227018   2.752   4.400   6.781 -0.4057  1.8384  0.1731
 5128SOL     OW27019   0.933   1.978  14.769 -0.5582  0.1637  0.2692
 5128SOL    HW127020   0.916   2.010  14.858 -1.9269  0.8137 -0.2177
 5128SOL    HW227021   0.859   2.010  14.717 -0.1999 -0.9438 -0.9059
 5129SOL     OW27022   1.509   4.336   2.383  0.1880  0.2059  0.1064
 5129SOL    HW127023   1.541   4.391   2.313 -2.8148  0.2009 -1.2805
 5129SOL    HW227024   1.419   4.368   2.387 -0.5025 -1.8494  1.2879
 5130SOL     OW27025   3.943   0.705   6.810 -0.2171  0.1517  0.3086
 5130SOL    HW127026   3.961   0.781   6.755  2.0661  0.0823  0.9409
 5130SOL    HW227027   3.874   0.738   6.867 -1.3697  1.1396 -1.6871
 5131SOL     OW27028   1.325   3.845   5.763  0.3191  0.3121  0.2304
 5131SOL    HW127029   1.237   3.813   5.743  0.3949 -0.0249  0.4229
 5131SOL    HW227030   1.348   3.790   5.838 -0.0944  0.0279  0.1499
 5132SOL     OW27031   1.371   2.695   8.312 -0.0887  0.0906  0.5123
 5132SOL    HW127032   1.379   2.766   8.375  3.5844 -0.1930  0.3561
 5132SOL    HW227033   1.394   2.735   8.228 -0.3582 -2.6870 -0.9121
 5133SOL     OW27034   0.625   0.276   5.812 -0.1679 -0.2418 -0.6898
 5133SOL    HW127035   0.712   0.271   5.851  0.8191 -1.3850 -3.0648
 5133SOL    HW227036   0.594   0.190   5.841  2.8539 -1.0698  0.1193
 5134SOL     OW27037   0.799   0.067  13.952  0.1815  0.1841 -0.3069
 5134SOL    HW127038   0.833   0.150  13.987  1.2830 -0.7979  0.9679
 5134SOL    HW227039   0.864   0.012  13.997 -0.1885 -1.8520 -2.2517
 5135SOL     OW27040   4.718   3.931   5.020 -0.1401  0.3628  0.5103
 5135SOL    HW127041   0.025   4.005   5.063  0.2759 -1.0227  2.4999
 5135SOL    HW227042   4.713   3.869   5.092 -2.2283 -0.2765 -0.1683
 5136SOL     OW27043   0.165   4.129   7.639  0.6216 -0.6596 -0.0081
 5136SOL    HW127044   0.097   4.065   7.620 -0.2710  0.4999 -0.7174
 5136SOL    HW227045   0.188   4.083   7.720 -1.3342 -1.2319  0.2116
 5137SOL     OW27046   3.026   2.902   2.946 -0.3533  0.6220  0.3253
 5137SOL    HW127047   3.089   2.909   2.875 -0.1113  0.9276  0.5730
 5137SOL    HW227048   2.993   2.813   2.932  2.3396 -0.2286 -0.6907
 5138SOL     OW27049   0.991   3.646   9.330  0.0101  0.1859  0.0532
 5138SOL    HW127050   1.049   3.677   9.261  1.3373 -1.6291  0.3525
 5138SOL    HW227051   1.010   3.552   9.338  0.0176  0.0653 -1.3515
 5139SOL     OW27052   2.428   1.745   4.741 -0.3964 -0.4567 -0.7538
 5139SOL    HW127053   2.519   1.723   4.721  0.5435  1.4873  1.3510
 5139SOL    HW227054   2.388   1.718   4.659 -0.9931 -1.1674 -0.2267
 5140SOL     OW27055   1.135   2.223   7.137 -0.2727 -0.2601  0.7561
 5140SOL    HW127056   1.213   2.186   7.177  1.3851  1.2487 -1.1041
 5140SOL    HW227057   1.139   2.314   7.167 -2.0448  0.5960 -1.5506
 5141SOL     OW27058   3.577   1.499  15.732  0.1614  0.3802  0.4155
 5141SOL    HW127059   3.650   1.478  15.789  0.3497 -1.1618 -0.3860
 5141SOL    HW227060   3.551   1.584  15.768 -2.2147 -0.2612  0.2317
 5142SOL     OW27061   3.443   1.671   1.559 -0.0388 -0.1284  0.5797
 5142SOL    HW127062   3.489   1.673   1.475  0.1555  0.1267  0.6922
 5142SOL    HW227063   3.366   1.620   1.535  0.0457  0.6308 -1.3225
 5143SOL     OW27064   3.747   2.851   6.102  0.3323  0.0688  0.3745
 5143SOL    HW127065   3.749   2.868   6.007  1.3909  0.9894  0.5505
 5143SOL    HW227066   3.669   2.796   6.111 -0.2395  0.8920  0.4612
 5144SOL     OW27067   3.538   4.143  12.899  0.3372 -0.6042 -0.1382
 5144SOL    HW127068   3.454   4.118  12.937 -0.4732  0.7586 -1.0658
 5144SOL    HW227069   3.585   4.150  12.982 -1.0372 -2.6064  0.8287
 5145SOL     OW27070   2.038   0.294   5.789 -0.4400 -0.3405 -0.4829
 5145SOL    HW127071   1.979   0.335   5.853  0.1938  0.1898 -0.2385
 5145SOL    HW227072   2.114   0.351   5.782 -1.4815  1.3958  1.9189
 5146SOL     OW27073   1.986   1.759   0.613 -0.1722 -0.2992  0.1628
 5146SOL    HW127074   1.922   1.742   0.545 -0.2000 -0.8103  0.3140
 5146SOL    HW227075   1.997   1.853   0.602 -0.2983 -0.3006  0.0423
 5147SOL     OW27076   1.318   3.612   7.453 -0.0961  0.2183  0.1896
 5147SOL    HW127077   1.257   3.685   7.462 -2.8095 -1.8615 -1.4820
 5147SOL    HW227078   1.255   3.543   7.474 -2.2844  2.4906  1.0146
 5148SOL     OW27079   1.606   4.257   4.404  0.0116  0.3644  0.0487
 5148SOL    HW127080   1.679   4.211   4.362  0.7105  0.5784  1.0277
 5148SOL    HW227081   1.528   4.222   4.360  1.8980 -0.5067 -2.6402
 5149SOL     OW27082   2.888   3.229   2.093  0.1206 -0.1938  0.4776
 5149SOL    HW127083   2.935   3.154   2.056  2.4509  0.7912  1.4106
 5149SOL    HW227084   2.939   3.235   2.174  0.8472 -2.7165  0.1863
 5150SOL     OW27085   1.049   2.102  12.084 -0.1789 -0.6230 -0.3753
 5150SOL    HW127086   1.113   2.150  12.032  0.3402 -1.1212 -0.1984
 5150SOL    HW227087   1.086   2.120  12.170 -0.9974 -1.1472  0.0805
 5151SOL     OW27088   3.670   0.712  15.733 -0.2734  0.1592  0.1119
 5151SOL    HW127089   3.734   0.721  15.804  1.9983  3.5632 -2.4315
 5151SOL    HW227090   3.686   0.619  15.716  1.2814  0.4793 -0.1539
 5152SOL     OW27091   2.595   4.069  13.573  0.3280  0.0745 -0.4961
 5152SOL    HW127092   2.538   4.146  13.577  1.4943  0.9204 -0.2649
 5152SOL    HW227093   2.646   4.086  13.494 -0.5132 -0.8137 -1.2396
 5153SOL     OW27094   3.874   1.241   4.083  0.4569 -0.4609 -0.5601
 5153SOL    HW127095   3.956   1.212   4.123  0.3960 -0.1793 -0.2172
 5153SOL    HW227096   3.905   1.325   4.049  2.6400 -0.2830  1.8325
 5154SOL     OW27097   0.674   2.156   9.975  0.1788 -0.0459  0.2913
 5154SOL    HW127098   0.606   2.088   9.979 -0.6735  0.7970  0.3194
 5154SOL    HW227099   0.740   2.117  10.032  1.2885  0.1503 -0.8737
 5155SOL     OW27100   4.116   1.527   6.807  0.0665  0.2458 -0.2701
 5155SOL    HW127101   4.184   1.469   6.841 -0.0257  0.2803 -0.0276
 5155SOL    HW227102   4.155   1.527   6.719 -1.5113  0.3567 -0.9878
 5156SOL     OW27103   1.733   4.063   6.963  0.6839  0.3045 -0.0816
 5156SOL    HW127104   1.749   4.157   6.970 -1.4994  0.7043 -0.6594
 5156SOL    HW227105   1.702   4.051   7.053 -3.2098  1.9040 -1.2188
 5157SOL     OW27106   1.979   4.311   3.813  0.1502 -0.2507  0.6715
 5157SOL    HW127107   1.946   4.225   3.787  0.2884 -0.6028  1.6736
 5157SOL    HW227108   2.068   4.292   3.843 -0.0905 -2.3277  0.0106
 5158SOL     OW27109   1.149   2.798   8.511  0.0339  0.1161  1.0410
 5158SOL    HW127110   1.221   2.857   8.489  0.4823 -0.2121  1.6388
 5158SOL    HW227111   1.191   2.737   8.572 -0.7637  0.6044  2.0900
 5159SOL     OW27112   2.943   2.280   4.848  0.5832 -0.2264 -0.5745
 5159SOL    HW127113   2.942   2.376   4.848 -0.1544 -0.2509  1.8517
 5159SOL    HW227114   2.951   2.268   4.942 -1.4532 -4.6780 -0.9599
 5160SOL     OW27115   0.909   1.649   4.029 -0.0835  0.3597  0.0589
 5160SOL    HW127116   0.965   1.601   4.090 -1.5672  0.9781  1.9172
 5160SOL    HW227117   0.975   1.662   3.961 -2.1741  1.8026 -1.7034
 5161SOL     OW27118   2.863   2.324  16.551 -0.6165 -0.1666 -0.5179
 5161SOL    HW127119   2.934   2.291  16.496  1.5995  0.3609  2.0553
 5161SOL    HW227120   2.885   2.417  16.555  2.5090 -1.0009  1.2926
 5162SOL     OW27121   4.155   2.877   9.811 -0.0665  0.2813  0.2314
 5162SOL    HW127122   4.220   2.942   9.786  2.1484 -2.7095 -1.8061
 5162SOL    HW227123   4.207   2.831   9.877  1.4978  1.4677 -0.1932
 5163SOL     OW27124   2.958   4.438   6.010  0.2180 -0.4969  0.2506
 5163SOL    HW127125   2.980   4.345   6.014  0.8708 -0.4510 -2.2785
 5163SOL    HW227126   2.863   4.442   6.023  0.3726  1.5020  0.9019
 5164SOL     OW27127   4.404   1.095  17.224  0.0459  0.0556 -0.4437
 5164SOL    HW127128   4.311   1.103  17.200 -0.6284 -0.8267  1.8957
 5164SOL    HW227129   4.392   1.107  17.318  0.3012 -2.7582 -0.0603
 5165SOL     OW27130   0.517   0.409   7.125 -0.7849  0.4617  0.8646
 5165SOL    HW127131   0.544   0.317   7.129 -0.2583  0.5235 -1.0781
 5165SOL    HW227132   0.524   0.424   7.031  0.6240  0.9222  1.0323
 5166SOL     OW27133   0.149   3.267   2.964  0.0492 -0.0249  0.2003
 5166SOL    HW127134   0.055   3.254   2.979 -0.5132  2.2097 -1.2643
 5166SOL    HW227135   0.164   3.174   2.948 -0.3736  0.3428 -2.3903
 5167SOL     OW27136   4.608   0.542  11.643 -0.6106  0.0050  0.0729
 5167SOL    HW127137   4.630   0.450  11.658 -0.7354 -0.3322 -1.8311
 5167SOL    HW227138   4.532   0.548  11.701 -0.3900  1.1123  0.2553
 5168SOL     OW27139   4.058   3.040   8.330  0.6741 -0.2574  0.0952
 5168SOL    HW127140   4.073   3.050   8.424  1.4791  0.6846 -0.1333
 5168SOL    HW227141   4.151   3.031   8.308  1.1408 -0.2896  2.0537
 5169SOL     OW27142   0.549   0.497   4.315 -0.1259 -0.0511  0.0446
 5169SOL    HW127143   0.554   0.414   4.269 -0.5890 -0.6319  1.0432
 5169SOL    HW227144   0.516   0.548   4.241 -1.8300 -1.2978 -0.0554
 5170SOL     OW27145   1.611   2.236   5.246  0.0986  0.5925  0.7068
 5170SOL    HW127146   1.518   2.260   5.246  0.2468  1.1617  1.3192
 5170SOL    HW227147   1.643   2.268   5.331  0.7287 -1.1544  1.1333
 5171SOL     OW27148   3.139   3.805   3.527 -0.4924  0.1453 -0.3093
 5171SOL    HW127149   3.133   3.852   3.610  0.2412  0.2465 -0.3117
 5171SOL    HW227150   3.233   3.809   3.508  0.3597  0.1988  3.8693
 5172SOL     OW27151   2.353   2.630   3.890 -0.6670 -0.1250  1.2339
 5172SOL    HW127152   2.384   2.717   3.866  0.4161 -0.8388 -0.0084
 5172SOL    HW227153   2.396   2.609   3.973 -1.3509 -2.3092  1.0451
 5173SOL     OW27154   1.739   2.083   6.755  0.4843  0.2364 -0.1945
 5173SOL    HW127155   1.682   2.009   6.736 -0.6308  1.5016 -1.7107
 5173SOL    HW227156   1.823   2.045   6.728  0.0578  0.9689 -2.4627
 5174SOL     OW27157   0.736   3.307   6.189  0.4688 -0.5132  0.0930
 5174SOL    HW127158   0.727   3.342   6.277  1.3699 -0.2601  0.0850
 5174SOL    HW227159   0.727   3.215   6.214  2.6912 -0.1861  2.1183
 5175SOL     OW27160   0.151   3.025   4.859 -0.2811 -0.2503  0.0701
 5175SOL    HW127161   0.219   3.027   4.927 -0.1943  1.8499 -0.0811
 5175SOL    HW227162   0.202   3.030   4.778 -1.6448  0.3651 -0.7379
 5176SOL     OW27163   3.689   4.489  14.308 -0.5180 -0.0427  0.3091
 5176SOL    HW127164   3.754   4.467  14.242  0.4853 -0.0715  1.3121
 5176SOL    HW227165   3.632   4.413  14.316  1.8179 -1.9140 -0.7120
 5177SOL     OW27166   2.220   2.176   2.933 -0.6609  0.1130  0.8309
 5177SOL    HW127167   2.227   2.082   2.917  0.7336  0.6607 -1.9198
 5177SOL    HW227168   2.304   2.218   2.912 -1.3696  0.8974 -0.4670
 5178SOL     OW27169   3.137   0.631   3.762  0.3079  0.4500  0.2762
 5178SOL    HW127170   3.134   0.697   3.831  1.5526  1.5089 -0.6715
 5178SOL    HW227171   3.094   0.552   3.794 -0.4191  0.9302  0.4837
 5179SOL     OW27172   1.845   2.419   5.254 -0.2698 -0.4930  0.0971
 5179SOL    HW127173   1.780   2.353   5.278 -1.8770  1.4268  1.0342
 5179SOL    HW227174   1.824   2.435   5.161  3.1096  1.7658 -0.2740
 5180SOL     OW27175   2.390   3.024   1.915 -0.0724  0.0339 -0.0823
 5180SOL    HW127176   2.337   2.956   1.958 -1.4764  0.6586 -0.8612
 5180SOL    HW227177   2.475   2.988   1.942 -0.4251  0.8391  2.1408
 5181SOL     OW27178   0.885   3.268  17.100 -0.6175  0.4790  0.0056
 5181SOL    HW127179   0.811   3.327  17.116 -1.3693 -0.5630  0.3847
 5181SOL    HW227180   0.865   3.255  17.007 -1.0353  0.5495  0.0843
 5182SOL     OW27181   4.166   3.256  14.422 -0.3776  0.3783  0.2836
 5182SOL    HW127182   4.206   3.189  14.368 -0.0343 -0.7761  1.9637
 5182SOL    HW227183   4.118   3.194  14.477  1.5870 -0.5282  0.9637
 5183SOL     OW27184   4.490   1.100  10.988 -0.2670 -0.3077  0.2870
 5183SOL    HW127185   4.416   1.121  11.045  1.1667  0.5035  1.8975
 5183SOL    HW227186   4.481   1.008  10.967 -1.5551 -0.4442  1.4647
 5184SOL     OW27187   4.506   0.163   2.813 -0.0184  0.1977 -0.2749
 5184SOL    HW127188   4.589   0.205   2.833 -0.1754 -0.0482  0.9411
 5184SOL    HW227189   4.457   0.162   2.896  0.3164  1.1819 -0.0692
 5185SOL     OW27190   2.956   1.229   7.686  0.2400  0.0482 -0.4355
 5185SOL    HW127191   2.991   1.291   7.622  2.3147 -1.7470 -1.0256
 5185SOL    HW227192   3.005   1.251   7.765 -0.2701  2.0235 -0.6664
 5186SOL     OW27193   2.719   0.187   4.213  0.3420 -0.2634 -0.2157
 5186SOL    HW127194   2.763   0.111   4.250 -1.0877 -1.4347 -0.9302
 5186SOL    HW227195   2.783   0.219   4.149 -0.9669  1.0930 -0.8509
 5187SOL     OW27196   2.017   2.317   6.449 -0.2024 -0.3352  0.4159
 5187SOL    HW127197   2.020   2.396   6.502 -0.7938  0.7621 -1.1563
 5187SOL    HW227198   1.971   2.261   6.511  1.2977 -2.5672 -0.4966
 5188SOL     OW27199   0.521   4.187   2.092  0.2685  0.3496  0.4632
 5188SOL    HW127200   0.443   4.222   2.049  0.0494 -1.7328 -0.8232
 5188SOL    HW227201   0.490   4.110   2.140  1.4029 -2.7207 -3.8082
 5189SOL     OW27202   2.724   0.695  13.481 -0.0319  0.2215  0.7425
 5189SOL    HW127203   2.640   0.731  13.510 -0.7369  0.0355 -1.1197
 5189SOL    HW227204   2.697   0.618  13.432 -0.6295  1.8984 -1.5865
 5190SOL     OW27205   1.602   4.083   1.225  0.4842  0.0976  0.3317
 5190SOL    HW127206   1.595   4.145   1.298 -2.0524 -1.0447  1.0569
 5190SOL    HW227207   1.586   4.142   1.151 -1.6136 -0.3493  0.4368
 5191SOL     OW27208   3.496   0.473   7.468  1.0596 -0.4460 -0.4376
 5191SOL    HW127209   3.457   0.445   7.552  0.4047 -1.0919 -0.9520
 5191SOL    HW227210   3.428   0.506   7.409  2.0464  0.9661 -0.7545
 5192SOL     OW27211   1.712   4.364  11.173 -0.1460 -0.4026  0.2321
 5192SOL    HW127212   1.775   4.387  11.242 -0.8854  0.0479  0.7528
 5192SOL    HW227213   1.773   4.343  11.102 -0.0658 -0.6511  0.3742
 5193SOL     OW27214   2.164   2.794   8.140 -0.2996 -0.1717  0.3595
 5193SOL    HW127215   2.162   2.877   8.092  4.7806  0.2956  0.9744
 5193SOL    HW227216   2.165   2.735   8.065  2.0870 -2.5862  2.2815
 5194SOL     OW27217   2.323   3.648  14.959  0.5225 -0.7335 -0.2888
 5194SOL    HW127218   2.281   3.719  15.008  0.2820  0.0389 -1.6386
 5194SOL    HW227219   2.287   3.570  15.002  0.6943 -0.1645  0.8863
 5195SOL     OW27220   3.604   1.967   9.077  0.1261  0.1176 -0.0121
 5195SOL    HW127221   3.605   1.998   8.986 -1.3717 -0.4577 -0.2277
 5195SOL    HW227222   3.515   1.932   9.076 -0.3577  1.3135  0.5679
 5196SOL     OW27223   0.295   4.136   2.835 -0.3266  0.5177 -0.5988
 5196SOL    HW127224   0.378   4.178   2.854 -0.0346 -1.0338  1.5147
 5196SOL    HW227225   0.249   4.202   2.783 -0.1889  0.8071 -0.3440
 5197SOL     OW27226   1.976   1.142  11.537  0.1561 -0.3238 -0.3201
 5197SOL    HW127227   1.950   1.228  11.504 -1.1307 -0.6975 -0.2776
 5197SOL    HW227228   1.898   1.121  11.589  1.5505  0.7001  2.2300
 5198SOL     OW27229   0.538   3.673   4.831 -0.4537 -0.2738 -0.5299
 5198SOL    HW127230   0.487   3.609   4.881 -1.5891 -0.4271 -1.8826
 5198SOL    HW227231   0.493   3.686   4.747 -1.6488 -0.0273  0.1414
 5199SOL     OW27232   0.703   2.056   0.511 -0.6392 -0.0669  0.6075
 5199SOL    HW127233   0.768   2.119   0.545 -2.4980  2.2309 -0.1056
 5199SOL    HW227234   0.637   2.114   0.474  0.6414  1.3658  0.5509
 5200SOL     OW27235   0.528   0.120   7.161 -0.4400 -0.2948 -0.4654
 5200SOL    HW127236   0.590   0.078   7.101 -0.3944  1.4780 -1.6731
 5200SOL    HW227237   0.465   0.049   7.169 -2.2490  1.5470  1.5786
 5201SOL     OW27238   2.349   0.676   8.327  0.1539 -0.2727 -0.6832
 5201SOL    HW127239   2.385   0.634   8.405  2.0134  0.2309 -1.2496
 5201SOL    HW227240   2.323   0.764   8.356  0.5537  0.2066 -1.7771
 5202SOL     OW27241   0.185   2.151  13.193  0.1779 -0.4471  0.6751
 5202SOL    HW127242   0.105   2.127  13.145  0.0767 -1.7776  1.5089
 5202SOL    HW227243   0.242   2.076  13.175  0.2045 -0.0726 -0.8245
 5203SOL     OW27244   0.847   0.960  17.223  0.0102 -0.0916 -0.2604
 5203SOL    HW127245   0.874   0.926  17.308 -1.9600 -1.6918 -0.2532
 5203SOL    HW227246   0.910   1.028  17.200  0.5362 -0.4704  0.0585
 5204SOL     OW27247   3.614   2.665   5.338 -0.0014  0.7535 -0.3996
 5204SOL    HW127248   3.672   2.599   5.300 -0.0451  1.4121 -1.5968
 5204SOL    HW227249   3.564   2.695   5.263 -0.3087  0.1594 -0.4261
 5205SOL     OW27250   4.266   3.006   5.158  0.3843  0.7587  0.4996
 5205SOL    HW127251   4.329   3.006   5.230 -0.2725  1.5547  1.0671
 5205SOL    HW227252   4.306   3.020   5.072 -0.8180 -0.2013 -0.2200
 5206SOL     OW27253   0.164   1.581   3.761 -0.0718 -0.0539  0.6011
 5206SOL    HW127254   0.129   1.496   3.790 -0.5651 -0.4052 -1.0217
 5206SOL    HW227255   0.256   1.574   3.786  0.0235 -0.1737  0.2154
 5207SOL     OW27256   2.915   1.911   4.089  0.3884  0.2353 -0.2765
 5207SOL    HW127257   2.883   1.954   4.169  2.1456 -2.5558  1.9210
 5207SOL    HW227258   2.865   1.963   4.025 -2.1214 -2.6523 -0.6883
 5208SOL     OW27259   2.547   1.541   3.761 -0.1217 -0.1789 -0.1205
 5208SOL    HW127260   2.498   1.597   3.702  0.7684  1.9168  1.1098
 5208SOL    HW227261   2.565   1.614   3.820 -2.8561  0.2892  0.1340
 5209SOL     OW27262   3.306   4.086   5.049 -0.6723  0.1766  0.0809
 5209SOL    HW127263   3.211   4.075   5.051 -0.4404 -1.6755  0.8353
 5209SOL    HW227264   3.316   4.156   4.984 -1.4622 -0.2809 -0.5214
 5210SOL     OW27265   4.312   4.533  14.130  0.1376  0.2182  0.1393
 5210SOL    HW127266   4.294   4.487  14.048  0.8226  1.2597 -0.5926
 5210SOL    HW227267   4.286   4.462  14.190  0.8452  0.1041  0.3035
 5211SOL     OW27268   4.537   2.262   3.545 -0.0508  0.0969 -0.6167
 5211SOL    HW127269   4.591   2.321   3.598  0.3492 -0.4483 -0.4164
 5211SOL    HW227270   4.596   2.261   3.470 -0.5883  0.6165 -1.0388
 5212SOL     OW27271   3.605   3.723   6.861  0.2712  0.6621 -0.1201
 5212SOL    HW127272   3.596   3.688   6.772  1.1778 -0.9668  0.4215
 5212SOL    HW227273   3.535   3.789   6.865 -1.1659 -0.8119 -1.1188
 5213SOL     OW27274   0.758   0.273  16.590 -0.4398 -0.0783  0.0590
 5213SOL    HW127275   0.744   0.281  16.684 -1.1648 -3.3598  0.1989
 5213SOL    HW227276   0.710   0.349  16.555  1.1895  0.2390 -1.4743
 5214SOL     OW27277   0.368   2.051   2.115  0.1422  0.0246 -0.1416
 5214SOL    HW127278   0.419   2.093   2.185 -1.1931  1.0158  0.2292
 5214SOL    HW227279   0.310   2.002   2.173  1.0852 -1.5740 -0.5550
 5215SOL     OW27280   3.464   2.333   4.638  0.0260  0.8458 -0.0434
 5215SOL    HW127281   3.415   2.333   4.556  0.7326 -0.9394 -0.4560
 5215SOL    HW227282   3.403   2.392   4.682  0.6348 -0.2691  2.3033
 5216SOL     OW27283   1.640   3.762   7.242  0.0411  0.2787  0.6569
 5216SOL    HW127284   1.732   3.741   7.254  0.5895  1.0528 -2.1185
 5216SOL    HW227285   1.617   3.767   7.149  3.8997 -1.5578 -0.3681
 5217SOL     OW27286   4.637   3.668  13.922  0.2356 -0.7829  0.1095
 5217SOL    HW127287   4.676   3.755  13.928  0.1642 -0.6263 -1.8176
 5217SOL    HW227288   4.544   3.676  13.900  0.3804  1.7146  0.4893
 5218SOL     OW27289   3.882   3.370   1.482  0.0744 -0.1245  0.0698
 5218SOL    HW127290   3.810   3.308   1.474 -2.4639  2.9071 -0.7070
 5218SOL    HW227291   3.947   3.329   1.425  0.7839 -1.5297  1.8769
 5219SOL     OW27292   4.268   1.814   6.368  0.3733 -0.1917  0.3181
 5219SOL    HW127293   4.274   1.853   6.455 -0.6317  0.0824  0.2659
 5219SOL    HW227294   4.337   1.862   6.322 -1.3820  1.9624 -0.0345
 5220SOL     OW27295   1.376   1.077   9.037 -0.2635 -0.3076 -0.1347
 5220SOL    HW127296   1.370   0.998   8.982 -1.0556  0.1685 -0.7456
 5220SOL    HW227297   1.312   1.141   9.006  0.3413 -0.6253 -2.0711
 5221SOL     OW27298   2.627   3.897   7.726 -0.0766  0.2182  0.2275
 5221SOL    HW127299   2.613   3.991   7.717  0.5511  0.5285  2.4486
 5221SOL    HW227300   2.533   3.878   7.730 -0.2548  1.3546  1.5085
 5222SOL     OW27301   3.619   4.547   5.880  0.1305 -0.1944  0.3856
 5222SOL    HW127302   3.667   4.530   5.799 -1.6902 -0.9216 -0.5399
 5222SOL    HW227303   3.673   4.515   5.953  0.1031 -2.0032 -0.3663
 5223SOL     OW27304   2.963   2.727   9.694 -0.2401  0.0528 -0.1231
 5223SOL    HW127305   2.875   2.737   9.656 -0.1838 -0.9333 -0.5254
 5223SOL    HW227306   3.010   2.680   9.625 -2.9587 -0.0186 -1.9471
 5224SOL     OW27307   4.585   0.541   2.487  0.1490  0.1696 -0.9555
 5224SOL    HW127308   4.558   0.589   2.565  2.7713  1.3717 -0.7858
 5224SOL    HW227309   4.624   0.460   2.521 -4.2158 -1.4245  0.1892
 5225SOL     OW27310   1.427   3.066   9.116  0.2576  0.1490  0.4177
 5225SOL    HW127311   1.366   3.095   9.049  0.0282 -2.7243 -0.6506
 5225SOL    HW227312   1.406   2.972   9.111 -2.6873  0.8238  0.4778
 5226SOL     OW27313   1.770   4.296   8.472  0.0701 -0.0458 -0.7901
 5226SOL    HW127314   1.792   4.207   8.447  3.8216  0.7735 -0.4504
 5226SOL    HW227315   1.834   4.316   8.541 -1.9287  0.2797  0.9558
 5227SOL     OW27316   2.064   4.405   2.987 -0.8040  0.0510  0.2558
 5227SOL    HW127317   2.123   4.361   2.926  0.1687  2.7464 -0.7531
 5227SOL    HW227318   2.113   4.378   3.064 -0.7679  0.1443  0.2663
 5228SOL     OW27319   2.651   3.914  10.296  0.0477 -0.3237  0.6062
 5228SOL    HW127320   2.723   3.954  10.346 -1.9436  0.4302  2.8596
 5228SOL    HW227321   2.619   3.987  10.243  1.0993 -0.9077 -0.8221
 5229SOL     OW27322   2.219   2.820  10.648  0.1172  0.1108  0.5498
 5229SOL    HW127323   2.130   2.854  10.657  0.5526  1.2718  0.4205
 5229SOL    HW227324   2.258   2.848  10.730  0.1777 -1.0346  0.9214
 5230SOL     OW27325   4.408   2.495   4.200  0.6956 -0.1269  0.4044
 5230SOL    HW127326   4.327   2.531   4.164  0.4421  0.5808  1.6948
 5230SOL    HW227327   4.373   2.487   4.289  1.9913 -1.6022  0.7785
 5231SOL     OW27328   0.333   3.348   3.965 -0.5433 -0.2489 -0.0949
 5231SOL    HW127329   0.363   3.437   3.981 -0.0046 -0.4249 -0.1118
 5231SOL    HW227330   0.270   3.355   3.893  1.0322  0.0845 -1.4458
 5232SOL     OW27331   3.147   1.755  15.715  0.1399 -0.3802 -0.1387
 5232SOL    HW127332   3.067   1.711  15.688 -0.8854  0.8473  0.8628
 5232SOL    HW227333   3.170   1.815  15.644  1.2437 -0.9238 -0.2341
 5233SOL     OW27334   1.067   3.772   5.720  0.7542  0.2870 -0.0439
 5233SOL    HW127335   0.978   3.801   5.706  0.4676 -1.2910 -1.4781
 5233SOL    HW227336   1.062   3.678   5.738 -2.5036  0.4237 -0.2677
 5234SOL     OW27337   3.928   3.984   2.989 -0.4094 -0.2360 -0.0706
 5234SOL    HW127338   3.924   4.069   2.947  0.9412  1.2102  2.7169
 5234SOL    HW227339   3.866   3.991   3.062  1.0102  1.4429  0.9580
 5235SOL     OW27340   3.088   1.623   3.182 -0.2429 -0.2037  0.2789
 5235SOL    HW127341   3.153   1.691   3.162 -0.6518  0.6041  1.7254
 5235SOL    HW227342   3.068   1.629   3.276 -0.5087 -1.3867  0.3003
 5236SOL     OW27343   1.551   0.358   0.455 -0.4069  0.0954 -0.0775
 5236SOL    HW127344   1.603   0.303   0.396  1.6759  0.2348  1.6624
 5236SOL    HW227345   1.609   0.433   0.460 -1.1425  0.8071 -2.0833
 5237SOL     OW27346   3.736   2.895   5.826  0.1544  0.8273  0.4415
 5237SOL    HW127347   3.736   2.989   5.809  1.2509  0.2102 -2.8189
 5237SOL    HW227348   3.742   2.865   5.736  2.3209  3.4670 -0.3012
 5238SOL     OW27349   0.617   2.340   8.952  0.4148  0.3882  0.2195
 5238SOL    HW127350   0.712   2.336   8.959  0.2865 -1.2545  1.1288
 5238SOL    HW227351   0.598   2.333   8.859 -3.0538 -1.5951  1.0533
 5239SOL     OW27352   2.748   4.724   2.743 -0.5155  0.5091 -0.9564
 5239SOL    HW127353   2.688   4.683   2.805 -0.0830 -1.2753 -1.7106
 5239SOL    HW227354   2.818   4.659   2.746  0.5557  1.8291  1.9640
 5240SOL     OW27355   0.412   3.043  10.280  0.1209 -0.4358  0.0467
 5240SOL    HW127356   0.349   3.057  10.209  0.8994 -0.5323 -0.6700
 5240SOL    HW227357   0.480   2.993  10.235  1.0953  1.1543 -0.2562
 5241SOL     OW27358   0.700   3.562   7.641  0.1969 -0.4388 -0.2194
 5241SOL    HW127359   0.622   3.512   7.621  1.0209 -0.2969 -3.7415
 5241SOL    HW227360   0.673   3.609   7.720  0.2572  0.7890 -0.9211
 5242SOL     OW27361   3.580   2.253  15.963 -0.4961  0.4532  0.0472
 5242SOL    HW127362   3.587   2.190  16.034 -3.1459 -0.1802 -0.2448
 5242SOL    HW227363   3.550   2.191  15.896  0.6463 -1.7181  1.5586
 5243SOL     OW27364   1.082   1.035   2.666  0.2593  0.2803 -0.1458
 5243SOL    HW127365   1.003   1.085   2.644  1.1150  2.7324  2.3746
 5243SOL    HW227366   1.145   1.105   2.651  1.2929 -0.5977  0.0785
 5244SOL     OW27367   1.891   3.645   4.876 -0.4476 -0.0168 -0.3412
 5244SOL    HW127368   1.915   3.712   4.813  3.0385 -1.3611 -0.4322
 5244SOL    HW227369   1.805   3.671   4.910  1.1309 -0.1942  3.8615
 5245SOL     OW27370   1.567   0.063   2.672 -0.8282 -0.3628 -0.0843
 5245SOL    HW127371   1.625   0.063   2.596 -2.6103 -1.4987 -1.4615
 5245SOL    HW227372   1.611   0.012   2.740  0.3581  1.6907  0.6679
 5246SOL     OW27373   0.560   3.817  12.495 -0.2475 -0.0583  0.0429
 5246SOL    HW127374   0.490   3.763  12.459  0.9563 -0.7949 -1.2011
 5246SOL    HW227375   0.578   3.869  12.416 -1.7402  0.0017 -0.2570
 5247SOL     OW27376   3.248   1.380  13.971 -0.4282  0.0373  0.1078
 5247SOL    HW127377   3.165   1.355  14.012  0.4074  0.7990  2.2588
 5247SOL    HW227378   3.230   1.469  13.939  1.4581  0.2781 -0.2984
 5248SOL     OW27379   2.563   3.739   6.538  0.0831 -0.0176  0.5082
 5248SOL    HW127380   2.605   3.696   6.613  2.0305 -0.1493 -0.6401
 5248SOL    HW227381   2.639   3.745   6.480 -0.0021 -2.1502  0.1606
 5249SOL     OW27382   3.460   3.513   4.255  0.7716  0.6131  0.0808
 5249SOL    HW127383   3.437   3.459   4.330  0.1881 -0.7627 -1.0835
 5249SOL    HW227384   3.553   3.489   4.265  0.2284 -0.2920  2.8945
 5250SOL     OW27385   4.193   2.592   3.561  0.8093 -0.2910 -0.4538
 5250SOL    HW127386   4.159   2.577   3.649 -0.2116  1.8727 -0.4891
 5250SOL    HW227387   4.285   2.614   3.578 -0.2638  2.3506  1.8721
 5251SOL     OW27388   4.206   2.813  10.689 -0.2029 -0.0133  0.6366
 5251SOL    HW127389   4.222   2.879  10.621  0.3022 -0.8515 -0.0610
 5251SOL    HW227390   4.166   2.741  10.641  0.5882 -1.9514  2.8824
 5252SOL     OW27391   1.223   3.582   1.745  0.2438  0.1024  0.3265
 5252SOL    HW127392   1.296   3.639   1.769  1.2885 -1.7574  1.5340
 5252SOL    HW227393   1.222   3.617   1.656  1.4440 -0.8319 -0.0512
 5253SOL     OW27394   3.714   3.197  16.179  0.6284 -0.0106 -0.4027
 5253SOL    HW127395   3.797   3.152  16.164  0.7454 -0.1885  0.7844
 5253SOL    HW227396   3.698   3.172  16.270  0.0981  2.1839  0.0916
 5254SOL     OW27397   1.207   0.977  16.106 -0.1091 -0.0761 -0.4985
 5254SOL    HW127398   1.295   1.012  16.121 -0.6159  0.3433  1.4943
 5254SOL    HW227399   1.213   0.900  16.049 -2.0588  0.5676 -1.5707
 5255SOL     OW27400   2.936   3.450  10.114  0.1404 -0.3218  0.0149
 5255SOL    HW127401   2.986   3.520  10.155 -1.0101 -0.3783  1.5156
 5255SOL    HW227402   2.963   3.455  10.022 -0.6963 -1.4016 -0.3033
 5256SOL     OW27403   1.283   0.144   1.403 -0.1587 -0.0297  0.1785
 5256SOL    HW127404   1.319   0.070   1.354 -0.3392  0.6767 -1.0149
 5256SOL    HW227405   1.234   0.092   1.467  1.8985 -0.3586  1.5029
 5257SOL     OW27406   1.877   4.284  14.989 -0.0957  0.4265  0.1089
 5257SOL    HW127407   1.906   4.239  15.068  1.0679  3.5180  1.4167
 5257SOL    HW227408   1.862   4.374  15.017  0.1707  0.5262 -0.0747
 5258SOL     OW27409   3.526   2.269   7.879 -0.4703  0.3949 -0.4259
 5258SOL    HW127410   3.541   2.225   7.796 -1.5105  0.0665 -0.4320
 5258SOL    HW227411   3.608   2.315   7.897 -1.1440  0.2959  2.8711
 5259SOL     OW27412   1.145   0.121   5.202 -0.3826  0.0112 -0.2469
 5259SOL    HW127413   1.193   0.143   5.121 -1.3259  1.0147 -0.5341
 5259SOL    HW227414   1.155   0.200   5.255 -0.1170 -0.4485  0.3818
 5260SOL     OW27415   2.405   4.166   5.128  0.3161 -0.2219 -0.3600
 5260SOL    HW127416   2.492   4.162   5.167  0.1843 -1.8880 -0.2472
 5260SOL    HW227417   2.395   4.077   5.095  1.4178 -0.6303  0.4190
 5261SOL     OW27418   2.873   2.595   7.861  0.1162 -0.1945 -0.1559
 5261SOL    HW127419   2.951   2.577   7.914  1.5665  1.7576 -1.6229
 5261SOL    HW227420   2.914   2.610   7.777  2.7220  1.7298  1.4461
 5262SOL     OW27421   0.530   4.543   1.737  0.6367 -0.0119 -0.3899
 5262SOL    HW127422   0.469   4.486   1.784  2.1250 -0.7113  0.6846
 5262SOL    HW227423   0.472   4.611   1.702  0.3619 -0.1620 -0.2277
 5263SOL     OW27424   3.252   0.374  15.731  0.1263  0.7435 -0.1287
 5263SOL    HW127425   3.159   0.362  15.749  0.7680 -0.5194  2.4097
 5263SOL    HW227426   3.280   0.460  15.762 -1.2857  0.0747  3.0437
 5264SOL     OW27427   3.260   3.312   8.319 -0.1184  0.1623  0.2525
 5264SOL    HW127428   3.324   3.362   8.370  0.2999 -0.5794  0.4519
 5264SOL    HW227429   3.310   3.298   8.238  0.6358  0.6599  0.6285
 5265SOL     OW27430   3.344   0.117   2.250 -0.3875  0.6851 -0.5503
 5265SOL    HW127431   3.283   0.158   2.311 -1.7315  0.2783 -1.6450
 5265SOL    HW227432   3.295   0.061   2.190 -0.7826  0.6356 -0.1790
 5266SOL     OW27433   0.593   2.515   5.593  0.0114 -0.1917  0.9162
 5266SOL    HW127434   0.525   2.532   5.528  0.2208  1.1378  1.0506
 5266SOL    HW227435   0.603   2.420   5.580  1.2530  0.2433 -1.2543
 5267SOL     OW27436   1.178   0.891   6.831 -0.0584  0.7123 -0.1688
 5267SOL    HW127437   1.143   0.878   6.919  0.7146  1.7291  0.2946
 5267SOL    HW227438   1.267   0.915   6.856  0.3844  0.2800 -1.3650
 5268SOL     OW27439   0.838   3.189   5.235  0.2646  0.2021 -0.1736
 5268SOL    HW127440   0.877   3.114   5.190 -0.3062 -0.3572  0.2587
 5268SOL    HW227441   0.779   3.234   5.175  0.9525  1.1893 -0.0983
 5269SOL     OW27442   3.929   1.060  16.556 -0.3965 -0.0583  0.7878
 5269SOL    HW127443   3.890   1.005  16.488  0.6670  0.0647  0.0734
 5269SOL    HW227444   3.883   1.023  16.632  0.1828  0.2783  1.3066
 5270SOL     OW27445   1.619   3.014  15.271 -0.1478 -0.3926  0.2840
 5270SOL    HW127446   1.650   2.954  15.339 -2.0161 -0.8164  0.7795
 5270SOL    HW227447   1.663   2.982  15.193 -1.2117  2.1762 -1.3593
 5271SOL     OW27448   2.979   3.532   6.302 -0.0338  0.3392  0.1246
 5271SOL    HW127449   2.945   3.442   6.293 -1.8227  0.8259  1.9874
 5271SOL    HW227450   3.054   3.516   6.359 -0.3442 -0.7057  0.2602
 5272SOL     OW27451   0.378   4.643   6.065  0.7348 -0.0519 -0.0728
 5272SOL    HW127452   0.369   4.720   6.121  2.3674  1.8450 -2.4037
 5272SOL    HW227453   0.467   4.614   6.088  0.6740 -0.7177 -0.6857
 5273SOL     OW27454   2.425   4.050   5.715 -0.0887  0.1811 -0.0902
 5273SOL    HW127455   2.363   4.021   5.783  0.9665  0.3762  0.9533
 5273SOL    HW227456   2.370   4.038   5.637  0.6679 -0.9162 -0.4512
 5274SOL     OW27457   1.595   3.940   5.962  0.4523 -0.3066 -0.0976
 5274SOL    HW127458   1.569   4.022   6.005 -0.1688 -1.2742  1.3741
 5274SOL    HW227459   1.526   3.881   5.993  2.7406 -2.5566  0.7567
 5275SOL     OW27460   0.621   1.804  16.037 -0.3148 -0.5162  0.1131
 5275SOL    HW127461   0.664   1.848  16.109 -1.8096 -1.6112  1.6749
 5275SOL    HW227462   0.633   1.713  16.063  1.2994 -0.8964 -1.9368
 5276SOL     OW27463   2.730   2.642  11.054 -0.2022 -0.1065  0.3351
 5276SOL    HW127464   2.810   2.694  11.038 -1.5821  1.5081 -1.3152
 5276SOL    HW227465   2.725   2.654  11.149  0.3301 -1.5629  0.5425
 5277SOL     OW27466   0.765   4.056   7.284 -0.1440  0.4726  0.1713
 5277SOL    HW127467   0.786   4.149   7.294 -1.1307  0.7280 -0.1417
 5277SOL    HW227468   0.698   4.048   7.216  0.8411 -4.0380 -0.3072
 5278SOL     OW27469   1.639   0.368   2.415 -0.1195 -0.6382  0.1330
 5278SOL    HW127470   1.693   0.440   2.448  1.2742 -1.1982 -0.9357
 5278SOL    HW227471   1.709   0.304   2.429 -1.7612 -2.3969  0.4953
 5279SOL     OW27472   0.335   4.257  10.751 -0.4801  0.1957 -0.0892
 5279SOL    HW127473   0.294   4.343  10.745 -0.8070 -0.0891 -1.9740
 5279SOL    HW227474   0.335   4.265  10.847  1.1152 -1.3334  0.0291
 5280SOL     OW27475   1.697   2.816   6.207  0.0633 -0.3918  0.1670
 5280SOL    HW127476   1.715   2.794   6.298  1.6737 -1.3439 -0.3829
 5280SOL    HW227477   1.749   2.896   6.196  1.1978 -1.0087  1.0425
 5281SOL     OW27478   3.464   4.118   1.824 -0.2752 -0.4456 -0.5415
 5281SOL    HW127479   3.374   4.149   1.836 -0.4601  0.2966 -3.7929
 5281SOL    HW227480   3.506   4.148   1.905 -0.4329 -0.7250 -0.3577
 5282SOL     OW27481   0.024   1.331  15.057 -0.5353 -0.1869 -0.1890
 5282SOL    HW127482   4.680   1.278  15.050 -0.1738 -0.5304 -1.7532
 5282SOL    HW227483   4.735   1.369  15.141  1.2049  0.8912 -0.1635
 5283SOL     OW27484   4.505   1.200   6.267  0.2217  1.1066 -0.0453
 5283SOL    HW127485   4.572   1.185   6.201 -0.2370  0.6684 -0.4137
 5283SOL    HW227486   4.451   1.240   6.199 -1.8803 -0.4332  0.7257
 5284SOL     OW27487   2.586   0.899   4.233 -0.0977  0.3954 -0.3583
 5284SOL    HW127488   2.653   0.866   4.292 -1.5212  0.4325  1.2987
 5284SOL    HW227489   2.624   0.892   4.146  0.6082 -0.7601  0.0351
 5285SOL     OW27490   3.724   1.157  12.416 -0.4834  0.2773  0.3142
 5285SOL    HW127491   3.773   1.076  12.400 -0.6605  0.1754  0.2829
 5285SOL    HW227492   3.764   1.204  12.488  0.4332  0.7726 -0.5197
 5286SOL     OW27493   0.414   1.231  13.058  0.0052 -1.0820 -0.1777
 5286SOL    HW127494   0.370   1.147  13.074 -1.0675 -0.3309  0.7606
 5286SOL    HW227495   0.349   1.294  13.029  0.8796  0.7211  1.7416
 5287SOL     OW27496   0.721   0.598   5.388 -0.4625 -0.6713 -0.6890
 5287SOL    HW127497   0.649   0.535   5.397 -0.6234 -0.5369 -1.0405
 5287SOL    HW227498   0.727   0.621   5.296  2.0821  0.8469 -0.1366
 5288SOL     OW27499   0.069   2.851   3.329 -0.3713  0.1393 -0.1336
 5288SOL    HW127500   0.161   2.874   3.316 -0.2233 -0.7661 -0.6607
 5288SOL    HW227501   0.058   2.778   3.268 -1.0218  0.8769 -0.8997
 5289SOL     OW27502   2.921   3.959   9.389  0.1625 -0.6118 -0.8969
 5289SOL    HW127503   2.991   3.919   9.337  1.1572 -0.1766  0.0922
 5289SOL    HW227504   2.971   3.986   9.466 -0.7871 -0.3637 -0.3795
 5290SOL     OW27505   1.943   2.879  10.724  0.4145 -0.9183  0.7200
 5290SOL    HW127506   1.861   2.830  10.723  0.8066 -1.6038  2.4749
 5290SOL    HW227507   1.973   2.879  10.814 -0.5520 -0.0281  1.0397
 5291SOL     OW27508   3.934   2.413   3.588  0.5630  0.3520  0.1721
 5291SOL    HW127509   3.856   2.368   3.621  0.0074 -0.8210 -2.7458
 5291SOL    HW227510   3.999   2.343   3.586 -2.1774 -2.2448  1.5186
 5292SOL     OW27511   1.735   0.025   6.670 -0.2461  0.0424  0.3198
 5292SOL    HW127512   1.799   0.006   6.601  0.1855  2.1798  0.1178
 5292SOL    HW227513   1.677   0.079   6.615  0.5488  1.8958  1.3175
 5293SOL     OW27514   2.579   1.681   5.166 -0.0512  0.1183  0.2201
 5293SOL    HW127515   2.529   1.611   5.208 -2.0348  1.8486  0.6979
 5293SOL    HW227516   2.514   1.751   5.158 -0.9713 -0.8400 -0.6868
 5294SOL     OW27517   2.616   4.039  10.847  0.1223  0.0032 -0.4108
 5294SOL    HW127518   2.683   4.103  10.826  0.0619 -0.1889 -1.1853
 5294SOL    HW227519   2.619   3.979  10.773  2.7593  1.3167 -1.3515
 5295SOL     OW27520   2.470   2.943  11.881 -0.0219  0.0706 -0.3329
 5295SOL    HW127521   2.491   2.867  11.935  2.2163 -0.4187 -1.9151
 5295SOL    HW227522   2.379   2.957  11.909  0.3419  0.2829  0.7398
 5296SOL     OW27523   2.043   2.535   6.218 -0.7920 -0.1949  0.4615
 5296SOL    HW127524   2.043   2.460   6.278 -0.0628 -1.7661 -1.4964
 5296SOL    HW227525   2.137   2.548   6.201 -0.2532 -3.5248  0.9252
 5297SOL     OW27526   4.504   0.471   4.839  0.2720  0.4278  0.4087
 5297SOL    HW127527   4.589   0.442   4.874  1.4960  0.7288 -2.2402
 5297SOL    HW227528   4.460   0.499   4.919 -0.3793 -0.4873  0.3746
 5298SOL     OW27529   2.084   2.895   7.147  0.4431  0.3867  0.3394
 5298SOL    HW127530   2.096   2.947   7.067  0.0519 -0.7191 -0.4460
 5298SOL    HW227531   1.995   2.865   7.133  0.4824  0.0919  0.7411
 5299SOL     OW27532   4.247   4.032   2.396  0.6168 -0.1891  0.8297
 5299SOL    HW127533   4.240   4.128   2.396 -0.3882 -0.2708 -1.2611
 5299SOL    HW227534   4.252   4.011   2.303  1.1948  2.0551  0.3457
 5300SOL     OW27535   1.398   2.897   8.482  0.2634 -0.5852  0.0839
 5300SOL    HW127536   1.490   2.878   8.500  0.4598 -0.1578 -0.4617
 5300SOL    HW227537   1.405   2.990   8.504 -0.1053 -0.5194 -0.0768
 5301SOL     OW27538   3.513   1.385   4.481 -0.2837  0.4787  0.0875
 5301SOL    HW127539   3.438   1.417   4.532 -0.6360 -1.1452  0.5988
 5301SOL    HW227540   3.572   1.352   4.549 -0.5004  0.2907  0.1848
 5302SOL     OW27541   4.528   1.178  14.441 -0.3338  0.4233  0.1928
 5302SOL    HW127542   4.467   1.190  14.368  0.2122 -0.8988 -0.4745
 5302SOL    HW227543   4.556   1.268  14.457 -0.1422  0.2559  0.7857
 5303SOL     OW27544   1.830   3.557   2.414  0.4848 -0.4431 -0.3144
 5303SOL    HW127545   1.918   3.524   2.429  0.9383  0.9489  0.0385
 5303SOL    HW227546   1.826   3.623   2.483 -0.7272  0.1180 -0.9130
 5304SOL     OW27547   3.791   2.714   1.372 -0.3823  0.4749  0.6272
 5304SOL    HW127548   3.796   2.625   1.338  2.5809  1.1576 -0.7321
 5304SOL    HW227549   3.847   2.699   1.449  1.1396 -1.2465 -0.8140
 5305SOL     OW27550   3.911   4.346   7.617 -0.0612  0.0700  0.0094
 5305SOL    HW127551   3.917   4.332   7.522  1.0196 -2.8576  0.5016
 5305SOL    HW227552   3.953   4.269   7.655 -1.9296 -1.7664 -1.6598
 5306SOL     OW27553   2.102   0.100   6.362  0.3025  0.3018  0.1846
 5306SOL    HW127554   2.064   0.117   6.448  1.1386  1.3069  0.3608
 5306SOL    HW227555   2.066   0.014   6.342  1.3221  0.0902 -0.7799
 5307SOL     OW27556   0.761   1.782   4.485  0.2645 -0.3110 -0.0427
 5307SOL    HW127557   0.730   1.811   4.399  1.0347 -0.9660 -0.5382
 5307SOL    HW227558   0.789   1.869   4.513  0.2881 -0.0638 -0.8211
 5308SOL     OW27559   2.608   4.331  13.234  0.2557  0.2466 -0.0438
 5308SOL    HW127560   2.616   4.362  13.325 -1.4488  0.2011  0.1142
 5308SOL    HW227561   2.517   4.305  13.242  0.4308 -0.3162  0.1294
 5309SOL     OW27562   1.694   2.989   2.910 -0.3384 -0.5874  0.1735
 5309SOL    HW127563   1.783   3.023   2.900 -2.1858  3.4428 -2.1830
 5309SOL    HW227564   1.643   3.070   2.909  0.5347 -0.0924 -2.8178
 5310SOL     OW27565   0.243   3.410   2.274 -0.4900  0.3612  0.8930
 5310SOL    HW127566   0.170   3.420   2.336 -0.7533 -0.2612  0.6848
 5310SOL    HW227567   0.213   3.477   2.213  1.1466  1.6743  1.5521
 5311SOL     OW27568   4.658   2.734   7.287 -0.5936  0.4174 -0.1143
 5311SOL    HW127569   4.660   2.661   7.349  2.4803 -0.1472 -0.8885
 5311SOL    HW227570   4.674   2.688   7.205 -0.0616 -0.2912  0.3904
 5312SOL     OW27571   4.548   2.076   8.403 -0.1770 -0.9198 -0.6119
 5312SOL    HW127572   4.454   2.097   8.398  0.1966  0.6944 -0.7555
 5312SOL    HW227573   4.564   2.090   8.496 -1.9780  1.0205 -0.5909
 5313SOL     OW27574   3.066   2.549   8.046 -0.6701  0.1787  0.0054
 5313SOL    HW127575   3.124   2.483   8.007  1.3413  2.9440 -1.8268
 5313SOL    HW227576   3.117   2.628   8.025 -0.6034  0.3968  1.0081
 5314SOL     OW27577   3.723   4.001  11.545 -0.7974  0.6564 -0.6695
 5314SOL    HW127578   3.814   4.004  11.576 -0.8289  2.2650 -0.7409
 5314SOL    HW227579   3.725   4.070  11.479 -0.3000 -1.4759 -2.9104
 5315SOL     OW27580   3.966   2.554  14.587 -0.1512 -0.3091  1.2608
 5315SOL    HW127581   3.901   2.486  14.570 -0.0060  0.0626 -0.7386
 5315SOL    HW227582   3.933   2.632  14.542  1.1750 -0.8466 -0.6286
 5316SOL     OW27583   2.592   0.766   7.608 -0.0696  0.1711 -0.0330
 5316SOL    HW127584   2.567   0.832   7.672 -1.1592  1.4670 -1.7894
 5316SOL    HW227585   2.688   0.761   7.614 -0.1016  0.3280  0.6271
 5317SOL     OW27586   1.806   4.567   3.427 -0.4545 -0.8218 -0.1904
 5317SOL    HW127587   1.786   4.474   3.415 -2.2638 -0.6987  2.0610
 5317SOL    HW227588   1.765   4.599   3.347  1.3894 -0.8888 -1.1798
 5318SOL     OW27589   0.393   2.060   2.834  0.0587 -0.3067 -0.3474
 5318SOL    HW127590   0.306   2.049   2.796  0.7721  1.6806 -2.5521
 5318SOL    HW227591   0.423   2.131   2.776  0.9272 -1.6983 -1.6192
 5319SOL     OW27592   2.110   3.055   6.920  0.2693 -0.4365  0.3171
 5319SOL    HW127593   2.162   3.134   6.938  2.4403 -1.5694 -1.1017
 5319SOL    HW227594   2.125   3.054   6.826 -2.1006 -2.3897 -0.0248
 5320SOL     OW27595   3.020   1.144   0.925  0.5385 -0.0894  0.2891
 5320SOL    HW127596   3.085   1.078   0.901 -1.5725 -0.8886 -3.1544
 5320SOL    HW227597   3.073   1.207   0.975 -0.5549  1.4234 -0.4504
 5321SOL     OW27598   0.653   1.841   9.168  0.2222  0.2503 -0.0583
 5321SOL    HW127599   0.748   1.841   9.154 -0.0578  2.9771 -1.9285
 5321SOL    HW227600   0.641   1.777   9.238 -1.0445  0.2280 -0.2943
 5322SOL     OW27601   1.959   2.280  13.968  0.5929  0.0215 -0.5789
 5322SOL    HW127602   1.899   2.254  14.038 -0.0774  1.7994 -0.4977
 5322SOL    HW227603   1.927   2.224  13.898 -0.9029  0.4817 -0.2586
 5323SOL     OW27604   1.941   1.671   5.658  0.7200 -0.0194 -0.5367
 5323SOL    HW127605   2.022   1.715   5.684 -0.2303  1.7995 -0.6112
 5323SOL    HW227606   1.939   1.591   5.710  0.3443 -0.2348 -0.8870
 5324SOL     OW27607   2.659   2.335  15.891  0.3245 -0.2874  0.0407
 5324SOL    HW127608   2.652   2.302  15.981  1.7432 -0.6213  0.0341
 5324SOL    HW227609   2.753   2.349  15.886  0.3848 -0.3413  0.8939
 5325SOL     OW27610   2.495   1.179   5.424  0.3440  0.2858 -0.6341
 5325SOL    HW127611   2.443   1.102   5.447 -3.1143  3.3682  1.9033
 5325SOL    HW227612   2.427   1.245   5.413 -0.4558  0.1974  3.5289
 5326SOL     OW27613   2.245   4.191   2.911 -1.0434 -0.0338 -0.1560
 5326SOL    HW127614   2.245   4.198   2.816  0.7865 -1.0170 -0.2262
 5326SOL    HW227615   2.338   4.203   2.926 -0.7255 -0.7921 -1.5011
 5327SOL     OW27616   1.945   2.496   3.918 -0.4020  0.3433  0.3322
 5327SOL    HW127617   1.957   2.542   4.001  1.5338 -0.7216  0.6545
 5327SOL    HW227618   1.899   2.559   3.862  1.2566  0.0645 -1.3218
 5328SOL     OW27619   0.179   1.107   2.311  0.5810 -0.2985  0.3675
 5328SOL    HW127620   0.148   1.054   2.238 -1.6334  1.1946  0.1965
 5328SOL    HW227621   0.101   1.162   2.324  0.4166 -0.6127  0.6986
 5329SOL     OW27622   4.020   1.733  14.482  0.2401  0.1476  0.0823
 5329SOL    HW127623   4.058   1.663  14.429 -2.6191 -0.3577 -1.2902
 5329SOL    HW227624   4.045   1.704  14.570  0.1860  0.6753  0.2684
 5330SOL     OW27625   2.523   2.510  13.992  0.0037 -0.5101 -0.7249
 5330SOL    HW127626   2.609   2.507  14.034  0.7742  1.7927 -2.1208
 5330SOL    HW227627   2.469   2.480  14.065  2.1823  0.1223  1.1426
 5331SOL     OW27628   1.307   2.373   6.540  0.2376  0.0372  0.1266
 5331SOL    HW127629   1.402   2.385   6.530  0.3868 -0.0539  1.3226
 5331SOL    HW227630   1.289   2.321   6.462 -2.1007  1.3521 -0.2117
 5332SOL     OW27631   4.625   0.879   5.775  0.4033 -0.1273 -0.4013
 5332SOL    HW127632   4.544   0.902   5.819  0.1967 -0.8181 -0.4142
 5332SOL    HW227633   4.675   0.960   5.774 -1.0306  0.7593  0.0577
 5333SOL     OW27634   4.517   4.119  16.023  0.1664  0.4268 -0.4738
 5333SOL    HW127635   4.492   4.058  15.954  0.6348  0.9649 -1.1100
 5333SOL    HW227636   4.558   4.060  16.088 -0.3198 -2.6820 -2.9816
 5334SOL     OW27637   2.039   1.114   6.332  0.6109 -0.3302  0.1257
 5334SOL    HW127638   2.096   1.050   6.374  2.3518  0.0858 -1.6127
 5334SOL    HW227639   2.055   1.187   6.391 -0.8001 -0.2950  0.4739
 5335SOL     OW27640   3.969   2.218   8.023 -0.4196 -0.0183 -0.6462
 5335SOL    HW127641   3.919   2.256   7.952  0.5714  1.1929 -0.6984
 5335SOL    HW227642   3.929   2.251   8.103  0.9828  0.7373 -0.2506
 5336SOL     OW27643   3.927   0.705   7.798 -0.5203  0.5332  0.7402
 5336SOL    HW127644   3.935   0.800   7.794 -1.0094  0.4955 -0.9374
 5336SOL    HW227645   3.856   0.692   7.736  0.2313 -2.2413  0.4509
 5337SOL     OW27646   2.029   0.381   7.760 -0.2800 -0.0921  0.2577
 5337SOL    HW127647   1.989   0.465   7.738 -0.9092 -0.0172  1.6823
 5337SOL    HW227648   2.060   0.395   7.850 -0.4710 -2.7208  0.7412
 5338SOL     OW27649   2.471   1.289   6.793 -0.1277  0.5137 -0.4349
 5338SOL    HW127650   2.443   1.198   6.786  1.8785 -0.3155  2.3513
 5338SOL    HW227651   2.387   1.332   6.809 -0.6413 -0.8485  0.5610
 5339SOL     OW27652   0.518   3.203   1.786  0.0074 -0.3642 -0.0578
 5339SOL    HW127653   0.594   3.193   1.843  1.5303 -1.1675 -2.2044
 5339SOL    HW227654   0.499   3.297   1.794 -0.3832 -0.5016  0.6301
 5340SOL     OW27655   3.657   0.179   5.110  0.4344 -0.2343 -0.4224
 5340SOL    HW127656   3.706   0.235   5.050  0.5036 -0.4975 -0.6151
 5340SOL    HW227657   3.717   0.106   5.128  0.4720 -0.5494 -1.7790
 5341SOL     OW27658   4.364   0.801   7.173  0.0651 -0.6437  0.0283
 5341SOL    HW127659   4.419   0.752   7.112  1.2559  1.2083 -0.4164
 5341SOL    HW227660   4.281   0.802   7.126  0.8207  0.2619 -1.2926
 5342SOL     OW27661   1.988   0.970   2.822 -0.1078  0.2877  0.2214
 5342SOL    HW127662   1.982   0.985   2.917  0.8568 -0.2232  0.3641
 5342SOL    HW227663   2.049   1.040   2.799 -1.5518  1.3153 -0.4704
 5343SOL     OW27664   0.289   4.577  12.564  0.1950 -0.1792 -0.5764
 5343SOL    HW127665   0.272   4.671  12.556  0.4798  0.0509  1.6073
 5343SOL    HW227666   0.377   4.558  12.531 -0.2720  1.8063 -3.0314
 5344SOL     OW27667   0.909   3.089  10.701 -0.2115 -0.0888  0.1959
 5344SOL    HW127668   0.912   3.062  10.609 -0.2582 -0.2713  0.2485
 5344SOL    HW227669   0.839   3.033  10.734 -0.6714 -0.1132 -0.8196
 5345SOL     OW27670   2.999   0.984   3.898 -0.2072 -0.5250 -0.4892
 5345SOL    HW127671   2.951   1.065   3.912 -0.0153 -0.2758 -1.2863
 5345SOL    HW227672   3.021   0.977   3.805 -1.3459  2.1431 -0.9397
 5346SOL     OW27673   3.979   1.270   7.879 -0.6028 -0.1500  0.2179
 5346SOL    HW127674   4.025   1.288   7.797 -0.5237 -1.2608  0.0109
 5346SOL    HW227675   3.914   1.339   7.867  0.3070  1.1998  3.1565
 5347SOL     OW27676   2.499   3.769   2.227  0.6448  0.1129 -0.0365
 5347SOL    HW127677   2.548   3.848   2.253 -0.5222  0.5702  0.7357
 5347SOL    HW227678   2.580   3.730   2.193 -1.2287 -2.7401 -1.1395
 5348SOL     OW27679   1.323   0.271   6.766 -0.6287 -0.2022  0.3326
 5348SOL    HW127680   1.266   0.198   6.740 -0.4381  0.2200 -1.2819
 5348SOL    HW227681   1.391   0.270   6.699  0.1512 -0.3957  1.1346
 5349SOL     OW27682   4.403   0.827  15.519  0.7002 -0.1927  0.5436
 5349SOL    HW127683   4.308   0.821  15.533  0.7665  0.1865  1.1292
 5349SOL    HW227684   4.419   0.777  15.438 -2.2528  1.9888 -1.3855
 5350SOL     OW27685   2.373   0.088   7.220  0.2005 -0.3349 -0.5530
 5350SOL    HW127686   2.353   0.098   7.314  0.2099 -0.1649 -0.5697
 5350SOL    HW227687   2.290   0.055   7.186 -0.5508 -0.0329  0.9899
 5351SOL     OW27688   4.643   0.226   5.188 -0.1750 -0.3354  0.4663
 5351SOL    HW127689   4.735   0.209   5.167 -0.6834 -0.4340 -1.7184
 5351SOL    HW227690   4.609   0.240   5.099  1.7662 -0.0903 -0.2395
 5352SOL     OW27691   3.555   4.584   3.654  0.4852 -0.8767 -0.3757
 5352SOL    HW127692   3.560   4.537   3.571 -3.0256 -1.5198 -0.2076
 5352SOL    HW227693   3.546   4.678   3.637  2.4927 -0.6820 -0.4399
 5353SOL     OW27694   1.774   0.148   5.039 -0.6060 -0.5003  0.2952
 5353SOL    HW127695   1.775   0.165   4.945  0.0211  1.5002  0.6675
 5353SOL    HW227696   1.819   0.228   5.067 -2.2325  0.3933  0.4148
 5354SOL     OW27697   4.432   1.497  15.146 -0.1938 -0.0853  0.0191
 5354SOL    HW127698   4.382   1.509  15.065 -0.9603 -2.8566  0.0822
 5354SOL    HW227699   4.505   1.452  15.103  0.9501  1.1842  0.6464
 5355SOL     OW27700   1.450   0.181  13.622  0.5553  0.1560 -0.0925
 5355SOL    HW127701   1.531   0.131  13.623 -0.4949 -1.5371 -0.4789
 5355SOL    HW227702   1.398   0.126  13.563  0.3623 -2.3822  2.4630
 5356SOL     OW27703   4.186   4.237  11.444 -0.1939 -0.1198  0.1632
 5356SOL    HW127704   4.198   4.206  11.534  1.4472 -1.1923 -0.4379
 5356SOL    HW227705   4.092   4.221  11.434 -0.6116  2.8532 -0.8156
 5357SOL     OW27706   3.858   3.952   2.732  0.8060 -0.1184 -0.2143
 5357SOL    HW127707   3.870   3.929   2.824  0.4319  0.7378  0.0477
 5357SOL    HW227708   3.896   3.878   2.685 -0.3334 -1.0346  0.3240
 5358SOL     OW27709   0.069   2.202  12.426  0.2021 -0.2044 -0.8192
 5358SOL    HW127710   0.040   2.293  12.428  0.5756 -0.0996 -0.3764
 5358SOL    HW227711   0.147   2.205  12.481  0.3949 -1.4919 -1.0034
 5359SOL     OW27712   3.517   0.065   6.338  0.2093  0.1033  0.2045
 5359SOL    HW127713   3.548   0.144   6.293  1.6294  1.0336  2.8236
 5359SOL    HW227714   3.439   0.042   6.288 -0.1540  1.2114  0.2625
 5360SOL     OW27715   3.261   1.907   5.237 -0.2057 -0.1751 -0.2100
 5360SOL    HW127716   3.316   1.835   5.204 -1.4123 -1.1135 -0.1730
 5360SOL    HW227717   3.317   1.945   5.304 -1.3890  0.1626  0.5690
 5361SOL     OW27718   0.827   1.819   6.682 -0.0602  0.7853  0.1770
 5361SOL    HW127719   0.758   1.763   6.718 -1.2297  1.7386 -0.6039
 5361SOL    HW227720   0.892   1.752   6.660  0.8510  0.7599  3.0147
 5362SOL     OW27721   0.314   3.712   8.350 -0.1400 -0.1509 -0.4054
 5362SOL    HW127722   0.261   3.632   8.348 -0.6588  0.2474 -3.3400
 5362SOL    HW227723   0.332   3.710   8.444 -0.6259 -0.7127 -0.3231
 5363SOL     OW27724   1.726   4.393  14.340 -0.3186  0.2951  0.2627
 5363SOL    HW127725   1.795   4.328  14.327 -1.1600 -0.2774 -1.4085
 5363SOL    HW227726   1.647   4.344  14.364 -0.1736  0.1788  0.4923
 5364SOL     OW27727   1.588   3.737   2.833 -0.1282 -0.2308 -0.3016
 5364SOL    HW127728   1.628   3.672   2.891 -2.2506 -0.6862  0.6242
 5364SOL    HW227729   1.578   3.810   2.894 -1.9077  1.7580 -2.9840
 5365SOL     OW27730   3.356   4.194   4.230  0.1379  0.4422 -0.3519
 5365SOL    HW127731   3.271   4.237   4.219 -0.1192  0.2094  0.6715
 5365SOL    HW227732   3.361   4.199   4.326  0.1063  0.2005 -0.3374
 5366SOL     OW27733   0.060   3.282  12.613  0.1209  0.4246 -0.3517
 5366SOL    HW127734   0.060   3.204  12.558 -2.6605 -0.9290  1.5701
 5366SOL    HW227735   0.089   3.342  12.544 -0.5383 -2.1357 -2.8642
 5367SOL     OW27736   1.629   0.314   2.828  0.6467  0.2211  0.3344
 5367SOL    HW127737   1.629   0.218   2.831 -0.2705  0.2088 -0.3346
 5367SOL    HW227738   1.542   0.332   2.793  1.0710 -0.8414 -1.2900
 5368SOL     OW27739   0.349   4.717   4.853  0.0362  0.2148 -0.1418
 5368SOL    HW127740   0.435   4.714   4.894  0.4821  1.8825 -0.9506
 5368SOL    HW227741   0.337   0.075   4.872 -0.5925 -0.1845  1.4087
 5369SOL     OW27742   3.472   1.151   7.983 -0.3635  0.0052  0.4120
 5369SOL    HW127743   3.439   1.163   8.072 -0.3010 -2.2495  0.7275
 5369SOL    HW227744   3.524   1.071   7.986 -2.5977 -1.4239  0.8209
 5370SOL     OW27745   2.871   2.925  14.742  0.5392  0.6663 -0.0820
 5370SOL    HW127746   2.914   2.872  14.809  0.1728  0.5767  0.0820
 5370SOL    HW227747   2.940   2.933  14.677  0.8702  0.0660  0.1980
 5371SOL     OW27748   2.375   3.763  10.418 -0.0811 -0.7820 -1.1565
 5371SOL    HW127749   2.378   3.684  10.365  1.2239 -0.5235 -1.4538
 5371SOL    HW227750   2.459   3.803  10.398 -1.2561  2.4120  0.2671
 5372SOL     OW27751   0.672   1.971   5.918 -0.3662 -0.4696 -0.4835
 5372SOL    HW127752   0.697   2.061   5.896  0.0151 -0.8640 -1.7051
 5372SOL    HW227753   0.682   1.982   6.012  0.3428  3.7892 -1.0616
 5373SOL     OW27754   0.806   1.028   7.891  0.3730 -0.1485 -0.5992
 5373SOL    HW127755   0.860   1.077   7.953  1.3752  0.1759 -1.7168
 5373SOL    HW227756   0.851   1.028   7.806  0.6344 -1.9751 -0.4550
 5374SOL     OW27757   4.628   1.522  14.140  0.9459  0.4500  0.3133
 5374SOL    HW127758   4.660   1.446  14.188  1.2586  1.2263  1.3314
 5374SOL    HW227759   4.708   1.561  14.104 -0.3387  2.7691 -0.0738
 5375SOL     OW27760   3.244   4.386   5.016 -0.1730  0.3859 -0.0654
 5375SOL    HW127761   3.286   4.466   4.984 -2.7546  2.0898  0.8062
 5375SOL    HW227762   3.263   4.369   5.108 -0.8077 -1.8117 -0.3361
 5376SOL     OW27763   2.471   2.638  10.139  0.1010 -0.3765  0.1152
 5376SOL    HW127764   2.381   2.659  10.163 -0.1728 -2.3255  0.8300
 5376SOL    HW227765   2.502   2.597  10.220 -0.8665  0.1179  0.7337
 5377SOL     OW27766   2.634   4.274   5.533  0.5248  0.6698 -0.2492
 5377SOL    HW127767   2.544   4.277   5.566  0.1274  1.1886 -1.3760
 5377SOL    HW227768   2.663   4.364   5.551  0.5879  0.9012 -1.5111
 5378SOL     OW27769   2.961   0.164   3.802  0.0749  0.6245 -0.9290
 5378SOL    HW127770   2.999   0.245   3.837 -3.1756  2.1009 -0.7802
 5378SOL    HW227771   2.956   0.109   3.880  3.4102  0.9996 -0.4331
 5379SOL     OW27772   2.904   2.694  12.411 -0.2933 -0.3398  0.3100
 5379SOL    HW127773   2.811   2.672  12.407 -1.4449  4.7034 -0.6581
 5379SOL    HW227774   2.915   2.619  12.470 -0.4127 -0.3302  0.3458
 5380SOL     OW27775   0.152   4.668  14.002  0.0030 -0.1477  0.3150
 5380SOL    HW127776   0.179   0.022  14.022 -0.3493 -0.4324  2.0028
 5380SOL    HW227777   0.221   4.639  13.943  0.4936  2.8716 -0.5861
 5381SOL     OW27778   2.007   1.427   5.773 -0.6683  0.3682 -0.5376
 5381SOL    HW127779   2.098   1.417   5.802  0.5432  1.3183 -4.0141
 5381SOL    HW227780   1.969   1.344   5.800 -1.5856  0.8896 -0.2169
 5382SOL     OW27781   2.188   4.558  13.224 -0.5729 -0.2779 -0.4059
 5382SOL    HW127782   2.119   4.586  13.165 -0.2202  1.3315 -0.0694
 5382SOL    HW227783   2.265   4.570  13.168  1.3236 -2.3665  1.7499
 5383SOL     OW27784   2.261   0.736   7.228 -0.3901 -0.0165 -0.4491
 5383SOL    HW127785   2.266   0.800   7.299  2.5059  0.5187 -1.1452
 5383SOL    HW227786   2.275   0.650   7.267 -2.0219 -0.4655 -0.8218
 5384SOL     OW27787   1.660   2.868   8.546  0.7023 -0.2895  0.3651
 5384SOL    HW127788   1.729   2.934   8.538  1.2627 -0.9786 -0.4020
 5384SOL    HW227789   1.715   2.795   8.515  0.0742  0.6025 -2.7735
 5385SOL     OW27790   4.470   2.955   6.227 -0.2626  0.2393  0.4812
 5385SOL    HW127791   4.513   2.983   6.146  2.2153 -0.5039  1.5239
 5385SOL    HW227792   4.387   3.001   6.230 -0.7675 -0.4958 -1.8284
 5386SOL     OW27793   0.460   4.068   8.890  0.5738 -0.6820  0.8059
 5386SOL    HW127794   0.489   4.153   8.921  0.4780  0.5882 -2.5831
 5386SOL    HW227795   0.372   4.072   8.926  0.4893 -0.9633  0.6320
 5387SOL     OW27796   1.097   1.740   4.384 -0.0303 -0.1887  1.1325
 5387SOL    HW127797   1.190   1.757   4.401  0.3317 -0.6963 -0.3740
 5387SOL    HW227798   1.061   1.826   4.360  2.0545  0.0969 -0.9399
 5388SOL     OW27799   1.853   4.275   3.069  0.4186 -0.0415  0.3500
 5388SOL    HW127800   1.881   4.355   3.025 -2.1961  0.0184 -1.1804
 5388SOL    HW227801   1.940   4.236   3.070  0.3430 -0.2022  2.1975
 5389SOL     OW27802   2.489   2.540  10.780 -0.1890 -0.2400  0.4415
 5389SOL    HW127803   2.484   2.617  10.838  0.8612  1.9059 -2.3220
 5389SOL    HW227804   2.584   2.531  10.786 -0.2895 -0.6687  1.3037
 5390SOL     OW27805   3.633   4.542   9.411  0.5411  0.3199 -0.2259
 5390SOL    HW127806   3.553   4.536   9.358  1.2804  1.7483 -1.4903
 5390SOL    HW227807   3.669   4.622   9.372  1.7573  0.1729  0.6113
 5391SOL     OW27808   2.999   0.686   2.891  0.0031  1.0876  1.5491
 5391SOL    HW127809   3.013   0.737   2.811  2.4306 -0.7788  0.8119
 5391SOL    HW227810   2.961   0.608   2.851  1.4177  1.8570 -1.2721
 5392SOL     OW27811   3.530   1.005   7.349  0.2041  0.4594 -0.5360
 5392SOL    HW127812   3.447   1.001   7.303 -0.2504  2.7036  0.0540
 5392SOL    HW227813   3.532   0.916   7.385  2.0684  0.8864  0.4305
 5393SOL     OW27814   4.388   2.639  13.858  0.4919 -0.2681 -0.6362
 5393SOL    HW127815   4.448   2.615  13.788 -0.1831 -0.2111 -1.2295
 5393SOL    HW227816   4.302   2.649  13.818 -0.0060 -0.2827  0.4296
 5394SOL     OW27817   3.507   4.717   6.803 -0.3662  0.2742 -0.0658
 5394SOL    HW127818   3.467   4.632   6.820  2.3042 -1.0107 -0.3208
 5394SOL    HW227819   3.456   0.015   6.729  0.5670  1.5666 -0.1170
 5395SOL     OW27820   2.129   0.650   6.976 -0.0772 -0.3898  0.9949
 5395SOL    HW127821   2.151   0.558   6.988 -2.0145 -1.2065 -1.7223
 5395SOL    HW227822   2.175   0.690   7.050  1.2887  2.0147 -1.1481
 5396SOL     OW27823   3.363   3.445   1.889  0.1697 -0.0652 -0.3334
 5396SOL    HW127824   3.397   3.503   1.821  0.4902  0.2355  0.0866
 5396SOL    HW227825   3.391   3.364   1.846  0.7885  0.0592 -0.1603
 5397SOL     OW27826   4.685   0.028   3.564 -0.1351 -0.1120 -0.7040
 5397SOL    HW127827   4.669   4.685   3.512  0.4364 -1.2018  0.8005
 5397SOL    HW227828   0.011   0.066   3.501 -1.8355  2.0837 -1.0306
 5398SOL     OW27829   0.477   4.129   6.398 -0.5499  0.2191  0.1303
 5398SOL    HW127830   0.570   4.150   6.389 -0.8505  0.9694 -1.1799
 5398SOL    HW227831   0.460   4.062   6.331 -1.9727  1.1270 -0.4235
 5399SOL     OW27832   0.104   0.446   1.278  0.3783  0.5645 -0.3049
 5399SOL    HW127833   0.022   0.417   1.240 -1.4349  0.8948  3.3366
 5399SOL    HW227834   0.073   0.499   1.352  1.7520  0.9689 -0.0178
 5400SOL     OW27835   1.663   1.946  16.389 -0.1170  0.0257  0.1143
 5400SOL    HW127836   1.615   1.976  16.312 -3.4932 -0.7544  1.9559
 5400SOL    HW227837   1.658   2.029  16.436  0.6684 -0.8543  1.7191
 5401SOL     OW27838   4.244   2.502   5.304 -0.5313  0.2976  0.1605
 5401SOL    HW127839   4.287   2.556   5.238  0.0362  1.6628  1.6255
 5401SOL    HW227840   4.312   2.498   5.372 -0.7068  0.2563  0.3325
 5402SOL     OW27841   1.167   3.611   2.083 -0.3475  0.2729  0.2606
 5402SOL    HW127842   1.180   3.669   2.158  0.3479 -0.6253  0.8342
 5402SOL    HW227843   1.145   3.530   2.129  2.1322 -0.3178  0.3637
 5403SOL     OW27844   0.308   3.685   4.609 -0.1855 -0.0628 -0.7458
 5403SOL    HW127845   0.351   3.706   4.526  0.8440  1.5776  0.2147
 5403SOL    HW227846   0.295   3.768   4.655  1.0399 -0.2467 -0.0813
 5404SOL     OW27847   3.485   3.618  17.512 -0.4468  0.2671  0.4024
 5404SOL    HW127848   3.574   3.584  17.510 -0.4029  0.4047  0.0936
 5404SOL    HW227849   3.450   3.576  17.591 -1.7728  0.4731 -0.0767
 5405SOL     OW27850   1.056   4.088   7.205  0.3566  0.0952 -0.1217
 5405SOL    HW127851   1.025   4.144   7.277  0.7781 -0.9777  0.8848
 5405SOL    HW227852   1.035   4.001   7.238 -0.2726 -0.5094 -2.1020
 5406SOL     OW27853   0.960   2.029   1.926  0.7645  0.4655  0.0874
 5406SOL    HW127854   0.930   2.035   2.017  2.4442  2.8104  0.5124
 5406SOL    HW227855   0.973   1.935   1.916  0.2516  0.1324  2.4908
 5407SOL     OW27856   0.954   1.070  11.147 -0.2321  0.0743  0.1746
 5407SOL    HW127857   0.961   0.976  11.161 -3.1427 -0.1780  0.0660
 5407SOL    HW227858   1.039   1.098  11.114 -0.1912 -1.5283 -1.0882
 5408SOL     OW27859   3.991   0.780   1.016  0.0176 -0.2999 -0.1184
 5408SOL    HW127860   3.901   0.810   1.009  0.6500  0.7438 -3.8542
 5408SOL    HW227861   3.989   0.761   1.110  1.5743 -0.2137 -0.0579
 5409SOL     OW27862   1.989   0.570   7.390  0.0118 -0.9413 -0.2876
 5409SOL    HW127863   2.015   0.659   7.412  0.4966 -0.3419 -3.2187
 5409SOL    HW227864   1.927   0.555   7.461  0.4821 -0.6660  0.1765
 5410SOL     OW27865   1.261   2.086  16.154 -0.3906 -0.0454  0.0934
 5410SOL    HW127866   1.283   2.087  16.061 -1.8791  1.1356 -0.2492
 5410SOL    HW227867   1.172   2.119  16.162 -0.5757 -0.1109 -1.5587
 5411SOL     OW27868   3.783   2.894  16.043 -0.0111 -0.2557  0.0131
 5411SOL    HW127869   3.793   2.821  15.981  2.0819  0.6300 -0.6809
 5411SOL    HW227870   3.716   2.948  16.000 -0.9923 -1.4646  0.0120
 5412SOL     OW27871   2.794   3.765   5.944  0.3238  0.1551  0.0376
 5412SOL    HW127872   2.860   3.761   5.874  0.1523 -0.0931 -0.1128
 5412SOL    HW227873   2.737   3.828   5.900  4.2184  1.1221 -3.6658
 5413SOL     OW27874   1.952   3.328  13.915  0.0656  1.0803 -0.4684
 5413SOL    HW127875   2.035   3.352  13.875  1.6136 -2.3786  0.6963
 5413SOL    HW227876   1.970   3.248  13.965 -1.2040  0.7274 -0.5629
 5414SOL     OW27877   3.287   2.322   8.208  0.3573  0.2350  0.0668
 5414SOL    HW127878   3.371   2.335   8.252  0.7253 -0.7475 -0.3284
 5414SOL    HW227879   3.235   2.335   8.287  0.6574  1.4075  0.0673
 5415SOL     OW27880   4.479   3.308   7.565  0.1816  0.0396  0.2996
 5415SOL    HW127881   4.570   3.336   7.570  0.1038  0.5464 -0.8687
 5415SOL    HW227882   4.470   3.234   7.625  0.8823 -1.4566 -1.4471
 5416SOL     OW27883   2.554   4.554   6.445 -0.5774 -0.3461 -0.2545
 5416SOL    HW127884   2.649   4.543   6.447 -0.6684 -1.4571 -1.5479
 5416SOL    HW227885   2.519   4.475   6.488  0.5139 -1.4141 -1.3187
 5417SOL     OW27886   1.836   4.095   4.271 -0.1866  0.9337 -0.2584
 5417SOL    HW127887   1.799   4.116   4.185  1.2019  2.5683 -0.4630
 5417SOL    HW227888   1.906   4.034   4.246  0.1259  1.5992 -1.0062
 5418SOL     OW27889   0.811   3.118   4.408  0.3761  0.1607 -0.3625
 5418SOL    HW127890   0.787   3.051   4.473 -1.1245  3.3231  2.3729
 5418SOL    HW227891   0.723   3.148   4.385  0.3829  1.5532  1.4156
 5419SOL     OW27892   2.139   4.547   3.930 -0.3526 -0.0356 -0.0526
 5419SOL    HW127893   2.202   4.580   3.866  0.5649 -1.8270 -0.0698
 5419SOL    HW227894   2.077   4.620   3.933  0.7583  0.8594  1.0056
 5420SOL     OW27895   2.050   2.590   7.587  0.1645 -0.2879  0.3617
 5420SOL    HW127896   2.105   2.531   7.536 -0.5896  0.4792 -1.3460
 5420SOL    HW227897   1.980   2.533   7.618  1.5959 -1.1310  2.0485
 5421SOL     OW27898   2.563   2.995   7.767  0.2646 -0.3573 -0.0698
 5421SOL    HW127899   2.647   2.949   7.778 -0.4434 -1.3332  1.2472
 5421SOL    HW227900   2.506   2.933   7.812  1.2087 -1.2816 -0.1436
 5422SOL     OW27901   3.631   1.969   6.396 -0.1513 -0.3174  0.0079
 5422SOL    HW127902   3.537   1.987   6.394 -0.4176 -1.4822  2.1291
 5422SOL    HW227903   3.660   2.028   6.465 -0.5425 -1.1421  0.8721
 5423SOL     OW27904   1.690   0.432  15.299 -0.4622  0.0154 -0.3059
 5423SOL    HW127905   1.701   0.517  15.257  1.6546 -1.3161 -2.4889
 5423SOL    HW227906   1.783   0.429  15.321 -0.4785  1.0661 -0.0723
 5424SOL     OW27907   0.049   1.457   8.373  0.2024  0.0265  0.2002
 5424SOL    HW127908   0.074   1.365   8.381 -0.1401 -0.1612 -0.9844
 5424SOL    HW227909   4.690   1.451   8.367  0.3314 -1.5698 -0.1383
 5425SOL     OW27910   2.840   0.606   8.196 -0.2628  0.0284  1.0236
 5425SOL    HW127911   2.844   0.631   8.103 -1.5234 -0.7858  0.7507
 5425SOL    HW227912   2.766   0.547   8.196  0.4940 -0.9107 -0.9921
 5426SOL     OW27913   2.642   1.663   4.107  0.1312 -1.1975  0.4014
 5426SOL    HW127914   2.720   1.644   4.160 -0.1584  0.8409  1.5338
 5426SOL    HW227915   2.602   1.577   4.094 -0.8417 -0.4716 -1.3085
 5427SOL     OW27916   3.687   1.251   5.533 -0.3402  0.4933  0.1346
 5427SOL    HW127917   3.700   1.166   5.573 -2.2857  1.4830  2.8810
 5427SOL    HW227918   3.704   1.233   5.440  1.5358  1.3842  0.3081
 5428SOL     OW27919   0.256   0.866   1.269  0.5956 -0.3512  0.3432
 5428SOL    HW127920   0.346   0.896   1.258  0.0308  0.5941 -1.7379
 5428SOL    HW227921   0.280   0.781   1.307  0.9785 -0.9098 -1.1261
 5429SOL     OW27922   4.116   2.501   3.909 -0.8557  0.1781 -0.1596
 5429SOL    HW127923   4.075   2.467   3.988 -0.6857 -1.0650 -0.5930
 5429SOL    HW227924   4.177   2.432   3.881 -1.9454 -0.4756 -0.9464
 5430SOL     OW27925   4.096   2.841   3.470  0.2383  0.2362 -0.3862
 5430SOL    HW127926   4.150   2.763   3.488  0.4454  0.6487  0.7852
 5430SOL    HW227927   4.008   2.806   3.475 -0.5576  2.0324 -2.0069
 5431SOL     OW27928   0.694   1.265   6.194  0.3731 -0.4541  0.6443
 5431SOL    HW127929   0.732   1.178   6.188  0.9514 -0.1493 -0.1486
 5431SOL    HW227930   0.700   1.310   6.110 -0.0337 -1.3745  0.1219
 5432SOL     OW27931   3.559   1.963   0.689 -0.2728  0.2270  0.3069
 5432SOL    HW127932   3.601   1.904   0.627 -1.4133 -1.2413  0.9114
 5432SOL    HW227933   3.553   1.907   0.766  0.8440  0.1407  0.3218
 5433SOL     OW27934   1.829   1.547  15.917 -0.3434  0.2369  0.1443
 5433SOL    HW127935   1.844   1.604  15.842  0.3529 -0.4753 -0.2598
 5433SOL    HW227936   1.814   1.464  15.871 -1.0300  0.0471  0.6987
 5434SOL     OW27937   1.249   3.433   2.804 -0.2253 -0.5308  0.3194
 5434SOL    HW127938   1.223   3.419   2.713  2.9638  1.0025 -0.8416
 5434SOL    HW227939   1.329   3.482   2.784 -1.0520 -0.3821 -2.6622
 5435SOL     OW27940   4.414   1.057   5.877 -0.2248 -0.2992 -0.2697
 5435SOL    HW127941   4.390   1.020   5.962 -1.3213  2.2983  0.5721
 5435SOL    HW227942   4.338   1.037   5.822 -0.5229 -0.1056  0.0690
 5436SOL     OW27943   1.247   2.914   6.326  0.3220  0.3652 -0.7247
 5436SOL    HW127944   1.271   2.999   6.362 -0.7382  0.6916 -0.7828
 5436SOL    HW227945   1.282   2.859   6.396 -2.4574  1.1844  1.3007
 5437SOL     OW27946   2.717   1.377  15.914  0.2483  0.1909 -0.0195
 5437SOL    HW127947   2.632   1.334  15.908  0.8763 -1.0936  0.3605
 5437SOL    HW227948   2.750   1.362  16.003 -0.0194 -1.4654 -0.2086
 5438SOL     OW27949   3.033   1.225   3.405  0.3634 -0.0627  0.1026
 5438SOL    HW127950   3.056   1.148   3.353 -0.8064 -0.1714 -0.2676
 5438SOL    HW227951   2.943   1.201   3.426 -0.6322  1.1146 -2.7664
 5439SOL     OW27952   3.437   2.683   1.503  0.3308  0.3564 -0.4618
 5439SOL    HW127953   3.370   2.617   1.485  0.6866 -0.4563  1.1476
 5439SOL    HW227954   3.394   2.760   1.539  0.7579  0.5009 -0.2554
 5440SOL     OW27955   2.908   2.932   7.206  0.5940  0.2064  0.0193
 5440SOL    HW127956   2.899   3.003   7.270  1.8456  0.9946 -0.6878
 5440SOL    HW227957   3.003   2.945   7.197  0.5105  0.8895  0.0997
 5441SOL     OW27958   1.443   3.086  13.231  0.2831 -0.7668 -0.2903
 5441SOL    HW127959   1.472   3.125  13.148 -0.1390 -2.6219 -1.3193
 5441SOL    HW227960   1.356   3.057  13.206 -0.1937  1.3104 -1.0104
 5442SOL     OW27961   1.171   4.073  10.939  0.0644  0.6307  0.3434
 5442SOL    HW127962   1.092   4.079  10.993  0.7369 -2.3929  1.7048
 5442SOL    HW227963   1.213   3.991  10.964 -1.6282 -0.0999  0.8128
 5443SOL     OW27964   2.915   3.219  16.410 -0.4350  0.3202  0.3202
 5443SOL    HW127965   2.967   3.174  16.343 -0.8203 -1.3547  1.1465
 5443SOL    HW227966   2.829   3.175  16.408 -0.3872  0.1991  1.0190
 5444SOL     OW27967   2.705   3.809  10.673  1.2541 -0.0209 -0.2908
 5444SOL    HW127968   2.706   3.724  10.628 -3.2975 -0.9734  1.4148
 5444SOL    HW227969   2.765   3.777  10.741  1.7159  3.7242  1.0597
 5445SOL     OW27970   1.267   0.430  17.537 -0.1052  0.4538  0.2689
 5445SOL    HW127971   1.198   0.376  17.498  0.1346  0.8047 -0.6300
 5445SOL    HW227972   1.291   0.475  17.456  0.6250 -2.3939 -1.0766
 5446SOL     OW27973   3.152   0.624  13.399  0.1574  0.4761 -0.1030
 5446SOL    HW127974   3.154   0.530  13.415 -1.6435  0.4371 -0.0989
 5446SOL    HW227975   3.094   0.634  13.323  1.3556  1.6242 -0.8719
 5447SOL     OW27976   1.494   0.062  12.965  0.0728  0.0341 -0.0779
 5447SOL    HW127977   1.429   0.008  12.919  1.1400  0.2186 -1.8240
 5447SOL    HW227978   1.470   0.149  12.932  4.6406  1.9113  1.6434
 5448SOL     OW27979   1.625   1.390   5.949  0.5752  0.2902  0.1722
 5448SOL    HW127980   1.599   1.473   5.909  0.7534 -0.0557 -0.6785
 5448SOL    HW227981   1.693   1.414   6.012 -2.1216  1.5246  2.6068
 5449SOL     OW27982   0.913   1.502   4.366  0.0706 -0.0616  0.0237
 5449SOL    HW127983   0.992   1.555   4.362  0.6167 -0.9529 -1.3215
 5449SOL    HW227984   0.850   1.573   4.356  2.2382  1.7051 -1.1099
 5450SOL     OW27985   0.985   4.639   6.331 -0.1481 -0.2843 -0.3663
 5450SOL    HW127986   1.055   4.600   6.383 -1.0800 -0.1008  1.0466
 5450SOL    HW227987   0.919   4.649   6.400 -0.0367  0.1584 -0.3248
 5451SOL     OW27988   3.679   3.279   8.265 -0.0335  0.2830  0.1630
 5451SOL    HW127989   3.690   3.359   8.316  0.1368  0.8589 -0.7707
 5451SOL    HW227990   3.712   3.209   8.322  0.6332 -0.5527 -1.2376
 5452SOL     OW27991   2.851   0.623   2.048 -0.0759  0.1337  0.1074
 5452SOL    HW127992   2.928   0.567   2.061  0.1628  0.0969 -1.5433
 5452SOL    HW227993   2.883   0.707   2.081  1.7586 -0.7974  0.6993
 5453SOL     OW27994   2.360   4.390   4.965  0.3690 -0.1628  0.4218
 5453SOL    HW127995   2.354   4.448   5.041  2.7439 -0.1971  0.6381
 5453SOL    HW227996   2.363   4.310   5.018  0.3883 -0.3437  0.1504
 5454SOL     OW27997   2.004   1.666   6.429 -0.4015 -0.3517  0.0064
 5454SOL    HW127998   2.093   1.634   6.447 -0.8350 -0.1772  2.3760
 5454SOL    HW227999   2.029   1.729   6.361 -0.2172 -1.9368 -1.3886
 5455SOL     OW28000   1.252   2.124   7.868  0.0816 -0.1337 -0.4627
 5455SOL    HW128001   1.325   2.166   7.823 -1.8933  0.3419 -3.1928
 5455SOL    HW228002   1.266   2.157   7.957  1.0672 -2.2058  0.1515
 5456SOL     OW28003   0.210   0.516  17.155  0.3275  0.8501  0.1646
 5456SOL    HW128004   0.164   0.596  17.130 -0.1599  1.4914  3.1478
 5456SOL    HW228005   0.254   0.497  17.072  1.0001  1.6690  0.3365
 5457SOL     OW28006   3.012   4.018   6.665 -0.4174  0.4376 -0.0292
 5457SOL    HW128007   2.953   3.988   6.596  0.1991 -1.4073  0.2618
 5457SOL    HW228008   2.964   3.973   6.735 -0.6375  1.2287  0.3347
 5458SOL     OW28009   4.615   4.164   3.429 -0.5060 -0.1547  0.1606
 5458SOL    HW128010   4.596   4.131   3.341 -0.8993  1.2702 -0.2986
 5458SOL    HW228011   4.709   4.182   3.426 -0.4781 -0.8125 -2.8764
 5459SOL     OW28012   1.633   1.624  16.795 -0.1055 -0.0208 -0.1468
 5459SOL    HW128013   1.647   1.661  16.708  1.1134 -1.4422 -0.5461
 5459SOL    HW228014   1.541   1.628  16.820 -0.8782  0.8365 -3.1943
 5460SOL     OW28015   2.780   0.910   9.123  0.1997  0.1747  0.0161
 5460SOL    HW128016   2.748   0.992   9.161 -1.3541 -0.6721  0.4996
 5460SOL    HW228017   2.837   0.884   9.195  0.5619 -0.5684 -0.5305
 5461SOL     OW28018   3.291   1.498   2.242  0.3548  0.0255 -0.1739
 5461SOL    HW128019   3.321   1.407   2.247  1.8037  0.5301  0.2963
 5461SOL    HW228020   3.205   1.486   2.283  0.5035  3.8354  1.2350
 5462SOL     OW28021   2.883   1.382   9.633  0.7005  0.0562  1.0453
 5462SOL    HW128022   2.843   1.456   9.678  1.4587 -0.1157  2.0041
 5462SOL    HW228023   2.963   1.424   9.602  0.8493 -1.2772 -0.3582
 5463SOL     OW28024   3.808   4.711  11.138 -0.0685 -0.4713 -0.6202
 5463SOL    HW128025   3.741   4.645  11.159 -0.7181  0.3833  0.0067
 5463SOL    HW228026   3.892   4.666  11.147 -0.1279 -0.5967 -0.7003
 5464SOL     OW28027   4.080   4.305  14.211  0.1659  0.2615 -0.2297
 5464SOL    HW128028   4.114   4.277  14.126  0.9181 -2.4795  0.9576
 5464SOL    HW228029   4.004   4.351  14.178 -0.1666 -0.8683 -1.0177
 5465SOL     OW28030   3.849   1.577  12.489 -0.3241 -0.4854  0.3310
 5465SOL    HW128031   3.812   1.560  12.403  0.4524 -1.6596  0.2321
 5465SOL    HW228032   3.787   1.644  12.519  1.5569  0.7313  1.5371
 5466SOL     OW28033   0.236   1.411   0.176  0.2467  0.5691  0.2076
 5466SOL    HW128034   0.256   1.425   0.083  0.1612 -0.8471 -0.0250
 5466SOL    HW228035   0.285   1.331   0.195  1.3420  1.7624  2.4749
 5467SOL     OW28036   4.202   4.659   2.449 -0.7904 -0.7489 -0.4833
 5467SOL    HW128037   4.112   4.683   2.426 -0.2396  2.4323  0.5842
 5467SOL    HW228038   4.190   4.575   2.493 -1.8726 -0.6954 -0.6940
 5468SOL     OW28039   3.024   4.384   3.609 -0.2749 -0.7771 -0.3297
 5468SOL    HW128040   2.992   4.472   3.591 -1.0141 -1.6755 -3.2908
 5468SOL    HW228041   2.951   4.326   3.588 -2.5544  1.3168  1.8667
 5469SOL     OW28042   1.268   2.798   9.154 -0.1548  0.1095  0.5952
 5469SOL    HW128043   1.273   2.706   9.128  1.3729  0.4427 -0.3135
 5469SOL    HW228044   1.326   2.791   9.230 -0.5084 -1.1393  0.7535
 5470SOL     OW28045   4.688   2.287   6.411  0.2537  0.2412  0.2913
 5470SOL    HW128046   4.733   2.203   6.402 -0.4748 -0.0498 -0.5567
 5470SOL    HW228047   0.003   2.358   6.372 -0.5806  0.9307  0.4824
 5471SOL     OW28048   3.886   3.992  14.762  0.3486  0.2981  0.2457
 5471SOL    HW128049   3.912   3.993  14.854 -1.0210  1.2876  0.6302
 5471SOL    HW228050   3.873   4.084  14.740 -1.0177  0.2989  1.0309
 5472SOL     OW28051   3.044   2.598   6.705  0.3357 -0.1140  0.0302
 5472SOL    HW128052   3.106   2.597   6.632  3.6789  0.2686  2.8392
 5472SOL    HW228053   3.097   2.555   6.773 -0.0786  1.1930  1.1581
 5473SOL     OW28054   3.979   2.965  10.148 -0.0347 -0.0256 -0.5224
 5473SOL    HW128055   4.062   2.922  10.126 -0.2592 -0.3102 -0.8246
 5473SOL    HW228056   4.007   2.999  10.233 -1.3288 -3.0615  1.1093
 5474SOL     OW28057   4.203   0.056   2.849 -0.1370 -0.2163 -0.3388
 5474SOL    HW128058   4.197   0.115   2.774 -1.1683 -0.8878 -0.7943
 5474SOL    HW228059   4.272   0.098   2.900 -0.2035  1.5930 -1.7486
 5475SOL     OW28060   4.221   4.170   2.968 -0.0002  0.0632  0.0113
 5475SOL    HW128061   4.146   4.167   2.908 -0.9819 -0.3335  1.2596
 5475SOL    HW228062   4.168   4.199   3.043 -0.0326  0.6282 -0.2287
 5476SOL     OW28063   3.466   2.412   8.727  0.0581 -0.2316 -0.0897
 5476SOL    HW128064   3.545   2.380   8.683 -0.6268  0.2512 -1.6366
 5476SOL    HW228065   3.409   2.432   8.653  0.1944 -2.5516 -0.8008
 5477SOL     OW28066   2.320   0.212  15.233  0.3643 -0.2566  0.1970
 5477SOL    HW128067   2.302   0.261  15.313 -2.7000  0.0666 -0.6979
 5477SOL    HW228068   2.229   0.181  15.231 -0.3542  1.8689 -0.2252
 5478SOL     OW28069   2.648   0.219   6.011  0.0380 -0.1945 -0.5245
 5478SOL    HW128070   2.634   0.125   6.013  1.7491 -0.4909 -1.9382
 5478SOL    HW228071   2.731   0.238   6.055 -0.1215  1.9265 -1.1127
 5479SOL     OW28072   2.558   2.111   8.181 -0.4624  0.4780 -0.3691
 5479SOL    HW128073   2.630   2.100   8.119 -1.0065  0.2589 -0.9661
 5479SOL    HW228074   2.606   2.166   8.243  1.6454 -2.1324  0.3237
 5480SOL     OW28075   1.986   0.105  14.324 -0.1513  0.0572 -0.3537
 5480SOL    HW128076   2.036   0.033  14.363 -0.1914  0.2280  0.0188
 5480SOL    HW228077   1.953   0.153  14.400  0.4527  0.3453 -0.2788
 5481SOL     OW28078   0.762   2.829   3.200  0.2387  0.1878 -0.3512
 5481SOL    HW128079   0.754   2.871   3.285 -2.1276  2.0490 -1.5056
 5481SOL    HW228080   0.690   2.769   3.222  0.1030  0.1452 -0.9115
 5482SOL     OW28081   0.423   4.368   8.154 -0.4766 -0.1694 -0.5013
 5482SOL    HW128082   0.382   4.282   8.148 -0.7979 -0.1011  0.7524
 5482SOL    HW228083   0.458   4.367   8.065  1.8937 -3.1178  0.4763
 5483SOL     OW28084   2.710   1.277   5.302  0.2281  0.1488  0.1678
 5483SOL    HW128085   2.635   1.235   5.343  1.2058 -2.4695 -0.7445
 5483SOL    HW228086   2.674   1.311   5.220  1.9915 -1.0834 -1.1297
 5484SOL     OW28087   3.865   2.825   5.055 -0.4569 -0.0581  0.0851
 5484SOL    HW128088   3.843   2.733   5.036  1.0584 -0.3015 -0.4524
 5484SOL    HW228089   3.926   2.809   5.127 -1.8548 -0.0360  1.2758
 5485SOL     OW28090   2.451   1.023  13.556 -0.1462  0.1151 -0.1008
 5485SOL    HW128091   2.487   0.945  13.600 -2.7769  0.5347  2.8149
 5485SOL    HW228092   2.437   1.077  13.634  0.6465 -2.0396  1.5358
 5486SOL     OW28093   4.451   3.477  10.020 -0.1427  0.1045  0.5649
 5486SOL    HW128094   4.414   3.439   9.941  0.6089 -0.2591  0.3919
 5486SOL    HW228095   4.418   3.567  10.023 -2.0173 -0.5918  1.0487
 5487SOL     OW28096   1.712   4.063   6.305 -0.0420  0.2791 -0.2497
 5487SOL    HW128097   1.754   4.119   6.240 -0.5744 -0.0680 -0.8873
 5487SOL    HW228098   1.711   3.978   6.260 -0.1518 -0.5789  1.3574
 5488SOL     OW28099   0.297   3.845   3.565  0.0916 -0.4834 -0.0083
 5488SOL    HW128100   0.267   3.839   3.655 -0.5759  0.0568 -0.1858
 5488SOL    HW228101   0.214   3.817   3.524 -0.2125  1.1922 -0.5493
 5489SOL     OW28102   0.443   4.167  16.264 -0.3726  0.3833  0.2728
 5489SOL    HW128103   0.352   4.161  16.235 -0.0458  3.5474 -1.3957
 5489SOL    HW228104   0.466   4.074  16.275  2.2027  0.6635 -2.9232
 5490SOL     OW28105   2.101   2.331   7.819  0.1650 -0.2073  0.0258
 5490SOL    HW128106   2.150   2.343   7.900  0.8352  0.4993 -0.4867
 5490SOL    HW228107   2.173   2.327   7.756  1.8381 -0.0384  1.9449
 5491SOL     OW28108   3.952   4.317  11.871  0.0815 -0.2878 -0.1279
 5491SOL    HW128109   3.892   4.369  11.819 -0.0983 -1.6600 -1.3030
 5491SOL    HW228110   4.023   4.307  11.808 -1.1929 -0.6853 -1.4875
 5492SOL     OW28111   4.141   2.858   4.124 -0.2902  0.3893  0.2182
 5492SOL    HW128112   4.153   2.770   4.158 -0.6724  0.9357  1.7788
 5492SOL    HW228113   4.054   2.879   4.159  0.1966  1.2297  0.9306
 5493SOL     OW28114   3.947   1.084   5.205  0.6461 -0.2976  0.1286
 5493SOL    HW128115   3.875   1.142   5.179  0.1371  0.4334  3.1076
 5493SOL    HW228116   3.983   1.135   5.278 -0.6028  0.4755  0.2165
 5494SOL     OW28117   1.748   0.382  13.037  0.0668  0.0515  0.3002
 5494SOL    HW128118   1.683   0.397  12.969  0.9575  0.1389 -0.5252
 5494SOL    HW228119   1.796   0.307  13.002 -0.3888 -0.3431  0.5140
 5495SOL     OW28120   2.746   2.683  17.520  0.1818 -0.1520  0.5836
 5495SOL    HW128121   2.670   2.691  17.463  1.6289  1.2147 -1.1679
 5495SOL    HW228122   2.814   2.728  17.469 -0.6633 -1.7618 -1.9281
 5496SOL     OW28123   2.088   3.956   7.644 -0.1754  0.0802 -0.1285
 5496SOL    HW128124   2.025   3.942   7.715  2.2331 -0.0934  1.9399
 5496SOL    HW228125   2.107   4.049   7.654  0.2741 -0.1091  0.7289
 5497SOL     OW28126   2.003   2.528  16.874 -0.0783  0.3202 -0.1715
 5497SOL    HW128127   1.984   2.496  16.962  0.3407 -1.8472 -0.8551
 5497SOL    HW228128   2.038   2.451  16.829 -0.0559  0.9723 -1.2720
 5498SOL     OW28129   2.450   3.583   5.713 -0.2221 -0.1827  0.1446
 5498SOL    HW128130   2.383   3.645   5.742 -0.4864 -0.2489 -0.3284
 5498SOL    HW228131   2.457   3.535   5.795 -2.3176 -0.2405  0.2803
 5499SOL     OW28132   1.704   0.454   4.801  0.3821  0.2582 -0.3069
 5499SOL    HW128133   1.784   0.436   4.750 -0.1943  0.1311 -1.1670
 5499SOL    HW228134   1.648   0.377   4.793 -1.3673  1.4358  0.7561
 5500SOL     OW28135   2.648   4.059   8.305 -0.1654  0.4506  0.3650
 5500SOL    HW128136   2.689   4.143   8.284  2.5706 -1.3398 -1.3599
 5500SOL    HW228137   2.709   4.028   8.373 -0.8824 -2.8419 -0.5050
 5501SOL     OW28138   1.278   3.653   1.456 -0.6553  0.3527  0.1750
 5501SOL    HW128139   1.236   3.736   1.436  0.9224  0.8491 -1.0539
 5501SOL    HW228140   1.368   3.674   1.432 -0.0207  1.7154  3.8131
 5502SOL     OW28141   3.007   0.990   1.927 -0.0585 -0.2703 -0.8073
 5502SOL    HW128142   3.017   1.039   1.846 -3.8003 -0.8802 -1.6190
 5502SOL    HW228143   2.914   0.998   1.946 -0.0912  0.9055 -1.4222
 5503SOL     OW28144   3.575   0.379   4.316 -0.1613  0.0719 -0.0500
 5503SOL    HW128145   3.646   0.315   4.316  0.0161  0.2679  0.2958
 5503SOL    HW228146   3.503   0.323   4.287 -0.4870  0.5747 -0.2109
 5504SOL     OW28147   0.621   1.432   2.173 -0.0295 -0.6398  1.0347
 5504SOL    HW128148   0.538   1.449   2.128  0.3386  1.4661  1.1424
 5504SOL    HW228149   0.625   1.495   2.245 -0.2884 -0.1084  0.5912
 5505SOL     OW28150   0.349   1.517  17.500  0.1767  0.4858 -0.5403
 5505SOL    HW128151   0.261   1.547  17.519  0.0969 -0.1499  0.1381
 5505SOL    HW228152   0.394   1.577  17.440  0.5685 -0.6364 -1.3756
 5506SOL     OW28153   1.067   1.450   6.388  0.6935 -0.1345  0.3637
 5506SOL    HW128154   1.084   1.356   6.387 -0.7291 -0.4064  0.7344
 5506SOL    HW228155   1.122   1.478   6.315  1.1199  0.5699  0.9624
 5507SOL     OW28156   0.776   3.409   5.916 -0.1862 -0.4293 -0.0498
 5507SOL    HW128157   0.743   3.370   5.996  0.0959  0.5599  0.5416
 5507SOL    HW228158   0.749   3.346   5.849  2.8762 -0.9936 -0.7688
 5508SOL     OW28159   1.846   2.228   8.429  0.1255  0.3996  0.2261
 5508SOL    HW128160   1.911   2.298   8.437 -0.5279  0.7769  2.1669
 5508SOL    HW228161   1.901   2.156   8.399 -0.1420 -0.1009  0.9449
 5509SOL     OW28162   3.769   3.989   5.442  0.3017 -0.7312 -0.2855
 5509SOL    HW128163   3.746   3.896   5.449  0.2620 -0.6838  0.1536
 5509SOL    HW228164   3.861   4.002   5.415  0.2428  1.7664  0.7465
 5510SOL     OW28165   2.373   1.788  12.369 -0.6789  0.1474  0.6928
 5510SOL    HW128166   2.414   1.702  12.375 -0.5702  0.2745  1.8388
 5510SOL    HW228167   2.420   1.836  12.301 -1.5131  0.5325  0.3838
 5511SOL     OW28168   0.261   2.799  12.345  0.4957  0.2342  0.5589
 5511SOL    HW128169   0.355   2.795  12.363  0.7572  2.2144 -0.3024
 5511SOL    HW228170   0.226   2.840  12.424 -1.0435 -0.6892  0.3459
 5512SOL     OW28171   2.090   3.213   4.731 -0.0377 -0.4434 -0.0862
 5512SOL    HW128172   2.168   3.255   4.693  0.8950 -0.9670  1.2667
 5512SOL    HW228173   2.128   3.170   4.807  0.4167  1.3485  0.7041
 5513SOL     OW28174   4.421   0.124   3.936  0.4419 -0.3866 -0.0688
 5513SOL    HW128175   4.461   0.211   3.934  0.4168 -0.3477  0.8784
 5513SOL    HW228176   4.502   0.074   3.929 -0.6280 -1.9881 -1.1779
 5514SOL     OW28177   3.784   2.394   1.839  0.8514 -0.4496  0.0362
 5514SOL    HW128178   3.835   2.464   1.879 -0.1916 -0.9626  2.2588
 5514SOL    HW228179   3.779   2.332   1.912 -2.4457  0.7153  0.7825
 5515SOL     OW28180   3.221   2.040   7.892 -0.1210 -0.0118 -0.2109
 5515SOL    HW128181   3.130   2.014   7.884  0.7637 -2.1439 -3.3148
 5515SOL    HW228182   3.229   2.097   7.815 -2.3749  0.7196  0.1108
 5516SOL     OW28183   0.600   1.340   8.345 -0.6677 -0.0187 -0.4398
 5516SOL    HW128184   0.606   1.246   8.360 -1.0562 -0.1233 -0.9257
 5516SOL    HW228185   0.512   1.369   8.371 -0.1088  1.2831  0.0124
 5517SOL     OW28186   2.644   3.647  10.214  0.0133  0.0648 -0.0962
 5517SOL    HW128187   2.707   3.603  10.271  1.2015  1.0104 -0.6856
 5517SOL    HW228188   2.648   3.739  10.241 -0.1424  0.3360 -0.9855
 5518SOL     OW28189   4.516   4.227   2.174 -0.4494  0.3710  0.3467
 5518SOL    HW128190   4.508   4.275   2.256 -0.9503  1.1999 -0.1877
 5518SOL    HW228191   4.593   4.268   2.135  1.2033  0.7509  4.0310
 5519SOL     OW28192   1.999   0.841   0.195  0.4157 -0.3537  0.4418
 5519SOL    HW128193   2.043   0.913   0.240  1.1123 -1.0505  0.8843
 5519SOL    HW228194   1.922   0.885   0.160  1.2205  0.1376 -0.7441
 5520SOL     OW28195   1.439   0.812  11.884 -0.3109 -0.3502 -0.1474
 5520SOL    HW128196   1.380   0.741  11.908 -0.8093 -0.2221 -0.9969
 5520SOL    HW228197   1.492   0.767  11.818 -1.2727  0.5286 -1.5086
 5521SOL     OW28198   3.681   0.794   1.798 -0.5382 -0.3970 -0.2085
 5521SOL    HW128199   3.678   0.726   1.865 -1.1834 -1.9149 -1.7966
 5521SOL    HW228200   3.643   0.869   1.844 -1.6026  0.0211 -1.7830
 5522SOL     OW28201   0.145   2.881   1.355 -0.2171 -0.5446 -0.2648
 5522SOL    HW128202   0.183   2.870   1.442 -1.1818 -1.0350  0.0907
 5522SOL    HW228203   0.133   2.789   1.333 -1.1829  0.1737 -2.8467
 5523SOL     OW28204   2.548   4.454   2.421  0.2350  0.2243 -0.5600
 5523SOL    HW128205   2.578   4.538   2.457  0.4439 -0.7589  1.5322
 5523SOL    HW228206   2.517   4.417   2.503  1.4050  2.0107  0.6871
 5524SOL     OW28207   4.143   1.943  11.464  0.2617 -0.3629  0.0901
 5524SOL    HW128208   4.126   2.014  11.403 -0.1594  0.3142  0.9951
 5524SOL    HW228209   4.061   1.942  11.513 -0.4183 -0.6594 -1.0649
 5525SOL     OW28210   4.200   2.065   2.286  0.6823  0.1910 -0.0890
 5525SOL    HW128211   4.154   2.135   2.333  1.2122  0.3056  0.2663
 5525SOL    HW228212   4.127   2.027   2.239 -0.3781  1.0084  0.9008
 5526SOL     OW28213   3.907   4.561   3.464  0.2406 -0.0077  0.3941
 5526SOL    HW128214   3.987   4.571   3.515  1.2599 -1.2902 -0.9548
 5526SOL    HW228215   3.866   4.479   3.489  0.3811  0.3121  1.6529
 5527SOL     OW28216   3.464   2.215   1.779  0.2834  0.4106 -0.0637
 5527SOL    HW128217   3.548   2.219   1.733 -0.0660  0.1963 -0.7132
 5527SOL    HW228218   3.500   2.157   1.846  0.0634 -0.7717 -0.9831
 5528SOL     OW28219   1.560   3.874  14.894  0.2262 -0.0793  0.8894
 5528SOL    HW128220   1.642   3.828  14.878  0.4198  0.0816  1.4271
 5528SOL    HW228221   1.590   3.960  14.922  0.4057 -0.3906  1.6495
 5529SOL     OW28222   4.249   0.176   0.013  0.4180 -0.3671  0.0266
 5529SOL    HW128223   4.246   0.247   0.076 -2.8067 -1.7569  1.4379
 5529SOL    HW228224   4.345   0.181   0.009  0.3916 -1.1676 -1.5732
 5530SOL     OW28225   2.157   2.602  16.665 -0.1304  0.3837 -0.9014
 5530SOL    HW128226   2.107   2.632  16.741  0.2728 -0.4091 -0.3274
 5530SOL    HW228227   2.240   2.572  16.702 -1.1618 -0.5423  0.6288
 5531SOL     OW28228   4.448   2.759  13.482  0.3108  0.5715 -0.2901
 5531SOL    HW128229   4.398   2.840  13.493  0.3230  0.2232  2.3914
 5531SOL    HW228230   4.404   2.709  13.414  1.5830 -2.1556  0.9100
 5532SOL     OW28231   0.571   3.702   8.207 -0.2600  0.0888 -0.2663
 5532SOL    HW128232   0.600   3.724   8.296 -1.0221  0.8433 -0.2015
 5532SOL    HW228233   0.483   3.738   8.221  0.2342  1.5966 -1.0987
 5533SOL     OW28234   2.520   3.559   7.940 -0.4211 -0.2849 -0.1257
 5533SOL    HW128235   2.553   3.633   7.889 -0.1621  0.3239  0.9166
 5533SOL    HW228236   2.441   3.594   7.983 -0.3333 -0.3538  0.0920
 5534SOL     OW28237   3.362   1.003  15.518 -0.1486  0.2928  0.2859
 5534SOL    HW128238   3.420   1.072  15.551 -0.5993  0.3265  0.9936
 5534SOL    HW228239   3.422   0.935  15.486 -0.1009  1.0514 -1.2263
 5535SOL     OW28240   4.632   2.998   4.498 -0.0460 -0.1230 -0.0992
 5535SOL    HW128241   4.538   2.984   4.481  0.3389 -2.4038 -0.4248
 5535SOL    HW228242   4.665   3.011   4.410 -0.1939 -0.6938 -0.2399
 5536SOL     OW28243   2.120   4.313  14.587 -0.2785 -0.6775 -0.0811
 5536SOL    HW128244   2.130   4.221  14.609  0.9598 -0.4771  0.1982
 5536SOL    HW228245   2.189   4.314  14.520  2.4924 -0.8578  2.7621
 5537SOL     OW28246   3.265   0.665  11.343  0.1379  0.3902  0.3542
 5537SOL    HW128247   3.310   0.722  11.281 -1.0543 -0.6772 -1.5054
 5537SOL    HW228248   3.279   0.581  11.299 -1.4529  1.0312 -1.4133
 5538SOL     OW28249   1.148   2.414   5.139  0.2169  0.3720  0.6665
 5538SOL    HW128250   1.064   2.443   5.172 -0.5285 -0.2941 -0.6227
 5538SOL    HW228251   1.134   2.321   5.118  1.3897  0.3181  0.0845
 5539SOL     OW28252   4.335   2.128   5.208  1.1006  0.4659 -0.1611
 5539SOL    HW128253   4.392   2.200   5.183  1.7803  0.0142  0.1021
 5539SOL    HW228254   4.246   2.165   5.204  1.0786  0.3601 -0.6529
 5540SOL     OW28255   2.358   2.603   5.537  0.2196 -0.3054  0.2281
 5540SOL    HW128256   2.300   2.577   5.466  1.9232 -3.0877 -0.1566
 5540SOL    HW228257   2.359   2.517   5.581  0.3323 -0.9712 -1.0798
 5541SOL     OW28258   0.920   2.951   8.709 -0.4257 -0.6317 -0.6545
 5541SOL    HW128259   0.980   2.876   8.717 -1.1612 -1.0662  0.8552
 5541SOL    HW228260   0.862   2.922   8.639 -0.4317 -0.0072 -0.9071
 5542SOL     OW28261   2.755   4.251   0.385 -0.1725 -0.2941 -0.1076
 5542SOL    HW128262   2.792   4.302   0.457  0.4799  0.5965 -1.0773
 5542SOL    HW228263   2.822   4.271   0.320  0.6315  0.9902  1.1241
 5543SOL     OW28264   0.648   4.363  10.469 -0.0674  0.1316  0.0553
 5543SOL    HW128265   0.592   4.296  10.508 -0.7984  1.9731  2.1663
 5543SOL    HW228266   0.691   4.303  10.408 -2.0306  0.5401 -1.7640
 5544SOL     OW28267   2.293   2.718   7.102 -0.5374  0.3904 -0.0359
 5544SOL    HW128268   2.287   2.732   7.008  2.7669  0.6614 -0.1875
 5544SOL    HW228269   2.211   2.760   7.128 -1.8210 -1.5185 -1.0002
 5545SOL     OW28270   2.637   3.972   2.780 -0.0374  0.4928 -0.2690
 5545SOL    HW128271   2.610   3.906   2.844  0.8707  0.7058  0.3370
 5545SOL    HW228272   2.629   3.924   2.698 -1.9376  0.6512 -0.1657
 5546SOL     OW28273   4.589   0.911  17.584 -0.7878 -0.5269 -0.0396
 5546SOL    HW128274   4.641   0.981  17.545 -0.6091 -0.5881  0.0895
 5546SOL    HW228275   4.501   0.931  17.552 -0.1596  2.4855  0.1325
 5547SOL     OW28276   1.181   2.216   6.266  0.8735  0.6284 -0.4143
 5547SOL    HW128277   1.236   2.277   6.216  1.3529  0.4156 -0.1359
 5547SOL    HW228278   1.104   2.227   6.210 -0.5760  0.2001  1.5129
 5548SOL     OW28279   3.158   0.536   7.607 -0.0162 -0.3442 -0.3420
 5548SOL    HW128280   3.169   0.452   7.564 -0.2576 -1.1193  1.0872
 5548SOL    HW228281   3.070   0.525   7.642  0.5149 -0.2471  1.0289
 5549SOL     OW28282   4.096   3.566   9.959 -0.0410  0.8672 -0.6476
 5549SOL    HW128283   4.171   3.618   9.986  0.9539  0.9336 -3.6610
 5549SOL    HW228284   4.111   3.571   9.865  1.6606  1.3125 -0.3426
 5550SOL     OW28285   3.478   1.453   0.702 -0.0462 -0.3989  0.0534
 5550SOL    HW128286   3.465   1.389   0.772  0.9956  0.2127  0.7905
 5550SOL    HW228287   3.393   1.495   0.715 -0.7824 -1.5509 -0.9188
 5551SOL     OW28288   3.845   0.656  12.353 -0.8686 -0.0199  0.0440
 5551SOL    HW128289   3.899   0.665  12.431  0.2090 -2.5587 -0.4052
 5551SOL    HW228290   3.826   0.562  12.358 -2.6709  0.5046  3.0194
 5552SOL     OW28291   3.847   4.428  16.416  0.4475  0.0621 -0.2928
 5552SOL    HW128292   3.783   4.489  16.379  0.3164  0.2427  0.2279
 5552SOL    HW228293   3.906   4.411  16.343 -1.5633 -2.0896 -1.4070
 5553SOL     OW28294   3.701   0.839   0.322  0.3250  0.2170  0.1578
 5553SOL    HW128295   3.632   0.903   0.338  2.0152  1.5731  1.9978
 5553SOL    HW228296   3.760   0.864   0.393  2.4845 -1.0913 -1.1557
 5554SOL     OW28297   0.378   2.039  17.374 -0.2635  0.3592 -0.1750
 5554SOL    HW128298   0.382   2.027  17.279 -2.0776  1.9500 -0.4438
 5554SOL    HW228299   0.320   2.115  17.369 -0.5375  0.2415  1.2504
 5555SOL     OW28300   2.760   0.245   4.841 -0.0706  0.0219  0.1718
 5555SOL    HW128301   2.852   0.238   4.814 -0.8201 -3.7558 -1.4543
 5555SOL    HW228302   2.754   0.157   4.879  3.0055 -0.8853 -1.4347
 5556SOL     OW28303   2.713   1.902   6.653 -0.2775  0.6384 -0.1531
 5556SOL    HW128304   2.721   1.807   6.664 -1.0930  0.4397 -1.1729
 5556SOL    HW228305   2.777   1.944   6.710 -1.0383 -0.8419  1.7946
 5557SOL     OW28306   3.137   1.453   9.253 -0.3499  0.2911  0.0345
 5557SOL    HW128307   3.157   1.417   9.339 -1.7947 -0.8600 -0.1238
 5557SOL    HW228308   3.042   1.460   9.249 -0.4043 -0.8061 -0.6829
 5558SOL     OW28309   0.193   0.871  17.323 -0.6826  0.1875  0.4387
 5558SOL    HW128310   0.175   0.806  17.255  1.0890  0.5231 -0.3671
 5558SOL    HW228311   0.288   0.878  17.314 -0.5595  0.0490  1.6723
 5559SOL     OW28312   2.790   0.463  17.287  0.7339  0.1990  0.4523
 5559SOL    HW128313   2.857   0.442  17.222 -2.0016 -1.5880 -1.7859
 5559SOL    HW228314   2.758   0.543  17.246 -0.8169 -0.4170  0.4710
 5560SOL     OW28315   4.005   3.240   3.177 -0.3077 -0.6986  0.4413
 5560SOL    HW128316   3.978   3.155   3.211 -1.1192 -0.2991  0.8041
 5560SOL    HW228317   4.007   3.291   3.258 -0.6840  0.4035 -0.2377
 5561SOL     OW28318   0.796   0.522   3.418 -0.3128  0.9350  0.2699
 5561SOL    HW128319   0.883   0.523   3.459  0.0671  0.8549 -0.5397
 5561SOL    HW228320   0.780   0.615   3.403  2.6813  1.5929  1.0266
 5562SOL     OW28321   4.385   2.903   7.070  0.1186  0.5174  0.0303
 5562SOL    HW128322   4.467   2.906   7.020  1.0691  0.4679  1.6001
 5562SOL    HW228323   4.365   2.811   7.057 -3.2060  1.1037  1.1536
 5563SOL     OW28324   1.807   1.035   4.251 -0.1180 -0.1419 -0.1563
 5563SOL    HW128325   1.829   1.028   4.158  1.7315 -1.2907  0.3651
 5563SOL    HW228326   1.871   0.973   4.286  0.1001  0.3269  0.2683
 5564SOL     OW28327   2.590   1.308  15.444 -0.9463  0.0691 -0.6463
 5564SOL    HW128328   2.614   1.302  15.536 -0.2370 -0.6687 -0.8849
 5564SOL    HW228329   2.668   1.343  15.401 -0.7849 -0.3984 -0.7255
 5565SOL     OW28330   3.199   4.027   2.104 -0.1883  0.1105  0.0107
 5565SOL    HW128331   3.246   4.110   2.110 -2.2065  1.1980  0.8441
 5565SOL    HW228332   3.170   4.037   2.013  0.5338  2.2182  0.0067
 5566SOL     OW28333   4.276   1.671   7.378 -0.2364 -0.1444  0.3106
 5566SOL    HW128334   4.324   1.731   7.435  3.1319 -2.3543 -0.2054
 5566SOL    HW228335   4.353   1.633   7.337  0.1603  0.8153  0.1811
 5567SOL     OW28336   1.353   0.005   7.124 -0.4095 -0.3010  0.2530
 5567SOL    HW128337   1.391   0.090   7.101  0.6366 -1.6354 -3.0296
 5567SOL    HW228338   1.303   0.031   7.201  1.5075 -0.4450  1.5631
 5568SOL     OW28339   1.291   0.265  12.306  0.3822 -0.0487  0.3648
 5568SOL    HW128340   1.336   0.185  12.334 -0.2550 -1.6225 -3.1586
 5568SOL    HW228341   1.228   0.287  12.375 -0.3081  1.9181 -0.8973
 5569SOL     OW28342   0.469   2.963  10.948 -0.4432 -0.3799 -0.0413
 5569SOL    HW128343   0.411   2.896  10.910 -1.5506 -0.3700  1.6376
 5569SOL    HW228344   0.469   2.942  11.041  1.9435 -1.9253 -0.3905
 5570SOL     OW28345   4.065   3.685   3.277  0.0902  0.4044  0.0444
 5570SOL    HW128346   3.971   3.694   3.290  0.1513 -0.6686  1.2806
 5570SOL    HW228347   4.062   3.707   3.184  1.5950  0.1863 -0.0501
 5571SOL     OW28348   1.557   0.522   8.870 -0.4199 -0.7062  0.2595
 5571SOL    HW128349   1.598   0.470   8.801  1.5118  0.2215  0.6787
 5571SOL    HW228350   1.489   0.560   8.816  0.9431  1.5754  0.1346
 5572SOL     OW28351   0.758   0.865   1.322  1.1559  0.0666 -0.1773
 5572SOL    HW128352   0.804   0.894   1.243  0.4595  1.6282  0.0025
 5572SOL    HW228353   0.831   0.837   1.377  0.3334  2.5730  2.1699
 5573SOL     OW28354   3.334   2.913   4.387 -0.3679 -0.1850 -0.0169
 5573SOL    HW128355   3.270   2.906   4.316  3.0792  0.1530 -3.1952
 5573SOL    HW228356   3.352   2.819   4.395  1.8988  0.3270  0.8273
 5574SOL     OW28357   3.356   3.179  13.352  0.2538 -0.0316 -0.2317
 5574SOL    HW128358   3.306   3.149  13.428 -2.1017  1.3268 -1.2383
 5574SOL    HW228359   3.417   3.108  13.336 -0.7477 -0.6426 -1.3472
 5575SOL     OW28360   2.433   1.813   0.125  0.5002 -0.3615 -0.1538
 5575SOL    HW128361   2.360   1.756   0.151 -0.1447 -0.6053 -2.5620
 5575SOL    HW228362   2.483   1.750   0.073  0.3237 -1.0761  0.5291
 5576SOL     OW28363   0.407   0.781   9.853  0.6303  0.7976  0.5988
 5576SOL    HW128364   0.323   0.757   9.814  0.8826  0.0677  0.5165
 5576SOL    HW228365   0.458   0.706   9.823  1.2739  1.4388  0.0673
 5577SOL     OW28366   0.850   4.286  14.534  0.0085 -0.3080  0.7024
 5577SOL    HW128367   0.933   4.246  14.560  0.0279  2.5525  5.0483
 5577SOL    HW228368   0.797   4.207  14.547 -0.3641 -0.2093 -0.2194
 5578SOL     OW28369   3.164   0.069  11.258  0.0170 -0.1833  0.0087
 5578SOL    HW128370   3.179   0.133  11.328  0.3470 -0.8777  0.5782
 5578SOL    HW228371   3.171   0.127  11.182 -2.5957 -0.6556 -0.5937
 5579SOL     OW28372   2.098   1.095   7.520 -0.2545 -0.4294  0.0978
 5579SOL    HW128373   2.131   1.182   7.500 -1.3937 -0.2129 -0.8173
 5579SOL    HW228374   2.123   1.082   7.612 -2.0584  2.3727  0.9583
 5580SOL     OW28375   1.777   0.656   8.660  0.0186  0.5685 -0.3124
 5580SOL    HW128376   1.825   0.722   8.609 -0.8935  1.2553 -0.2967
 5580SOL    HW228377   1.692   0.697   8.642 -1.1320 -1.1294  1.2481
 5581SOL     OW28378   2.977   3.693   5.715  0.0880 -0.0853 -0.2282
 5581SOL    HW128379   2.922   3.635   5.663  1.9011 -2.9467  1.0430
 5581SOL    HW228380   2.972   3.776   5.667 -0.6177  0.2400  0.3907
 5582SOL     OW28381   1.818   2.244   5.987 -0.1982 -0.4620 -0.1386
 5582SOL    HW128382   1.768   2.162   5.978 -1.3610  0.1863  0.3590
 5582SOL    HW228383   1.906   2.208   5.997 -0.5084 -1.4207 -0.9166
 5583SOL     OW28384   0.190   2.860   6.594 -0.3508 -0.0721 -0.3383
 5583SOL    HW128385   0.259   2.808   6.553  0.6554  1.3095 -0.3717
 5583SOL    HW228386   0.117   2.864   6.531  0.5181 -1.0285 -1.4036
 5584SOL     OW28387   0.850   4.180  12.537  0.0212  0.1025 -0.3968
 5584SOL    HW128388   0.772   4.156  12.487  0.4501  1.2321 -1.6235
 5584SOL    HW228389   0.860   4.103  12.593 -0.6635 -1.6806 -2.7404
 5585SOL     OW28390   3.324   0.581   4.905  0.7361 -0.5876 -0.2257
 5585SOL    HW128391   3.383   0.650   4.935  1.8270 -1.3446 -0.6192
 5585SOL    HW228392   3.327   0.539   4.991 -0.7140 -0.8345 -0.2930
 5586SOL     OW28393   2.954   4.051   9.083  0.5501 -0.2385  0.1723
 5586SOL    HW128394   2.994   4.127   9.042 -1.0282  0.6452  0.2563
 5586SOL    HW228395   2.860   4.072   9.077  1.0335  1.1814 -2.2078
 5587SOL     OW28396   0.303   0.650   4.291  0.0405 -0.2375 -0.2322
 5587SOL    HW128397   0.249   0.698   4.353 -0.1317  0.5534 -0.9919
 5587SOL    HW228398   0.371   0.620   4.351  0.8458  1.0147 -0.5292
 5588SOL     OW28399   0.181   3.254  11.376  0.3935 -0.0496  0.0778
 5588SOL    HW128400   0.182   3.249  11.281 -0.9842  0.8089  0.0211
 5588SOL    HW228401   0.097   3.214  11.394  0.4275 -0.4544 -0.6795
 5589SOL     OW28402   2.233   0.698   4.861  0.1372 -0.1456 -0.0287
 5589SOL    HW128403   2.271   0.668   4.944 -1.3821 -2.1220 -0.0442
 5589SOL    HW228404   2.300   0.762   4.840  2.3832 -3.2716 -2.3829
 5590SOL     OW28405   3.065   2.870   8.481 -0.0291  0.5825 -0.0877
 5590SOL    HW128406   3.115   2.913   8.412  0.5077  2.1654  1.3050
 5590SOL    HW228407   3.056   2.785   8.437  1.8369 -0.7455  2.1267
 5591SOL     OW28408   4.504   2.255   6.612 -0.8274 -0.0969  0.5533
 5591SOL    HW128409   4.574   2.260   6.546  0.0553  0.1188  1.5181
 5591SOL    HW228410   4.535   2.179   6.661  0.5456  0.6224  0.7975
 5592SOL     OW28411   3.696   4.715  14.851 -0.0491 -0.2819  0.0538
 5592SOL    HW128412   3.746   4.661  14.913 -0.2311  0.2631  0.6819
 5592SOL    HW228413   3.677   0.064  14.893  0.7895 -0.7433  1.3685
 5593SOL     OW28414   3.036   2.587   3.415  0.2416  0.1548  0.6871
 5593SOL    HW128415   3.070   2.665   3.372 -1.8407  2.1126  2.5574
 5593SOL    HW228416   2.956   2.579   3.363  0.4229 -0.4387  0.5061
 5594SOL     OW28417   4.208   4.734   3.485 -0.2079  0.2811  0.2292
 5594SOL    HW128418   4.282   0.049   3.518  0.4507 -0.3567 -0.2839
 5594SOL    HW228419   4.211   4.657   3.541 -2.5289  0.6440  0.8920
 5595SOL     OW28420   2.706   1.691  16.989 -0.0346 -0.3141  0.1772
 5595SOL    HW128421   2.745   1.749  16.923 -1.4708 -0.4437 -0.7838
 5595SOL    HW228422   2.783   1.647  17.024  1.6929  2.3185 -0.2792
 5596SOL     OW28423   2.711   1.564   9.770  0.0976  0.2665  0.4195
 5596SOL    HW128424   2.780   1.631   9.767  1.2217 -1.0012 -1.5119
 5596SOL    HW228425   2.645   1.610   9.823 -0.1575  0.2491  0.1154
 5597SOL     OW28426   3.334   4.094  13.063  0.0321 -0.2187 -0.0307
 5597SOL    HW128427   3.267   4.027  13.050 -0.8098  0.7000 -0.4598
 5597SOL    HW228428   3.283   4.151  13.119 -0.0196 -0.4960  0.2040
 5598SOL     OW28429   3.437   0.817   1.278  0.7800  0.5669 -0.3956
 5598SOL    HW128430   3.345   0.792   1.282  0.5957  1.2277 -0.4477
 5598SOL    HW228431   3.459   0.873   1.352 -1.2109  1.2599 -0.3428
 5599SOL     OW28432   1.289   4.689   8.253 -0.4554 -0.1303  0.4716
 5599SOL    HW128433   1.359   4.630   8.280 -1.1282 -2.3218 -2.5619
 5599SOL    HW228434   1.338   0.032   8.230 -1.3230  0.2400 -0.1432
 5600SOL     OW28435   1.248   3.683  13.304  0.0482 -0.1653  0.1087
 5600SOL    HW128436   1.176   3.745  13.294 -2.2044 -2.5035  2.0371
 5600SOL    HW228437   1.310   3.748  13.338 -0.3365  0.6442 -0.7711
 5601SOL     OW28438   1.978   4.594   7.355  0.0852 -0.4172 -0.0299
 5601SOL    HW128439   2.026   4.665   7.312 -0.7161  1.1813  1.7502
 5601SOL    HW228440   1.895   4.640   7.367  0.4832 -0.1050  1.4258
 5602SOL     OW28441   1.684   0.481   4.443  0.2820  0.3080  0.2650
 5602SOL    HW128442   1.679   0.388   4.425 -1.9911  0.3361  0.7748
 5602SOL    HW228443   1.602   0.495   4.491  0.6827 -0.2226  1.1045
 5603SOL     OW28444   0.053   0.106   9.267 -0.2632  0.3862  0.2392
 5603SOL    HW128445   0.023   0.193   9.244 -0.1849  0.3232 -0.1167
 5603SOL    HW228446   0.014   0.089   9.353  0.6514 -2.0889  0.1856
 5604SOL     OW28447   0.517   0.071  10.109 -0.3364 -0.2103  0.2284
 5604SOL    HW128448   0.612   0.084  10.106 -0.5461  1.7190  1.9084
 5604SOL    HW228449   0.514   4.726  10.162  0.2345 -0.4668 -0.1291
 5605SOL     OW28450   1.364   2.795   1.145  0.1451  0.2081  0.1607
 5605SOL    HW128451   1.343   2.779   1.237 -2.4453 -0.2203 -0.5053
 5605SOL    HW228452   1.297   2.758   1.087 -0.2051  0.5795  0.3280
 5606SOL     OW28453   0.592   2.921  10.141  0.1756 -0.0069  0.5386
 5606SOL    HW128454   0.587   2.827  10.123  1.6168 -0.3709  1.9263
 5606SOL    HW228455   0.618   2.954  10.055 -0.7805  2.4657  1.2175
 5607SOL     OW28456   3.938   1.469   8.798 -0.5578 -0.0805  0.0652
 5607SOL    HW128457   3.900   1.429   8.720  1.8968 -1.5910 -0.3653
 5607SOL    HW228458   4.014   1.411   8.804 -0.4417  0.0219 -0.4403
 5608SOL     OW28459   4.286   1.886   1.941 -0.4082  0.1403  0.4539
 5608SOL    HW128460   4.268   1.863   1.849 -2.2568  1.5886  0.4638
 5608SOL    HW228461   4.291   1.801   1.985  0.8170 -0.7496 -1.3490
 5609SOL     OW28462   3.934   1.621   4.555  0.6448 -0.3322  0.2009
 5609SOL    HW128463   3.942   1.697   4.498  0.8421  0.3119  1.0901
 5609SOL    HW228464   3.854   1.645   4.603  0.1394  1.5660 -1.6087
 5610SOL     OW28465   3.451   3.119   5.635  0.4825 -0.9804 -0.0927
 5610SOL    HW128466   3.458   3.136   5.729  2.1055  0.0968 -0.4003
 5610SOL    HW228467   3.392   3.045   5.623 -0.6076  0.3205 -2.6539
 5611SOL     OW28468   1.582   3.183  10.683  0.5144  0.1529 -0.2184
 5611SOL    HW128469   1.488   3.190  10.668  0.5781 -2.0320 -1.6477
 5611SOL    HW228470   1.606   3.274  10.667  1.1609 -0.0394 -0.3608
 5612SOL     OW28471   3.521   0.586   7.765  0.5934  0.4251 -0.6366
 5612SOL    HW128472   3.473   0.508   7.740  1.3919  0.7143 -3.0313
 5612SOL    HW228473   3.533   0.567   7.858 -1.3809  3.3009  0.2113
 5613SOL     OW28474   0.613   4.544   6.137 -0.0328 -0.5013  0.5670
 5613SOL    HW128475   0.709   4.544   6.143 -0.1164  3.0614  1.6359
 5613SOL    HW228476   0.594   4.452   6.120 -1.0335  0.4270 -3.3876
 5614SOL     OW28477   1.463   0.548   5.877  0.3385 -0.7205  0.1341
 5614SOL    HW128478   1.378   0.592   5.874  0.9369  0.3219 -1.7228
 5614SOL    HW228479   1.522   0.613   5.838  0.4452  0.1452  1.7477
 5615SOL     OW28480   2.207   0.989   4.027  0.0841  0.0382 -0.0569
 5615SOL    HW128481   2.200   0.974   4.121 -1.8005  2.3954  0.1610
 5615SOL    HW228482   2.225   0.909   3.978  2.0392  1.0345 -0.9702
 5616SOL     OW28483   0.996   1.106   7.204 -0.1434  0.8108  0.1318
 5616SOL    HW128484   0.973   1.013   7.214  0.4192  0.5903 -0.6574
 5616SOL    HW228485   1.086   1.088   7.179  0.8865  3.7989  1.7492
 5617SOL     OW28486   2.921   3.416   1.330  0.2465 -0.0948 -0.3868
 5617SOL    HW128487   2.902   3.471   1.405  1.8657 -0.2562  0.1539
 5617SOL    HW228488   2.972   3.477   1.277  0.9326  1.1835  1.7383
 5618SOL     OW28489   3.045   3.333   7.078  0.2409 -0.7219 -0.2709
 5618SOL    HW128490   2.992   3.285   7.014  0.1090 -1.0883  0.1185
 5618SOL    HW228491   3.129   3.321   7.035  0.0733  0.9858 -1.1047
 5619SOL     OW28492   0.779   3.680   6.338 -0.1429 -0.4904  0.2216
 5619SOL    HW128493   0.860   3.632   6.350 -1.0446 -2.3474 -1.2093
 5619SOL    HW228494   0.792   3.750   6.402  1.2350 -1.2081  0.7197
 5620SOL     OW28495   0.465   4.561   6.742 -0.2932 -0.4343  0.2606
 5620SOL    HW128496   0.437   4.537   6.654 -0.4943  2.7637 -0.5351
 5620SOL    HW228497   0.379   4.566   6.782  0.4464 -0.3602  1.8423
 5621SOL     OW28498   3.791   3.722   3.359 -0.0167  0.6545  0.2216
 5621SOL    HW128499   3.721   3.756   3.303  2.9695  1.1166 -3.2777
 5621SOL    HW228500   3.744   3.661   3.416 -1.5746  0.4623 -1.2671
 5622SOL     OW28501   1.636   1.847  16.022  0.7428 -0.0916 -0.1210
 5622SOL    HW128502   1.600   1.842  15.933 -0.8556 -0.2191  0.5387
 5622SOL    HW228503   1.663   1.757  16.041 -1.1583 -0.7818 -0.7160
 5623SOL     OW28504   2.733   0.261   1.474 -0.0390  0.0950  0.2003
 5623SOL    HW128505   2.704   0.250   1.384  2.5032 -0.3685 -0.5762
 5623SOL    HW228506   2.684   0.337   1.505 -1.0366 -0.9408  1.1773
 5624SOL     OW28507   1.093   1.972  10.265 -0.2794  0.1031 -0.0048
 5624SOL    HW128508   1.162   1.928  10.315  1.6101  1.0783 -1.8137
 5624SOL    HW228509   1.105   2.064  10.288 -1.7134  0.4460 -0.6376
 5625SOL     OW28510   2.798   0.508   7.137 -0.1035 -0.0330  0.3135
 5625SOL    HW128511   2.773   0.430   7.087  0.2150 -1.2006  1.9771
 5625SOL    HW228512   2.713   0.552   7.145 -0.4890 -0.6962 -0.1432
 5626SOL     OW28513   0.309   4.323   6.155  0.1733 -0.2621  0.1674
 5626SOL    HW128514   0.262   4.339   6.237 -1.4671 -0.0569 -0.7990
 5626SOL    HW228515   0.242   4.348   6.090 -0.0681 -0.5197  0.3194
 5627SOL     OW28516   0.711   4.018   9.480 -0.3953 -0.6332  0.1764
 5627SOL    HW128517   0.618   3.994   9.488 -0.2575 -1.3536 -0.3329
 5627SOL    HW228518   0.740   3.937   9.438 -0.3826 -0.3278 -0.4065
 5628SOL     OW28519   4.015   4.239   3.505  0.0735  0.3691  0.0473
 5628SOL    HW128520   3.994   4.148   3.484 -0.1159  0.5435 -0.5294
 5628SOL    HW228521   3.929   4.276   3.525  0.0573  1.1519 -1.4543
 5629SOL     OW28522   0.599   3.580   4.013 -0.2851 -0.3928 -0.0535
 5629SOL    HW128523   0.692   3.600   4.004 -0.2986 -0.1674  0.2947
 5629SOL    HW228524   0.585   3.531   3.932 -0.6556  1.3330 -1.0417
 5630SOL     OW28525   3.539   2.700   7.794  0.0970  0.1108  0.2484
 5630SOL    HW128526   3.528   2.791   7.766 -1.4039  0.8243  3.2018
 5630SOL    HW228527   3.541   2.651   7.711  0.4484 -2.9498  2.0731
 5631SOL     OW28528   2.084   2.310  16.728 -0.4677  0.4324  0.0230
 5631SOL    HW128529   2.117   2.223  16.709  0.9260  1.2362 -1.2572
 5631SOL    HW228530   2.156   2.368  16.702 -1.1531  0.8744 -0.8806
 5632SOL     OW28531   1.895   1.175   5.874  0.1743  0.0853 -0.1535
 5632SOL    HW128532   1.816   1.179   5.819  0.7977  1.2246 -0.9696
 5632SOL    HW228533   1.849   1.130   5.945  0.8585  1.2369  1.0082
 5633SOL     OW28534   3.194   1.761   2.833  0.0422  0.0287  0.1239
 5633SOL    HW128535   3.185   1.855   2.850  0.6388  0.0302  0.4431
 5633SOL    HW228536   3.140   1.743   2.756 -1.9493 -0.3886  1.6031
 5634SOL     OW28537   1.246   4.495   4.534  0.3776 -0.5021 -0.2382
 5634SOL    HW128538   1.186   4.467   4.465  1.2965  0.6768 -1.5475
 5634SOL    HW228539   1.192   4.520   4.609  1.5221 -0.0885  0.4507
 5635SOL     OW28540   2.532   0.089  15.635 -0.0179 -0.2073 -0.2472
 5635SOL    HW128541   2.605   0.091  15.572  0.3541  0.1438  0.1943
 5635SOL    HW228542   2.534   0.176  15.674 -0.8627 -0.1159 -0.4080
 5636SOL     OW28543   4.169   3.579  16.717 -0.4830 -0.2001 -0.4203
 5636SOL    HW128544   4.173   3.484  16.709  1.9693 -0.0975 -0.3306
 5636SOL    HW228545   4.082   3.597  16.681 -1.0154 -1.4906  0.2316
 5637SOL     OW28546   4.368   1.894   7.536  0.5683  0.4432  0.8410
 5637SOL    HW128547   4.287   1.940   7.558 -0.7240 -1.6745  0.4727
 5637SOL    HW228548   4.426   1.900   7.612 -1.8548 -1.0870  2.7990
 5638SOL     OW28549   0.072   0.280   0.880 -0.8448  0.0430 -0.2128
 5638SOL    HW128550   0.122   0.362   0.877  1.1109 -1.0586  2.6448
 5638SOL    HW228551   0.013   0.296   0.806 -0.2468  1.1352 -0.4485
 5639SOL     OW28552   2.113   0.475   8.318  0.5131 -0.9099  0.2767
 5639SOL    HW128553   2.089   0.531   8.244 -2.8266 -1.7799  0.7063
 5639SOL    HW228554   2.125   0.532   8.394 -1.0104 -0.2765  0.0467
 5640SOL     OW28555   3.662   3.320   3.208 -0.5498 -0.1040  0.4263
 5640SOL    HW128556   3.731   3.300   3.272 -0.5583 -0.0456  0.4532
 5640SOL    HW228557   3.705   3.304   3.124  1.3688  1.2391  1.1577
 5641SOL     OW28558   1.268   4.048   3.681 -0.1533 -0.2561  0.7159
 5641SOL    HW128559   1.217   3.978   3.722  1.1621  0.5714  3.7656
 5641SOL    HW228560   1.293   4.110   3.750  1.1087  1.4946 -1.3157
 5642SOL     OW28561   3.263   2.110   4.424  0.2958  0.5452  0.0274
 5642SOL    HW128562   3.228   2.109   4.513  1.7850  1.0307  0.6329
 5642SOL    HW228563   3.353   2.078   4.432  1.0207  2.4620 -0.5367
 5643SOL     OW28564   0.579   1.736  12.295  0.3773 -0.0047  0.3188
 5643SOL    HW128565   0.653   1.693  12.253  0.6695  1.1405 -0.3260
 5643SOL    HW228566   0.510   1.678  12.264  0.1784  0.7402 -0.6583
 5644SOL     OW28567   3.533   2.850   0.428  0.2070 -0.1070 -0.3032
 5644SOL    HW128568   3.476   2.782   0.463 -0.5632  0.3844 -0.6030
 5644SOL    HW228569   3.496   2.851   0.340 -0.8536 -0.1046  0.1407
 5645SOL     OW28570   3.567   4.506   4.713  0.0192 -0.2441 -0.1698
 5645SOL    HW128571   3.593   4.538   4.627  0.4713 -0.7880 -0.2340
 5645SOL    HW228572   3.646   4.453   4.729 -0.4701 -0.6038  1.0779
 5646SOL     OW28573   0.838   2.967   1.101 -0.4133  0.0149  0.0337
 5646SOL    HW128574   0.783   2.897   1.066  0.4662  0.3574 -2.0899
 5646SOL    HW228575   0.801   3.040   1.051 -1.2155 -0.5299 -0.1581
 5647SOL     OW28576   2.073   0.569   2.021 -0.8580  0.3443 -0.3060
 5647SOL    HW128577   2.027   0.517   2.087 -1.6770  0.1618 -1.0232
 5647SOL    HW228578   2.067   0.505   1.949 -0.6387  0.6397 -0.5876
 5648SOL     OW28579   2.656   0.686   0.003  0.1118  0.0609 -0.0359
 5648SOL    HW128580   2.735   0.631  17.738  1.5149  1.8029  2.6085
 5648SOL    HW228581   2.593   0.622   0.035 -0.8504  0.4617 -1.1325
 5649SOL     OW28582   1.952   1.089   8.769 -0.0019 -0.3844 -0.5679
 5649SOL    HW128583   1.915   1.033   8.838 -2.0826  1.4389 -0.1979
 5649SOL    HW228584   2.045   1.066   8.768 -0.0574 -0.6577  0.7708
 5650SOL     OW28585   4.563   0.296   8.716 -0.4327 -0.1273  0.4904
 5650SOL    HW128586   4.499   0.241   8.762  1.4267 -3.5227 -0.9232
 5650SOL    HW228587   4.636   0.277   8.775  0.3127  1.3024  0.0088
 5651SOL     OW28588   2.917   2.797  16.463  0.3122 -0.6307  0.1556
 5651SOL    HW128589   2.898   2.770  16.373  0.9557  1.7639 -0.7097
 5651SOL    HW228590   3.005   2.831  16.445 -0.0444  1.3527  2.1486
 5652SOL     OW28591   4.601   3.281  11.469  0.2131 -0.4424 -0.0413
 5652SOL    HW128592   4.600   3.259  11.561 -0.4433 -0.3718 -0.0287
 5652SOL    HW228593   4.506   3.293  11.461 -0.0941 -2.5903  0.4267
 5653SOL     OW28594   2.993   4.097  12.496 -0.4127  0.3595 -0.2013
 5653SOL    HW128595   3.084   4.092  12.467 -0.6546 -1.4090 -0.6307
 5653SOL    HW228596   3.002   4.110  12.591 -2.4781 -1.1835  0.2129
 5654SOL     OW28597   0.364   2.396   2.904  0.1137 -0.0233 -0.1842
 5654SOL    HW128598   0.367   2.337   2.828  0.4956  0.2235 -0.3560
 5654SOL    HW228599   0.274   2.376   2.932  0.0801 -0.9844 -0.9644
 5655SOL     OW28600   2.733   0.864   9.728  0.2252  0.1621 -0.2685
 5655SOL    HW128601   2.696   0.949   9.704 -0.7618  0.3913  2.0328
 5655SOL    HW228602   2.703   0.838   9.815 -4.5254  0.9599 -1.6368
 5656SOL     OW28603   3.679   2.323  15.704  0.1031  0.3353 -0.1002
 5656SOL    HW128604   3.674   2.345  15.798  0.2903 -1.4042  0.3088
 5656SOL    HW228605   3.612   2.378  15.663  0.6063  1.3340  0.3959
 5657SOL     OW28606   0.928   3.518   3.623 -0.5854  0.0070  0.2174
 5657SOL    HW128607   0.989   3.456   3.662  1.8407  2.7541  0.8065
 5657SOL    HW228608   0.867   3.465   3.572  1.1510 -1.3399 -0.4784
 5658SOL     OW28609   4.460   0.931   5.092  0.5128 -0.2445  0.3895
 5658SOL    HW128610   4.465   0.848   5.140  2.9495 -0.4882 -0.2771
 5658SOL    HW228611   4.478   0.998   5.158  0.6044  0.8766 -0.7695
 5659SOL     OW28612   2.513   4.730   4.983  0.7331  0.1112 -0.1029
 5659SOL    HW128613   2.466   4.717   4.900 -0.1047  1.9338  0.0850
 5659SOL    HW228614   2.480   0.082   5.004  1.1523 -0.3379  2.3275
 5660SOL     OW28615   2.995   0.538  13.202 -0.0783  0.7168  0.3267
 5660SOL    HW128616   2.972   0.501  13.116  1.7045  0.5281 -0.0665
 5660SOL    HW228617   3.066   0.478  13.227 -1.9773 -1.4541  0.5751
 5661SOL     OW28618   4.712   1.491  11.508 -0.5014  0.5686  0.0469
 5661SOL    HW128619   4.700   1.460  11.598 -0.1046 -0.0155 -0.0963
 5661SOL    HW228620   0.004   1.411  11.463 -1.3865  0.7406 -0.8041
 5662SOL     OW28621   3.936   2.203   2.947 -0.1756 -0.0764  0.1483
 5662SOL    HW128622   3.905   2.256   3.020  2.4693  1.7821 -0.0621
 5662SOL    HW228623   4.031   2.216   2.950  0.0802 -1.5633 -1.4000
 5663SOL     OW28624   0.867   2.632   6.926 -0.2221  0.1755  0.1961
 5663SOL    HW128625   0.890   2.543   6.952 -0.2954  0.3037  0.7028
 5663SOL    HW228626   0.821   2.612   6.845  1.1740 -1.1650 -0.2575
 5664SOL     OW28627   0.701   1.174   2.225  0.0408 -0.3317  0.1826
 5664SOL    HW128628   0.611   1.165   2.255 -0.0475  0.1565  0.0718
 5664SOL    HW228629   0.705   1.266   2.197 -1.5692 -0.2025  0.4187
 5665SOL     OW28630   1.919   1.970   8.764  0.2503 -1.3548  0.8336
 5665SOL    HW128631   1.940   1.909   8.693  0.9860  0.8600 -0.8365
 5665SOL    HW228632   1.826   1.949   8.768  0.2952 -2.0011 -1.3893
 5666SOL     OW28633   0.489   1.477  12.887 -0.2452  0.3620  0.5450
 5666SOL    HW128634   0.561   1.417  12.908 -1.2939 -1.0507  0.0943
 5666SOL    HW228635   0.464   1.505  12.975  0.3861  2.8226 -0.0581
 5667SOL     OW28636   2.456   0.151   5.251  0.3677 -0.0397 -0.5870
 5667SOL    HW128637   2.415   0.189   5.329  3.1630  0.2875  0.7148
 5667SOL    HW228638   2.380   0.102   5.219 -0.1694  1.4477 -1.5960
 5668SOL     OW28639   3.085   2.014  13.284  0.2085 -0.2315  0.1599
 5668SOL    HW128640   3.048   2.062  13.210 -1.1772 -0.8070  0.4897
 5668SOL    HW228641   3.057   1.925  13.266 -1.0376  0.4865 -1.4604
 5669SOL     OW28642   2.110   0.751  17.535  0.1720 -0.0042 -0.5942
 5669SOL    HW128643   2.136   0.828  17.485 -0.1891  0.1621 -0.5252
 5669SOL    HW228644   2.073   0.697  17.465 -1.0275 -0.8900  0.7250
 5670SOL     OW28645   2.516   0.771  14.751  0.5387  0.4673  0.0582
 5670SOL    HW128646   2.609   0.769  14.771  0.5189  1.9617  0.2919
 5670SOL    HW228647   2.495   0.678  14.761 -3.0137  1.1010 -1.3560
 5671SOL     OW28648   4.645   0.834  10.961 -0.8674  0.3596  0.4523
 5671SOL    HW128649   4.684   0.752  10.989 -0.3206 -0.5490 -3.0499
 5671SOL    HW228650   4.717   0.895  10.971  1.8974 -2.7999 -0.3120
 5672SOL     OW28651   4.346   4.268   2.673 -0.0647  0.0780 -0.0933
 5672SOL    HW128652   4.406   4.234   2.607 -1.0672 -0.9470 -0.4892
 5672SOL    HW228653   4.385   4.238   2.755  1.4791 -0.3768 -1.0020
 5673SOL     OW28654   3.162   1.565   1.932 -0.5446  0.2741  0.1129
 5673SOL    HW128655   3.205   1.571   2.017 -0.2468 -1.5174  0.0836
 5673SOL    HW228656   3.123   1.478   1.936 -1.0955  0.5262  0.2962
 5674SOL     OW28657   2.289   3.685   6.549 -0.1387 -0.5700 -0.1526
 5674SOL    HW128658   2.251   3.766   6.585 -0.4045 -1.0082  0.5693
 5674SOL    HW228659   2.381   3.710   6.544 -0.5785  0.6194 -2.1541
 5675SOL     OW28660   3.870   3.414   3.562  0.5545  0.1027  0.0075
 5675SOL    HW128661   3.876   3.423   3.657 -1.0271 -0.0497  0.1271
 5675SOL    HW228662   3.778   3.440   3.556  0.6830  0.4513 -0.5554
 5676SOL     OW28663   2.222   1.666  15.297 -0.2120  0.1260 -0.6455
 5676SOL    HW128664   2.296   1.611  15.324 -0.9278 -1.1550 -1.3275
 5676SOL    HW228665   2.239   1.743  15.352 -0.5465  0.7811 -1.4649
 5677SOL     OW28666   2.003   2.870   5.046 -0.1945 -0.0796 -0.7885
 5677SOL    HW128667   2.009   2.956   5.005  0.8259  0.3374  0.2120
 5677SOL    HW228668   1.911   2.855   5.066  0.1400 -1.3703 -0.2261
 5678SOL     OW28669   2.207   0.784  11.242 -0.3076 -0.3645 -0.1365
 5678SOL    HW128670   2.178   0.842  11.312 -0.9793 -0.8833  0.0210
 5678SOL    HW228671   2.210   0.849  11.172  0.3515  2.3504  2.4568
 5679SOL     OW28672   0.299   0.669  11.059  0.1892 -0.2155 -0.5123
 5679SOL    HW128673   0.358   0.611  11.106  1.0231 -1.0256 -2.5880
 5679SOL    HW228674   0.343   0.705  10.982  1.0747 -0.5011 -0.1426
 5680SOL     OW28675   0.735   1.616   3.148  0.6428 -0.1015 -0.6461
 5680SOL    HW128676   0.831   1.623   3.145  0.7341 -0.5867  1.1865
 5680SOL    HW228677   0.721   1.582   3.237 -0.6740  0.4656 -0.6372
 5681SOL     OW28678   3.712   3.754   2.539  0.0540 -0.1877  0.0988
 5681SOL    HW128679   3.734   3.847   2.529 -3.5933  0.6284 -0.5557
 5681SOL    HW228680   3.800   3.717   2.534 -0.6808 -1.9156  0.0775
 5682SOL     OW28681   0.461   0.026   2.809  0.8246 -0.0024 -0.5511
 5682SOL    HW128682   0.382   0.025   2.863  0.8744  2.2383 -0.4311
 5682SOL    HW228683   0.418   0.021   2.723 -0.7662 -1.7140  0.3370
 5683SOL     OW28684   2.117   3.342   5.146 -0.1502  0.4496  0.4998
 5683SOL    HW128685   2.169   3.400   5.090 -1.3105 -0.6788 -1.7555
 5683SOL    HW228686   2.160   3.340   5.231  1.5526 -0.5900 -0.3828
 5684SOL     OW28687   2.450   0.584   8.580 -0.0828 -0.8223  0.0507
 5684SOL    HW128688   2.444   0.504   8.634  2.1004 -0.6669  0.5167
 5684SOL    HW228689   2.537   0.613   8.608 -1.2271  1.0608  1.5851
 5685SOL     OW28690   2.249   0.193  11.936 -0.1282  0.2503  0.6553
 5685SOL    HW128691   2.300   0.160  12.010  0.7472 -0.5147 -0.2915
 5685SOL    HW228692   2.255   0.115  11.881 -3.2736 -0.5922  1.4946
 5686SOL     OW28693   1.074   1.521   4.616 -0.4831 -0.3659 -0.4643
 5686SOL    HW128694   1.066   1.601   4.563 -0.1567 -0.5732 -0.8342
 5686SOL    HW228695   0.990   1.477   4.604 -0.7014 -0.4985  1.5886
 5687SOL     OW28696   0.686   1.935   7.175  0.3868  0.1690  0.3159
 5687SOL    HW128697   0.768   1.915   7.131 -0.1644 -0.5747 -0.3814
 5687SOL    HW228698   0.723   2.009   7.223  2.4931 -1.1356  0.6840
 5688SOL     OW28699   0.650   1.401   7.332  0.4122 -0.4568 -0.3523
 5688SOL    HW128700   0.657   1.353   7.250 -0.8727  1.9069 -1.8406
 5688SOL    HW228701   0.666   1.492   7.308  0.3094  0.2607  2.2925
 5689SOL     OW28702   2.895   4.074  11.146  0.2946  0.4254  0.4572
 5689SOL    HW128703   2.860   3.985  11.139  0.9379  0.1680  0.5017
 5689SOL    HW228704   2.893   4.095  11.239  1.6629  1.3865  0.2845
 5690SOL     OW28705   2.821   4.060   1.446  0.3712 -0.1593 -0.2475
 5690SOL    HW128706   2.765   4.038   1.520 -1.3224  0.8935 -1.2296
 5690SOL    HW228707   2.905   4.070   1.492  1.9666  0.3353 -3.2433
 5691SOL     OW28708   0.523   3.523   7.976  0.0587 -0.1690 -0.1682
 5691SOL    HW128709   0.563   3.573   8.047 -3.5591 -0.1753  1.8773
 5691SOL    HW228710   0.503   3.596   7.917 -1.6256  1.5580  2.5718
 5692SOL     OW28711   1.902   0.423  16.750 -0.5252 -0.1066 -0.5045
 5692SOL    HW128712   1.830   0.360  16.744 -1.0010  0.4475 -0.5671
 5692SOL    HW228713   1.902   0.440  16.656  1.3655  0.7295 -0.3656
 5693SOL     OW28714   3.208   4.197   6.768 -0.0901 -0.8373 -0.2924
 5693SOL    HW128715   3.264   4.186   6.691 -0.9182  0.9307 -1.1500
 5693SOL    HW228716   3.157   4.118   6.747  0.3470 -0.7924 -1.4879
 5694SOL     OW28717   0.697   3.607   2.721 -0.2278 -0.1117 -0.2041
 5694SOL    HW128718   0.701   3.584   2.814  1.3208  1.7539  0.1793
 5694SOL    HW228719   0.633   3.544   2.687 -1.6872  0.2346  1.8835
 5695SOL     OW28720   1.459   2.821   8.073 -0.7747  0.1076  0.0289
 5695SOL    HW128721   1.504   2.869   8.004 -1.4064  1.8872  0.8376
 5695SOL    HW228722   1.387   2.880   8.098 -2.1039 -0.2266 -3.0564
 5696SOL     OW28723   4.637   2.073   2.193 -0.4823 -0.0421 -0.2336
 5696SOL    HW128724   4.649   2.143   2.129  2.3003  0.3665  0.7453
 5696SOL    HW228725   4.628   1.993   2.141 -0.9129  0.1371 -0.4336
 5697SOL     OW28726   3.305   4.482   6.182  0.1968 -0.1939 -0.2077
 5697SOL    HW128727   3.243   4.425   6.229 -0.4562 -0.2200 -1.1061
 5697SOL    HW228728   3.275   4.468   6.093 -0.2381  2.9605 -0.5478
 5698SOL     OW28729   2.083   1.690   2.371  0.0693  0.5274 -1.0253
 5698SOL    HW128730   2.083   1.768   2.316  1.1517  0.6179 -0.8944
 5698SOL    HW228731   1.989   1.686   2.390  0.4388 -0.0574  0.6531
 5699SOL     OW28732   4.393   2.299   7.365  0.0406 -0.3685 -0.4808
 5699SOL    HW128733   4.343   2.218   7.356  0.2840 -0.3202 -2.2472
 5699SOL    HW228734   4.358   2.343   7.287 -0.1386 -1.0314 -0.7687
 5700SOL     OW28735   2.199   2.798   4.206 -0.4250  0.4293  0.4573
 5700SOL    HW128736   2.134   2.763   4.146  0.6138 -0.2910 -0.2594
 5700SOL    HW228737   2.168   2.888   4.205  0.6608  0.7922 -0.8512
 5701SOL     OW28738   0.706   3.073   2.226 -0.0397 -0.0347  0.0740
 5701SOL    HW128739   0.680   3.009   2.159  2.0645 -0.3864 -0.4088
 5701SOL    HW228740   0.622   3.112   2.253  0.0669  1.9056 -2.3879
 5702SOL     OW28741   4.145   0.839   3.004 -0.4517  0.6583  0.5623
 5702SOL    HW128742   4.202   0.867   2.933 -0.4289 -0.6583  0.0617
 5702SOL    HW228743   4.157   0.744   3.004  0.4854  0.7900 -2.2265
 5703SOL     OW28744   0.212   1.327   1.801 -0.2802  0.8666  0.5351
 5703SOL    HW128745   0.164   1.409   1.790 -0.8593  0.3886 -0.4470
 5703SOL    HW228746   0.288   1.337   1.742  1.3405  2.9266  2.9727
 5704SOL     OW28747   0.033   0.573  12.451  0.0286 -0.1322  0.3439
 5704SOL    HW128748   4.692   0.553  12.505 -0.1143 -0.5921 -0.0365
 5704SOL    HW228749   0.001   0.529  12.372  0.1972  0.8015 -0.2405
 5705SOL     OW28750   2.762   0.849   5.436  0.0273  0.3769 -0.0505
 5705SOL    HW128751   2.798   0.765   5.408  3.8668  1.8779  0.2604
 5705SOL    HW228752   2.673   0.815   5.431 -0.9356  2.5743  1.9756
 5706SOL     OW28753   0.679   2.593   4.155 -0.5095 -0.4114 -0.3004
 5706SOL    HW128754   0.728   2.511   4.154 -2.4098 -1.5519  0.2615
 5706SOL    HW228755   0.690   2.622   4.064  1.0163  1.7982  0.5903
 5707SOL     OW28756   0.205   4.564   0.598 -0.0290  0.3249  0.1291
 5707SOL    HW128757   0.150   4.578   0.675 -0.6432  0.5469 -0.3482
 5707SOL    HW228758   0.285   4.580   0.648 -0.2735 -0.7029  0.8573
 5708SOL     OW28759   0.452   2.761  12.057 -0.1265 -0.2254  0.1215
 5708SOL    HW128760   0.445   2.666  12.045 -2.7003 -0.2320  1.6508
 5708SOL    HW228761   0.544   2.778  12.038 -0.7828  2.4745 -0.6715
 5709SOL     OW28762   1.928   4.173   9.076  0.6787  0.1413  0.3425
 5709SOL    HW128763   1.956   4.262   9.096  0.6868 -0.0165  1.0599
 5709SOL    HW228764   1.918   4.159   8.982 -1.3463 -1.7833  0.8185
 5710SOL     OW28765   0.750   4.684   6.467 -0.6640 -0.1100 -0.0986
 5710SOL    HW128766   0.681   4.617   6.469 -0.5379 -0.1171  3.2310
 5710SOL    HW228767   0.719   0.014   6.405  2.4362  2.6733  1.3562
 5711SOL     OW28768   3.535   4.283   2.046  0.0001 -0.1957 -0.4106
 5711SOL    HW128769   3.613   4.238   2.078 -0.2555 -0.8648 -0.7349
 5711SOL    HW228770   3.475   4.299   2.119 -1.3626 -1.8490 -1.1669
 5712SOL     OW28771   3.105   1.876   9.321  0.4023  0.2649 -0.6703
 5712SOL    HW128772   3.039   1.843   9.261 -0.8858  0.5161  0.6192
 5712SOL    HW228773   3.087   1.816   9.393  1.0989  0.5066 -0.2944
 5713SOL     OW28774   2.485   2.071   0.718  0.4588  0.3864  0.1009
 5713SOL    HW128775   2.563   2.030   0.680 -0.8239 -1.7932 -0.2113
 5713SOL    HW228776   2.518   2.124   0.790  0.6170 -2.4279  2.1243
 5714SOL     OW28777   4.595   0.808  11.629  0.1105  0.0245 -0.3675
 5714SOL    HW128778   4.622   0.716  11.629  0.5801  0.1632  0.4758
 5714SOL    HW228779   4.679   0.840  11.596  0.5832  0.5841  1.3820
 5715SOL     OW28780   1.111   3.099   9.283 -0.0999 -0.0782 -0.2189
 5715SOL    HW128781   1.157   3.038   9.224  0.1879  0.3087 -0.3978
 5715SOL    HW228782   1.188   3.135   9.327 -0.1848  2.2913 -1.9788
 5716SOL     OW28783   1.444   0.894  15.402 -0.1136  0.9069 -0.4925
 5716SOL    HW128784   1.465   0.801  15.394 -0.3724  0.9410 -1.6188
 5716SOL    HW228785   1.532   0.921  15.378  0.6358 -2.5841 -1.6737
 5717SOL     OW28786   4.550   4.680   5.998 -0.6727  0.1482  0.5564
 5717SOL    HW128787   4.530   0.000   6.073  0.4342  1.6535 -0.2632
 5717SOL    HW228788   4.576   4.596   6.037 -1.5744  0.5096  1.9287
 5718SOL     OW28789   2.052   0.010   8.817 -0.1536 -0.2428  0.0355
 5718SOL    HW128790   2.136   0.019   8.771 -0.1647  0.2184  0.1002
 5718SOL    HW228791   1.999   0.080   8.779 -0.2778 -0.9902 -1.1428
 5719SOL     OW28792   0.061   3.773   4.359  0.1485 -0.2324  0.1766
 5719SOL    HW128793   0.013   3.713   4.416  0.0199  0.0561  0.3710
 5719SOL    HW228794   0.001   3.848   4.358  0.4493  0.0386  2.2724
 5720SOL     OW28795   0.001   3.475   5.005  0.0081  0.1760  0.3338
 5720SOL    HW128796   4.675   3.425   5.058  0.8467 -0.6242  0.5489
 5720SOL    HW228797   0.051   3.410   4.956 -0.0697  0.4427 -0.0976
 5721SOL     OW28798   0.572   2.559   8.302  0.1864 -0.1693  0.3486
 5721SOL    HW128799   0.634   2.532   8.370 -1.0188 -0.2303  1.4298
 5721SOL    HW228800   0.609   2.645   8.280  0.2333 -0.7731 -1.9376
 5722SOL     OW28801   1.572   3.579  13.539 -0.0376 -0.2964  0.3872
 5722SOL    HW128802   1.561   3.571  13.633  0.6096  1.9199  0.6584
 5722SOL    HW228803   1.492   3.534  13.512 -1.1703  1.7204  0.3939
 5723SOL     OW28804   1.044   0.822  11.608  0.0268 -0.1142  0.6850
 5723SOL    HW128805   1.030   0.888  11.540  1.1910  1.6099  2.1435
 5723SOL    HW228806   1.123   0.849  11.655  0.6665  2.4712 -1.8975
 5724SOL     OW28807   0.472   4.439   3.163  0.3313  0.4909 -0.4070
 5724SOL    HW128808   0.458   4.345   3.163 -1.1644  0.7150 -1.4004
 5724SOL    HW228809   0.535   4.448   3.234 -2.1946  0.6840  1.8048
 5725SOL     OW28810   1.689   2.933   5.567 -0.7422  0.3228  0.5849
 5725SOL    HW128811   1.757   2.896   5.623  0.8018  0.6189 -1.1003
 5725SOL    HW228812   1.676   2.853   5.516 -0.1681 -0.0790  1.0758
 5726SOL     OW28813   3.340   4.597   4.878  0.3283 -0.2036  0.8431
 5726SOL    HW128814   3.372   4.633   4.961  0.7738 -1.1909  1.0884
 5726SOL    HW228815   3.416   4.549   4.848 -0.4997 -0.3134 -1.0679
 5727SOL     OW28816   4.008   3.622  17.127  0.2236  0.5259  0.2090
 5727SOL    HW128817   3.976   3.589  17.044 -0.3307  0.9195  0.2704
 5727SOL    HW228818   3.972   3.711  17.132  1.0657  0.8349  0.8433
 5728SOL     OW28819   3.376   3.525  12.519  0.0624  0.0534  0.5791
 5728SOL    HW128820   3.281   3.520  12.518 -0.1410  3.4687  0.0911
 5728SOL    HW228821   3.390   3.522  12.613 -1.3868 -0.3260  0.7823
 5729SOL     OW28822   0.535   2.689  14.263  0.3039  0.0308 -0.1721
 5729SOL    HW128823   0.496   2.625  14.321 -2.9960  2.6748  0.5075
 5729SOL    HW228824   0.622   2.649  14.264 -0.3376 -1.3418  0.2360
 5730SOL     OW28825   2.441   0.822   2.594  0.5441  0.4783  0.2601
 5730SOL    HW128826   2.398   0.884   2.653 -2.8827 -0.3948 -1.2929
 5730SOL    HW228827   2.446   0.750   2.657  0.1177  0.0643 -0.1759
 5731SOL     OW28828   2.683   3.909   5.765 -0.1226  0.0360  0.0024
 5731SOL    HW128829   2.723   3.932   5.681 -3.0999  0.0399 -1.3939
 5731SOL    HW228830   2.600   3.956   5.758 -0.0220  0.5992  2.4593
 5732SOL     OW28831   1.281   2.778   2.076 -0.0354 -0.0983 -0.1695
 5732SOL    HW128832   1.250   2.811   1.992 -0.6871 -0.6895 -0.1590
 5732SOL    HW228833   1.316   2.855   2.121  0.4522  1.4640 -3.2055
 5733SOL     OW28834   3.185   2.744   0.894 -0.3783  0.1721 -0.1782
 5733SOL    HW128835   3.156   2.773   0.980  0.6327 -1.1676  0.6148
 5733SOL    HW228836   3.170   2.650   0.903  0.8111 -0.0298 -0.2847
 5734SOL     OW28837   1.910   4.104  14.798  0.5885 -0.2802  0.0146
 5734SOL    HW128838   1.892   4.180  14.855 -3.9878 -0.6555 -0.9494
 5734SOL    HW228839   1.890   4.145  14.714  0.2355 -2.1477 -0.7889
 5735SOL     OW28840   3.934   4.729   7.819  0.6114 -0.0771  0.3307
 5735SOL    HW128841   3.912   0.042   7.899  0.7714  1.1617 -0.3760
 5735SOL    HW228842   4.030   4.731   7.811  0.4707 -0.2965 -1.4553
 5736SOL     OW28843   3.782   1.424  15.927 -0.6337  0.1194 -0.3555
 5736SOL    HW128844   3.864   1.381  15.903 -1.1311 -1.7426  1.3475
 5736SOL    HW228845   3.811   1.475  16.003 -0.3470 -0.5093 -0.0471
 5737SOL     OW28846   1.589   1.039  14.530  0.0031  0.2115  0.0633
 5737SOL    HW128847   1.610   0.993  14.611  0.3794  0.6645  0.2210
 5737SOL    HW228848   1.494   1.040  14.541  0.2333  1.3303  1.8582
 5738SOL     OW28849   3.924   1.878   1.935 -0.2689 -0.0558 -0.2009
 5738SOL    HW128850   3.927   1.797   1.885  1.1621 -0.6740  0.8517
 5738SOL    HW228851   4.002   1.877   1.991 -0.1586 -1.3406 -0.3901
 5739SOL     OW28852   3.186   1.338   9.501 -0.2940  0.7945 -0.4729
 5739SOL    HW128853   3.243   1.412   9.522  1.3643 -1.1023  1.6063
 5739SOL    HW228854   3.246   1.266   9.515  0.2657  1.0953 -1.3464
 5740SOL     OW28855   2.786   3.584   3.162 -0.2488 -0.4394 -0.2142
 5740SOL    HW128856   2.807   3.493   3.140 -1.0273 -0.8029  0.5335
 5740SOL    HW228857   2.858   3.620   3.213  0.1860  0.8467 -1.7315
 5741SOL     OW28858   0.765   1.037  17.671  0.8277 -0.6007  0.8455
 5741SOL    HW128859   0.712   1.036  17.591  1.2181  1.3196  0.5558
 5741SOL    HW228860   0.851   1.044  17.630  0.7997  1.6377  1.1339
 5742SOL     OW28861   2.647   0.976  16.822  0.5839  0.0866 -0.3122
 5742SOL    HW128862   2.643   0.882  16.839  2.4076 -0.0671 -0.7355
 5742SOL    HW228863   2.555   0.998  16.811  0.6884 -0.5543 -2.3920
 5743SOL     OW28864   2.182   1.549   0.522 -0.1792 -0.6146 -0.3611
 5743SOL    HW128865   2.123   1.621   0.543  1.3173  0.6260 -0.4049
 5743SOL    HW228866   2.115   1.481   0.519  0.1544 -0.9507 -0.2269
 5744SOL     OW28867   4.071   4.424   5.800  0.2685 -0.1973 -0.5188
 5744SOL    HW128868   4.127   4.422   5.877  1.6508  0.5062 -1.4896
 5744SOL    HW228869   3.995   4.459   5.846 -0.2738 -1.6355 -0.3203
 5745SOL     OW28870   1.128   1.190   6.392 -0.1933  0.0392  0.4861
 5745SOL    HW128871   1.204   1.130   6.395 -0.9148 -0.9627 -1.4973
 5745SOL    HW228872   1.070   1.170   6.319  0.4619  0.5664 -0.1845
 5746SOL     OW28873   1.650   2.216   8.222 -0.3428 -0.3417  0.3352
 5746SOL    HW128874   1.718   2.265   8.269 -0.8772 -0.2976  1.0597
 5746SOL    HW228875   1.683   2.126   8.226  0.2918  0.0151  2.6418
 5747SOL     OW28876   3.371   4.330   4.609 -0.1895 -0.1939 -0.0442
 5747SOL    HW128877   3.324   4.379   4.542 -0.9422  0.9803  1.3440
 5747SOL    HW228878   3.440   4.385   4.646 -0.4542  0.4754 -0.5425
 5748SOL     OW28879   2.711   2.182   5.902 -0.5431 -0.2076 -0.3419
 5748SOL    HW128880   2.698   2.108   5.843 -0.1284 -1.1706  0.7836
 5748SOL    HW228881   2.734   2.132   5.980  1.5974  0.3923 -0.5901
 5749SOL     OW28882   1.707   2.023   3.863 -0.0988 -0.2440  0.4371
 5749SOL    HW128883   1.759   1.997   3.787 -0.4949 -1.7017  0.6515
 5749SOL    HW228884   1.735   2.114   3.873  3.6985 -1.2610 -0.7179
 5750SOL     OW28885   1.916   2.215   8.833 -0.5435 -0.8188 -0.1312
 5750SOL    HW128886   1.850   2.257   8.777  0.2541  3.4138  2.0655
 5750SOL    HW228887   1.908   2.123   8.810  0.5323 -0.6436 -1.1915
 5751SOL     OW28888   1.780   0.205   1.429  0.1860  0.1320  0.2138
 5751SOL    HW128889   1.802   0.133   1.369  3.7672  0.0120  1.6501
 5751SOL    HW228890   1.697   0.175   1.464 -0.0239  0.8688  0.3455
 5752SOL     OW28891   0.404   2.918   2.663 -0.1438 -0.6254 -0.5142
 5752SOL    HW128892   0.457   2.887   2.590 -0.1714 -0.8090 -0.4583
 5752SOL    HW228893   0.373   2.837   2.704  0.9983  0.1293  1.8373
 5753SOL     OW28894   2.085   0.538   1.490 -0.3666  0.0396 -0.6546
 5753SOL    HW128895   2.033   0.513   1.414 -4.5983  0.8043  2.0312
 5753SOL    HW228896   2.170   0.562   1.453 -0.4085  0.4425 -0.4947
 5754SOL     OW28897   4.608   4.474  17.557  0.1741 -0.2477 -0.1106
 5754SOL    HW128898   4.608   4.402  17.620 -1.8438  0.8615  1.1805
 5754SOL    HW228899   4.663   4.426  17.495 -1.4493 -0.1979 -1.5979
 5755SOL     OW28900   2.943   3.755   4.536 -0.1466  0.3224  0.4400
 5755SOL    HW128901   2.978   3.844   4.533 -2.3695  1.2185  0.7214
 5755SOL    HW228902   3.028   3.713   4.521 -0.2296 -0.3145  1.6970
 5756SOL     OW28903   2.029   4.019  12.694 -0.1431 -0.0757  0.0951
 5756SOL    HW128904   1.987   4.035  12.779  0.3517  3.3387 -0.3160
 5756SOL    HW228905   1.955   4.017  12.633  0.3691 -1.6958 -0.4769
 5757SOL     OW28906   2.993   4.634   6.725  0.0340  0.5612 -0.1623
 5757SOL    HW128907   2.930   4.576   6.682 -1.0033  0.3558  1.6341
 5757SOL    HW228908   3.054   4.647   6.653  0.3634  1.2961  0.2420
 5758SOL     OW28909   2.467   2.269   2.869 -0.0096 -0.3050  0.1152
 5758SOL    HW128910   2.527   2.196   2.861 -1.1050 -1.3547  1.4461
 5758SOL    HW228911   2.515   2.348   2.842 -2.1456  0.8561 -0.3372
 5759SOL     OW28912   2.437   1.251   3.669 -0.0650  0.2155 -0.1591
 5759SOL    HW128913   2.474   1.335   3.641 -2.5444  0.2245 -3.2869
 5759SOL    HW228914   2.397   1.217   3.590 -2.4331 -0.2753  1.2716
 5760SOL     OW28915   1.828   1.120   7.589 -0.2413 -0.0133 -0.6291
 5760SOL    HW128916   1.816   1.215   7.591  4.1422  0.4783  2.8342
 5760SOL    HW228917   1.917   1.117   7.554 -0.5474 -2.3694 -1.2204
 5761SOL     OW28918   0.466   1.383   4.715  0.1221  0.3902  0.8880
 5761SOL    HW128919   0.531   1.358   4.649  1.2043 -1.9399  2.8069
 5761SOL    HW228920   0.388   1.387   4.660  2.0742 -3.0134 -2.1726
 5762SOL     OW28921   0.767   1.408  10.371 -0.0862 -0.0208 -0.2525
 5762SOL    HW128922   0.693   1.468  10.362  0.1807  0.4881  0.9017
 5762SOL    HW228923   0.710   1.332  10.357  0.8050 -0.7816  0.2290
 5763SOL     OW28924   3.375   3.758   3.357 -0.2970  0.1651 -0.4588
 5763SOL    HW128925   3.353   3.754   3.264 -0.8247  1.8879 -0.4038
 5763SOL    HW228926   3.460   3.715   3.361 -1.1808 -1.8088 -2.4847
 5764SOL     OW28927   1.760   0.595   0.359 -0.6140 -0.2971 -0.9120
 5764SOL    HW128928   1.805   0.586   0.275  1.0875  0.1969 -0.0523
 5764SOL    HW228929   1.833   0.587   0.420  0.5786  0.1394 -2.2677
 5765SOL     OW28930   2.292   2.795   1.750 -0.2728  0.4882 -0.1276
 5765SOL    HW128931   2.281   2.890   1.745  1.5255  0.7429  0.7028
 5765SOL    HW228932   2.379   2.778   1.714 -0.3052 -1.6657  0.7918
 5766SOL     OW28933   1.239   3.836  11.119 -0.6335 -0.1632 -0.2063
 5766SOL    HW128934   1.150   3.815  11.092 -0.8233 -1.6562  1.5645
 5766SOL    HW228935   1.259   3.765  11.181 -0.3714  1.2604  1.3342
 5767SOL     OW28936   3.116   2.336   2.584  0.1223 -0.3610 -0.8045
 5767SOL    HW128937   3.206   2.314   2.556  1.4403  1.2496  2.2508
 5767SOL    HW228938   3.065   2.332   2.503  1.4753 -2.9643 -1.5460
 5768SOL     OW28939   0.213   1.977  12.211  0.5057  0.0439 -0.5120
 5768SOL    HW128940   0.209   1.893  12.166  1.9484  0.7295 -1.9143
 5768SOL    HW228941   0.268   1.958  12.287  2.3146  0.2947 -1.7786
 5769SOL     OW28942   3.479   3.516   1.621  0.0875 -0.3008  0.6511
 5769SOL    HW128943   3.477   3.421   1.606  1.5368 -0.4526  1.3772
 5769SOL    HW228944   3.423   3.556   1.555 -0.0522 -1.0726  0.3014
 5770SOL     OW28945   2.000   4.731  12.781 -0.5468  0.2799  0.0688
 5770SOL    HW128946   1.923   0.047  12.804 -0.9448 -0.2689 -0.0312
 5770SOL    HW228947   1.983   4.693  12.695 -2.5271 -0.6370  0.8512
 5771SOL     OW28948   1.757   4.678   2.495  0.4906 -0.5819 -0.8883
 5771SOL    HW128949   1.827   4.734   2.528 -0.1415 -0.5853  0.4482
 5771SOL    HW228950   1.753   4.601   2.552 -1.8200 -0.5044 -0.9708
 5772SOL     OW28951   0.989   3.521   3.948  0.4803  0.0202  0.0337
 5772SOL    HW128952   0.955   3.432   3.961  2.4885 -0.7697 -0.2053
 5772SOL    HW228953   1.074   3.496   3.912  0.3543  3.0835 -2.3463
 5773SOL     OW28954   2.008   0.441  16.257 -0.3293  0.0689 -0.1707
 5773SOL    HW128955   1.932   0.489  16.290 -0.5753 -1.8997  2.0894
 5773SOL    HW228956   2.047   0.402  16.335 -1.0635  0.2306  0.2761
 5774SOL     OW28957   3.222   1.476   6.249  0.3715 -0.4346  0.6695
 5774SOL    HW128958   3.278   1.551   6.228 -3.5572  2.0080 -0.9286
 5774SOL    HW228959   3.219   1.427   6.167  4.5429 -0.9769  0.8335
 5775SOL     OW28960   1.104   1.573  12.000  0.4134  0.2904 -0.1256
 5775SOL    HW128961   1.136   1.645  12.054 -0.3185 -0.6819  1.6100
 5775SOL    HW228962   1.065   1.607  11.920  1.2681  2.8697  0.5693
 5776SOL     OW28963   1.528   2.565   6.894 -0.0837 -0.1263 -0.0766
 5776SOL    HW128964   1.583   2.490   6.873 -0.9055  0.1944 -3.4078
 5776SOL    HW228965   1.451   2.509   6.902 -0.8154  0.6507 -1.7002
 5777SOL     OW28966   3.015   2.839   6.823  0.0979 -0.2021 -0.0915
 5777SOL    HW128967   3.101   2.818   6.859  0.2572 -0.1457 -0.4450
 5777SOL    HW228968   2.998   2.766   6.763 -1.3252 -0.4399  0.5886
 5778SOL     OW28969   3.382   3.520   8.390  0.6044 -0.0425 -0.4766
 5778SOL    HW128970   3.389   3.540   8.483  1.0907  1.6931 -0.9018
 5778SOL    HW228971   3.444   3.580   8.349  0.9490  0.8796  1.4067
 5779SOL     OW28972   2.512   1.655   9.924 -0.1667  0.2345  0.3442
 5779SOL    HW128973   2.488   1.707  10.001  1.2848  1.8561 -0.2983
 5779SOL    HW228974   2.459   1.576   9.935 -0.0087  0.2147  0.9515
 5780SOL     OW28975   2.902   3.153   6.908 -0.2338 -0.3822  0.7965
 5780SOL    HW128976   2.866   3.065   6.918  0.8668 -0.4642  4.0380
 5780SOL    HW228977   2.911   3.147   6.813 -0.8238 -1.3445  0.8057
 5781SOL     OW28978   0.460   2.362  10.929 -0.0552 -0.5393  0.1565
 5781SOL    HW128979   0.470   2.278  10.884  1.1530 -0.1149 -0.3747
 5781SOL    HW228980   0.386   2.340  10.986 -0.5693 -1.4012 -0.8346
 5782SOL     OW28981   2.316   2.499   5.222  0.4789 -0.4976 -0.0199
 5782SOL    HW128982   2.287   2.451   5.144 -0.6181 -1.0806  0.7392
 5782SOL    HW228983   2.258   2.576   5.218  3.2057  1.5039 -0.5442
 5783SOL     OW28984   3.559   2.669   6.100  0.3240 -0.3005  0.1438
 5783SOL    HW128985   3.516   2.631   6.177 -1.3531 -0.6769 -0.9779
 5783SOL    HW228986   3.607   2.591   6.072 -0.3826 -0.1747 -1.4415
 5784SOL     OW28987   2.593   1.744   5.579 -0.1263  0.5972  0.0079
 5784SOL    HW128988   2.612   1.650   5.576 -0.5676  0.4375  2.2074
 5784SOL    HW228989   2.510   1.751   5.625 -0.1140  4.1697 -0.5372
 5785SOL     OW28990   0.914   3.777   1.312  0.5094 -0.5214  0.5052
 5785SOL    HW128991   0.976   3.810   1.377 -1.6688  0.2131  2.2234
 5785SOL    HW228992   0.836   3.827   1.334  1.1375  1.0010 -0.7452
 5786SOL     OW28993   2.056   4.041   1.906 -0.2968  0.1505  0.6304
 5786SOL    HW128994   2.022   4.129   1.887  1.2698  0.5523 -0.3434
 5786SOL    HW228995   1.992   3.985   1.861  0.0264  0.6698 -0.4872
 5787SOL     OW28996   2.070   1.513   2.104  0.0743  0.5703 -0.1092
 5787SOL    HW128997   2.099   1.433   2.059  0.9396 -0.2463  1.9259
 5787SOL    HW228998   1.982   1.488   2.134  1.0730 -0.9805  1.5094
 5788SOL     OW28999   2.743   3.291  10.297  0.5317  0.0924  0.7553
 5788SOL    HW129000   2.820   3.303  10.242  0.1635 -1.6745 -0.1276
 5788SOL    HW229001   2.782   3.301  10.384  1.9212  0.3476  0.1095
 5789SOL     OW29002   3.654   2.078   6.028 -0.1955 -0.3011 -0.2359
 5789SOL    HW129003   3.721   2.092   5.961  1.9200 -1.7873  1.5464
 5789SOL    HW229004   3.693   2.001   6.070  3.0053  1.0424 -0.7428
 5790SOL     OW29005   2.661   2.692   8.547 -0.1395  0.2133 -0.1844
 5790SOL    HW129006   2.695   2.709   8.635  2.9190 -0.5314 -1.2282
 5790SOL    HW229007   2.573   2.657   8.565 -0.0384 -0.5816 -1.2571
 5791SOL     OW29008   2.456   2.103  17.038  0.0881  0.7825  0.2726
 5791SOL    HW129009   2.495   2.085  16.952  0.2668 -0.2913  0.5826
 5791SOL    HW229010   2.365   2.079  17.022  0.5429 -0.3034 -0.7060
 5792SOL     OW29011   2.257   0.648  15.320  0.3766  0.2448 -0.0521
 5792SOL    HW129012   2.227   0.572  15.370 -0.6981  1.2650  0.8668
 5792SOL    HW229013   2.308   0.687  15.391 -2.0985  1.0990  1.2627
 5793SOL     OW29014   0.936   3.426   1.914  0.2768  0.4536 -0.2057
 5793SOL    HW129015   0.841   3.434   1.910  0.1862 -0.7356 -0.3999
 5793SOL    HW229016   0.940   3.333   1.890 -0.3736  0.5709 -0.7587
 5794SOL     OW29017   0.168   2.948   5.418  0.2165  0.1422  0.4403
 5794SOL    HW129018   0.119   2.959   5.500  0.2429  0.0806  0.4642
 5794SOL    HW229019   0.168   3.037   5.382 -2.7196  0.4145  1.0741
 5795SOL     OW29020   0.621   2.498   1.655  0.0146  0.6056 -0.1529
 5795SOL    HW129021   0.531   2.488   1.625  0.4250 -0.4320 -1.0311
 5795SOL    HW229022   0.668   2.442   1.593  0.0700  0.8334 -0.3162
 5796SOL     OW29023   0.490   2.955   2.933  0.3069 -0.1299 -0.2701
 5796SOL    HW129024   0.540   2.875   2.951 -2.2299 -1.1829  1.8961
 5796SOL    HW229025   0.475   2.945   2.839 -0.8051  2.0904 -0.3262
 5797SOL     OW29026   2.242   0.300  16.118  0.4561 -0.0308  0.2415
 5797SOL    HW129027   2.202   0.374  16.163  2.1224 -0.1068  1.8642
 5797SOL    HW229028   2.250   0.244  16.196 -1.2237 -0.6632 -0.0362
 5798SOL     OW29029   0.654   2.611   5.201 -0.3688  0.2430  0.1860
 5798SOL    HW129030   0.599   2.603   5.279 -0.2208  1.0844  0.3703
 5798SOL    HW229031   0.623   2.697   5.175  1.2024  0.3569 -1.2570
 5799SOL     OW29032   1.617   2.579   0.534  0.4312  0.5798  0.1018
 5799SOL    HW129033   1.540   2.633   0.551 -0.4768 -0.6792 -0.0031
 5799SOL    HW229034   1.693   2.635   0.549  0.3474  0.1462  2.1481
 5800SOL     OW29035   1.634   2.267   7.238 -0.5563  0.1249  0.3158
 5800SOL    HW129036   1.715   2.217   7.237 -0.1160  0.8525 -0.4913
 5800SOL    HW229037   1.656   2.361   7.238  0.0879 -0.0286  0.8552
 5801SOL     OW29038   1.353   0.028   3.689 -0.0302  0.0717  0.1850
 5801SOL    HW129039   1.397   4.691   3.733  1.9141  0.9843 -0.2659
 5801SOL    HW229040   1.427   0.083   3.667  0.3842 -0.7924 -0.5676
 5802SOL     OW29041   3.195   2.879  16.333  0.3827  0.0793  0.5545
 5802SOL    HW129042   3.162   2.948  16.274 -0.0768  0.3685  1.1486
 5802SOL    HW229043   3.218   2.810  16.272  0.9109  0.8601 -0.1352
 5803SOL     OW29044   0.877   4.108   3.125 -0.4113 -0.1655 -0.4639
 5803SOL    HW129045   0.901   4.193   3.162 -0.2533  0.4636 -2.0054
 5803SOL    HW229046   0.965   4.075   3.108 -1.0147 -2.8621  1.5692
 5804SOL     OW29047   2.713   0.246   5.612  0.0559  0.4530 -0.0942
 5804SOL    HW129048   2.621   0.254   5.586 -0.5729 -0.3703  1.8862
 5804SOL    HW229049   2.716   0.316   5.677 -0.2348  0.5500 -0.1862
 5805SOL     OW29050   1.159   3.884   6.029  0.1711  0.0652  0.4407
 5805SOL    HW129051   1.125   3.800   5.998 -1.8540  0.8271  0.5552
 5805SOL    HW229052   1.148   3.947   5.957  0.6890  0.1657  0.4546
 5806SOL     OW29053   2.346   1.237   2.467  0.4938 -0.5674 -0.0397
 5806SOL    HW129054   2.265   1.248   2.418  1.3403 -1.9814 -1.7673
 5806SOL    HW229055   2.398   1.183   2.407 -2.3072 -0.5922 -2.4694
 5807SOL     OW29056   3.864   3.801   4.593 -0.4036 -0.1083  0.3261
 5807SOL    HW129057   3.792   3.778   4.534 -0.2222 -2.0486  0.8738
 5807SOL    HW229058   3.937   3.745   4.567  0.0136  1.2819 -1.5603
 5808SOL     OW29059   2.893   4.307  13.158  0.7078 -0.1710 -0.3257
 5808SOL    HW129060   2.914   4.270  13.073 -0.5553 -0.1448 -0.6422
 5808SOL    HW229061   2.800   4.327  13.164  0.5162 -0.5980 -2.2457
 5809SOL     OW29062   1.468   2.787   1.673 -0.5621  0.0411  0.6065
 5809SOL    HW129063   1.460   2.692   1.680 -1.9645  0.2232  1.4772
 5809SOL    HW229064   1.512   2.810   1.754 -0.6596  2.4376 -0.0173
 5810SOL     OW29065   0.661   2.400  13.136  0.9390  0.1588  0.2849
 5810SOL    HW129066   0.574   2.364  13.153  1.1094 -0.4692 -0.1787
 5810SOL    HW229067   0.667   2.476  13.194  0.1245 -0.2884  0.9638
 5811SOL     OW29068   4.007   3.020   7.294 -0.5939  0.5363 -0.0801
 5811SOL    HW129069   4.015   3.013   7.199 -0.9178  1.4847 -0.1750
 5811SOL    HW229070   3.918   3.055   7.287 -0.8034  0.0686  0.2214
 5812SOL     OW29071   2.890   3.073   8.320  0.3455 -0.2647 -0.1997
 5812SOL    HW129072   2.893   3.158   8.364 -2.5052 -0.0716 -0.3494
 5812SOL    HW229073   2.828   3.020   8.369  1.5064 -0.6166  0.8865
 5813SOL     OW29074   3.684   2.989   9.127  0.5141  0.0551 -0.2376
 5813SOL    HW129075   3.621   2.947   9.186  1.5818  1.9646  2.2865
 5813SOL    HW229076   3.624   3.035   9.068 -0.9411 -0.8680  0.5329
 5814SOL     OW29077   2.648   3.903   1.024 -0.4976 -0.4516  0.1796
 5814SOL    HW129078   2.590   3.931   1.095 -0.5930 -0.3649  0.0680
 5814SOL    HW229079   2.722   3.919   1.082  0.3038  1.2967 -1.3396
 5815SOL     OW29080   3.042   1.838   4.786  0.1477 -0.6214 -0.3698
 5815SOL    HW129081   3.121   1.879   4.750  0.0252 -0.5704 -0.5822
 5815SOL    HW229082   2.979   1.909   4.774 -1.2621 -2.0220 -1.2097
 5816SOL     OW29083   2.750   2.648   4.646  0.4154  0.1051  0.5879
 5816SOL    HW129084   2.805   2.605   4.712 -1.0148 -3.6007 -0.6178
 5816SOL    HW229085   2.812   2.704   4.599 -0.3496 -0.7946 -1.4659
 5817SOL     OW29086   2.544   4.309   1.061  0.2620 -0.0955  0.4510
 5817SOL    HW129087   2.452   4.328   1.075  0.7644  0.7304  2.5799
 5817SOL    HW229088   2.549   4.269   0.974  3.3376  1.0948  0.0752
 5818SOL     OW29089   2.619   3.364   4.257  0.3391  0.1810 -0.5515
 5818SOL    HW129090   2.628   3.279   4.301  0.1101  0.6212  0.3456
 5818SOL    HW229091   2.560   3.347   4.184 -0.2787  0.0949 -0.0378
 5819SOL     OW29092   4.364   2.779   3.277 -0.3132  0.6245  0.0543
 5819SOL    HW129093   4.402   2.715   3.337 -2.3003 -0.2357  0.4189
 5819SOL    HW229094   4.322   2.713   3.222 -3.6741  1.2118  1.9027
 5820SOL     OW29095   4.587   2.966   1.341 -0.1484 -0.4659 -0.3694
 5820SOL    HW129096   4.571   3.051   1.301 -0.8069 -0.8484 -0.9366
 5820SOL    HW229097   4.679   2.969   1.369  0.1260  0.3653 -1.3622
 5821SOL     OW29098   4.301   2.199   9.270  0.0632 -0.6084 -0.0418
 5821SOL    HW129099   4.299   2.110   9.306  0.9832 -1.2444 -1.5425
 5821SOL    HW229100   4.272   2.251   9.346  3.1634 -0.1234  0.8192
 5822SOL     OW29101   2.461   1.664   1.856 -0.4212 -0.3972  0.1194
 5822SOL    HW129102   2.479   1.753   1.888 -0.3819 -0.8773  1.4457
 5822SOL    HW229103   2.440   1.621   1.939  1.3179 -0.5589  0.4768
 5823SOL     OW29104   1.590   0.033  12.665 -0.0760 -1.1504 -0.0602
 5823SOL    HW129105   1.570   4.678  12.638  1.3479 -1.6140  0.4228
 5823SOL    HW229106   1.497   0.054  12.667  0.5375  1.4750 -0.1526
 5824SOL     OW29107   0.523   2.730   2.466  0.0558  0.2901  0.0922
 5824SOL    HW129108   0.495   2.730   2.374  0.4809 -0.8677 -0.0376
 5824SOL    HW229109   0.611   2.695   2.452  0.4416  1.7780 -1.3145
 5825SOL     OW29110   3.784   3.181  13.567  0.0209  0.1052 -0.2903
 5825SOL    HW129111   3.795   3.225  13.483 -2.6132  2.0855  0.3978
 5825SOL    HW229112   3.698   3.205  13.602 -0.5111 -1.5475 -0.4684
 5826SOL     OW29113   1.170   4.494   4.961 -0.1567  0.5065 -0.1160
 5826SOL    HW129114   1.176   4.539   5.045  2.5597 -0.3023  0.1255
 5826SOL    HW229115   1.262   4.501   4.934  0.3974 -2.8697  0.8644
 5827SOL     OW29116   0.443   4.216  12.663 -0.9559  0.1774 -0.1419
 5827SOL    HW129117   0.519   4.174  12.704  0.2568 -0.0584 -2.6442
 5827SOL    HW229118   0.468   4.220  12.571  0.8456 -3.4649  0.2001
 5828SOL     OW29119   0.543   4.628   9.863  0.2605  0.0788 -0.3372
 5828SOL    HW129120   0.541   4.587   9.949  0.5353  1.0475  0.1169
 5828SOL    HW229121   0.585   4.562   9.807  0.4337 -2.5179  2.8764
 5829SOL     OW29122   3.623   0.389   5.831  0.2003 -0.3925  0.1279
 5829SOL    HW129123   3.626   0.478   5.795 -0.0514 -1.7025 -3.1319
 5829SOL    HW229124   3.545   0.386   5.887 -1.4646 -2.7566 -2.3005
 5830SOL     OW29125   2.131   1.058  13.882 -0.1590 -0.4187  0.1172
 5830SOL    HW129126   2.221   1.038  13.856 -0.8556 -2.8340 -0.4496
 5830SOL    HW229127   2.113   1.125  13.816 -0.6762 -3.2809 -2.6986
 5831SOL     OW29128   3.577   4.622   9.102  0.1104 -0.0170 -0.9263
 5831SOL    HW129129   3.612   4.707   9.129 -0.7409 -0.7097  2.2345
 5831SOL    HW229130   3.651   4.589   9.051  0.9607  1.5435 -0.7228
 5832SOL     OW29131   0.623   2.883   8.763 -0.3611  0.1268 -0.5123
 5832SOL    HW129132   0.668   2.908   8.683  3.5722  2.2895  2.3472
 5832SOL    HW229133   0.529   2.880   8.744 -0.2624 -2.2011 -0.6137
 5833SOL     OW29134   2.085   4.123   5.285 -0.0329 -0.1345  0.6027
 5833SOL    HW129135   2.065   4.159   5.199  1.1834 -0.0062  0.3735
 5833SOL    HW229136   1.998   4.090   5.310 -1.3866  4.3169  1.7277
 5834SOL     OW29137   1.014   3.391   6.172  0.1235 -0.6480 -0.7470
 5834SOL    HW129138   1.057   3.311   6.204  0.4135  0.0143  0.5266
 5834SOL    HW229139   0.929   3.357   6.145 -0.6755  0.5075  0.3357
 5835SOL     OW29140   3.459   2.773   9.585  0.0703 -0.4594  0.2131
 5835SOL    HW129141   3.399   2.817   9.646 -1.9686 -2.1392 -0.5955
 5835SOL    HW229142   3.433   2.801   9.497  2.1728 -0.0170 -0.2808
 5836SOL     OW29143   1.097   0.116   3.754  0.1335  0.9793  0.1950
 5836SOL    HW129144   1.186   0.103   3.721  0.0626 -0.3380  0.5399
 5836SOL    HW229145   1.054   0.099   3.670 -0.9770  0.3359  0.8977
 5837SOL     OW29146   1.200   1.844   0.976 -0.5274 -0.7129 -0.3067
 5837SOL    HW129147   1.220   1.794   0.896  0.5928 -0.7692  0.0146
 5837SOL    HW229148   1.254   1.921   0.961  1.5059 -2.0052  0.3388
 5838SOL     OW29149   2.710   1.177   9.593 -0.8204  0.4985 -0.2721
 5838SOL    HW129150   2.662   1.192   9.674  1.7688  0.8220  1.1908
 5838SOL    HW229151   2.767   1.254   9.592  2.1422 -1.6381  1.6427
 5839SOL     OW29152   3.526   3.168  11.382 -0.1625 -0.0482  0.0065
 5839SOL    HW129153   3.618   3.191  11.376 -1.4536  4.4414 -2.2665
 5839SOL    HW229154   3.529   3.140  11.473 -2.3176  0.3073  0.1744
 5840SOL     OW29155   4.320   2.063  10.576 -0.2870 -0.0609  0.3943
 5840SOL    HW129156   4.323   2.076  10.671  0.5679  0.2952  0.3188
 5840SOL    HW229157   4.374   2.138  10.549 -1.7092  0.6655 -0.4275
 5841SOL     OW29158   2.222   3.562  12.365 -0.1583 -0.3294  0.0411
 5841SOL    HW129159   2.288   3.555  12.434  0.4465 -0.9844 -0.6003
 5841SOL    HW229160   2.280   3.547  12.290  0.3803  2.6033 -0.1183
 5842SOL     OW29161   1.239   0.113   2.860 -0.5780  0.9257 -0.8748
 5842SOL    HW129162   1.251   0.206   2.840  1.3681  0.8064 -0.2546
 5842SOL    HW229163   1.229   0.079   2.771 -0.1932 -1.0863 -0.1669
 5843SOL     OW29164   4.569   3.912  12.541 -0.0534  0.2738  0.0791
 5843SOL    HW129165   4.488   3.906  12.592 -1.5532  1.0540 -2.2053
 5843SOL    HW229166   4.622   3.853  12.594 -1.4716 -0.9251  0.1673
 5844SOL     OW29167   0.695   3.887   3.925  0.4664  0.1047 -0.0026
 5844SOL    HW129168   0.671   3.810   3.873  1.9389 -0.8972  0.8132
 5844SOL    HW229169   0.785   3.868   3.950  0.0095 -1.5180  0.4086
 5845SOL     OW29170   4.177   1.736  17.255  0.0032  0.2483 -0.3021
 5845SOL    HW129171   4.252   1.796  17.256  1.8992 -2.0900 -0.9569
 5845SOL    HW229172   4.188   1.702  17.344  0.3613  1.0979 -0.0192
 5846SOL     OW29173   2.399   0.071   3.920  0.0445  0.0699 -0.0522
 5846SOL    HW129174   2.487   0.058   3.954 -0.0532 -1.0030 -0.2079
 5846SOL    HW229175   2.382   4.718   3.887  2.8773 -0.3117 -0.4450
 5847SOL     OW29176   3.830   2.854   8.932 -0.3668  0.5532  0.0866
 5847SOL    HW129177   3.814   2.780   8.990  1.6554  0.4183  0.4787
 5847SOL    HW229178   3.776   2.922   8.971 -0.6374 -0.0073  0.6726
 5848SOL     OW29179   2.926   3.142   9.423 -0.3254  0.5229 -0.3713
 5848SOL    HW129180   2.876   3.179   9.350  1.0540  1.9037 -0.6195
 5848SOL    HW229181   3.005   3.100   9.388 -0.3235 -0.5953  0.9579
 5849SOL     OW29182   4.003   1.665   1.014 -0.1192  0.4271 -0.0461
 5849SOL    HW129183   4.071   1.654   0.948  0.2214  1.1319  0.1831
 5849SOL    HW229184   4.048   1.646   1.096  0.0351  1.9162  0.2142
 5850SOL     OW29185   4.444   1.330   0.857 -0.0109  0.2172 -0.7340
 5850SOL    HW129186   4.431   1.257   0.798  2.2967 -1.0969  0.3543
 5850SOL    HW229187   4.417   1.295   0.942 -1.5164  0.7413 -1.0069
 5851SOL     OW29188   1.949   0.838   7.442  0.2084  0.1587  0.2024
 5851SOL    HW129189   1.881   0.837   7.510 -1.4199  1.0370 -1.4139
 5851SOL    HW229190   2.003   0.914   7.466  2.2075 -1.0471 -0.4953
 5852SOL     OW29191   1.080   1.728   3.828 -0.6402 -0.1903  0.3722
 5852SOL    HW129192   1.141   1.660   3.800 -0.9843 -1.5199  2.8952
 5852SOL    HW229193   1.144   1.789   3.864 -0.6158  0.5870 -0.9700
 5853SOL     OW29194   2.347   2.550  16.837  0.3069  0.1740 -0.2952
 5853SOL    HW129195   2.296   2.583  16.911  0.7836  2.1721 -0.8587
 5853SOL    HW229196   2.416   2.502  16.883  1.3148  1.5590 -0.3356
 5854SOL     OW29197   0.444   3.232  10.772 -0.5471  0.4201 -0.7073
 5854SOL    HW129198   0.412   3.142  10.765  0.4069  0.1604 -1.7402
 5854SOL    HW229199   0.524   3.231  10.720  0.2334  0.4202  0.4799
 5855SOL     OW29200   0.619   2.507   2.979  0.2748  0.2030 -0.1017
 5855SOL    HW129201   0.536   2.465   2.954  0.7394 -0.4486 -0.5358
 5855SOL    HW229202   0.611   2.541   3.068  0.2304 -1.2266  0.4401
 5856SOL     OW29203   1.174   3.338   2.261 -0.3400 -0.2929 -0.3745
 5856SOL    HW129204   1.208   3.249   2.270  2.1295  0.9319  2.4728
 5856SOL    HW229205   1.172   3.358   2.355  0.1815 -2.3491  0.0650
 5857SOL     OW29206   1.952   3.931  15.010 -0.1876  0.2992 -0.3842
 5857SOL    HW129207   1.954   4.004  14.949 -2.0257 -0.6638 -1.5946
 5857SOL    HW229208   1.891   3.880  14.957  0.3110 -1.4880  0.7751
 5858SOL     OW29209   2.189   0.232   3.094  0.0856 -0.5871 -0.0885
 5858SOL    HW129210   2.193   0.257   3.002 -0.3928 -0.6505 -0.1238
 5858SOL    HW229211   2.281   0.211   3.113  0.0354 -1.5816 -0.9220
 5859SOL     OW29212   0.301   0.843  16.611  0.1826 -0.2740  0.3841
 5859SOL    HW129213   0.244   0.795  16.672  2.1949  1.0006  3.2731
 5859SOL    HW229214   0.367   0.775  16.593  0.4729  0.7370 -2.3068
 5860SOL     OW29215   3.793   2.231   8.260 -0.3996 -0.4958  0.6659
 5860SOL    HW129216   3.856   2.193   8.322 -0.5185 -2.2967 -0.3075
 5860SOL    HW229217   3.742   2.155   8.234 -1.3826  0.0005  1.1681
 5861SOL     OW29218   1.510   2.711   8.739 -0.2317  0.3626  0.8589
 5861SOL    HW129219   1.537   2.625   8.707  1.4579  1.1654  0.1300
 5861SOL    HW229220   1.568   2.772   8.693 -1.2995 -0.2012 -1.2578
 5862SOL     OW29221   0.314   1.023   5.846  0.2882  0.0986 -0.2284
 5862SOL    HW129222   0.251   0.962   5.885  0.5656  0.7278  1.2255
 5862SOL    HW229223   0.349   0.971   5.774 -1.4925 -1.2383 -0.1570
 5863SOL     OW29224   0.085   2.541  10.181  0.2823 -0.2551 -0.0935
 5863SOL    HW129225   0.149   2.607  10.206 -0.8174  0.0821  1.8068
 5863SOL    HW229226   0.116   2.512  10.095 -0.0906 -1.8634  0.2990
 5864SOL     OW29227   2.591   4.489   2.139  0.2990  0.2892 -0.0158
 5864SOL    HW129228   2.584   4.492   2.235  0.1068  2.3749 -0.1042
 5864SOL    HW229229   2.613   4.580   2.120 -1.9931  0.4576 -1.8096
 5865SOL     OW29230   1.620   2.597  12.015  0.0011  0.6616  0.2546
 5865SOL    HW129231   1.672   2.522  11.986  1.0305  1.5326 -0.1659
 5865SOL    HW229232   1.602   2.645  11.935 -3.4667 -2.5404 -0.8559
 5866SOL     OW29233   2.725   3.092   8.058 -0.1956  0.2980  0.3744
 5866SOL    HW129234   2.765   3.149   7.992 -0.5769 -1.9222 -1.7457
 5866SOL    HW229235   2.733   3.136   8.143 -0.4908  0.2390  0.4336
 5867SOL     OW29236   4.178   0.889   1.345 -0.2770  0.1013 -0.3799
 5867SOL    HW129237   4.146   0.816   1.399  1.5108 -0.1642  0.3257
 5867SOL    HW229238   4.223   0.933   1.418  0.4360  0.3009 -0.9394
 5868SOL     OW29239   1.381   4.601  15.442 -0.1582  0.1551 -0.0543
 5868SOL    HW129240   1.401   4.641  15.357 -1.4318 -1.4478 -1.1095
 5868SOL    HW229241   1.409   4.510  15.433 -2.9430 -0.6828 -0.0624
 5869SOL     OW29242   2.996   2.185   3.343  0.4274  0.6022 -0.1842
 5869SOL    HW129243   2.912   2.181   3.298  0.1732 -0.6472  0.4100
 5869SOL    HW229244   3.041   2.241   3.280  0.9473 -2.3887 -2.4876
 5870SOL     OW29245   3.281   1.113   3.604 -0.1813 -0.2914  0.0182
 5870SOL    HW129246   3.213   1.151   3.660  1.3195  2.2633  0.1072
 5870SOL    HW229247   3.324   1.067   3.677  0.6667  0.7590  0.1695
 5871SOL     OW29248   2.653   0.696   1.279  0.0478 -0.3221  0.5688
 5871SOL    HW129249   2.572   0.746   1.293 -0.3666  0.0374 -3.1890
 5871SOL    HW229250   2.679   0.717   1.189  1.3333 -3.8081  0.1372
 5872SOL     OW29251   2.733   0.131   3.061 -0.5377  0.2887 -0.2689
 5872SOL    HW129252   2.803   0.166   3.118 -1.9633  0.4070  1.4093
 5872SOL    HW229253   2.770   0.050   3.025 -1.8407  0.1148 -1.1722
 5873SOL     OW29254   0.625   3.111  16.987  0.6430 -0.5438 -0.3266
 5873SOL    HW129255   0.688   3.165  16.939  1.1319  0.5356  1.5439
 5873SOL    HW229256   0.588   3.054  16.919  0.9512  0.2177 -1.1367
 5874SOL     OW29257   1.077   2.770   6.960  0.0977 -0.4820  0.3292
 5874SOL    HW129258   0.998   2.722   6.938  0.2697  0.4865 -2.3994
 5874SOL    HW229259   1.137   2.696   6.977  0.9787  0.8616  3.0898
 5875SOL     OW29260   3.654   3.385   3.841  0.2774 -0.1073  0.3493
 5875SOL    HW129261   3.664   3.464   3.894 -2.8623 -1.6926  3.2850
 5875SOL    HW229262   3.564   3.399   3.811  0.4716 -1.8004 -1.0266
 5876SOL     OW29263   2.953   3.270   6.349  0.1349 -1.0958  0.4200
 5876SOL    HW129264   2.928   3.192   6.299 -1.2801 -0.5648  0.3096
 5876SOL    HW229265   2.930   3.240   6.437 -1.3858 -0.6341  0.1722
 5877SOL     OW29266   2.337   2.093  14.291  0.2462 -0.3994  0.0321
 5877SOL    HW129267   2.308   2.079  14.201  0.9384 -0.3731 -0.1940
 5877SOL    HW229268   2.341   2.189  14.298  0.6577 -0.3973 -0.1969
 5878SOL     OW29269   4.206   3.648   8.091 -0.3783 -0.3526  0.3840
 5878SOL    HW129270   4.266   3.590   8.138  1.2993  0.0384 -1.2861
 5878SOL    HW229271   4.133   3.664   8.152  0.6593  1.3485  1.1650
 5879SOL     OW29272   3.207   4.222   7.311 -0.2800  0.4982 -0.4305
 5879SOL    HW129273   3.269   4.204   7.240  0.9999  2.1373  0.2534
 5879SOL    HW229274   3.235   4.313   7.325  0.2993  0.0346  1.3714
 5880SOL     OW29275   1.660   3.254   3.465 -0.7811  0.2212  0.0280
 5880SOL    HW129276   1.681   3.323   3.402  0.2020  2.1394  2.4432
 5880SOL    HW229277   1.711   3.287   3.539  0.1731 -3.9446  1.2468
 5881SOL     OW29278   3.942   2.385   6.637 -0.0900  0.0532  0.6815
 5881SOL    HW129279   3.930   2.355   6.727  1.2123  0.5943  1.0361
 5881SOL    HW229280   4.037   2.389   6.635 -0.1152 -0.0639 -0.4272
 5882SOL     OW29281   3.940   0.478   3.035  0.4584 -0.3924  0.1832
 5882SOL    HW129282   3.905   0.537   2.969 -1.7734 -0.4232  1.3563
 5882SOL    HW229283   4.034   0.494   3.021  0.1563 -1.0857 -2.6278
 5883SOL     OW29284   3.166   2.055   2.812 -0.5390 -0.3079 -0.6768
 5883SOL    HW129285   3.096   2.045   2.748 -0.5551 -0.4929 -0.6280
 5883SOL    HW229286   3.137   2.135   2.857  0.3225 -1.2131  1.4703
 5884SOL     OW29287   0.258   4.665   8.029  1.2256  0.0717 -0.1697
 5884SOL    HW129288   0.241   4.702   8.116  1.9163 -2.2208  0.9208
 5884SOL    HW229289   0.262   4.570   8.040  1.6303  0.2782  1.5413
 5885SOL     OW29290   3.786   0.494   7.016  0.4628  0.1046 -0.2616
 5885SOL    HW129291   3.842   0.464   6.944 -0.8549 -3.0741  0.0405
 5885SOL    HW229292   3.703   0.457   6.987 -0.3602  0.6743  1.3418
 5886SOL     OW29293   1.267   0.582   4.938 -0.3039 -0.0614 -0.2110
 5886SOL    HW129294   1.284   0.630   5.019  0.5013  2.5653 -1.9429
 5886SOL    HW229295   1.307   0.636   4.870 -1.1344 -1.2001 -1.5985
 5887SOL     OW29296   2.347   4.716   4.743 -0.3268 -0.3276  0.5718
 5887SOL    HW129297   2.333   0.023   4.659 -0.3081 -1.3836  0.0395
 5887SOL    HW229298   2.267   0.010   4.787  0.8738  1.8207  1.3111
 5888SOL     OW29299   3.624   0.175   6.931 -0.3641 -0.7156  0.0376
 5888SOL    HW129300   3.586   0.097   6.891  1.1331 -1.8147  0.7316
 5888SOL    HW229301   3.604   0.235   6.859  2.0555 -1.4597 -1.2930
 5889SOL     OW29302   4.571   0.835   3.485 -0.1031  0.0366 -0.4024
 5889SOL    HW129303   4.491   0.783   3.484  0.0992 -0.2894  0.0355
 5889SOL    HW229304   4.557   0.888   3.563  1.3320 -0.9614  0.5288
 5890SOL     OW29305   2.790   4.353   5.258 -0.3569  0.0561 -0.0575
 5890SOL    HW129306   2.700   4.334   5.285 -0.6606 -0.4767 -1.4397
 5890SOL    HW229307   2.842   4.369   5.337  3.1017 -0.2166 -2.2493
 5891SOL     OW29308   2.201   1.998   9.983  0.5229 -0.1355  0.2214
 5891SOL    HW129309   2.171   1.934  10.048 -0.7222 -0.0363 -0.2642
 5891SOL    HW229310   2.259   2.043  10.044  1.2513 -0.0492 -0.5402
 5892SOL     OW29311   4.113   0.828   2.549  0.0461 -0.1074  0.8840
 5892SOL    HW129312   4.141   0.895   2.487 -3.3317  1.0325  0.6048
 5892SOL    HW229313   4.150   0.852   2.634  0.9210  1.6466  0.0300
 5893SOL     OW29314   4.197   2.769   1.698  0.1844 -0.2051 -0.4366
 5893SOL    HW129315   4.196   2.802   1.788 -0.7076  1.6507 -1.1247
 5893SOL    HW229316   4.251   2.839   1.660  0.5143 -0.0469  0.3176
 5894SOL     OW29317   4.735   1.119   5.775  0.4389  0.3665  0.3455
 5894SOL    HW129318   0.043   1.193   5.819  0.9810  0.9019 -1.0848
 5894SOL    HW229319   4.706   1.162   5.694  1.1216  1.0580  0.4612
 5895SOL     OW29320   3.591   0.051   2.721 -0.0333  0.2923  0.6104
 5895SOL    HW129321   3.550   0.087   2.800  1.2602  1.8258  0.5892
 5895SOL    HW229322   3.522   0.029   2.660  1.9691 -0.9432 -1.1891
 5896SOL     OW29323   3.929   0.895   2.742 -0.4546 -0.2658 -0.0631
 5896SOL    HW129324   3.970   0.921   2.660  0.5344 -3.2186 -0.5028
 5896SOL    HW229325   3.880   0.976   2.756 -1.3064 -0.3606 -2.4223
 5897SOL     OW29326   3.271   2.495   0.633  0.6767  0.3314 -0.3489
 5897SOL    HW129327   3.318   2.578   0.641 -0.7559  1.3090 -2.0874
 5897SOL    HW229328   3.180   2.525   0.626  1.0379  0.9445 -2.3127
 5898SOL     OW29329   1.159   1.713  17.560 -0.2927 -0.2785 -0.1245
 5898SOL    HW129330   1.129   1.803  17.576  0.3518 -0.3238  1.3272
 5898SOL    HW229331   1.195   1.718  17.472 -1.0494  0.8045 -0.3690
 5899SOL     OW29332   3.226   2.761   7.611 -0.1486 -0.6180  0.1957
 5899SOL    HW129333   3.260   2.685   7.659 -0.2806 -0.7067  0.1482
 5899SOL    HW229334   3.276   2.747   7.530  0.3626 -2.0216  0.7460
 5900SOL     OW29335   2.442   0.728   0.417 -0.5202  0.0738  0.5924
 5900SOL    HW129336   2.479   0.640   0.405  0.0319  0.3154  0.5265
 5900SOL    HW229337   2.349   0.707   0.409 -0.6330  1.7502 -2.2262
 5901SOL     OW29338   2.941   4.550  15.439 -0.1664  0.4094  0.0266
 5901SOL    HW129339   3.031   4.529  15.467 -0.3288 -0.7726 -0.3258
 5901SOL    HW229340   2.901   4.553  15.526 -1.1044  0.0712 -0.3953
 5902SOL     OW29341   1.731   2.427   3.181  0.0175  0.3487  0.4248
 5902SOL    HW129342   1.722   2.502   3.122  1.0628 -3.1823 -4.2171
 5902SOL    HW229343   1.703   2.361   3.117 -0.6791  1.0738 -0.0305
 5903SOL     OW29344   2.215   4.044   1.160 -0.7628 -0.0253  0.1563
 5903SOL    HW129345   2.156   3.973   1.136 -1.0396 -0.3809  1.9074
 5903SOL    HW229346   2.299   3.997   1.163 -1.1678 -0.7078  0.7804
 5904SOL     OW29347   2.100   0.060   7.148 -0.3808 -1.0074  0.5121
 5904SOL    HW129348   2.063   0.119   7.083 -1.7093 -2.6632 -0.2232
 5904SOL    HW229349   2.113   0.116   7.225  0.7790  2.1374 -1.9742
 5905SOL     OW29350   0.420   0.465   3.773 -0.1942  0.7237  0.4994
 5905SOL    HW129351   0.494   0.479   3.714 -0.7896 -1.5312 -0.7889
 5905SOL    HW229352   0.446   0.387   3.824 -0.5510  1.7928  2.3262
 5906SOL     OW29353   2.401   4.044   6.319 -0.1589  0.0324 -0.7532
 5906SOL    HW129354   2.441   4.130   6.304  3.7296 -1.9407 -1.8112
 5906SOL    HW229355   2.403   4.038   6.414  0.2229 -0.7429 -0.8112
 5907SOL     OW29356   3.661   0.643   5.718 -0.1709  0.4749 -0.3194
 5907SOL    HW129357   3.746   0.667   5.754 -0.0883  1.0335 -0.8847
 5907SOL    HW229358   3.673   0.659   5.624 -0.0430 -0.1782 -0.4141
 5908SOL     OW29359   4.643   0.285  12.051  0.3934  0.1745 -0.5388
 5908SOL    HW129360   4.732   0.301  12.082  0.0204  1.7865 -0.2988
 5908SOL    HW229361   4.597   0.333  12.120 -1.2835 -0.3098 -1.3356
 5909SOL     OW29362   3.545   2.214   5.253 -0.5751 -0.2983  0.4718
 5909SOL    HW129363   3.600   2.268   5.197 -1.1745  0.9077  1.0321
 5909SOL    HW229364   3.461   2.236   5.212 -1.1860  1.6274  2.7418
 5910SOL     OW29365   1.621   3.644   4.984  0.5493  0.0090 -0.0036
 5910SOL    HW129366   1.589   3.719   5.036 -1.2847 -2.0705  1.8479
 5910SOL    HW229367   1.588   3.570   5.035  1.0041 -0.2199 -0.0460
 5911SOL     OW29368   1.806   0.006   6.372 -0.0174  0.1636 -0.2179
 5911SOL    HW129369   1.876   4.676   6.365 -1.3541 -1.4549  1.3986
 5911SOL    HW229370   1.730   4.695   6.337  0.2690 -2.2148  2.2905
 5912SOL     OW29371   3.899   0.245   0.895 -0.3041  0.1634  0.6525
 5912SOL    HW129372   3.897   0.338   0.919  0.9161 -0.3000  2.5362
 5912SOL    HW229373   3.992   0.225   0.890 -0.3331  0.5034 -1.1304
 5913SOL     OW29374   1.744   1.641   5.470 -0.4022 -0.2242 -0.4595
 5913SOL    HW129375   1.805   1.649   5.544 -0.6682 -0.0174 -0.2598
 5913SOL    HW229376   1.778   1.709   5.413  0.9293  2.4180  3.4669
 5914SOL     OW29377   4.730   4.164   3.827  0.0982  0.1669  0.1536
 5914SOL    HW129378   4.692   4.220   3.760  1.0528  0.0116 -0.5125
 5914SOL    HW229379   4.690   4.080   3.805 -0.3663  0.7588 -1.2115
 5915SOL     OW29380   1.730   0.481   3.089  0.6484 -0.6797  0.2655
 5915SOL    HW129381   1.790   0.522   3.027  1.7362 -2.6535  0.0272
 5915SOL    HW229382   1.666   0.443   3.028  1.2688  0.9102 -1.3895
 5916SOL     OW29383   0.405   4.340   9.409 -0.2021  0.1698  0.0287
 5916SOL    HW129384   0.350   4.307   9.480  0.9226 -1.1923  0.2713
 5916SOL    HW229385   0.495   4.354   9.440 -0.7151  0.3254  1.4294
 5917SOL     OW29386   1.118   0.373   4.865  0.6096 -0.1809 -0.4350
 5917SOL    HW129387   1.186   0.431   4.899 -3.2255  4.5733 -0.8673
 5917SOL    HW229388   1.037   0.420   4.884  1.3190  0.7682  0.2860
 5918SOL     OW29389   2.513   2.458   4.386 -0.3774 -0.4659  0.0268
 5918SOL    HW129390   2.580   2.390   4.394  0.1392  0.1909  1.1713
 5918SOL    HW229391   2.497   2.494   4.473 -1.9719 -0.3926 -0.2824
 5919SOL     OW29392   0.351   1.916  13.181 -0.0489 -0.2673  0.4265
 5919SOL    HW129393   0.374   1.830  13.146  1.6150  0.2377  0.2779
 5919SOL    HW229394   0.394   1.919  13.266 -0.3090  0.3898  0.5336
 5920SOL     OW29395   0.234   1.025   7.307  0.1342 -0.3219  0.8455
 5920SOL    HW129396   0.208   1.110   7.341 -3.8413 -1.4521  0.6295
 5920SOL    HW229397   0.202   0.967   7.376  1.7577 -0.4781  1.4905
 5921SOL     OW29398   0.044   3.534   8.185  0.4937 -0.1949  0.1516
 5921SOL    HW129399   0.110   3.498   8.125  1.3521  0.9365  0.4125
 5921SOL    HW229400   4.695   3.521   8.144  0.6776 -2.6414  0.5289
 5922SOL     OW29401   1.012   2.873   6.683 -0.2647  0.3244  0.5702
 5922SOL    HW129402   1.079   2.839   6.742  0.1795 -0.0430 -0.1378
 5922SOL    HW229403   0.978   2.794   6.642 -0.2176  0.5917  0.0187
 5923SOL     OW29404   2.680   4.619   5.579  0.2431 -0.1859 -0.3013
 5923SOL    HW129405   2.610   4.638   5.642  0.0023 -4.0316  0.5931
 5923SOL    HW229406   2.655   4.675   5.506  1.3820  1.0990  0.3016
 5924SOL     OW29407   3.705   2.028   3.016  0.0015 -0.4579 -0.3873
 5924SOL    HW129408   3.723   1.974   3.093 -1.1054 -1.4482 -0.8197
 5924SOL    HW229409   3.794   2.056   2.992 -0.1055 -0.2583 -0.5528
 5925SOL     OW29410   3.340   1.284  16.084  0.5884 -0.5078  0.0499
 5925SOL    HW129411   3.302   1.330  16.009  3.2800  2.2091  0.3381
 5925SOL    HW229412   3.422   1.331  16.102  0.4903 -0.0553 -0.7069
 5926SOL     OW29413   1.530   2.954   4.575 -0.6167  0.7999 -0.1217
 5926SOL    HW129414   1.470   3.012   4.529 -2.4938 -1.0571 -0.0281
 5926SOL    HW229415   1.464   2.887   4.590  0.5138 -0.6135 -1.4096
 5927SOL     OW29416   3.056   1.758   2.128  0.6012  0.6640  1.0230
 5927SOL    HW129417   3.064   1.795   2.040 -1.8871  0.6650  0.8040
 5927SOL    HW229418   3.027   1.842   2.165 -0.2978  0.2762  1.1825
 5928SOL     OW29419   2.218   2.202  10.535  0.4336  0.0147  0.0823
 5928SOL    HW129420   2.207   2.114  10.500 -2.0442  0.3521 -0.0155
 5928SOL    HW229421   2.142   2.222  10.590  1.6877  0.5487  1.6294
 5929SOL     OW29422   3.742   0.411  17.692 -0.1402 -0.8024 -0.2398
 5929SOL    HW129423   3.796   0.339  17.661 -0.7985 -1.6415  0.5633
 5929SOL    HW229424   3.706   0.453  17.614 -0.8129 -1.5303 -0.3226
 5930SOL     OW29425   3.429   2.532   2.719 -0.1364  0.2855 -0.1299
 5930SOL    HW129426   3.423   2.458   2.779  0.1756  0.3444 -0.0271
 5930SOL    HW229427   3.522   2.539   2.695 -0.1646 -0.6661 -0.5078
 5931SOL     OW29428   2.474   2.180   3.861  0.1881 -0.4463 -0.3642
 5931SOL    HW129429   2.383   2.152   3.868 -0.5861  2.1533  0.1993
 5931SOL    HW229430   2.457   2.268   3.895  1.3809  0.0171 -0.9376
 5932SOL     OW29431   0.493   1.967  14.792 -0.1440  0.1454  0.0804
 5932SOL    HW129432   0.403   1.992  14.811  0.1288  0.0911  1.4342
 5932SOL    HW229433   0.497   1.878  14.828  1.0077  1.2303  2.6817
 5933SOL     OW29434   0.267   3.980  12.521 -0.3033  0.1698  0.1453
 5933SOL    HW129435   0.216   3.901  12.499  1.9686 -0.1904 -3.8774
 5933SOL    HW229436   0.330   3.942  12.582  0.6300 -1.1302 -1.6350
 5934SOL     OW29437   1.439   4.031   7.067  0.0976 -1.1439  0.5859
 5934SOL    HW129438   1.380   4.106   7.071  0.7178 -0.6690  0.8136
 5934SOL    HW229439   1.470   4.034   7.158 -0.6569 -0.7491  0.8316
 5935SOL     OW29440   4.186   4.346  12.215 -0.0112 -0.8705  0.3646
 5935SOL    HW129441   4.104   4.325  12.169  0.3700  0.4385 -0.9396
 5935SOL    HW229442   4.227   4.261  12.225  1.0107 -0.5055 -0.7273
 5936SOL     OW29443   1.526   3.747   7.574 -0.4583 -0.0490  0.2989
 5936SOL    HW129444   1.453   3.714   7.521 -0.2308 -1.1409  0.6473
 5936SOL    HW229445   1.605   3.728   7.524 -0.0002 -0.9307  1.3411
 5937SOL     OW29446   3.128   1.464   9.920 -0.0804  0.0984 -0.1294
 5937SOL    HW129447   3.212   1.495   9.885  0.7344 -0.6760  1.1408
 5937SOL    HW229448   3.162   1.441  10.007 -3.1993  2.8767  1.7992
 5938SOL     OW29449   3.121   3.413   1.628  0.6571  0.4413  0.5893
 5938SOL    HW129450   3.050   3.444   1.572  0.4748  0.1416  0.6550
 5938SOL    HW229451   3.075   3.422   1.711 -0.5013 -0.2943  0.0309
 5939SOL     OW29452   4.027   0.490  15.628  0.2260 -0.1707 -0.0449
 5939SOL    HW129453   3.987   0.459  15.546  1.3611 -0.7145 -0.3918
 5939SOL    HW229454   3.953   0.495  15.689  1.4583 -0.6532  1.4924
 5940SOL     OW29455   3.127   4.673   7.133  0.2327 -0.0769  0.3588
 5940SOL    HW129456   3.179   4.593   7.146 -1.0637 -1.6260 -4.0652
 5940SOL    HW229457   3.079   4.668   7.216 -0.4550 -0.6538 -0.0774
 5941SOL     OW29458   0.293   3.015   7.717  0.6198  0.0940  0.5112
 5941SOL    HW129459   0.361   2.963   7.759 -0.0201 -0.5269  0.7915
 5941SOL    HW229460   0.303   2.993   7.625  0.6159 -0.1320  0.5646
 5942SOL     OW29461   0.776   1.694   5.858  0.2832  0.3121  0.0061
 5942SOL    HW129462   0.742   1.783   5.845  0.5894  0.3868 -0.2746
 5942SOL    HW229463   0.779   1.655   5.770  0.8353 -0.2581  0.2793
 5943SOL     OW29464   2.874   4.024   8.491 -0.3948  0.0441 -0.0074
 5943SOL    HW129465   2.964   4.039   8.519 -0.0840  0.0256 -0.9832
 5943SOL    HW229466   2.871   3.938   8.447 -0.3816  1.0601 -1.9828
 5944SOL     OW29467   1.584   2.535   2.853 -0.4939 -0.3858  0.1952
 5944SOL    HW129468   1.626   2.603   2.906 -1.6421 -0.2910  0.9647
 5944SOL    HW229469   1.561   2.586   2.775  0.7131 -1.1587 -0.6730
 5945SOL     OW29470   3.471   3.965   7.800  0.0011 -0.7026  0.4492
 5945SOL    HW129471   3.510   4.048   7.777  0.5195 -0.5040  2.0088
 5945SOL    HW229472   3.380   3.985   7.823  0.0574  1.3987 -1.2112
 5946SOL     OW29473   4.007   3.645  11.277  0.5344 -0.1779 -0.2216
 5946SOL    HW129474   4.023   3.582  11.348  0.7994 -1.3069 -1.2927
 5946SOL    HW229475   4.065   3.717  11.300 -0.9858  0.5422  1.3353
 5947SOL     OW29476   3.633   2.866  14.998  0.0757  0.5486 -0.7952
 5947SOL    HW129477   3.600   2.936  14.941  1.8308  1.4018 -0.7656
 5947SOL    HW229478   3.679   2.916  15.066 -0.6855  1.0044 -0.6163
 5948SOL     OW29479   0.721   2.862   2.037  0.3116 -0.0945  0.2016
 5948SOL    HW129480   0.698   2.797   1.970 -1.3569  0.1360  0.5588
 5948SOL    HW229481   0.785   2.805   2.081  2.2135  0.1059 -2.2795
 5949SOL     OW29482   1.561   4.150  13.112 -0.1347  0.2625 -0.0593
 5949SOL    HW129483   1.612   4.069  13.104 -2.0930 -0.7573 -1.9558
 5949SOL    HW229484   1.575   4.175  13.203  1.9106  0.0682 -0.3141
 5950SOL     OW29485   3.024   2.445   5.383 -0.0631 -0.3110 -0.4992
 5950SOL    HW129486   2.996   2.395   5.306 -1.8364 -0.8637  0.5108
 5950SOL    HW229487   2.948   2.428   5.439  0.5892  1.2962  0.8591
 5951SOL     OW29488   0.584   2.471  16.187  0.4464  0.5596 -0.2033
 5951SOL    HW129489   0.635   2.454  16.107 -1.4705 -1.5185 -0.9907
 5951SOL    HW229490   0.523   2.538  16.159 -0.0131  0.2647  0.1018
 5952SOL     OW29491   0.697   2.355   3.931 -0.0891  0.3994  0.0080
 5952SOL    HW129492   0.717   2.262   3.919 -0.2014  0.3536  0.1633
 5952SOL    HW229493   0.699   2.394   3.844 -1.0930 -1.4952 -0.8697
 5953SOL     OW29494   1.859   3.065   2.588  0.4150 -0.4464  0.1627
 5953SOL    HW129495   1.781   3.069   2.533 -0.0453  2.6616  1.0104
 5953SOL    HW229496   1.918   3.123   2.539  1.6478  0.2811  2.4932
 5954SOL     OW29497   4.442   2.437   6.070  0.3689 -0.1781 -0.0404
 5954SOL    HW129498   4.448   2.370   6.138  1.9070 -0.0199 -0.0235
 5954SOL    HW229499   4.512   2.428   6.006 -0.1544  1.1848 -0.7963
 5955SOL     OW29500   1.951   3.680   2.703 -0.3243  0.0249 -0.1134
 5955SOL    HW129501   1.879   3.696   2.643 -3.2298 -1.4987  2.9171
 5955SOL    HW229502   2.007   3.653   2.630 -0.5141  0.0835 -0.2800
 5956SOL     OW29503   1.964   0.927   9.573 -0.2202 -0.1645  0.3440
 5956SOL    HW129504   1.976   0.965   9.486 -0.1506  0.8734  0.8040
 5956SOL    HW229505   1.924   1.002   9.618  1.2530  1.3453 -0.8474
 5957SOL     OW29506   2.780   4.097   1.181 -0.3565  0.1393  0.4642
 5957SOL    HW129507   2.723   4.173   1.168 -0.5925  0.0578  1.0147
 5957SOL    HW229508   2.782   4.091   1.277 -1.8616  1.5222  0.5732
 5958SOL     OW29509   1.903   3.693   9.177  0.1147  0.2715  0.8116
 5958SOL    HW129510   1.993   3.726   9.179 -0.6137  2.3402 -1.6008
 5958SOL    HW229511   1.909   3.599   9.194 -1.1430 -0.0001 -0.2801
 5959SOL     OW29512   4.114   4.163  10.193 -0.1861  0.5888 -0.7251
 5959SOL    HW129513   4.043   4.223  10.171 -0.7510  0.4255  0.6556
 5959SOL    HW229514   4.150   4.211  10.268  0.5967 -1.5632  0.2908
 5960SOL     OW29515   2.549   1.582   7.692  0.6288 -0.4092  0.3875
 5960SOL    HW129516   2.592   1.544   7.769  0.6544 -0.4272  0.3646
 5960SOL    HW229517   2.468   1.533   7.704  0.4482 -0.4954 -1.1786
 5961SOL     OW29518   1.586   0.317   5.531  0.0786  0.3796 -0.0145
 5961SOL    HW129519   1.569   0.409   5.548  0.0527  0.4796 -0.5619
 5961SOL    HW229520   1.497   0.282   5.532  0.2414 -0.0799 -1.7790
 5962SOL     OW29521   4.676   0.564   7.805 -0.1931 -0.1483  0.3251
 5962SOL    HW129522   4.689   0.570   7.900 -0.8237 -0.4444  0.4355
 5962SOL    HW229523   4.611   0.632   7.790  1.7462  1.6960  0.3894
 5963SOL     OW29524   1.124   3.823   5.413  0.3169 -0.1875 -0.4126
 5963SOL    HW129525   1.047   3.879   5.417  0.6692  0.5184 -3.1924
 5963SOL    HW229526   1.076   3.741   5.416 -0.5518  0.3228 -0.4900
 5964SOL     OW29527   4.547   0.482  10.999  0.5875 -0.1335  0.0329
 5964SOL    HW129528   4.479   0.532  11.045  2.2387 -0.7513  3.1148
 5964SOL    HW229529   4.623   0.536  11.022 -0.5720  1.8108 -0.6681
 5965SOL     OW29530   4.102   3.410   3.750  0.5611  0.0546 -0.2608
 5965SOL    HW129531   4.106   3.323   3.710  2.3027 -0.2262  0.5067
 5965SOL    HW229532   4.184   3.455   3.729 -0.2377  0.9058 -1.5651
 5966SOL     OW29533   1.511   2.046   7.518 -0.4743 -0.3783  0.1565
 5966SOL    HW129534   1.512   2.079   7.608 -0.1498 -1.3976  0.5299
 5966SOL    HW229535   1.596   2.002   7.516  0.7810  1.9866  1.0187
 5967SOL     OW29536   1.205   4.055  12.534 -0.5242 -0.1092 -0.4620
 5967SOL    HW129537   1.258   3.975  12.525 -1.6638 -0.7359 -1.6803
 5967SOL    HW229538   1.138   4.035  12.599  1.5641 -2.6711  0.8769
 5968SOL     OW29539   0.131   4.039  15.057 -0.2465 -0.0820 -0.3379
 5968SOL    HW129540   0.194   4.052  14.986 -0.1296 -1.5932 -0.5003
 5968SOL    HW229541   0.154   3.952  15.090  0.1146  0.0695 -0.1831
 5969SOL     OW29542   3.346   1.036   6.495 -0.4420 -0.4054 -0.5682
 5969SOL    HW129543   3.353   1.037   6.400  0.7855  2.6870 -0.4531
 5969SOL    HW229544   3.403   0.964   6.521  0.0394  0.2090  0.0949
 5970SOL     OW29545   3.495   3.119   0.511 -0.2375  0.9627 -0.0457
 5970SOL    HW129546   3.499   3.138   0.417  0.4811 -2.1294 -0.6586
 5970SOL    HW229547   3.510   3.024   0.512  2.9564  1.4347 -1.7803
 5971SOL     OW29548   4.576   1.549   7.695  0.1904 -1.0151 -0.0511
 5971SOL    HW129549   4.606   1.620   7.637 -1.0064 -0.9011 -0.5275
 5971SOL    HW229550   4.655   1.511   7.734 -0.2423 -0.8373  0.9741
 5972SOL     OW29551   0.115   1.354  15.800 -0.2062  0.0886 -0.3002
 5972SOL    HW129552   0.074   1.416  15.860 -0.1222 -0.2128  0.0674
 5972SOL    HW229553   0.049   1.360  15.732  0.5356 -2.3317 -1.2502
 5973SOL     OW29554   3.022   4.180   6.093  0.1333  0.2470  0.6901
 5973SOL    HW129555   3.089   4.118   6.066 -1.5383 -0.7453 -1.1393
 5973SOL    HW229556   2.949   4.137   6.050  1.2140 -0.6452 -0.2420
 5974SOL     OW29557   3.147   4.626   5.309 -0.4307 -0.0027 -0.5458
 5974SOL    HW129558   3.120   4.669   5.390  2.6787  0.6767  0.1350
 5974SOL    HW229559   3.242   4.632   5.325 -0.7053  0.5281  0.8981
 5975SOL     OW29560   1.291   4.727  13.438  0.1943 -0.1152 -0.6849
 5975SOL    HW129561   1.232   0.027  13.371  1.4442  1.0645 -1.1388
 5975SOL    HW229562   1.367   4.699  13.387  1.0623  0.4945  0.2828
 5976SOL     OW29563   3.413   3.446   0.515 -0.4423 -0.5995  0.0792
 5976SOL    HW129564   3.346   3.405   0.571 -0.7887 -1.7215 -1.1313
 5976SOL    HW229565   3.496   3.408   0.543 -0.0524 -0.4234 -0.8243
 5977SOL     OW29566   0.071   4.096   0.960 -0.0139 -0.5449  0.6000
 5977SOL    HW129567   0.004   4.163   0.975  1.6733  0.7831  2.2707
 5977SOL    HW229568   0.012   4.027   0.991 -1.4214  1.1961  1.8076
 5978SOL     OW29569   0.862   0.317  11.498  0.0986  0.0809 -0.5188
 5978SOL    HW129570   0.925   0.353  11.435  3.0627 -2.1665  1.1880
 5978SOL    HW229571   0.920   0.312  11.573  0.8644 -0.0153 -1.1201
 5979SOL     OW29572   0.220   3.590  11.774  0.3292  0.6306  0.2975
 5979SOL    HW129573   0.180   3.643  11.705 -1.0916  0.6095  1.0985
 5979SOL    HW229574   0.287   3.540  11.729  1.2559  0.3653  1.9747
 5980SOL     OW29575   2.631   0.714   9.396 -0.1880 -0.1757 -0.5649
 5980SOL    HW129576   2.615   0.659   9.473 -2.1126 -1.2314 -1.7224
 5980SOL    HW229577   2.701   0.767   9.434  0.4760  0.7832 -3.1160
 5981SOL     OW29578   0.267   2.454  11.735  0.3353 -0.0352 -0.4429
 5981SOL    HW129579   0.336   2.519  11.743  1.5668 -1.3959  0.0378
 5981SOL    HW229580   0.200   2.491  11.677  0.1503  0.7835  0.3035
 5982SOL     OW29581   3.661   4.503   1.207 -0.2710 -0.2318 -0.2782
 5982SOL    HW129582   3.713   4.542   1.137  0.9922  1.8704  1.8312
 5982SOL    HW229583   3.591   4.567   1.213  0.9750  1.0614  0.3452
 5983SOL     OW29584   2.558   2.967   2.841  0.0263 -0.6946  0.2918
 5983SOL    HW129585   2.626   2.980   2.775  0.9199 -0.3423  1.2868
 5983SOL    HW229586   2.521   3.055   2.843 -0.9927 -1.1488  1.8937
 5984SOL     OW29587   3.740   1.315   2.310  0.7025 -0.1082 -0.0965
 5984SOL    HW129588   3.806   1.289   2.374 -1.6994  1.2669  2.9100
 5984SOL    HW229589   3.668   1.335   2.369  0.1615 -4.3704  0.6853
 5985SOL     OW29590   0.287   4.190   8.487 -0.2069 -0.5655  0.0892
 5985SOL    HW129591   0.316   4.108   8.528 -1.0243 -0.2984  1.1752
 5985SOL    HW229592   0.362   4.241   8.517  0.1916  0.1622 -2.1054
 5986SOL     OW29593   1.392   0.486   8.012  0.5767 -0.1651 -0.3789
 5986SOL    HW129594   1.363   0.432   7.938 -0.2182 -0.0487 -0.1548
 5986SOL    HW229595   1.484   0.461   8.013  0.7215  0.2850 -4.7733
 5987SOL     OW29596   1.527   4.492  12.523 -0.2324  0.7987  0.1209
 5987SOL    HW129597   1.454   4.436  12.498  0.4965  0.9598 -2.3541
 5987SOL    HW229598   1.603   4.467  12.470 -1.9801 -0.2269 -1.8666
 5988SOL     OW29599   1.764   0.345   3.578  0.0661 -0.4677 -0.0951
 5988SOL    HW129600   1.835   0.285   3.602  0.7297 -0.3953 -1.8180
 5988SOL    HW229601   1.785   0.354   3.485 -0.1179 -1.5451 -0.2430
 5989SOL     OW29602   1.941   2.786   2.599 -0.2527 -0.0030 -0.2379
 5989SOL    HW129603   1.933   2.749   2.687 -0.5947  0.1586 -0.2033
 5989SOL    HW229604   1.923   2.880   2.607 -1.0854 -0.0971 -0.9517
 5990SOL     OW29605   4.447   0.331  14.606 -0.1883 -0.6238  0.1674
 5990SOL    HW129606   4.352   0.336  14.603  0.0398  2.9693 -0.2231
 5990SOL    HW229607   4.460   0.237  14.621  0.7082 -0.1321  2.3451
 5991SOL     OW29608   3.992   2.606   5.488 -0.5834 -0.0689  0.4912
 5991SOL    HW129609   3.953   2.535   5.538  0.7157 -0.9016  0.3447
 5991SOL    HW229610   4.050   2.653   5.548 -0.6282  2.5981 -1.5571
 5992SOL     OW29611   3.936   3.482   1.718  0.0340  0.4039  0.6370
 5992SOL    HW129612   3.866   3.548   1.710 -0.4625 -0.0298  1.4065
 5992SOL    HW229613   3.928   3.445   1.630 -0.4673 -1.4335  1.4708
 5993SOL     OW29614   4.708   2.414   2.850  0.2323  0.4067 -0.3301
 5993SOL    HW129615   4.708   2.506   2.873  0.9451  0.4524 -0.5008
 5993SOL    HW229616   4.616   2.416   2.822 -0.1300  1.4172  0.9382
 5994SOL     OW29617   3.200   0.753   7.459  0.4392 -0.6361  0.2620
 5994SOL    HW129618   3.186   0.830   7.515 -0.7539 -1.1940  0.7186
 5994SOL    HW229619   3.180   0.682   7.520 -0.9607  1.1964  1.9484
 5995SOL     OW29620   4.405   0.491   4.424  0.7365 -0.3887  0.0671
 5995SOL    HW129621   4.415   0.447   4.509  1.8471 -1.5058 -0.6381
 5995SOL    HW229622   4.319   0.531   4.420 -1.1341 -4.5960 -2.0533
 5996SOL     OW29623   0.096   2.375   8.281  0.7101 -0.2783 -0.1354
 5996SOL    HW129624   0.004   2.353   8.268  0.5672  0.0570  0.2766
 5996SOL    HW229625   0.140   2.301   8.239  2.8030  1.8197 -1.6698
 5997SOL     OW29626   1.198   3.294   1.782  0.5084  0.0870 -0.1147
 5997SOL    HW129627   1.216   3.388   1.789  1.1864 -0.1788  1.6607
 5997SOL    HW229628   1.219   3.278   1.689 -0.7788  1.2700 -0.5996
 5998SOL     OW29629   4.199   3.468   1.567  0.1889 -0.1331  0.4355
 5998SOL    HW129630   4.164   3.493   1.481  0.6621 -1.8737 -0.2715
 5998SOL    HW229631   4.169   3.382   1.596 -0.7952 -0.4133 -1.4149
 5999SOL     OW29632   4.464   4.664   4.766 -0.4781  0.6745  0.0534
 5999SOL    HW129633   4.436   4.587   4.716  2.2198  0.4622 -1.1634
 5999SOL    HW229634   4.560   4.656   4.764 -0.5809 -0.4131 -0.6179
 6000SOL     OW29635   2.200   3.081  11.444  0.3498  0.3410  0.5425
 6000SOL    HW129636   2.157   3.115  11.523  0.5901  1.3929  0.2279
 6000SOL    HW229637   2.286   3.073  11.485  0.9955  0.6272 -0.7753
 6001SOL     OW29638   2.680   0.765   8.906 -0.0731  0.3284 -0.0562
 6001SOL    HW129639   2.678   0.711   8.985  0.5529 -1.7025 -1.4185
 6001SOL    HW229640   2.707   0.849   8.943 -0.0981  0.6464 -0.7433
 6002SOL     OW29641   4.277   3.833   2.871 -0.3187 -0.2608  0.2150
 6002SOL    HW129642   4.354   3.822   2.815 -1.1317 -0.7711 -0.8202
 6002SOL    HW229643   4.260   3.925   2.852 -2.5518 -0.5983  0.5717
 6003SOL     OW29644   3.773   4.287   2.333  0.0582 -0.5555  0.1903
 6003SOL    HW129645   3.792   4.223   2.263 -1.8916  1.7315 -2.4420
 6003SOL    HW229646   3.828   4.356   2.297 -0.6551  0.9058  1.9403
 6004SOL     OW29647   1.868   0.373   5.109 -0.6017 -0.3220 -0.4320
 6004SOL    HW129648   1.812   0.422   5.169  1.3535 -3.0027  3.6274
 6004SOL    HW229649   1.911   0.444   5.062 -0.2329  0.2804  0.8288
 6005SOL     OW29650   4.442   1.665   7.945 -0.6669  0.0155  0.4057
 6005SOL    HW129651   4.384   1.600   7.985  0.2844 -0.1095  1.5746
 6005SOL    HW229652   4.479   1.612   7.874 -1.9176 -0.9549  0.4816
 6006SOL     OW29653   1.770   4.677  12.272  0.4026 -0.0990  0.3334
 6006SOL    HW129654   1.760   0.030  12.237  1.4857 -1.4661 -3.5029
 6006SOL    HW229655   1.699   4.636  12.222 -0.6311  2.5048 -0.3434
 6007SOL     OW29656   4.727   4.668   4.934 -0.3463 -0.4815  0.1106
 6007SOL    HW129657   4.663   4.607   4.971 -0.9735  0.5310  0.7127
 6007SOL    HW229658   0.072   4.631   4.969  0.3604 -1.4428 -2.5231
 6008SOL     OW29659   3.276   2.129   9.002  0.4782 -0.1414 -0.2461
 6008SOL    HW129660   3.228   2.081   8.934  0.1522 -1.5913  0.9994
 6008SOL    HW229661   3.298   2.049   9.051 -0.1092  0.4551  0.9946
 6009SOL     OW29662   4.646   4.507   3.150  0.1802  0.3832 -0.0380
 6009SOL    HW129663   4.709   4.450   3.193 -1.5488 -0.2596  1.6304
 6009SOL    HW229664   4.593   4.440   3.106  2.2688  0.2917 -2.4407
 6010SOL     OW29665   4.611   0.005   4.396 -0.0242  0.5935  0.2843
 6010SOL    HW129666   4.637   0.092   4.367  2.6978 -0.7447 -1.3799
 6010SOL    HW229667   4.572   4.716   4.312  0.4852 -0.2806  0.2967
 6011SOL     OW29668   1.811   3.183  16.236  0.0417 -0.2454  0.0201
 6011SOL    HW129669   1.808   3.208  16.144  1.3983 -2.3437 -0.5908
 6011SOL    HW229670   1.820   3.270  16.276 -1.5137 -0.6129  1.2057
 6012SOL     OW29671   4.524   0.096  14.917 -0.0150  0.2426 -1.1686
 6012SOL    HW129672   4.508   0.011  14.958 -1.1591 -0.4122 -2.9725
 6012SOL    HW229673   4.596   0.062  14.864  0.7547 -0.7247  0.4762
 6013SOL     OW29674   1.256   0.053   6.236 -0.6597 -0.3124 -0.1825
 6013SOL    HW129675   1.215   4.703   6.225 -0.6996 -0.0584 -1.9449
 6013SOL    HW229676   1.325   0.031   6.300  0.0431 -0.4570 -0.9924
 6014SOL     OW29677   2.972   0.970  17.040 -0.5897 -0.2767  0.1082
 6014SOL    HW129678   3.041   0.904  17.033 -0.8241 -0.6886  1.6683
 6014SOL    HW229679   2.901   0.932  16.988 -1.3479 -0.8698  1.5943
 6015SOL     OW29680   3.160   0.004   1.485  0.6294 -0.2837  0.0200
 6015SOL    HW129681   3.068   0.024   1.498  0.1652 -1.2593 -1.7631
 6015SOL    HW229682   3.197   4.728   1.573  2.6904 -0.1619 -0.8126
 6016SOL     OW29683   1.039   3.691   8.796 -0.2821  0.1871 -0.0438
 6016SOL    HW129684   0.979   3.668   8.725  1.0492  0.4232 -1.2649
 6016SOL    HW229685   1.051   3.604   8.832  0.2427  0.5518  0.6572
 6017SOL     OW29686   0.101   2.926   7.397  0.4403  0.4893  0.2460
 6017SOL    HW129687   0.058   2.937   7.482 -2.5414 -2.3568 -0.8647
 6017SOL    HW229688   0.040   2.870   7.348 -0.1653  0.0763  1.4674
 6018SOL     OW29689   2.368   2.332   4.065  0.2403 -0.4966  0.0925
 6018SOL    HW129690   2.306   2.368   4.001  1.2073  0.1966 -0.4554
 6018SOL    HW229691   2.406   2.413   4.098  4.1621 -1.3630 -2.3686
 6019SOL     OW29692   0.036   1.948   4.567  0.2348 -0.7726 -0.1513
 6019SOL    HW129693   0.042   1.978   4.477 -2.3852 -1.4860 -0.5411
 6019SOL    HW229694   0.117   1.901   4.589 -1.3810 -4.1638 -1.3543
 6020SOL     OW29695   1.232   1.309   5.484  0.0211 -0.7435  0.4959
 6020SOL    HW129696   1.306   1.269   5.440  0.4215  1.2783 -0.6408
 6020SOL    HW229697   1.215   1.390   5.436 -1.6952 -1.5284 -0.1974
 6021SOL     OW29698   3.011   3.602   8.933 -0.6052  0.0939  0.5120
 6021SOL    HW129699   2.938   3.663   8.938 -1.1707 -0.7189  2.6803
 6021SOL    HW229700   3.034   3.602   8.841  0.2645 -1.8403  0.7124
 6022SOL     OW29701   4.172   3.910   5.951  0.3734  0.1146  0.7257
 6022SOL    HW129702   4.203   3.987   5.998 -0.4733  1.8992 -1.6032
 6022SOL    HW229703   4.095   3.940   5.902 -0.4125 -1.3321  1.0770
 6023SOL     OW29704   2.548   0.427   6.198 -0.1815  0.1218  0.0131
 6023SOL    HW129705   2.618   0.492   6.204 -1.5496  1.6262 -0.3384
 6023SOL    HW229706   2.581   0.358   6.140 -2.5870 -2.2819  1.4963
 6024SOL     OW29707   1.762   2.815   4.260 -0.4491 -0.0090 -0.4331
 6024SOL    HW129708   1.760   2.899   4.215 -1.2932  0.9151  1.3341
 6024SOL    HW229709   1.772   2.855   4.346 -0.5892 -0.7837 -0.0543
 6025SOL     OW29710   4.416   4.618   8.647 -0.4876  0.0424 -0.0610
 6025SOL    HW129711   4.428   4.636   8.740 -0.7100 -1.8978  0.3448
 6025SOL    HW229712   4.413   4.706   8.609  0.9368  0.3684  0.5981
 6026SOL     OW29713   0.737   3.298   2.771  0.0940  0.5007 -0.1902
 6026SOL    HW129714   0.669   3.260   2.715  0.6862 -1.1831  0.2335
 6026SOL    HW229715   0.767   3.379   2.730 -0.2307  1.5620  1.6569
 6027SOL     OW29716   3.055   2.796   6.120 -0.0406 -0.6982 -0.3109
 6027SOL    HW129717   3.010   2.717   6.091  0.3771 -0.7358 -0.8657
 6027SOL    HW229718   3.112   2.751   6.182 -0.1134 -2.3381 -1.4278
 6028SOL     OW29719   1.216   0.093   7.337  0.1522  0.0868 -0.1139
 6028SOL    HW129720   1.206   0.186   7.357  1.4900  0.0537  0.6966
 6028SOL    HW229721   1.290   0.060   7.389 -1.9606 -1.1141  2.1330
 6029SOL     OW29722   0.450   1.008   9.704  0.0022  0.1506  0.3202
 6029SOL    HW129723   0.418   0.934   9.756  3.1208 -2.0474 -0.8905
 6029SOL    HW229724   0.531   1.029   9.751 -0.6571 -0.1477  1.5944
 6030SOL     OW29725   3.792   3.801  13.217 -0.1415 -0.6049  0.0403
 6030SOL    HW129726   3.714   3.856  13.212 -0.6716 -1.4698 -1.1621
 6030SOL    HW229727   3.799   3.782  13.124  1.0838  2.1749 -0.4362
 6031SOL     OW29728   3.283   2.838   8.871  0.0042 -0.3151  0.0870
 6031SOL    HW129729   3.215   2.900   8.900  0.1330  0.6186 -1.6110
 6031SOL    HW229730   3.355   2.900   8.862  0.3090 -0.6092  0.4715
 6032SOL     OW29731   4.004   2.050   1.710 -0.8905  0.3233  0.3672
 6032SOL    HW129732   4.065   1.977   1.721  0.4822  1.4195 -0.0732
 6032SOL    HW229733   3.970   2.062   1.799 -1.0789  0.2795  0.3010
 6033SOL     OW29734   1.178   4.724   1.604  0.7161 -0.2726  0.0592
 6033SOL    HW129735   1.090   0.016   1.626  1.3228  1.1305  0.7357
 6033SOL    HW229736   1.205   4.674   1.682  1.1529  2.2103  1.4834
 6034SOL     OW29737   1.259   4.175   3.266 -0.2194  0.4834  0.1271
 6034SOL    HW129738   1.254   4.261   3.223 -0.4335  0.5734  0.3363
 6034SOL    HW229739   1.206   4.128   3.202  3.2697 -0.6830 -1.9387
 6035SOL     OW29740   4.030   3.472  14.341  0.0716 -0.4227  0.0216
 6035SOL    HW129741   4.085   3.407  14.385 -1.0437 -0.3455  1.5247
 6035SOL    HW229742   4.096   3.506  14.282  0.3737  2.3850  1.9955
 6036SOL     OW29743   2.584   3.395   2.914  0.2649  0.6785  0.4569
 6036SOL    HW129744   2.536   3.339   2.854  0.2999 -0.2676  1.3040
 6036SOL    HW229745   2.626   3.457   2.854  0.0279  0.5943  0.2067
 6037SOL     OW29746   3.473   3.650   3.676  0.0066 -0.2687  0.0327
 6037SOL    HW129747   3.553   3.699   3.696 -0.0098  0.0385 -0.6798
 6037SOL    HW229748   3.413   3.683   3.742  0.0772 -2.1048  1.0214
 6038SOL     OW29749   3.465   0.140   2.917 -0.3383  0.1990 -0.1297
 6038SOL    HW129750   3.467   0.059   2.969  1.0575 -1.7435 -3.1692
 6038SOL    HW229751   3.433   0.195   2.989  1.8026 -0.1452  1.0923
 6039SOL     OW29752   1.707   0.758   9.005  0.2390 -0.0205 -0.1374
 6039SOL    HW129753   1.628   0.715   9.036  0.1993  1.0233  1.2641
 6039SOL    HW229754   1.762   0.683   8.983  0.8622  1.2519 -2.9175
 6040SOL     OW29755   2.598   1.873   3.048 -0.2157  0.6508  0.2552
 6040SOL    HW129756   2.680   1.909   3.082  1.0362 -0.5934 -1.4499
 6040SOL    HW229757   2.612   1.779   3.062  1.1462  0.8610  0.2750
 6041SOL     OW29758   4.250   4.151   6.024 -0.2689  0.3632  0.0675
 6041SOL    HW129759   4.195   4.158   6.102  1.5192  1.0116  1.2801
 6041SOL    HW229760   4.282   4.237   5.997  1.8460  0.2714  2.2677
 6042SOL     OW29761   4.138   2.755  13.133 -0.2630 -0.2259  0.5806
 6042SOL    HW129762   4.092   2.700  13.069 -0.4541 -1.5718  1.8600
 6042SOL    HW229763   4.221   2.765  13.085  0.6979  0.1183  2.3388
 6043SOL     OW29764   0.615   4.539   2.915  0.1838  0.3458 -0.7071
 6043SOL    HW129765   0.620   4.634   2.924  1.4455  0.1040  1.0322
 6043SOL    HW229766   0.545   4.526   2.979 -0.1837 -0.0756 -1.1893
 6044SOL     OW29767   3.290   0.839   9.891 -0.4095  0.0082  0.2507
 6044SOL    HW129768   3.200   0.871   9.888 -0.4277 -0.0636  0.0758
 6044SOL    HW229769   3.280   0.787   9.971 -0.2841  2.6845  1.9957
 6045SOL     OW29770   0.533   3.341   7.656 -0.1991  0.5056  0.0112
 6045SOL    HW129771   0.531   3.302   7.568 -1.3948 -2.2072  1.2493
 6045SOL    HW229772   0.446   3.312   7.684 -0.7625 -0.8442 -3.1499
 6046SOL     OW29773   4.589   2.809   7.989 -0.5392 -0.8000  0.0395
 6046SOL    HW129774   4.651   2.781   7.922  0.4524  0.3632  0.4601
 6046SOL    HW229775   4.593   2.735   8.050  0.9336  1.3964  2.6394
 6047SOL     OW29776   3.733   3.143   5.727 -0.3396  0.4588 -0.0743
 6047SOL    HW129777   3.802   3.147   5.662 -0.3367 -1.2430 -0.1872
 6047SOL    HW229778   3.657   3.143   5.668 -1.2705 -0.5701  1.1257
 6048SOL     OW29779   4.626   4.314   7.904  0.0362 -0.0378 -0.0625
 6048SOL    HW129780   4.605   4.263   7.982 -0.5928  0.9751  0.4348
 6048SOL    HW229781   4.715   4.341   7.928  0.7839 -0.9835 -1.7629
 6049SOL     OW29782   4.507   3.647  11.460  0.6247 -0.0160  0.2041
 6049SOL    HW129783   4.432   3.643  11.519  1.5150  0.0738  1.3655
 6049SOL    HW229784   4.459   3.703  11.399 -1.7003 -1.6081  0.5861
 6050SOL     OW29785   1.871   1.931   3.343 -0.0839  0.6585  0.1393
 6050SOL    HW129786   1.850   2.013   3.300 -3.0214 -0.0900  0.1170
 6050SOL    HW229787   1.832   1.863   3.287 -0.8921  1.7439 -0.5979
 6051SOL     OW29788   0.151   1.329   1.236 -0.3170 -0.0596 -0.3190
 6051SOL    HW129789   0.107   1.367   1.313  0.4374  3.2668 -1.5033
 6051SOL    HW229790   0.204   1.267   1.286 -0.5590 -0.7830 -0.9749
 6052SOL     OW29791   2.097   4.339   7.298  0.2593  0.2916  0.3173
 6052SOL    HW129792   2.059   4.353   7.211  0.8690  2.9373  0.4638
 6052SOL    HW229793   2.059   4.416   7.340 -0.2781 -0.6644  1.5653
 6053SOL     OW29794   2.817   2.107   7.638 -0.1403 -0.3408  0.5970
 6053SOL    HW129795   2.881   2.150   7.695 -1.0759  0.7335  0.8602
 6053SOL    HW229796   2.862   2.108   7.554  1.9770 -0.3825  1.7329
 6054SOL     OW29797   1.999   3.136   9.146  0.1224  0.5242  0.3163
 6054SOL    HW129798   2.054   3.173   9.215 -1.4462 -0.7741  2.2566
 6054SOL    HW229799   1.924   3.120   9.202  1.2048 -3.1259  0.7055
 6055SOL     OW29800   0.368   1.268   7.114  0.4075  0.2188  0.2120
 6055SOL    HW129801   0.299   1.311   7.164 -0.7143  1.3985 -2.3309
 6055SOL    HW229802   0.315   1.243   7.038  0.4721 -0.1513  0.2856
 6056SOL     OW29803   0.651   0.595   7.247  0.7591  0.0116  0.4806
 6056SOL    HW129804   0.596   0.529   7.205 -2.0743  1.1158  2.4680
 6056SOL    HW229805   0.612   0.615   7.332 -2.9938  1.1786 -1.5319
 6057SOL     OW29806   4.617   4.090   9.429  0.1288 -0.2100 -0.5301
 6057SOL    HW129807   4.702   4.113   9.393  1.6313 -2.2814  1.7087
 6057SOL    HW229808   4.608   4.161   9.491  1.7986  0.5559 -1.1567
 6058SOL     OW29809   4.046   2.883   3.055  0.2243 -0.3249  0.0331
 6058SOL    HW129810   4.004   2.886   2.969 -0.1326 -0.8192  0.1890
 6058SOL    HW229811   4.124   2.934   3.035  0.4831 -1.0293 -0.7166
 6059SOL     OW29812   1.595   2.012  12.137  0.7634 -0.2535  0.0349
 6059SOL    HW129813   1.569   2.010  12.229  1.3461  1.0854  0.2207
 6059SOL    HW229814   1.684   2.046  12.141  0.1012  1.2481  2.0814
 6060SOL     OW29815   0.085   2.568   3.211  0.1238  0.1005 -0.1927
 6060SOL    HW129816   0.012   2.574   3.149  1.3024 -0.4716 -1.6305
 6060SOL    HW229817   0.083   2.474   3.226  1.0797 -0.1486 -1.6370
 6061SOL     OW29818   0.527   0.061   9.235  0.0858  0.6688  0.3733
 6061SOL    HW129819   0.618   0.092   9.231  0.4540 -0.3290  0.9548
 6061SOL    HW229820   0.534   0.030   9.325  1.8927 -2.4144 -0.8381
 6062SOL     OW29821   2.356   0.530   9.411 -0.1179  0.4774 -0.3888
 6062SOL    HW129822   2.430   0.575   9.370  0.0544 -0.0739 -0.6847
 6062SOL    HW229823   2.365   0.436   9.394 -1.1815 -0.0523  1.9847
 6063SOL     OW29824   1.941   0.404   1.306  0.1654 -0.4783 -0.5123
 6063SOL    HW129825   1.872   0.468   1.288  0.2463  0.8324  3.6750
 6063SOL    HW229826   1.884   0.349   1.360  1.5350 -0.4045  1.0133
 6064SOL     OW29827   4.437   1.955   6.172 -0.1559  0.3809 -0.0306
 6064SOL    HW129828   4.501   2.021   6.199  0.4458 -0.1756 -0.0964
 6064SOL    HW229829   4.451   1.966   6.078 -0.2768  1.0241  0.0250
 6065SOL     OW29830   1.831   3.778   4.191 -0.7838  0.2172  0.0559
 6065SOL    HW129831   1.754   3.785   4.247 -0.7052 -0.9921  0.3260
 6065SOL    HW229832   1.868   3.695   4.222 -1.3205  0.2694  0.8244
 6066SOL     OW29833   1.696   3.386  13.932 -0.0188  0.0474  0.1000
 6066SOL    HW129834   1.787   3.357  13.926 -0.3818 -0.7843 -1.4313
 6066SOL    HW229835   1.652   3.315  13.978 -0.6128  1.6799  2.0456
 6067SOL     OW29836   3.294   4.520   5.629 -0.1865 -0.6777  0.0258
 6067SOL    HW129837   3.211   4.565   5.614  1.0157  1.0557 -1.4839
 6067SOL    HW229838   3.342   4.546   5.551  0.9274 -1.5567  0.4021
 6068SOL     OW29839   4.437   2.006   8.057 -0.2906 -0.2460 -0.4935
 6068SOL    HW129840   4.518   1.980   8.101 -0.9601 -0.3138  0.7042
 6068SOL    HW229841   4.368   1.949   8.091  0.8321 -1.8284 -0.8667
 6069SOL     OW29842   2.111   1.238   9.036 -0.1894  0.4568 -0.0653
 6069SOL    HW129843   2.038   1.234   9.098  1.6913 -0.0583  2.1434
 6069SOL    HW229844   2.177   1.200   9.094  0.3529  0.9440 -0.3638
 6070SOL     OW29845   2.576   0.187   8.772 -0.1582  0.1038 -0.2836
 6070SOL    HW129846   2.626   0.268   8.766  0.2825 -0.2808 -1.7315
 6070SOL    HW229847   2.542   0.191   8.861  1.9424  0.4310  0.5162
 6071SOL     OW29848   3.157   1.918   1.893 -0.3233  0.5747  0.1663
 6071SOL    HW129849   3.079   1.910   1.839  0.5317  2.2888 -1.3069
 6071SOL    HW229850   3.144   2.011   1.907 -1.7259  0.6151 -1.4357
 6072SOL     OW29851   2.233   0.890   3.073 -0.0925  0.2635  0.1630
 6072SOL    HW129852   2.203   0.977   3.048  0.6403  0.6849  0.7279
 6072SOL    HW229853   2.291   0.903   3.148 -2.4256  2.6568  1.5417
 6073SOL     OW29854   3.639   4.635   2.325 -0.4798  0.0143 -0.5786
 6073SOL    HW129855   3.653   4.677   2.241 -0.3611  1.2893  0.0762
 6073SOL    HW229856   3.724   4.651   2.367 -0.6387  2.4361 -1.2082
 6074SOL     OW29857   4.260   1.827   1.379 -0.3746 -0.2504 -0.2628
 6074SOL    HW129858   4.167   1.846   1.372 -0.8915 -2.6980 -0.0356
 6074SOL    HW229859   4.286   1.889   1.310 -0.0394 -0.6940 -0.5371
 6075SOL     OW29860   1.272   3.049   7.564  0.0632 -0.3855  0.5494
 6075SOL    HW129861   1.317   3.075   7.645 -0.1737  2.8033 -0.3674
 6075SOL    HW229862   1.186   3.046   7.606 -0.3428 -1.2988 -0.3523
 6076SOL     OW29863   2.867   1.379   4.271  0.2374  0.0621  0.1983
 6076SOL    HW129864   2.821   1.428   4.339  0.3237 -2.1583  1.8576
 6076SOL    HW229865   2.921   1.455   4.250  1.1538 -0.5704  0.2642
 6077SOL     OW29866   1.751   2.827   6.949 -0.6979 -0.3013  0.0410
 6077SOL    HW129867   1.767   2.842   7.042  0.7930  0.2098 -0.3009
 6077SOL    HW229868   1.662   2.791   6.957  0.3585 -3.2822 -1.6344
 6078SOL     OW29869   3.072   2.074   5.098 -0.2151  0.2103  0.2484
 6078SOL    HW129870   3.145   2.024   5.136  1.1634  0.8785 -1.5408
 6078SOL    HW229871   3.037   1.993   5.063 -0.6989 -0.1710  1.6123
 6079SOL     OW29872   2.339   2.373   2.505  0.0231 -0.2257 -0.1365
 6079SOL    HW129873   2.289   2.294   2.482 -1.2979  1.0823 -1.7693
 6079SOL    HW229874   2.428   2.340   2.510  0.4805  0.9604 -0.5015
 6080SOL     OW29875   1.479   0.649   2.689  0.1076  0.1354  0.4669
 6080SOL    HW129876   1.422   0.721   2.716 -0.7120 -0.6708  0.9007
 6080SOL    HW229877   1.527   0.689   2.617 -2.0912  1.2981 -0.3111
 6081SOL     OW29878   2.699   1.333   6.894  0.4351 -0.3524  0.6841
 6081SOL    HW129879   2.612   1.309   6.862  1.0924 -0.3947 -1.1027
 6081SOL    HW229880   2.743   1.259   6.851  1.3401  0.8358 -0.4422
 6082SOL     OW29881   4.512   3.368   3.521 -0.3902 -0.3578  0.1338
 6082SOL    HW129882   4.532   3.462   3.514 -3.8938  0.3758  0.3421
 6082SOL    HW229883   4.417   3.369   3.520 -0.3956  2.1003  1.7915
 6083SOL     OW29884   2.793   3.606   8.108 -0.0278 -0.1416  0.4820
 6083SOL    HW129885   2.743   3.662   8.168 -0.4270 -0.9671  0.9166
 6083SOL    HW229886   2.822   3.669   8.041 -0.5843 -0.5422 -0.1445
 6084SOL     OW29887   1.152   2.179   9.118  0.0600  0.0047  0.3336
 6084SOL    HW129888   1.229   2.147   9.072 -1.9872 -2.1965 -1.5979
 6084SOL    HW229889   1.187   2.234   9.187  0.6458  0.6219 -0.4539
 6085SOL     OW29890   2.445   0.095   2.378  0.2916 -0.2991  0.1973
 6085SOL    HW129891   2.503   0.025   2.408 -1.3390 -2.6472 -2.1468
 6085SOL    HW229892   2.434   0.080   2.284 -0.8084 -3.1059  0.7434
 6086SOL     OW29893   0.643   3.257   6.725  0.1522 -0.5590  0.6922
 6086SOL    HW129894   0.585   3.209   6.783  1.6601 -0.4900  2.2573
 6086SOL    HW229895   0.716   3.195   6.729 -0.5186 -1.1383  3.4239
 6087SOL     OW29896   4.255   2.036   4.954 -0.3383  0.2830 -0.8205
 6087SOL    HW129897   4.332   1.979   4.947 -0.2937 -0.1611  3.2593
 6087SOL    HW229898   4.281   2.080   5.035  0.3591  2.0145 -2.0022
 6088SOL     OW29899   2.278   2.394   7.046  0.4832 -0.0985  0.3563
 6088SOL    HW129900   2.367   2.387   7.011  0.4533 -1.1357  0.4700
 6088SOL    HW229901   2.284   2.487   7.065 -0.3068  0.8200 -3.7799
 6089SOL     OW29902   0.200   1.222  16.034 -0.2460 -0.2625  0.3573
 6089SOL    HW129903   0.144   1.287  15.992 -0.7246  0.1713  1.6612
 6089SOL    HW229904   0.282   1.237  15.987 -0.5046 -0.6915 -0.2319
 6090SOL     OW29905   2.464   0.129  11.138 -0.4860 -0.6530 -0.2504
 6090SOL    HW129906   2.481   0.223  11.148 -1.4224 -0.5752  0.5580
 6090SOL    HW229907   2.548   0.110  11.096  0.5672  3.2451  0.1017
 6091SOL     OW29908   3.226   1.907   0.071 -0.0369  0.0659 -0.0740
 6091SOL    HW129909   3.278   1.969   0.020 -1.8739  0.3235 -1.6169
 6091SOL    HW229910   3.169   1.972   0.111 -0.6566 -1.7468  2.0085
 6092SOL     OW29911   2.288   4.101   4.165 -0.2347  0.3072  0.1938
 6092SOL    HW129912   2.345   4.059   4.100 -0.8737  0.7409 -0.6499
 6092SOL    HW229913   2.309   4.194   4.153 -0.3326  0.1368 -1.2887
 6093SOL     OW29914   4.062   3.118   3.566  0.6721  0.0396 -0.0323
 6093SOL    HW129915   4.020   3.080   3.644  0.3188  0.6952  0.0964
 6093SOL    HW229916   4.091   3.038   3.521  3.5591  0.6416  0.7929
 6094SOL     OW29917   3.382   4.630   8.090  0.7268 -0.0689  0.4049
 6094SOL    HW129918   3.427   4.615   8.008 -0.4338 -2.7767  0.2468
 6094SOL    HW229919   3.338   4.714   8.075 -1.2100 -1.7880 -3.6391
 6095SOL     OW29920   3.870   3.610   2.000  0.1078  0.0180 -0.2200
 6095SOL    HW129921   3.801   3.620   1.934  0.0029  0.3883 -0.0540
 6095SOL    HW229922   3.939   3.605   1.934  1.0400 -1.8569  0.9168
 6096SOL     OW29923   1.159   1.320  14.479  0.2057 -0.2134 -0.4334
 6096SOL    HW129924   1.180   1.405  14.518  2.1079 -0.8810  0.0077
 6096SOL    HW229925   1.222   1.338  14.409  0.8650 -0.2134  0.1542
 6097SOL     OW29926   4.720   3.771   4.069 -0.3984 -0.2961 -0.1117
 6097SOL    HW129927   4.637   3.743   4.032 -1.5501  2.1959  0.5835
 6097SOL    HW229928   4.729   3.703   4.136  0.0720 -0.3489 -0.2277
 6098SOL     OW29929   2.596   1.130  13.301  0.1773  0.5218 -0.3235
 6098SOL    HW129930   2.535   1.109  13.230  2.3806 -0.4366 -1.9369
 6098SOL    HW229931   2.556   1.102  13.384 -0.3044  1.8277 -0.1101
 6099SOL     OW29932   2.065   0.346   6.788  0.3021 -0.1141 -0.6967
 6099SOL    HW129933   2.135   0.396   6.745  1.9105 -2.1625 -0.4801
 6099SOL    HW229934   2.107   0.326   6.872 -1.0677 -0.1111 -0.0233
 6100SOL     OW29935   1.550   0.263  13.297 -0.3895  0.0369  0.1053
 6100SOL    HW129936   1.577   0.175  13.272 -0.9611 -0.0923 -0.0724
 6100SOL    HW229937   1.521   0.302  13.215 -3.2712 -1.0513  0.6035
 6101SOL     OW29938   1.350   3.781  15.106  0.0606 -0.2215  0.8553
 6101SOL    HW129939   1.440   3.794  15.077 -0.0136  0.3273  0.8644
 6101SOL    HW229940   1.335   3.875  15.094 -0.3977 -0.6680 -1.9230
 6102SOL     OW29941   1.689   2.836   1.044  0.1629  0.3646  0.1409
 6102SOL    HW129942   1.643   2.764   1.086  3.1569 -0.7557  1.5541
 6102SOL    HW229943   1.767   2.856   1.097  1.0470  1.2418 -1.4696
 6103SOL     OW29944   3.963   1.733   9.877  0.0980  0.0083  0.1977
 6103SOL    HW129945   4.006   1.752   9.794  2.7069 -2.3987  0.9965
 6103SOL    HW229946   4.017   1.786   9.935 -0.8998  2.3081 -0.9834
 6104SOL     OW29947   2.980   1.235  17.130  0.3700  0.2107 -0.3343
 6104SOL    HW129948   3.015   1.147  17.123  3.2400  1.3489 -0.3499
 6104SOL    HW229949   2.892   1.229  17.094  0.7232 -1.1611 -0.9355
 6105SOL     OW29950   0.234   1.980   8.808  0.5799 -0.5436 -0.3481
 6105SOL    HW129951   0.320   1.938   8.816  0.4323 -0.8526 -0.4006
 6105SOL    HW229952   0.196   1.909   8.757  0.5616 -1.4046  0.8594
 6106SOL     OW29953   2.501   2.110  10.539 -0.0288  0.3458  0.0835
 6106SOL    HW129954   2.544   2.196  10.533 -1.3824  1.0427  0.2606
 6106SOL    HW229955   2.423   2.114  10.484 -0.3714 -1.6392  0.4402
 6107SOL     OW29956   1.863   1.105  14.864 -0.2132 -0.1883 -0.5288
 6107SOL    HW129957   1.952   1.097  14.829 -0.0383 -2.8079  0.4556
 6107SOL    HW229958   1.879   1.150  14.946 -0.8665 -0.5954 -0.1734
 6108SOL     OW29959   4.457   0.448   1.582 -0.3134  0.6226 -0.1879
 6108SOL    HW129960   4.483   0.452   1.674 -0.4876 -0.1121 -0.1040
 6108SOL    HW229961   4.420   0.536   1.575 -1.5767 -0.0068 -1.4252
 6109SOL     OW29962   0.640   4.445   3.386 -0.8472  0.4583  0.2110
 6109SOL    HW129963   0.636   4.521   3.445  0.1719  0.4063  0.3496
 6109SOL    HW229964   0.718   4.401   3.420 -0.7960  0.7081  0.4191
 6110SOL     OW29965   0.182   3.111  11.626  0.3575  0.1579  0.7073
 6110SOL    HW129966   0.114   3.057  11.586  0.6648  1.5068 -1.6845
 6110SOL    HW229967   0.203   3.165  11.549 -2.2597  0.5423  0.2919
 6111SOL     OW29968   0.608   3.284   7.906 -0.2313 -0.4413  0.4177
 6111SOL    HW129969   0.569   3.369   7.930 -0.7243 -1.1520  2.1665
 6111SOL    HW229970   0.606   3.299   7.812 -1.4030  0.2395  0.5401
 6112SOL     OW29971   0.976   4.345   4.850 -0.0050 -0.3837 -0.3533
 6112SOL    HW129972   1.013   4.323   4.764  0.9360  1.3044 -0.3766
 6112SOL    HW229973   1.046   4.401   4.883  0.5129 -0.8386 -0.6611
 6113SOL     OW29974   2.815   3.788   1.315  0.4673 -0.2267 -0.2937
 6113SOL    HW129975   2.731   3.775   1.271 -0.8014 -0.5136  2.2321
 6113SOL    HW229976   2.817   3.882   1.328 -0.9502 -0.3810  1.1055
 6114SOL     OW29977   1.827   4.614  14.495 -0.2692  0.5033 -0.4133
 6114SOL    HW129978   1.759   4.676  14.469  0.5173  0.6675 -2.0435
 6114SOL    HW229979   1.793   4.534  14.455 -0.2215 -0.5276  1.6228
 6115SOL     OW29980   4.676   1.368  11.745 -0.0485 -0.2422  0.2152
 6115SOL    HW129981   4.635   1.289  11.709 -1.2741  0.3840  0.2148
 6115SOL    HW229982   4.598   1.399  11.792 -0.4662  1.1160 -1.3772
 6116SOL     OW29983   2.405   0.490   0.640  0.0064 -0.6433 -0.6582
 6116SOL    HW129984   2.378   0.413   0.590  0.4095  0.1510 -2.1069
 6116SOL    HW229985   2.499   0.474   0.639  0.2505  0.8063 -0.5912
 6117SOL     OW29986   3.305   4.045   9.195  0.0490 -0.4425  0.0516
 6117SOL    HW129987   3.235   3.979   9.195  0.4774 -0.8958  0.1200
 6117SOL    HW229988   3.367   4.028   9.266 -0.8048 -1.9183  0.4446
 6118SOL     OW29989   1.579   2.563   3.817  0.1608  0.1992 -0.1681
 6118SOL    HW129990   1.556   2.592   3.728 -0.0611  1.0378  0.1621
 6118SOL    HW229991   1.614   2.640   3.861 -1.5004  0.1819  1.1636
 6119SOL     OW29992   4.250   3.079  14.255  0.1635 -0.4327 -0.3423
 6119SOL    HW129993   4.241   3.077  14.159 -0.9019 -1.1718 -0.2305
 6119SOL    HW229994   4.296   2.996  14.272  0.0056 -0.5020 -0.2491
 6120SOL     OW29995   4.138   2.605   4.604 -0.2545 -0.2854  0.5995
 6120SOL    HW129996   4.154   2.564   4.689  0.5156  0.7554  0.9527
 6120SOL    HW229997   4.229   2.624   4.581 -1.3183  1.4891 -2.1470
 6121SOL     OW29998   4.709   2.151   5.671 -0.2323 -0.1081  0.0124
 6121SOL    HW129999   4.660   2.154   5.590  1.2792  0.4414 -0.8769
 6121SOL    HW230000   4.681   2.067   5.706  2.1832  0.6475  3.8241
 6122SOL     OW30001   1.559   4.705   8.323  0.7974  0.1157  0.6925
 6122SOL    HW130002   1.619   4.632   8.306 -0.3072 -0.3005 -1.3872
 6122SOL    HW230003   1.574   0.020   8.243 -1.1669  0.0611  0.2991
 6123SOL     OW30004   4.115   2.617  13.633 -0.0330  0.0849 -0.2162
 6123SOL    HW130005   4.109   2.629  13.538 -0.7116  0.4626 -0.1283
 6123SOL    HW230006   4.103   2.522  13.627  1.1273 -0.0355 -0.6143
 6124SOL     OW30007   0.066   0.742   1.118 -0.1885 -0.1116  0.2858
 6124SOL    HW130008   0.122   0.813   1.148 -0.6403  0.9702 -1.4551
 6124SOL    HW230009   0.122   0.667   1.139 -1.3152 -0.4149  2.2784
 6125SOL     OW30010   0.003   4.055  14.366 -0.2856 -0.1199 -0.1949
 6125SOL    HW130011   0.080   4.103  14.336  0.7547 -1.2719  0.6390
 6125SOL    HW230012   4.668   4.118  14.358  0.6750  0.9036 -0.5466
 6126SOL     OW30013   3.572   0.205   8.049  0.4165  0.4781  0.2329
 6126SOL    HW130014   3.482   0.206   8.017  0.3200  0.6271  0.5035
 6126SOL    HW230015   3.619   0.165   7.976 -0.5474 -0.9436  0.4111
 6127SOL     OW30016   1.862   4.482   5.486  0.3668  0.5598  0.2864
 6127SOL    HW130017   1.813   4.427   5.425  0.8073  0.9872 -0.4481
 6127SOL    HW230018   1.875   4.565   5.440  0.1542  1.3164  1.5703
 6128SOL     OW30019   0.176   1.062   4.517 -0.3878 -0.0497 -0.2503
 6128SOL    HW130020   0.218   0.979   4.497  0.6524  0.1108  1.3046
 6128SOL    HW230021   0.093   1.035   4.558  0.3159  1.1890  2.0129
 6129SOL     OW30022   0.448   1.238  11.741 -0.2357  0.6799  0.6089
 6129SOL    HW130023   0.465   1.154  11.783  0.9088 -0.3992 -2.0768
 6129SOL    HW230024   0.509   1.243  11.668  0.9481 -2.1803  1.4062
 6130SOL     OW30025   0.990   0.196   2.258  0.2052 -0.2025 -1.0258
 6130SOL    HW130026   1.084   0.205   2.271  0.3693  0.7722 -2.9438
 6130SOL    HW230027   0.982   0.112   2.303  0.6161  0.4953  0.3633
 6131SOL     OW30028   4.576   0.199   7.201  0.2237 -0.0079 -0.3198
 6131SOL    HW130029   4.501   0.190   7.260  0.0202  1.2505 -0.3854
 6131SOL    HW230030   4.519   0.235   7.133 -1.6406  0.0868  1.2973
 6132SOL     OW30031   3.110   1.526  17.334  0.8088  0.1198 -0.2498
 6132SOL    HW130032   3.135   1.590  17.400 -0.8026  0.1518  0.3199
 6132SOL    HW230033   3.146   1.448  17.377 -4.3600 -1.9777  0.2520
 6133SOL     OW30034   4.693   4.397  13.020 -0.0303 -0.3772 -0.5862
 6133SOL    HW130035   4.637   4.407  13.097  1.7419  0.9914  0.5323
 6133SOL    HW230036   0.033   4.447  13.051 -0.2906 -0.1489 -0.3179
 6134SOL     OW30037   2.503   2.449   7.650 -0.6215 -0.6383  0.0758
 6134SOL    HW130038   2.539   2.534   7.625 -0.5277 -1.1179 -1.3807
 6134SOL    HW230039   2.559   2.430   7.725  1.3350  1.0725 -0.9401
 6135SOL     OW30040   0.210   2.655   6.958  0.0556 -0.2611 -0.3112
 6135SOL    HW130041   0.247   2.569   6.936  2.7385  0.2105  2.4281
 6135SOL    HW230042   0.284   2.693   7.005 -0.6996 -0.1531  0.8001
 6136SOL     OW30043   0.769   1.605  12.166 -0.1400  0.9094 -0.2218
 6136SOL    HW130044   0.767   1.538  12.097 -1.4816  0.8024 -0.0736
 6136SOL    HW230045   0.812   1.560  12.240 -0.0849  0.6499 -0.4106
 6137SOL     OW30046   0.768   2.274   0.159  0.1706  0.0192 -0.0625
 6137SOL    HW130047   0.692   2.236   0.202  1.4367 -1.3422  0.9857
 6137SOL    HW230048   0.735   2.298   0.073  0.9765 -2.3230 -1.0362
 6138SOL     OW30049   0.884   3.358   5.443  0.3679  0.0176 -0.6079
 6138SOL    HW130050   0.903   3.271   5.408  0.9301 -0.2741  0.4384
 6138SOL    HW230051   0.804   3.386   5.397  1.0305  0.6280 -1.4028
 6139SOL     OW30052   4.438   1.525  17.249  0.1331  0.0599 -0.3555
 6139SOL    HW130053   4.380   1.571  17.310 -0.0681  0.2514 -0.6904
 6139SOL    HW230054   4.475   1.449  17.293  0.4647 -0.7137 -1.9593
 6140SOL     OW30055   3.865   2.524  16.352  0.0075 -0.1054  0.0469
 6140SOL    HW130056   3.953   2.487  16.363  0.2891  0.5804  0.1421
 6140SOL    HW230057   3.833   2.518  16.442  0.9536  0.3673  0.4173
 6141SOL     OW30058   2.222   2.127  16.542  0.5094  0.7264 -0.3299
 6141SOL    HW130059   2.263   2.144  16.457 -0.5443  1.2388 -0.7331
 6141SOL    HW230060   2.277   2.189  16.589  0.8965 -0.1270  0.3402
 6142SOL     OW30061   1.395   2.957  11.393 -0.1198 -1.1600 -0.5791
 6142SOL    HW130062   1.430   2.974  11.305  0.4872  0.9325  0.0655
 6142SOL    HW230063   1.307   2.989  11.374  0.1775  0.2972  0.5160
 6143SOL     OW30064   0.957   3.150   3.441  0.5245  0.3371  0.3623
 6143SOL    HW130065   0.970   3.088   3.513 -1.4062 -0.7035 -0.1722
 6143SOL    HW230066   1.010   3.226   3.464  3.1343 -1.0150 -1.2913
 6144SOL     OW30067   1.515   3.978   7.343  0.1104  0.2232 -0.4419
 6144SOL    HW130068   1.569   3.899   7.341 -0.9517 -0.5115 -0.4506
 6144SOL    HW230069   1.433   3.933   7.366 -1.0792  1.2670 -2.6060
 6145SOL     OW30070   4.716   1.666  17.280 -0.7964 -0.3447 -0.3327
 6145SOL    HW130071   4.678   1.645  17.366 -1.4400 -1.0151 -0.7760
 6145SOL    HW230072   0.022   1.584  17.253 -0.0623 -0.2931  0.6348
 6146SOL     OW30073   1.929   1.749  13.035  0.0870  0.1687 -0.4395
 6146SOL    HW130074   2.021   1.726  13.044 -0.0702 -0.3503 -0.1854
 6146SOL    HW230075   1.934   1.845  13.035 -0.2222  0.1878 -0.8569
 6147SOL     OW30076   1.215   3.287   5.449 -0.7259  0.1124 -0.8303
 6147SOL    HW130077   1.132   3.328   5.424 -2.0919 -1.5433  0.9676
 6147SOL    HW230078   1.268   3.271   5.371  2.1647  5.7704 -0.0300
 6148SOL     OW30079   0.947   4.732   7.455  0.6262  0.0681 -0.3345
 6148SOL    HW130080   0.934   0.050   7.377  0.6655 -1.2994 -1.2872
 6148SOL    HW230081   1.042   0.005   7.463  0.6706 -0.6455 -0.0752
 6149SOL     OW30082   3.047   2.393   9.821 -0.0891 -0.1772 -0.1971
 6149SOL    HW130083   2.975   2.437   9.867 -0.7718 -1.7587  0.2567
 6149SOL    HW230084   3.040   2.437   9.736  2.7089 -0.7512 -0.7343
 6150SOL     OW30085   3.719   2.526   6.943 -0.7326  0.8360  0.5589
 6150SOL    HW130086   3.673   2.514   7.027  0.2241 -1.0727  0.8235
 6150SOL    HW230087   3.648   2.545   6.882 -1.5239 -0.1394  1.1652
 6151SOL     OW30088   3.768   4.335   1.822 -0.1563  0.4244 -0.2110
 6151SOL    HW130089   3.746   4.398   1.890  0.7166 -0.2965  0.7316
 6151SOL    HW230090   3.786   4.253   1.867  0.7679 -0.5147 -2.2768
 6152SOL     OW30091   3.980   3.068   4.609 -0.5056 -0.4214  0.0154
 6152SOL    HW130092   3.887   3.079   4.630 -0.3383  1.1757 -0.0813
 6152SOL    HW230093   4.006   3.041   4.697 -1.5113  2.2310  1.1241
 6153SOL     OW30094   2.208   3.024   6.645 -0.2095 -0.1230  0.5888
 6153SOL    HW130095   2.167   3.090   6.589 -2.5365 -1.4088  0.7668
 6153SOL    HW230096   2.167   2.944   6.611  1.2624 -0.2027 -0.9627
 6154SOL     OW30097   3.385   1.199   7.631 -0.3302 -0.2550  0.3332
 6154SOL    HW130098   3.450   1.247   7.682  0.0853  1.7174 -2.0568
 6154SOL    HW230099   3.343   1.139   7.692 -2.0220 -0.0833 -0.6437
 6155SOL     OW30100   3.197   3.804  13.999  0.2524 -0.5192  0.0496
 6155SOL    HW130101   3.267   3.747  14.033 -1.3118 -1.8988  0.9330
 6155SOL    HW230102   3.156   3.858  14.066 -0.1168  0.3007 -0.8366
 6156SOL     OW30103   2.867   2.026   1.997 -0.2126 -0.2066 -0.2751
 6156SOL    HW130104   2.806   2.057   1.929  0.5641 -0.1110 -0.9238
 6156SOL    HW230105   2.803   1.966   2.035 -0.8328 -0.2277 -1.3333
 6157SOL     OW30106   0.034   4.058   5.743 -0.1531  0.4446 -0.2934
 6157SOL    HW130107   4.714   4.135   5.733 -0.2589  0.5498  1.1008
 6157SOL    HW230108   0.103   4.103   5.792  0.7790 -1.5478  0.2263
 6158SOL     OW30109   4.183   2.403   2.766 -0.0700 -0.0818 -0.4544
 6158SOL    HW130110   4.139   2.459   2.831  1.5843 -1.9268  2.2784
 6158SOL    HW230111   4.164   2.457   2.689 -2.2720  0.4833  0.4732
 6159SOL     OW30112   2.745   2.926   6.990  0.4198  0.0311 -0.5842
 6159SOL    HW130113   2.809   2.920   7.061  0.4808 -0.1152 -0.6495
 6159SOL    HW230114   2.680   2.982   7.031 -1.9356 -2.1643 -1.2732
 6160SOL     OW30115   2.827   1.745   6.006 -0.1125 -0.3302 -0.0137
 6160SOL    HW130116   2.827   1.675   5.941 -1.6029  1.9201 -2.4177
 6160SOL    HW230117   2.901   1.803   5.985 -0.9016  0.9186  0.6558
 6161SOL     OW30118   4.471   3.453  16.814 -0.2981  0.7768 -0.4013
 6161SOL    HW130119   4.458   3.505  16.735  0.2860 -1.0861 -1.7213
 6161SOL    HW230120   4.493   3.367  16.777  4.0780  0.5270  2.8352
 6162SOL     OW30121   1.370   4.037  15.092  0.2631  0.9067  0.4789
 6162SOL    HW130122   1.348   4.119  15.137  2.0318  1.7811 -0.2408
 6162SOL    HW230123   1.452   4.059  15.048  1.4397  1.1947  2.8100
 6163SOL     OW30124   2.564   2.630  17.332  0.0566 -0.5459  0.8861
 6163SOL    HW130125   2.536   2.658  17.245  0.5244 -1.0506  0.5708
 6163SOL    HW230126   2.481   2.599  17.367 -0.7252  0.6197  0.0605
 6164SOL     OW30127   1.156   3.821   3.779  0.0096  0.4189  0.2783
 6164SOL    HW130128   1.247   3.794   3.767  0.8011  2.9277  0.5576
 6164SOL    HW230129   1.116   3.804   3.694  1.2352  2.3373 -0.6926
 6165SOL     OW30130   4.286   4.216   9.630  0.5565  0.1903 -0.2378
 6165SOL    HW130131   4.265   4.142   9.687 -1.0988  0.2732 -0.7428
 6165SOL    HW230132   4.353   4.265   9.677  0.8982 -0.7490  0.2445
 6166SOL     OW30133   1.253   4.437   2.418  0.6729  0.3997  0.2815
 6166SOL    HW130134   1.293   4.511   2.371  3.4054 -2.0917 -1.2925
 6166SOL    HW230135   1.165   4.444   2.381  0.9482  1.5380 -0.1740
 6167SOL     OW30136   4.629   4.144  16.501 -0.1436 -0.3694 -0.6139
 6167SOL    HW130137   4.576   4.078  16.545  0.2867  0.0401  0.5112
 6167SOL    HW230138   4.572   4.215  16.531  0.4767 -0.3356  0.4772
 6168SOL     OW30139   0.768   0.905  10.788  0.1207 -0.6734  0.8218
 6168SOL    HW130140   0.858   0.874  10.785  0.0188 -0.7705 -0.8724
 6168SOL    HW230141   0.730   0.850  10.857 -1.7534  0.5564  0.7810
 6169SOL     OW30142   3.903   0.719   1.274 -0.0455  0.2678 -0.3569
 6169SOL    HW130143   3.822   0.676   1.300 -1.5673  2.2746 -1.7615
 6169SOL    HW230144   3.906   0.799   1.326  2.3200 -0.2853  0.3183
 6170SOL     OW30145   0.202   3.987   7.355  0.0556  0.1392  0.5354
 6170SOL    HW130146   0.278   3.941   7.389  0.6586  0.7485  0.0101
 6170SOL    HW230147   0.132   3.922   7.353 -0.1199  0.3562 -0.5475
 6171SOL     OW30148   4.340   3.886   8.298 -0.3259 -0.3815  0.3342
 6171SOL    HW130149   4.353   3.971   8.339 -0.4466 -0.7783  1.1792
 6171SOL    HW230150   4.275   3.907   8.231 -1.0435  1.0763  1.5046
 6172SOL     OW30151   3.297   1.470  13.528  0.5925  0.5924 -0.4586
 6172SOL    HW130152   3.291   1.564  13.513 -2.8705  0.5596  0.6370
 6172SOL    HW230153   3.241   1.457  13.604  1.6414  0.4591  0.2830
 6173SOL     OW30154   2.763   2.421   5.503 -0.0178 -0.0019  0.0699
 6173SOL    HW130155   2.717   2.419   5.586 -1.8832 -3.0361 -1.0266
 6173SOL    HW230156   2.694   2.387   5.447  0.0694 -1.0213  0.5870
 6174SOL     OW30157   2.033   0.720   2.487  0.5964 -0.0371  0.5306
 6174SOL    HW130158   2.096   0.788   2.513 -1.2695  2.4509 -1.4660
 6174SOL    HW230159   1.946   0.758   2.491  0.4268 -0.9401  4.8325
 6175SOL     OW30160   3.026   4.683  14.073  0.2491  0.9148  0.0910
 6175SOL    HW130161   2.982   4.694  13.989  0.5027 -0.6451 -0.2502
 6175SOL    HW230162   3.093   0.016  14.071  2.6995 -1.4724  0.5321
 6176SOL     OW30163   2.159   3.879  10.144  0.1249  0.5669  0.0711
 6176SOL    HW130164   2.196   3.791  10.142 -0.2549  0.4023  0.2329
 6176SOL    HW230165   2.083   3.870  10.202 -0.2226  1.5593 -0.2261
 6177SOL     OW30166   3.239   1.106   5.678  0.5421 -0.3502  0.0976
 6177SOL    HW130167   3.193   1.032   5.638 -0.0326 -0.0363  0.1736
 6177SOL    HW230168   3.328   1.073   5.669  0.6577 -0.0904  0.2971
 6178SOL     OW30169   0.800   3.870   8.862  0.0734  0.3071 -0.3388
 6178SOL    HW130170   0.758   3.797   8.816 -0.8173  0.1578  0.7163
 6178SOL    HW230171   0.741   3.871   8.938 -0.4924  1.3617 -0.7816
 6179SOL     OW30172   4.296   0.684   3.792 -0.3529  1.1552 -0.0088
 6179SOL    HW130173   4.203   0.706   3.792 -0.5229  0.4326  1.2116
 6179SOL    HW230174   4.339   0.750   3.848  0.4749 -0.3019  1.0780
 6180SOL     OW30175   3.493   0.607   6.072 -0.3736 -0.3778 -0.1699
 6180SOL    HW130176   3.487   0.513   6.089  2.2449 -0.1076  2.3474
 6180SOL    HW230177   3.452   0.609   5.986  0.4619 -1.8143 -0.6084
 6181SOL     OW30178   2.207   1.643   3.211  0.0472  0.2383 -0.0311
 6181SOL    HW130179   2.139   1.610   3.270 -0.5556 -1.3030 -1.6039
 6181SOL    HW230180   2.162   1.693   3.143  1.2104  0.9561 -0.2740
 6182SOL     OW30181   3.565   3.970  10.146  0.0979  0.5208  0.4214
 6182SOL    HW130182   3.486   3.921  10.121  0.6583  0.3114 -0.9575
 6182SOL    HW230183   3.624   3.895  10.150  0.1495  0.5660  0.5114
 6183SOL     OW30184   1.392   4.629   2.254 -0.4317  0.4361  0.2922
 6183SOL    HW130185   1.383   4.608   2.161 -0.0333 -2.0026  0.8196
 6183SOL    HW230186   1.474   4.677   2.263 -0.1031 -0.5777  2.6634
 6184SOL     OW30187   3.079   1.764  11.652  0.1371 -0.3854 -0.2196
 6184SOL    HW130188   3.050   1.856  11.654  2.2290  0.2757  0.7349
 6184SOL    HW230189   3.151   1.759  11.589  0.0381 -1.0244 -0.2802
 6185SOL     OW30190   1.420   1.318   2.420  0.1259  0.1152  0.2626
 6185SOL    HW130191   1.385   1.251   2.360  0.6407 -0.1877  0.2977
 6185SOL    HW230192   1.491   1.265   2.456 -0.1958 -0.3447  0.2226
 6186SOL     OW30193   1.184   3.063   8.705 -0.3111  0.1174 -0.1598
 6186SOL    HW130194   1.161   3.063   8.798 -2.1957  0.5781 -0.6163
 6186SOL    HW230195   1.096   3.057   8.666 -0.2817 -3.0453  0.3171
 6187SOL     OW30196   3.784   2.065  10.036  0.0289 -0.1676  0.3806
 6187SOL    HW130197   3.865   2.040  10.080 -0.4425 -2.5315 -0.0630
 6187SOL    HW230198   3.735   2.079  10.117  1.2874 -2.0938  1.4560
 6188SOL     OW30199   3.500   0.458   1.450  0.1539  0.0170 -0.1147
 6188SOL    HW130200   3.471   0.424   1.365 -1.0161 -1.3463  0.8110
 6188SOL    HW230201   3.423   0.471   1.506 -1.5014 -1.2108 -2.0840
 6189SOL     OW30202   3.390   1.345   0.104  0.1967 -0.2249  0.5530
 6189SOL    HW130203   3.326   1.278   0.128 -1.1362  1.4183  1.5918
 6189SOL    HW230204   3.340   1.425   0.121 -0.4998 -1.0490  2.4261
 6190SOL     OW30205   2.050   1.923   5.084 -0.1048 -0.3535  0.2820
 6190SOL    HW130206   2.101   2.002   5.102 -0.4286  0.2588 -1.4936
 6190SOL    HW230207   1.965   1.935   5.125 -0.2795  1.3004 -0.5586
 6191SOL     OW30208   1.853   1.600   8.699 -0.1408 -0.0397 -0.4131
 6191SOL    HW130209   1.902   1.666   8.650 -0.9757  2.3038  1.9539
 6191SOL    HW230210   1.916   1.554   8.754  0.5795 -0.1027 -1.2850
 6192SOL     OW30211   0.366   3.894   2.725 -0.0033 -0.0410  0.3445
 6192SOL    HW130212   0.280   3.851   2.722 -0.5919  1.3156 -2.5431
 6192SOL    HW230213   0.346   3.983   2.755  0.5406  0.1340  0.1855
 6193SOL     OW30214   2.037   2.742  17.323 -0.5750 -0.0296  0.4536
 6193SOL    HW130215   1.960   2.760  17.377 -2.0526 -0.9601 -1.3108
 6193SOL    HW230216   1.991   2.747  17.239 -1.2296  0.5165  0.8446
 6194SOL     OW30217   1.434   1.445   7.008 -0.3542  0.3541  0.3947
 6194SOL    HW130218   1.457   1.513   7.071  3.3542 -1.4953  1.0598
 6194SOL    HW230219   1.371   1.394   7.059 -2.0213  2.1874  0.1182
 6195SOL     OW30220   0.609   3.347   5.077  0.3796  0.1947  0.2490
 6195SOL    HW130221   0.648   3.365   4.992 -2.1607  0.2014 -0.9206
 6195SOL    HW230222   0.528   3.397   5.067 -0.2699 -0.4249  2.2878
 6196SOL     OW30223   0.128   3.422  12.403  0.0231 -0.1033  0.2005
 6196SOL    HW130224   0.204   3.401  12.349 -0.9058 -1.5005 -0.5605
 6196SOL    HW230225   0.058   3.431  12.339  2.2930  2.0537 -1.9815
 6197SOL     OW30226   1.895   4.649   1.241  0.2539  0.2514 -0.0781
 6197SOL    HW130227   1.899   4.642   1.337  0.5358 -1.8557 -0.2382
 6197SOL    HW230228   1.939   4.567   1.219 -0.2294  0.0608 -0.3345
 6198SOL     OW30229   3.704   3.632   1.735 -0.2543  0.1499 -0.0868
 6198SOL    HW130230   3.638   3.601   1.672  0.4590 -1.2125 -0.1723
 6198SOL    HW230231   3.660   3.712   1.764 -0.7348  0.0595 -0.5571
 6199SOL     OW30232   2.210   4.475   5.536 -0.0860 -0.3844  0.1730
 6199SOL    HW130233   2.191   4.487   5.443 -1.2517 -3.2765  0.0168
 6199SOL    HW230234   2.121   4.488   5.568 -0.2519 -0.0075 -0.4246
 6200SOL     OW30235   4.407   1.294   2.206  0.4009 -0.0221 -0.2001
 6200SOL    HW130236   4.446   1.381   2.198 -0.2715  0.3269  0.2695
 6200SOL    HW230237   4.474   1.234   2.236 -0.5905 -0.2550  1.5573
 6201SOL     OW30238   2.612   4.058   0.516 -0.3851  0.3203 -0.1723
 6201SOL    HW130239   2.684   4.114   0.486  0.4245 -1.3838 -1.4178
 6201SOL    HW230240   2.556   4.061   0.439  0.3596  0.6623 -0.7040
 6202SOL     OW30241   2.458   2.100   0.388  0.1823  0.0714 -0.4364
 6202SOL    HW130242   2.490   2.187   0.410  2.0842 -1.3293  2.3001
 6202SOL    HW230243   2.440   2.050   0.467  2.8442 -0.5687 -0.2354
 6203SOL     OW30244   1.644   4.722   2.237  0.3185 -0.3821  0.1271
 6203SOL    HW130245   1.671   0.077   2.218 -1.7350  0.2957  0.4703
 6203SOL    HW230246   1.687   4.701   2.320 -1.3638 -0.9250  0.8586
 6204SOL     OW30247   2.646   3.441   8.725 -0.1337 -0.2686  0.2746
 6204SOL    HW130248   2.624   3.524   8.767  0.4228 -0.9895  1.9811
 6204SOL    HW230249   2.708   3.401   8.785 -1.1924  0.9263  2.1606
 6205SOL     OW30250   4.301   3.339   4.896 -0.1945  0.7744  0.5041
 6205SOL    HW130251   4.210   3.328   4.870  0.3475 -2.1160 -0.1438
 6205SOL    HW230252   4.298   3.432   4.921  3.4884  0.3805  2.4579
 6206SOL     OW30253   4.293   1.020   5.482 -0.0276 -0.0133 -0.2752
 6206SOL    HW130254   4.369   1.075   5.499 -1.4432  2.4713 -2.1224
 6206SOL    HW230255   4.337   0.948   5.436  0.7670 -0.8232  1.7445
 6207SOL     OW30256   4.631   2.161   4.313 -0.2347 -0.3395 -0.0341
 6207SOL    HW130257   4.634   2.221   4.239  2.2520  0.3518  0.6137
 6207SOL    HW230258   4.690   2.205   4.375  0.5736  0.3137 -1.2794
 6208SOL     OW30259   0.356   0.452   3.425  0.5095  0.1981  0.5164
 6208SOL    HW130260   0.274   0.483   3.387 -0.2133 -0.2853  1.6761
 6208SOL    HW230261   0.403   0.534   3.436  0.3117  0.2097  1.2372
 6209SOL     OW30262   1.734   0.605   8.123  0.0182  0.3645 -0.0740
 6209SOL    HW130263   1.675   0.613   8.198 -0.8171 -0.6390 -0.6235
 6209SOL    HW230264   1.689   0.669   8.067  0.4242  0.5397 -0.2021
 6210SOL     OW30265   2.543   4.344   8.959  0.2182 -0.1099  0.3997
 6210SOL    HW130266   2.516   4.255   8.934  0.9015  0.0684 -1.0079
 6210SOL    HW230267   2.542   4.376   8.868  1.4425 -1.1461  0.0158
 6211SOL     OW30268   0.584   1.556   3.409 -0.0545  0.7935  0.2328
 6211SOL    HW130269   0.603   1.502   3.486  0.2579  1.4508  0.6131
 6211SOL    HW230270   0.540   1.624   3.461 -0.7119 -1.9382  3.3035
 6212SOL     OW30271   0.587   0.888   1.963  0.1429  0.1932 -0.3972
 6212SOL    HW130272   0.493   0.900   1.979 -0.1901 -2.0388 -0.7615
 6212SOL    HW230273   0.581   0.818   1.898  2.8198 -0.0856 -0.3622
 6213SOL     OW30274   2.213   4.530   8.987 -0.0379  0.3373 -0.0901
 6213SOL    HW130275   2.126   4.569   8.988 -0.9076 -1.6275 -1.0929
 6213SOL    HW230276   2.260   4.606   8.952 -1.5133  2.2452  2.0839
 6214SOL     OW30277   4.274   3.787  15.972  0.3323 -0.2798 -0.2926
 6214SOL    HW130278   4.222   3.748  15.902  0.5654 -0.7539 -0.2049
 6214SOL    HW230279   4.329   3.855  15.932 -0.6309 -0.3242 -1.7037
 6215SOL     OW30280   4.293   4.011   6.500 -0.3187  0.0056  0.2084
 6215SOL    HW130281   4.347   4.021   6.579 -2.2932 -2.6925  1.9263
 6215SOL    HW230282   4.222   4.071   6.522  2.1328  1.9706  2.7435
 6216SOL     OW30283   1.490   3.620  17.708 -0.0561 -0.4290  0.3916
 6216SOL    HW130284   1.426   3.549  17.702 -1.9655  1.4128 -1.4435
 6216SOL    HW230285   1.559   3.594  17.647 -0.9327  2.3598 -1.8411
 6217SOL     OW30286   4.598   3.400   4.417 -0.0075 -0.1958 -0.2978
 6217SOL    HW130287   4.581   3.306   4.424 -2.6478  0.1721 -1.7833
 6217SOL    HW230288   4.673   3.419   4.474  1.7538 -1.3933 -2.2066
 6218SOL     OW30289   4.112   4.497   7.741  0.2234  0.2938  0.1917
 6218SOL    HW130290   4.126   4.404   7.761  0.1382  0.0638 -0.8056
 6218SOL    HW230291   4.044   4.493   7.674  3.0170 -2.0074 -2.4732
 6219SOL     OW30292   0.271   2.225   3.939  0.2151  0.2491 -0.4041
 6219SOL    HW130293   0.350   2.175   3.961 -1.0499 -1.6828 -0.1818
 6219SOL    HW230294   0.252   2.268   4.022  0.7737  0.1600 -0.2304
 6220SOL     OW30295   4.568   3.972   2.122 -0.0119  0.6379 -0.6756
 6220SOL    HW130296   4.660   3.996   2.122 -0.8982  3.9494  0.2031
 6220SOL    HW230297   4.529   4.057   2.138 -2.3679 -0.3589 -1.0978
 6221SOL     OW30298   2.522   2.211   5.541  0.0360 -0.4754 -0.5356
 6221SOL    HW130299   2.480   2.240   5.622 -0.6263 -0.3112 -0.9332
 6221SOL    HW230300   2.454   2.222   5.474 -1.1081  1.9224  1.0146
 6222SOL     OW30301   4.373   4.016   3.582  0.0964 -0.0250 -0.5661
 6222SOL    HW130302   4.391   4.096   3.532 -1.8547  0.5170 -0.3925
 6222SOL    HW230303   4.358   3.958   3.507 -0.7121 -1.1134  0.4350
 6223SOL     OW30304   2.390   0.170   7.707 -0.3108 -0.0506 -0.1095
 6223SOL    HW130305   2.424   0.225   7.778 -0.0151  0.0418 -0.3235
 6223SOL    HW230306   2.347   0.240   7.657 -0.8188 -1.0283 -1.0193
 6224SOL     OW30307   2.914   4.468  15.698 -0.6034  0.5369  0.2406
 6224SOL    HW130308   2.997   4.444  15.740 -0.4066 -0.7030 -0.8934
 6224SOL    HW230309   2.905   4.557  15.734 -0.0476  0.0665  1.5691
 6225SOL     OW30310   1.994   2.597   9.493  0.7358 -0.0631 -0.4773
 6225SOL    HW130311   2.043   2.531   9.444  1.6908 -0.4370  0.9550
 6225SOL    HW230312   2.061   2.628   9.554 -0.7285  0.6548  0.7836
 6226SOL     OW30313   3.903   0.924  17.409  0.0645 -0.1506 -0.2386
 6226SOL    HW130314   3.964   0.851  17.415 -1.3849 -1.2907  0.4361
 6226SOL    HW230315   3.825   0.890  17.365 -1.0640  1.0106  0.8668
 6227SOL     OW30316   3.070   2.288   2.890 -0.2788  0.2805 -0.0653
 6227SOL    HW130317   2.981   2.308   2.861 -1.0366 -1.5006  1.0598
 6227SOL    HW230318   3.110   2.366   2.852 -0.8872  1.1342  1.0639
 6228SOL     OW30319   4.472   2.036  10.224  0.0487  0.1857  0.5323
 6228SOL    HW130320   4.489   2.083  10.305  1.9852 -0.4120  0.4708
 6228SOL    HW230321   4.507   1.948  10.235 -1.0399 -0.4063 -0.6347
 6229SOL     OW30322   4.303   1.191   3.072 -0.2380 -0.4422 -0.0284
 6229SOL    HW130323   4.397   1.184   3.088 -0.0259  3.3621  0.3701
 6229SOL    HW230324   4.268   1.105   3.095 -1.2453  0.9628  3.7147
 6230SOL     OW30325   1.602   0.932   3.383 -0.6885  0.8823  0.1446
 6230SOL    HW130326   1.557   0.910   3.464 -1.7242 -0.1636 -0.7237
 6230SOL    HW230327   1.589   0.864   3.317  2.5597  0.6092 -0.1960
 6231SOL     OW30328   0.339   1.674   2.418  0.0779 -0.1703  0.0392
 6231SOL    HW130329   0.393   1.729   2.360  0.4337  0.4688  0.9892
 6231SOL    HW230330   0.252   1.693   2.383  0.1035  0.5315  0.3683
 6232SOL     OW30331   2.268   3.769  14.704 -0.2497 -0.3110  0.4785
 6232SOL    HW130332   2.279   3.710  14.779  4.0922 -1.8331 -1.3649
 6232SOL    HW230333   2.319   3.845  14.731 -0.1043 -0.8628  1.7916
 6233SOL     OW30334   3.348   1.411   7.143 -0.3344  0.7760  0.0372
 6233SOL    HW130335   3.390   1.390   7.227  0.4398 -0.5131 -0.6606
 6233SOL    HW230336   3.422   1.416   7.082 -1.3665  0.6097 -1.2143
 6234SOL     OW30337   2.557   1.183   1.214 -0.6977 -0.1079 -0.8085
 6234SOL    HW130338   2.558   1.088   1.199  1.1169 -0.4169  1.2802
 6234SOL    HW230339   2.627   1.217   1.159 -2.6581  4.8620 -0.1784
 6235SOL     OW30340   3.857   2.086   3.374  0.3771  0.0757  0.2613
 6235SOL    HW130341   3.793   2.128   3.430  0.7399  1.3334 -0.2658
 6235SOL    HW230342   3.944   2.118   3.399  0.3642 -0.2766  0.7425
 6236SOL     OW30343   3.261   0.401   1.021  0.3060 -0.2983 -0.0173
 6236SOL    HW130344   3.318   0.394   0.944  0.3649  1.0940 -0.1052
 6236SOL    HW230345   3.323   0.365   1.084 -1.0867 -2.4812  0.1100
 6237SOL     OW30346   0.851   0.056   5.578  0.0282  0.6749  0.0552
 6237SOL    HW130347   0.884   0.019   5.660 -0.9895 -1.3684 -0.4711
 6237SOL    HW230348   0.830   4.706   5.543 -0.8243  1.4172 -1.2282
 6238SOL     OW30349   2.032   2.836   6.576  0.5414 -0.0073 -0.1877
 6238SOL    HW130350   2.011   2.795   6.660 -1.1494 -0.4012 -0.7818
 6238SOL    HW230351   1.987   2.772   6.521  0.1904  3.1599 -3.5656
 6239SOL     OW30352   3.824   1.250   1.596 -0.2025 -0.0239 -0.4646
 6239SOL    HW130353   3.760   1.262   1.526 -0.3282 -0.7712 -0.4778
 6239SOL    HW230354   3.895   1.207   1.550 -0.8936 -1.5068 -0.1392
 6240SOL     OW30355   1.578   1.577   8.968 -0.0756  0.1916 -0.3022
 6240SOL    HW130356   1.499   1.547   9.013  0.2307  1.7533  1.2788
 6240SOL    HW230357   1.609   1.513   8.904  0.9192  0.0865  0.2923
 6241SOL     OW30358   2.710   1.994   8.702 -0.4729 -0.1766 -0.2978
 6241SOL    HW130359   2.626   1.969   8.740  0.5669 -0.4083  1.8056
 6241SOL    HW230360   2.684   2.072   8.652  1.0322  1.0302  0.8257
 6242SOL     OW30361   3.352   3.706  10.944  0.1243 -0.1224  0.2829
 6242SOL    HW130362   3.295   3.753  11.005 -0.4491  1.3984 -1.4104
 6242SOL    HW230363   3.427   3.760  10.965 -0.0793  0.5760 -0.7566
 6243SOL     OW30364   0.039   2.093  16.257  0.0620  0.3498  0.1343
 6243SOL    HW130365   0.077   2.051  16.334 -0.4360  0.6819  0.5655
 6243SOL    HW230366   0.051   2.020  16.197  0.6213 -0.8817  1.7522
 6244SOL     OW30367   1.404   2.789   6.511 -0.5348  0.2375 -0.2616
 6244SOL    HW130368   1.374   2.736   6.584  0.7381 -0.4104 -0.2159
 6244SOL    HW230369   1.489   2.826   6.537 -0.0616 -1.3345  0.4179
 6245SOL     OW30370   1.045   3.486   7.030 -0.0624  0.1243  0.1388
 6245SOL    HW130371   1.108   3.471   7.101  0.3699 -1.7952 -0.6329
 6245SOL    HW230372   1.006   3.571   7.049  0.6511  0.9435 -1.9906
 6246SOL     OW30373   1.574   1.718   1.912 -0.5556 -0.3488 -0.0023
 6246SOL    HW130374   1.652   1.680   1.871  1.3463  0.6234  2.6721
 6246SOL    HW230375   1.506   1.663   1.874 -1.9518  1.8521 -0.6576
 6247SOL     OW30376   1.056   2.018   6.430  0.4499 -0.3091  0.0988
 6247SOL    HW130377   1.123   2.079   6.400  0.1163  0.1845  0.3452
 6247SOL    HW230378   1.014   1.985   6.350 -1.0628  0.1519  0.6841
 6248SOL     OW30379   3.193   4.412  12.995  0.0060  0.4471  0.0032
 6248SOL    HW130380   3.191   4.362  13.077 -0.6599 -2.7004 -1.9227
 6248SOL    HW230381   3.212   4.351  12.923 -0.7500  0.2410 -0.0174
 6249SOL     OW30382   2.720   4.200  12.420 -0.6657 -0.3897  0.0386
 6249SOL    HW130383   2.814   4.192  12.437 -0.6350  3.8291  1.7126
 6249SOL    HW230384   2.678   4.187  12.506 -1.4277 -1.6739 -0.5139
 6250SOL     OW30385   3.590   3.035  15.831 -0.0913 -0.0387 -0.2514
 6250SOL    HW130386   3.515   3.004  15.781  0.0046  0.9276 -1.0050
 6250SOL    HW230387   3.553   3.110  15.877 -0.7815 -1.9383  2.2977
 6251SOL     OW30388   3.120   2.268  16.764  0.3232  0.5945  0.2500
 6251SOL    HW130389   3.187   2.272  16.832 -0.6119  2.0875  1.0832
 6251SOL    HW230390   3.137   2.346  16.711  0.6559 -0.5651 -1.3501
 6252SOL     OW30391   4.379   2.089   3.697  0.5092 -0.1662 -0.2744
 6252SOL    HW130392   4.380   1.998   3.668  0.4018  0.1064 -1.1089
 6252SOL    HW230393   4.442   2.132   3.640  0.2569 -0.6736 -0.9314
 6253SOL     OW30394   0.657   2.418   7.751  0.3276  0.7212 -0.0424
 6253SOL    HW130395   0.670   2.438   7.844  0.9759 -0.7241  0.1737
 6253SOL    HW230396   0.588   2.481   7.729 -2.2788 -2.2531 -0.3789
 6254SOL     OW30397   2.971   1.552   3.442  0.0469 -0.4364  0.2610
 6254SOL    HW130398   2.888   1.511   3.416 -0.1784 -0.5239  1.0958
 6254SOL    HW230399   2.939   1.621   3.501  0.2921  1.5539 -1.9719
 6255SOL     OW30400   2.096   3.171   7.766 -0.0284 -0.3475  0.4208
 6255SOL    HW130401   2.005   3.162   7.735  0.2564 -0.3111 -0.4205
 6255SOL    HW230402   2.131   3.133   7.685 -0.3074  2.4475 -0.9893
 6256SOL     OW30403   1.095   2.761   1.817  0.3665 -0.0061  0.5738
 6256SOL    HW130404   1.160   2.816   1.774  2.3979 -2.1854  0.8530
 6256SOL    HW230405   1.016   2.792   1.772 -0.8420  0.8591  3.2838
 6257SOL     OW30406   4.219   0.606  13.622  0.7100 -0.5149 -0.1216
 6257SOL    HW130407   4.191   0.516  13.637 -0.5824  0.1294  1.4248
 6257SOL    HW230408   4.253   0.619  13.711  3.8586 -1.6810 -1.1528
 6258SOL     OW30409   4.274   1.567  17.480 -0.2851 -0.4983 -0.1022
 6258SOL    HW130410   4.271   1.471  17.481  0.7941 -0.5430 -1.3272
 6258SOL    HW230411   4.280   1.586  17.573  2.4732 -1.9876  0.0205
 6259SOL     OW30412   2.098   3.797   1.331  0.0283  0.0931 -0.1717
 6259SOL    HW130413   2.104   3.715   1.282  1.7687  0.1940 -0.1160
 6259SOL    HW230414   2.184   3.786   1.371  0.6934  1.3307 -1.2653
 6260SOL     OW30415   0.438   1.629   8.514  0.5929  0.2848 -0.2273
 6260SOL    HW130416   0.428   1.654   8.606 -0.9788  0.0612 -0.3218
 6260SOL    HW230417   0.344   1.636   8.494  0.7135  3.7972  0.4513
 6261SOL     OW30418   1.959   2.711   6.827  0.3406 -0.5215  0.4382
 6261SOL    HW130419   1.876   2.755   6.844  0.9487  0.5191  0.6788
 6261SOL    HW230420   1.957   2.623   6.865  0.1379 -1.4530 -1.6922
 6262SOL     OW30421   0.139   1.382   8.636  0.0887  0.1461 -0.3615
 6262SOL    HW130422   0.191   1.459   8.658 -0.2563  0.4939 -0.7609
 6262SOL    HW230423   0.057   1.422   8.609 -0.9353  0.1395  2.7340
 6263SOL     OW30424   3.420   0.700   5.810  0.4038 -0.7690  0.4155
 6263SOL    HW130425   3.384   0.727   5.725  0.7614 -0.3456  0.3993
 6263SOL    HW230426   3.490   0.643   5.778 -1.4132 -1.4688 -2.3532
 6264SOL     OW30427   1.664   0.707  16.022 -0.2057 -0.4692 -0.0476
 6264SOL    HW130428   1.619   0.778  15.977 -1.2629 -0.3315  1.2303
 6264SOL    HW230429   1.658   0.636  15.957 -0.5737 -0.3502 -0.1443
 6265SOL     OW30430   0.676   1.742   3.911 -0.1432  0.0911  0.1095
 6265SOL    HW130431   0.715   1.741   3.824 -0.8977  3.2814 -0.2687
 6265SOL    HW230432   0.749   1.706   3.962  0.7594 -0.2922 -1.4632
 6266SOL     OW30433   3.781   2.179   7.535  0.0736 -0.4957  0.0173
 6266SOL    HW130434   3.828   2.223   7.605 -1.5072 -0.4052  1.0288
 6266SOL    HW230435   3.699   2.149   7.574 -0.1739 -1.7833 -1.4645
 6267SOL     OW30436   0.427   3.213  15.375  0.0320 -0.5247 -0.0367
 6267SOL    HW130437   0.454   3.226  15.466 -1.4059  2.6893 -0.0661
 6267SOL    HW230438   0.341   3.254  15.386  0.0022 -0.1386 -1.7730
 6268SOL     OW30439   3.898   3.569   2.876 -0.4101 -0.0121  0.3381
 6268SOL    HW130440   3.943   3.625   2.939  2.4828  0.5469 -2.2633
 6268SOL    HW230441   3.807   3.598   2.874 -0.0859  1.1519  2.7021
 6269SOL     OW30442   4.203   3.385   5.361 -0.0278  0.2624  0.5515
 6269SOL    HW130443   4.130   3.436   5.327 -0.6472  0.1783  1.7624
 6269SOL    HW230444   4.173   3.295   5.351 -1.3584  0.4796  2.5025
 6270SOL     OW30445   2.694   0.702  17.216  0.4077 -0.3924  0.6378
 6270SOL    HW130446   2.627   0.685  17.283  0.0791 -1.2829  0.0878
 6270SOL    HW230447   2.702   0.797  17.223 -0.6358 -0.2459 -0.1609
 6271SOL     OW30448   3.952   3.600  16.531  0.2214  0.2977  0.0023
 6271SOL    HW130449   3.901   3.553  16.465 -1.5614 -0.9779  2.2980
 6271SOL    HW230450   3.888   3.643  16.587  0.6039 -0.2200  0.8345
 6272SOL     OW30451   1.042   2.832   7.427 -0.4585  0.1184  0.0776
 6272SOL    HW130452   1.016   2.752   7.383  0.1313 -0.4030  0.6776
 6272SOL    HW230453   1.073   2.804   7.513  2.2410 -0.0921 -0.9682
 6273SOL     OW30454   0.781   0.793   4.516  0.0132  0.0051 -0.5680
 6273SOL    HW130455   0.792   0.888   4.516 -1.3016  0.1546 -1.7318
 6273SOL    HW230456   0.851   0.767   4.575  1.1172 -0.7105 -2.1842
 6274SOL     OW30457   1.218   3.309  12.857  0.3896  0.2657  0.2497
 6274SOL    HW130458   1.242   3.242  12.793 -0.9858 -0.1838  0.1899
 6274SOL    HW230459   1.289   3.373  12.854  0.5297  0.0960  0.0220
 6275SOL     OW30460   3.530   2.225  13.801  0.0286  0.9064 -0.3674
 6275SOL    HW130461   3.438   2.201  13.805 -0.0512  1.6114  1.9227
 6275SOL    HW230462   3.571   2.143  13.772  3.1641  1.5637  2.1316
 6276SOL     OW30463   0.176   0.846   2.912  0.5136 -0.1228  0.3943
 6276SOL    HW130464   0.180   0.923   2.968 -0.0350 -0.0407  0.3175
 6276SOL    HW230465   0.265   0.835   2.877  0.4220  3.8055 -0.9949
 6277SOL     OW30466   2.682   2.233   5.137  0.1417 -0.1430 -0.3215
 6277SOL    HW130467   2.696   2.188   5.220  0.8179 -2.4983 -1.6993
 6277SOL    HW230468   2.633   2.307   5.172 -1.2628 -1.3114  0.2066
 6278SOL     OW30469   3.148   3.431  13.977  0.0107  0.2452  0.4412
 6278SOL    HW130470   3.120   3.482  13.901 -0.1806 -2.1767 -1.1164
 6278SOL    HW230471   3.067   3.392  14.008 -0.1035  1.0418  1.1408
 6279SOL     OW30472   1.612   4.715   1.208  0.7822  0.0295  0.0725
 6279SOL    HW130473   1.598   0.062   1.163 -0.5298 -0.3197 -0.1554
 6279SOL    HW230474   1.702   4.700   1.178  0.4772 -0.0786 -0.7706
 6280SOL     OW30475   0.811   1.583   5.624  0.0701  0.6523 -0.3932
 6280SOL    HW130476   0.807   1.583   5.528  1.2823 -0.1759 -0.4357
 6280SOL    HW230477   0.864   1.504   5.632 -2.4722 -0.7779  1.9472
 6281SOL     OW30478   2.998   0.508   5.033  0.3372 -0.6978  0.1747
 6281SOL    HW130479   3.049   0.486   4.956 -1.2906 -0.8080 -0.8827
 6281SOL    HW230480   2.918   0.546   4.997  0.1366 -1.6205 -0.3657
 6282SOL     OW30481   0.828   0.386   1.040 -0.2699  0.0551  0.6664
 6282SOL    HW130482   0.846   0.448   0.969 -0.3885  1.6722  2.0347
 6282SOL    HW230483   0.738   0.359   1.022 -1.2218  1.5730  3.0622
 6283SOL     OW30484   0.700   3.649   3.755  0.4891  0.1397 -0.4150
 6283SOL    HW130485   0.656   3.670   3.673  1.4243  0.6905 -0.7740
 6283SOL    HW230486   0.776   3.598   3.726  0.8442  1.3071 -1.5242
 6284SOL     OW30487   0.471   0.998  16.100 -0.1377  0.0064 -0.1984
 6284SOL    HW130488   0.510   1.019  16.015  0.6960  1.5470  0.5657
 6284SOL    HW230489   0.522   1.054  16.158  1.0168  1.1421 -2.2884
 6285SOL     OW30490   0.359   2.458  13.073  0.0396 -0.0206  0.1907
 6285SOL    HW130491   0.267   2.448  13.096 -0.0748  3.4641  1.1571
 6285SOL    HW230492   0.372   2.537  13.125  3.8651 -2.5966  3.2579
 6286SOL     OW30493   4.721   0.119   0.452  0.1449 -0.3408  0.2534
 6286SOL    HW130494   4.698   0.201   0.494  0.0991  0.3827 -1.1636
 6286SOL    HW230495   0.014   0.065   0.526 -1.5064 -0.5348  0.7411
 6287SOL     OW30496   2.173   2.347   4.980 -0.1379 -0.2363 -0.1075
 6287SOL    HW130497   2.224   2.324   4.902  1.5302 -1.7245  1.4340
 6287SOL    HW230498   2.107   2.399   4.934  0.0281  0.4962  0.4672
 6288SOL     OW30499   1.339   3.454   3.438 -0.0532 -0.3241 -0.4192
 6288SOL    HW130500   1.368   3.452   3.346 -0.0381  2.8427 -0.4846
 6288SOL    HW230501   1.259   3.401   3.432  0.8125 -1.9943  2.7842
 6289SOL     OW30502   0.641   1.557   7.866 -0.3945  0.4573 -0.2421
 6289SOL    HW130503   0.551   1.580   7.886  0.7163  3.6697  1.1605
 6289SOL    HW230504   0.629   1.514   7.781 -0.1169 -0.4711  0.1820
 6290SOL     OW30505   2.159   3.005   3.390  0.1818  0.0919  0.2162
 6290SOL    HW130506   2.161   2.992   3.485 -4.3817 -0.3947  0.2455
 6290SOL    HW230507   2.068   3.032   3.375  0.0054 -1.2589 -1.1210
 6291SOL     OW30508   0.861   4.553   7.121  0.4581 -0.4167 -0.3502
 6291SOL    HW130509   0.785   4.586   7.072  0.9892  0.1779 -0.7796
 6291SOL    HW230510   0.865   4.617   7.191  1.9650  0.4418 -1.2184
 6292SOL     OW30511   0.354   2.672   2.823 -0.3121 -0.1374  0.0814
 6292SOL    HW130512   0.357   2.672   2.919  2.4269 -2.0851  0.0067
 6292SOL    HW230513   0.370   2.579   2.805  0.7795 -0.1418  1.0769
 6293SOL     OW30514   1.353   0.141   4.150  0.3594  0.1211 -0.2404
 6293SOL    HW130515   1.291   0.181   4.211  0.3768 -0.8121  0.3876
 6293SOL    HW230516   1.338   0.050   4.176  2.8904 -0.5770 -1.2772
 6294SOL     OW30517   4.595   3.973   7.022  0.4733  0.0641  0.0478
 6294SOL    HW130518   4.669   3.913   7.008  0.3436 -0.2515  0.6880
 6294SOL    HW230519   4.522   3.917   6.997 -1.0868  1.9210  0.4491
 6295SOL     OW30520   1.682   1.821  15.308 -0.0815  0.2498  0.0797
 6295SOL    HW130521   1.607   1.855  15.356  0.9876  1.2187  1.0952
 6295SOL    HW230522   1.714   1.912  15.306 -1.7987  0.8523  0.7463
 6296SOL     OW30523   4.059   2.706  10.312  0.1448  0.1224 -0.0985
 6296SOL    HW130524   3.982   2.747  10.272 -2.0299 -1.9511  1.9098
 6296SOL    HW230525   4.125   2.720  10.245 -0.1189  0.0940 -0.3673
 6297SOL     OW30526   2.588   4.262   1.933 -0.0005 -0.5181  0.1798
 6297SOL    HW130527   2.561   4.347   1.970  2.4394  0.8967 -1.3113
 6297SOL    HW230528   2.509   4.214   1.959 -1.0170 -0.5439 -2.9135
 6298SOL     OW30529   0.988   1.856  16.150 -0.2112  0.4930 -0.3071
 6298SOL    HW130530   1.036   1.842  16.232 -1.2494 -1.3525 -0.0237
 6298SOL    HW230531   0.985   1.762  16.133 -0.4253  0.0498  2.1413
 6299SOL     OW30532   1.116   3.404   3.056  0.8120 -0.5542 -0.1891
 6299SOL    HW130533   1.101   3.310   3.050 -0.3698 -0.4606  1.4396
 6299SOL    HW230534   1.162   3.415   2.973 -0.3825 -1.6939 -0.9955
 6300SOL     OW30535   0.685   0.724   2.710 -0.5482  0.0021 -0.1689
 6300SOL    HW130536   0.694   0.636   2.673 -2.0192  0.4441 -1.6199
 6300SOL    HW230537   0.754   0.728   2.775 -1.3159 -0.1560  0.6506
 6301SOL     OW30538   0.272   3.625   4.031  0.8891  0.1894  0.0785
 6301SOL    HW130539   0.207   3.566   4.070  1.9717 -1.1865 -0.2017
 6301SOL    HW230540   0.299   3.671   4.111 -1.9360 -0.3153  1.3097
 6302SOL     OW30541   3.892   1.529   7.282  0.6503 -0.2577  0.6485
 6302SOL    HW130542   3.935   1.595   7.336  2.8281 -0.5929 -0.6796
 6302SOL    HW230543   3.807   1.521   7.325 -0.1699  0.4718 -0.8495
 6303SOL     OW30544   3.204   2.608   3.663 -0.5622 -0.0543  0.2226
 6303SOL    HW130545   3.123   2.602   3.613 -0.8155 -1.7010  0.8529
 6303SOL    HW230546   3.249   2.664   3.599  0.5675 -1.5008 -0.2580
 6304SOL     OW30547   1.691   1.317   5.332 -0.6593  0.2208  0.1456
 6304SOL    HW130548   1.743   1.316   5.251 -1.2421  1.3634 -0.2380
 6304SOL    HW230549   1.755   1.335   5.400  0.3833  2.4103 -1.4222
 6305SOL     OW30550   1.054   4.133  14.586  0.0063  0.4957  0.2283
 6305SOL    HW130551   1.016   4.046  14.572  1.6544 -0.0796 -0.6736
 6305SOL    HW230552   1.102   4.140  14.669 -1.1734  3.2917  0.6665
 6306SOL     OW30553   3.681   3.500   0.705 -0.2766  0.5367 -0.0481
 6306SOL    HW130554   3.700   3.409   0.729 -3.6859  0.5703  2.7629
 6306SOL    HW230555   3.735   3.499   0.625 -2.2018  0.0494 -1.3384
 6307SOL     OW30556   4.522   0.701   6.174 -0.3415  0.2627  0.0691
 6307SOL    HW130557   4.569   0.668   6.252 -1.0531  3.0355  1.6696
 6307SOL    HW230558   4.583   0.667   6.109  1.1524  2.7178  0.1585
 6308SOL     OW30559   2.770   1.415   7.420  0.2528  0.0756 -0.3223
 6308SOL    HW130560   2.746   1.402   7.328 -2.7630 -0.5545  0.5521
 6308SOL    HW230561   2.720   1.348   7.467 -1.5636  0.6280 -1.4707
 6309SOL     OW30562   2.892   0.450   7.944  0.3079  0.3235  0.2173
 6309SOL    HW130563   2.981   0.476   7.969 -0.0127  0.6756  0.9747
 6309SOL    HW230564   2.895   0.355   7.953  0.6613  0.3143 -0.0029
 6310SOL     OW30565   0.576   4.185   3.041 -0.2684 -0.1307 -0.9748
 6310SOL    HW130566   0.555   4.203   3.132 -2.3553 -1.4087 -1.2106
 6310SOL    HW230567   0.643   4.121   3.064 -2.1795 -1.3721  1.1004
 6311SOL     OW30568   3.507   3.679   5.280 -0.0220 -0.1460 -0.2163
 6311SOL    HW130569   3.447   3.715   5.346  0.4251 -0.9871  0.6540
 6311SOL    HW230570   3.474   3.717   5.199  1.4972  0.7856 -0.3876
 6312SOL     OW30571   1.270   0.490   9.088 -0.1645  0.4653 -0.2471
 6312SOL    HW130572   1.175   0.496   9.098 -0.2455 -1.1477 -0.1243
 6312SOL    HW230573   1.289   0.562   9.028  1.6357 -0.3067 -0.6023
 6313SOL     OW30574   2.302   4.641   3.723 -0.4170  0.4981  0.2239
 6313SOL    HW130575   2.225   4.638   3.667  2.1341  1.2326 -3.3189
 6313SOL    HW230576   2.329   4.551   3.705 -1.2228  0.2497  0.2446
 6314SOL     OW30577   2.798   1.945   9.223  0.9724  0.0802 -0.8611
 6314SOL    HW130578   2.872   1.901   9.182  0.3043 -0.6170 -1.3191
 6314SOL    HW230579   2.824   2.005   9.293  0.8207  1.7885 -2.2653
 6315SOL     OW30580   3.508   1.116   4.993  0.0501  0.0973 -0.3544
 6315SOL    HW130581   3.424   1.080   4.964 -0.9172  1.6127  0.5836
 6315SOL    HW230582   3.567   1.071   4.933  0.0913 -0.2013 -0.0871
 6316SOL     OW30583   1.159   0.929   0.787 -0.3026 -0.0744  0.6864
 6316SOL    HW130584   1.248   0.922   0.754 -0.2792  0.3018  0.6701
 6316SOL    HW230585   1.147   0.837   0.813 -1.6530  0.2868  1.3571
 6317SOL     OW30586   3.566   4.479  16.907 -0.2023 -0.5371  0.4961
 6317SOL    HW130587   3.620   4.406  16.877  0.9826 -0.0283  1.4166
 6317SOL    HW230588   3.498   4.481  16.840  0.3578 -0.1578 -0.0512
 6318SOL     OW30589   4.673   0.508   7.541 -0.1024  0.2615  0.1994
 6318SOL    HW130590   4.649   0.528   7.631 -1.4469 -0.1508 -0.0673
 6318SOL    HW230591   4.644   0.593   7.508  0.1063  1.5985  3.4500
 6319SOL     OW30592   0.046   0.732  17.503 -0.2629 -0.4082  0.0595
 6319SOL    HW130593   0.108   0.783  17.449 -0.8794 -2.6542 -2.7668
 6319SOL    HW230594   4.723   0.793  17.547 -1.6161 -0.0378 -2.2389
 6320SOL     OW30595   3.707   4.479   3.864 -0.0481 -0.5345 -0.4221
 6320SOL    HW130596   3.668   4.513   3.784  0.2877 -1.3403 -0.9305
 6320SOL    HW230597   3.640   4.421   3.900  1.7738 -2.1902  0.2904
 6321SOL     OW30598   4.611   2.361   7.927  0.2428  0.2803 -0.0300
 6321SOL    HW130599   4.643   2.287   7.979 -1.9286 -0.7914 -0.2026
 6321SOL    HW230600   4.690   2.390   7.881  1.5355 -1.2295  1.2342
 6322SOL     OW30601   3.895   0.946  12.384 -0.4200 -0.1655 -0.7183
 6322SOL    HW130602   3.863   0.858  12.364  0.8330 -0.3890 -1.7040
 6322SOL    HW230603   3.970   0.951  12.325 -0.1297 -0.0190 -0.3365
 6323SOL     OW30604   2.021   0.078   0.717  0.4505 -0.0603 -0.2728
 6323SOL    HW130605   1.981   0.157   0.752  1.2270 -0.4293  1.4687
 6323SOL    HW230606   2.028   0.025   0.797  0.9278  0.6447  0.1524
 6324SOL     OW30607   0.577   0.697  16.084 -0.0664  0.4653  0.0779
 6324SOL    HW130608   0.527   0.626  16.044  0.3163  0.0263  0.3806
 6324SOL    HW230609   0.510   0.767  16.084  0.3250  0.8377  0.5657
 6325SOL     OW30610   3.577   3.702   7.406 -0.2275  0.1098  0.1004
 6325SOL    HW130611   3.645   3.654   7.453 -0.1300  0.8576  0.7215
 6325SOL    HW230612   3.500   3.645   7.409 -1.5338  1.8321 -0.4183
 6326SOL     OW30613   0.717   3.539   6.961 -0.4990 -0.2162 -0.1061
 6326SOL    HW130614   0.747   3.467   7.017 -4.5382 -1.2062  0.8033
 6326SOL    HW230615   0.765   3.619   6.985 -0.9169  0.0124 -0.0336
 6327SOL     OW30616   1.992   2.449   8.421 -0.1426 -0.4642 -0.4258
 6327SOL    HW130617   2.046   2.520   8.383 -1.0404  0.3310 -0.2174
 6327SOL    HW230618   2.008   2.481   8.510 -1.2551 -1.5468  0.1589
 6328SOL     OW30619   1.817   2.783   7.907 -0.2196 -0.4150 -0.0680
 6328SOL    HW130620   1.881   2.818   7.845 -0.3715 -0.3994 -0.2173
 6328SOL    HW230621   1.833   2.829   7.989 -0.9468  0.0064 -0.1674
 6329SOL     OW30622   3.464   2.752   7.127 -0.2168  0.0053  0.1022
 6329SOL    HW130623   3.543   2.802   7.107 -0.6722 -0.4754 -2.9011
 6329SOL    HW230624   3.483   2.664   7.095  0.2889  0.3152 -0.4664
 6330SOL     OW30625   0.842   1.077  10.251  0.7079 -0.1127  0.2673
 6330SOL    HW130626   0.758   1.121  10.266 -0.1872 -1.1933 -1.6862
 6330SOL    HW230627   0.839   1.016  10.325  1.1625  1.2813  1.4404
 6331SOL     OW30628   2.307   1.864  17.604  0.3589 -0.0199  0.0652
 6331SOL    HW130629   2.355   1.794  17.559 -0.0380 -0.4877  0.3745
 6331SOL    HW230630   2.332   1.842  17.694  2.0149  0.3401 -0.3047
 6332SOL     OW30631   2.804   1.987  17.411  0.3148  0.5390  0.3261
 6332SOL    HW130632   2.773   2.029  17.331  3.1222  3.1781  0.6475
 6332SOL    HW230633   2.874   1.931  17.377 -0.4055 -0.0073 -0.2610
 6333SOL     OW30634   0.507   1.476   2.766  0.2653  0.4974 -0.1400
 6333SOL    HW130635   0.505   1.382   2.746  1.4012  0.6840 -1.1294
 6333SOL    HW230636   0.546   1.465   2.853  0.6807  1.8610 -0.1545
 6334SOL     OW30637   2.560   2.854   7.341 -0.7782  0.3032  0.0775
 6334SOL    HW130638   2.576   2.929   7.284  0.0182 -0.3100 -0.5058
 6334SOL    HW230639   2.637   2.798   7.334 -0.0250  1.0102  2.7175
 6335SOL     OW30640   1.922   0.712   3.699  0.2254 -0.2272 -0.1864
 6335SOL    HW130641   1.959   0.703   3.787 -0.5809  0.7800  0.2518
 6335SOL    HW230642   2.000   0.685   3.651  0.2089 -0.5162 -0.0544
 6336SOL     OW30643   2.755   2.531   3.894 -0.4450 -0.4564  0.6245
 6336SOL    HW130644   2.740   2.576   3.811  0.2434  0.0309  0.7697
 6336SOL    HW230645   2.762   2.439   3.869  0.6927  0.2569 -1.6398
 6337SOL     OW30646   3.832   3.268   2.974  0.3377  0.2355 -0.1108
 6337SOL    HW130647   3.891   3.299   2.906 -0.4580  1.8619 -0.0657
 6337SOL    HW230648   3.898   3.271   3.044 -0.4678 -1.1895  0.7030
 6338SOL     OW30649   2.654   4.407   1.663 -0.0475 -0.2098 -0.1142
 6338SOL    HW130650   2.631   4.354   1.740  0.9090  1.8640  1.6154
 6338SOL    HW230651   2.747   4.416   1.686 -0.0135 -1.7528  0.3970
 6339SOL     OW30652   3.695   3.014   6.343  0.6150  0.2633 -0.0911
 6339SOL    HW130653   3.790   3.004   6.351  0.6387 -1.0695 -2.1501
 6339SOL    HW230654   3.693   2.995   6.249  2.1987 -1.8195  0.3136
 6340SOL     OW30655   3.972   0.096   6.205  0.1339 -0.0715 -0.0577
 6340SOL    HW130656   3.975   0.180   6.250  0.3888 -1.2652  2.1432
 6340SOL    HW230657   3.963   0.124   6.114  1.5621 -1.3920 -0.6069
 6341SOL     OW30658   1.830   1.305   3.941  0.0687  0.0909  0.6203
 6341SOL    HW130659   1.790   1.222   3.967 -0.8417 -0.0109 -1.0480
 6341SOL    HW230660   1.923   1.284   3.951  1.0525  4.9248  1.2339
 6342SOL     OW30661   3.931   2.498   6.352  0.7167  0.4107 -0.5887
 6342SOL    HW130662   3.895   2.542   6.429  0.0999 -1.8830  0.4350
 6342SOL    HW230663   3.978   2.420   6.381 -0.1853 -0.2438 -0.8900
 6343SOL     OW30664   0.443   2.550   5.387 -0.1458 -0.0595 -0.4161
 6343SOL    HW130665   0.402   2.469   5.356  2.4883 -2.1194  1.4643
 6343SOL    HW230666   0.372   2.613   5.377  0.8553  1.4143  1.8125
 6344SOL     OW30667   3.104   1.219   3.771 -0.0967 -0.3774  0.0900
 6344SOL    HW130668   3.128   1.224   3.864  2.5573 -3.6130 -0.4245
 6344SOL    HW230669   3.136   1.305   3.742  1.2243  0.4769  3.9832
 6345SOL     OW30670   0.054   1.350  17.590 -0.0145  0.2346 -0.5806
 6345SOL    HW130671   0.039   1.301  17.671 -2.2624 -0.0691 -1.1850
 6345SOL    HW230672   0.040   1.441  17.618 -0.4143 -0.2501  0.7900
 6346SOL     OW30673   0.594   3.980  13.112  0.3386 -0.1982  0.0018
 6346SOL    HW130674   0.549   3.902  13.079  0.1835 -0.3747  0.6292
 6346SOL    HW230675   0.534   4.054  13.108  1.2168  0.5556  0.7863
 6347SOL     OW30676   4.337   4.029   5.382 -0.4513  0.1772 -0.4741
 6347SOL    HW130677   4.370   4.007   5.295 -1.6132 -1.3001 -0.5432
 6347SOL    HW230678   4.297   3.945   5.405  0.2175 -0.1284 -0.4198
 6348SOL     OW30679   4.610   2.660  14.588  0.1457  0.0257  0.0068
 6348SOL    HW130680   4.543   2.596  14.613  1.7100 -0.0141  4.2049
 6348SOL    HW230681   4.648   2.688  14.672  1.3246 -0.6236 -0.3088
 6349SOL     OW30682   2.749   3.956   7.258 -0.2602 -0.0602  0.0067
 6349SOL    HW130683   2.794   3.873   7.273  0.5432  0.1808 -1.0811
 6349SOL    HW230684   2.814   4.005   7.208 -0.0562 -1.9191 -1.5625
 6350SOL     OW30685   2.614   2.135   4.696  0.6302 -0.5528  0.1046
 6350SOL    HW130686   2.630   2.228   4.679  1.1617 -0.5915  0.4053
 6350SOL    HW230687   2.547   2.134   4.627 -0.2740  1.6024  0.9369
 6351SOL     OW30688   4.726   3.406  13.966 -0.1850 -0.5870 -0.1515
 6351SOL    HW130689   4.716   3.499  13.947  1.6579  0.1637  2.5882
 6351SOL    HW230690   4.735   3.365  13.879  1.9365  0.5226 -0.4532
 6352SOL     OW30691   2.085   0.389   2.591 -0.4006 -0.1729  0.7361
 6352SOL    HW130692   2.096   0.336   2.512 -4.0485 -0.2887  0.3366
 6352SOL    HW230693   2.063   0.477   2.561 -0.0293 -0.3497 -0.0587
 6353SOL     OW30694   4.001   0.453  17.460  0.2633  0.1677  0.1179
 6353SOL    HW130695   3.913   0.491  17.461 -0.4503 -1.3808 -3.1550
 6353SOL    HW230696   4.004   0.390  17.532  1.7217 -0.2265 -0.2970
 6354SOL     OW30697   2.753   2.087  17.190  0.5473  0.1662 -0.2698
 6354SOL    HW130698   2.678   2.147  17.193  0.2041 -0.3489  1.4535
 6354SOL    HW230699   2.805   2.130  17.122  1.1974 -0.0593  0.0855
 6355SOL     OW30700   4.148   1.252  16.891 -0.1237  0.1439 -0.3681
 6355SOL    HW130701   4.199   1.333  16.882 -1.3398  1.2218  2.4763
 6355SOL    HW230702   4.186   1.203  16.819 -4.1707 -2.3590 -0.7768
 6356SOL     OW30703   1.351   2.887   3.979 -0.3743 -0.0944  0.2410
 6356SOL    HW130704   1.308   2.929   4.053  0.8332  1.7992 -0.1348
 6356SOL    HW230705   1.333   2.793   3.992  2.2555 -1.0869 -3.1775
 6357SOL     OW30706   2.692   4.117   9.323 -0.2665 -0.3218 -0.6236
 6357SOL    HW130707   2.771   4.064   9.325 -0.1221 -0.1022 -0.5468
 6357SOL    HW230708   2.693   4.178   9.250  1.6295  0.2773 -0.0895
 6358SOL     OW30709   4.572   0.886   5.505  0.1070 -0.0578 -0.6740
 6358SOL    HW130710   4.667   0.899   5.512 -0.1656  0.9921  0.9581
 6358SOL    HW230711   4.553   0.844   5.588  0.7058  2.7429  0.8743
 6359SOL     OW30712   3.231   1.673   2.513 -0.0251  0.0646  0.4336
 6359SOL    HW130713   3.164   1.713   2.458  0.5231  0.6465  0.1885
 6359SOL    HW230714   3.180   1.605   2.558 -0.4219 -1.4754 -2.3472
 6360SOL     OW30715   3.928   4.716   2.384 -0.5714 -0.4528 -0.7147
 6360SOL    HW130716   3.878   0.044   2.332  0.2280  0.6441 -0.1449
 6360SOL    HW230717   3.891   0.004   2.469 -2.4030  0.7589 -1.8381
 6361SOL     OW30718   1.329   2.969   3.357 -1.3833  0.2807  0.3100
 6361SOL    HW130719   1.423   2.968   3.340 -1.7199 -2.2499 -1.3649
 6361SOL    HW230720   1.312   2.878   3.381  0.7741 -0.2224 -0.0837
 6362SOL     OW30721   1.350   2.414   8.882 -0.1050 -0.0563 -0.0539
 6362SOL    HW130722   1.442   2.391   8.872 -0.2855 -0.0484 -1.6876
 6362SOL    HW230723   1.308   2.330   8.863  0.4705 -0.5127  0.6739
 6363SOL     OW30724   1.856   2.297   3.587  0.4513 -0.8787 -0.0814
 6363SOL    HW130725   1.800   2.374   3.578  2.0825 -0.0642 -3.2613
 6363SOL    HW230726   1.898   2.302   3.501  0.7869 -1.3345  0.0598
 6364SOL     OW30727   3.359   0.731  13.269 -0.4590  0.6972 -0.2652
 6364SOL    HW130728   3.292   0.694  13.328  0.4317 -0.1732  0.2012
 6364SOL    HW230729   3.402   0.784  13.336 -0.2024  1.2182 -0.8554
 6365SOL     OW30730   1.078   3.492   5.757 -0.4509  0.3679  0.2643
 6365SOL    HW130731   0.986   3.471   5.769 -0.9106  1.2663 -1.6324
 6365SOL    HW230732   1.112   3.410   5.794 -0.5098  1.1175  1.9737
 6366SOL     OW30733   2.511   1.588   6.138  0.2071 -0.0300 -0.2163
 6366SOL    HW130734   2.539   1.497   6.145 -0.5486 -0.1861  0.8464
 6366SOL    HW230735   2.428   1.582   6.185  0.0197  1.7632 -0.3216
 6367SOL     OW30736   0.352   1.996   0.679 -0.0678 -0.7624  0.3124
 6367SOL    HW130737   0.431   1.989   0.626  0.8647  0.1918  1.5863
 6367SOL    HW230738   0.296   1.926   0.646 -0.4076 -0.0679 -0.5930
 6368SOL     OW30739   2.063   0.888   4.244 -0.0336 -0.0783 -0.1441
 6368SOL    HW130740   2.079   0.847   4.329  1.1476 -0.4906 -0.5722
 6368SOL    HW230741   2.016   0.823   4.192  1.6549 -1.9232  0.6366
 6369SOL     OW30742   3.882   4.662   8.310  0.1862 -0.3692 -0.2500
 6369SOL    HW130743   3.807   4.721   8.298 -2.4385 -3.6480  0.0240
 6369SOL    HW230744   3.856   4.642   8.400 -3.3630  0.5277 -1.0470
 6370SOL     OW30745   3.369   0.465   5.166  0.5106  0.4967 -0.5635
 6370SOL    HW130746   3.311   0.455   5.241  1.3619 -0.7812 -0.0661
 6370SOL    HW230747   3.452   0.438   5.207 -0.8333  0.2214  1.9685
 6371SOL     OW30748   2.679   3.944   1.968 -0.1299 -0.4909 -0.3063
 6371SOL    HW130749   2.633   3.951   2.052 -1.2888  1.2916 -1.0796
 6371SOL    HW230750   2.726   4.026   1.982  1.9068 -1.5972 -0.6835
 6372SOL     OW30751   2.609   4.422   7.683 -0.2114  0.6717  0.1147
 6372SOL    HW130752   2.638   4.506   7.719 -0.3671  0.5565  0.5173
 6372SOL    HW230753   2.558   4.451   7.608 -1.8472 -1.5829  0.3515
 6373SOL     OW30754   1.500   4.664   5.306  0.2440 -0.2467 -0.4596
 6373SOL    HW130755   1.505   4.607   5.383  0.4053  0.0261 -0.2673
 6373SOL    HW230756   1.406   4.682   5.302  0.2032 -0.2303  0.4521
 6374SOL     OW30757   0.749   2.530   7.390 -0.1331  0.4084  0.0332
 6374SOL    HW130758   0.662   2.492   7.380 -0.9855  2.1057  0.9278
 6374SOL    HW230759   0.793   2.458   7.435 -0.4372  0.9642  1.2011
 6375SOL     OW30760   1.988   0.434   4.445  0.5096 -0.5688 -0.1966
 6375SOL    HW130761   1.920   0.399   4.388  0.4220  1.5373 -1.3874
 6375SOL    HW230762   1.996   0.352   4.494 -0.4205  1.5451  3.5555
 6376SOL     OW30763   1.375   2.104   6.733 -0.1794 -0.0091 -0.9745
 6376SOL    HW130764   1.458   2.142   6.703 -0.1240  0.9271  0.3349
 6376SOL    HW230765   1.363   2.035   6.668  1.4655  0.6647 -1.9843
 6377SOL     OW30766   1.395   3.769   6.317  0.6572  0.3971  0.1140
 6377SOL    HW130767   1.347   3.694   6.282  0.2063  0.5300  0.4528
 6377SOL    HW230768   1.423   3.737   6.403 -0.6828 -0.0604  0.3703
 6378SOL     OW30769   1.106   4.166   3.488  0.4066  1.0455  0.2066
 6378SOL    HW130770   1.123   4.121   3.405  2.3129  0.4671  0.9117
 6378SOL    HW230771   1.141   4.109   3.558  0.9448 -0.8594 -1.6086
 6379SOL     OW30772   2.351   1.872   2.949  0.0340  0.5897 -0.1851
 6379SOL    HW130773   2.430   1.867   3.002 -0.3355 -1.0431  0.2014
 6379SOL    HW230774   2.385   1.881   2.860 -0.3673 -3.2922 -0.7229
 6380SOL     OW30775   1.360   1.285   4.104 -0.6058  0.1073  0.4105
 6380SOL    HW130776   1.414   1.242   4.171  1.7363 -0.8151 -2.0458
 6380SOL    HW230777   1.354   1.375   4.136  1.5634 -0.0337  1.2770
 6381SOL     OW30778   4.066   3.955  14.564 -0.5860 -0.0883  0.4171
 6381SOL    HW130779   4.009   3.962  14.640 -1.4292 -1.7631 -0.0658
 6381SOL    HW230780   4.039   3.876  14.517 -1.0243  0.9508 -1.0502
 6382SOL     OW30781   1.862   1.868   2.177 -0.1996  0.2834 -0.3092
 6382SOL    HW130782   1.862   1.773   2.162 -4.1622 -0.3048  3.4891
 6382SOL    HW230783   1.924   1.899   2.111  1.9627 -1.5073  0.8807
 6383SOL     OW30784   1.531   0.340   8.304 -0.1388  0.0991 -0.1002
 6383SOL    HW130785   1.614   0.309   8.340  0.9439 -0.6556 -3.1681
 6383SOL    HW230786   1.495   0.261   8.262  1.8918 -0.7886 -0.1586
 6384SOL     OW30787   4.400   3.145  10.331  0.0895 -0.3492  0.2287
 6384SOL    HW130788   4.466   3.213  10.314  0.8685 -0.8982  1.0639
 6384SOL    HW230789   4.406   3.132  10.426 -2.0330 -2.2151  0.1036
 6385SOL     OW30790   4.557   1.395   5.164  0.0140 -0.1262  0.1954
 6385SOL    HW130791   4.549   1.446   5.245 -0.8548  0.9255 -0.5622
 6385SOL    HW230792   4.614   1.443   5.104 -0.3241 -0.9090 -0.7366
 6386SOL     OW30793   4.554   2.541   1.986 -0.2214 -0.0172  0.5878
 6386SOL    HW130794   4.600   2.491   2.054 -2.1764  0.1367  2.0251
 6386SOL    HW230795   4.528   2.625   2.024 -0.3171  1.2401 -2.2324
 6387SOL     OW30796   0.735   3.321  14.885  0.4879 -0.5110 -0.0661
 6387SOL    HW130797   0.646   3.343  14.859  0.7134 -1.9219 -2.1002
 6387SOL    HW230798   0.728   3.259  14.957 -0.6782 -1.6613 -1.1726
 6388SOL     OW30799   1.581   3.439   0.858  0.0238  0.4280  0.0659
 6388SOL    HW130800   1.554   3.374   0.923 -2.6141  0.5078 -0.9431
 6388SOL    HW230801   1.578   3.518   0.912 -2.5545  0.0314  0.5303
 6389SOL     OW30802   2.268   0.477   4.416 -0.0409  0.3021  0.0251
 6389SOL    HW130803   2.178   0.452   4.437  0.2483 -0.7732 -0.0161
 6389SOL    HW230804   2.265   0.432   4.332  1.3402 -0.3233  0.3057
 6390SOL     OW30805   3.697   1.739   0.155  0.1064 -0.1925  0.2816
 6390SOL    HW130806   3.670   1.830   0.145 -1.8843 -0.5214  2.7342
 6390SOL    HW230807   3.785   1.746   0.119  0.0923 -0.0984  0.2660
 6391SOL     OW30808   4.478   3.413   5.311 -0.1418  0.3931  0.2905
 6391SOL    HW130809   4.470   3.418   5.216 -0.0735 -0.3899  0.2384
 6391SOL    HW230810   4.386   3.407   5.338  0.2507  0.6138  1.6405
 6392SOL     OW30811   2.974   0.033   4.050  0.0306 -0.1427  0.1738
 6392SOL    HW130812   2.932   4.685   4.070 -1.3152  0.4372 -0.2680
 6392SOL    HW230813   3.062   4.733   4.036  0.4147  0.9764 -0.2964
 6393SOL     OW30814   2.548   2.655   0.034  0.1205 -0.2836 -0.1961
 6393SOL    HW130815   2.630   2.641  17.727  0.8700  2.9220  0.1434
 6393SOL    HW230816   2.493   2.696  17.707 -1.4189  0.3519  1.4491
 6394SOL     OW30817   3.368   2.934  15.713 -0.3333 -0.1576 -0.1477
 6394SOL    HW130818   3.312   2.943  15.790  1.7378  0.1576  1.3142
 6394SOL    HW230819   3.308   2.952  15.641 -0.4821 -0.5104 -0.1087
 6395SOL     OW30820   2.526   4.522   8.269 -0.0279 -0.3627 -0.2126
 6395SOL    HW130821   2.573   4.492   8.347 -0.5438  1.4663  0.8146
 6395SOL    HW230822   2.445   4.563   8.300  0.0851 -2.1569  2.4256
 6396SOL     OW30823   0.963   1.831   8.274  0.1702  0.0130 -0.1492
 6396SOL    HW130824   1.058   1.835   8.290  0.3982 -0.7477 -1.2554
 6396SOL    HW230825   0.950   1.925   8.272 -3.8016 -0.5215  1.7194
 6397SOL     OW30826   0.632   2.001   1.515  0.4528 -0.1119 -0.2253
 6397SOL    HW130827   0.541   1.980   1.532  0.8591 -1.9928 -0.4344
 6397SOL    HW230828   0.612   2.055   1.438 -1.3725  1.5377  1.4014
 6398SOL     OW30829   1.411   0.502  14.884  0.0263 -0.4479  0.0570
 6398SOL    HW130830   1.398   0.596  14.888 -0.6648 -0.4600 -1.6775
 6398SOL    HW230831   1.506   0.493  14.889 -0.3929 -4.0880  1.4262
 6399SOL     OW30832   3.461   1.966   3.654  0.1251 -0.4550 -0.1972
 6399SOL    HW130833   3.457   2.049   3.606  1.7096  0.8372  1.9249
 6399SOL    HW230834   3.538   1.974   3.711  0.6743 -1.8468 -0.7469
 6400SOL     OW30835   2.664   3.455   7.695  0.5266  0.7946 -0.4788
 6400SOL    HW130836   2.681   3.544   7.664  0.4350  0.7091 -0.7796
 6400SOL    HW230837   2.645   3.408   7.614 -1.6254  1.7770 -0.5604
 6401SOL     OW30838   2.529   4.130   7.232  0.0553  0.1218  0.3177
 6401SOL    HW130839   2.596   4.061   7.240  0.8728  0.9473  0.5647
 6401SOL    HW230840   2.462   4.090   7.176 -2.1243 -0.5857  3.4467
 6402SOL     OW30841   2.745   4.300   9.134  0.0899  0.1445 -0.9355
 6402SOL    HW130842   2.815   4.346   9.088 -0.0540  1.4005  0.0926
 6402SOL    HW230843   2.684   4.301   9.061  1.6923  2.6084 -2.2536
 6403SOL     OW30844   3.457   2.657  16.565 -0.1832  0.0006 -0.1472
 6403SOL    HW130845   3.530   2.685  16.621 -0.0308 -0.7443  0.0342
 6403SOL    HW230846   3.471   2.721  16.496 -0.9010 -0.0715 -0.3600
 6404SOL     OW30847   1.776   4.710   5.303  0.3966  0.0994 -0.0649
 6404SOL    HW130848   1.687   4.726   5.271  0.2679  1.0958  0.7984
 6404SOL    HW230849   1.825   0.025   5.238  0.1750 -1.7001 -1.6027
 6405SOL     OW30850   1.228   1.861   5.456  0.3183  0.0849  0.6121
 6405SOL    HW130851   1.253   1.795   5.520  2.0680 -0.0878 -0.2660
 6405SOL    HW230852   1.234   1.810   5.375 -0.8260  0.4270  0.3095
 6406SOL     OW30853   2.552   0.756   7.981 -0.3247 -0.1366  0.2912
 6406SOL    HW130854   2.569   0.669   7.944  0.3573 -0.5956  1.6967
 6406SOL    HW230855   2.643   0.783   7.993 -1.0688  1.4256  2.3676
 6407SOL     OW30856   2.097   0.181   5.134 -0.3661  0.0261  0.3898
 6407SOL    HW130857   2.080   0.138   5.050  1.6029 -2.9201  1.5016
 6407SOL    HW230858   2.022   0.238   5.151 -2.4665 -2.5541 -0.3083
 6408SOL     OW30859   0.152   3.317   4.858  0.2825 -0.2193 -0.1933
 6408SOL    HW130860   0.138   3.333   4.765 -0.1525 -0.1103 -0.1109
 6408SOL    HW230861   0.156   3.222   4.869  1.2917 -0.1998 -0.4658
 6409SOL     OW30862   0.100   4.430   4.053 -0.3892  0.8466 -0.7168
 6409SOL    HW130863   0.138   4.500   4.107 -1.5522 -0.1520  1.4018
 6409SOL    HW230864   0.177   4.376   4.033 -0.8164 -0.9648  2.5094
 6410SOL     OW30865   0.603   0.178  13.769  0.2148  0.1538 -0.4944
 6410SOL    HW130866   0.647   0.260  13.746 -1.6785  1.2546 -0.2615
 6410SOL    HW230867   0.644   0.147  13.849 -1.0184  2.1758  0.9084
 6411SOL     OW30868   3.508   3.816   4.583 -0.2271 -0.1655 -0.4617
 6411SOL    HW130869   3.576   3.777   4.528 -0.4864 -0.0112 -0.8926
 6411SOL    HW230870   3.513   3.898   4.534 -2.9805  1.7729  2.4563
 6412SOL     OW30871   2.745   4.048   0.202  0.0370 -0.2993  0.0423
 6412SOL    HW130872   2.802   4.014   0.271 -1.4757  0.7562  1.7974
 6412SOL    HW230873   2.747   4.142   0.216 -0.4892 -0.2859  0.0368
 6413SOL     OW30874   0.335   4.542  13.842  0.0330 -0.2404 -0.2715
 6413SOL    HW130875   0.327   4.555  13.747 -0.3762  1.0281 -0.0653
 6413SOL    HW230876   0.430   4.544  13.849 -0.0212  1.4266  0.0926
 6414SOL     OW30877   3.663   0.578   6.501 -0.3058 -0.4170  0.0029
 6414SOL    HW130878   3.632   0.503   6.449 -0.8482 -0.5581  0.5317
 6414SOL    HW230879   3.747   0.599   6.462  0.0086 -3.6524 -1.0740
 6415SOL     OW30880   1.840   0.878   2.603  0.0646  0.7647  0.5397
 6415SOL    HW130881   1.848   0.958   2.550  1.8275 -0.0792 -0.4701
 6415SOL    HW230882   1.881   0.909   2.683 -0.6465 -0.3526  1.3292
 6416SOL     OW30883   1.854   4.730   9.240 -0.3562 -0.1027  0.5046
 6416SOL    HW130884   1.870   0.075   9.189 -1.8011 -0.9145 -1.2396
 6416SOL    HW230885   1.768   0.006   9.280  0.4871  1.5001  1.8371
 6417SOL     OW30886   2.195   0.471   4.736  0.5358 -0.0264 -0.3830
 6417SOL    HW130887   2.283   0.434   4.725  1.2434  0.8868  2.1290
 6417SOL    HW230888   2.213   0.563   4.752 -3.8001  0.7853 -0.2334
 6418SOL     OW30889   1.615   3.646   3.921  0.4144  0.2369 -0.2712
 6418SOL    HW130890   1.670   3.720   3.896  3.1588 -1.6235  0.2593
 6418SOL    HW230891   1.687   3.584   3.937 -0.5041 -0.4971  0.9672
 6419SOL     OW30892   4.088   3.131   4.079 -0.1962  0.0272 -0.0627
 6419SOL    HW130893   4.116   3.143   4.170 -0.2278  0.0651 -0.0580
 6419SOL    HW230894   4.116   3.041   4.066 -1.5863 -0.4025 -0.0828
 6420SOL     OW30895   1.844   0.814   5.114  0.3897 -0.2475 -0.4287
 6420SOL    HW130896   1.876   0.903   5.133 -0.7363 -0.1834  1.1816
 6420SOL    HW230897   1.782   0.830   5.043  1.1540  0.9888 -0.8186
 6421SOL     OW30898   2.807   2.463   9.490  0.2195 -0.9484 -0.1273
 6421SOL    HW130899   2.758   2.396   9.442 -1.3720 -0.4379  0.7639
 6421SOL    HW230900   2.777   2.445   9.579 -1.0094  2.2223  0.0863
 6422SOL     OW30901   2.832   4.389   9.395  0.0788 -0.1377 -0.2231
 6422SOL    HW130902   2.753   4.429   9.432  0.3717  0.8402 -0.6328
 6422SOL    HW230903   2.803   4.367   9.307  0.4625 -1.2529 -0.0620
 6423SOL     OW30904   0.170   0.766  17.046 -0.3750 -0.0325  0.3606
 6423SOL    HW130905   0.262   0.793  17.042 -0.4007  0.1228  0.9121
 6423SOL    HW230906   0.143   0.783  16.955  0.5036  0.8951  0.2594
 6424SOL     OW30907   0.743   4.537   7.429 -0.0003  0.2110 -0.5942
 6424SOL    HW130908   0.832   4.573   7.435 -0.2698  0.7400  0.2010
 6424SOL    HW230909   0.703   4.566   7.510 -2.0882 -1.0089 -1.1849
 6425SOL     OW30910   1.534   4.570   3.206 -0.1046 -0.0740 -0.5735
 6425SOL    HW130911   1.546   4.664   3.202  0.8662 -0.1749  0.1093
 6425SOL    HW230912   1.619   4.541   3.173 -0.1266 -1.2578  0.4223
 6426SOL     OW30913   1.060   4.452   7.391  0.4575  0.6795  0.3862
 6426SOL    HW130914   1.129   4.470   7.327 -0.7033 -0.0485 -1.0707
 6426SOL    HW230915   1.099   4.480   7.474 -0.0217  1.2934  0.4103
 6427SOL     OW30916   0.024   1.381  12.463  0.1006 -0.4247 -0.0699
 6427SOL    HW130917   0.006   1.325  12.387 -0.1857  0.1469 -0.4270
 6427SOL    HW230918   0.026   1.318  12.535  2.4594  1.5985  1.6216
 6428SOL     OW30919   2.401   4.335   5.685 -0.7102  0.3401  0.3073
 6428SOL    HW130920   2.386   4.243   5.709  1.8349 -0.7125 -2.0864
 6428SOL    HW230921   2.334   4.356   5.619 -0.9888  1.4510  0.9588
 6429SOL     OW30922   3.483   1.281  16.640  0.0910  0.3228 -0.0208
 6429SOL    HW130923   3.538   1.203  16.630  0.2915  0.6076 -1.1299
 6429SOL    HW230924   3.430   1.273  16.561 -0.9293 -1.0168  0.8031
 6430SOL     OW30925   1.552   2.881   5.928  0.3541  0.1382 -0.5069
 6430SOL    HW130926   1.578   2.846   6.013  2.3635  2.9745  0.0522
 6430SOL    HW230927   1.638   2.886   5.886  0.5630 -0.1982 -0.1122
 6431SOL     OW30928   4.442   4.215   6.358  0.4957 -0.1424  0.3909
 6431SOL    HW130929   4.489   4.252   6.433  0.8823  0.6686 -0.2430
 6431SOL    HW230930   4.440   4.123   6.384  0.7855 -1.1961 -3.3488
 6432SOL     OW30931   2.236   1.197   5.168 -0.7169 -0.4206 -0.5025
 6432SOL    HW130932   2.305   1.260   5.145 -2.2794  1.5517  0.3004
 6432SOL    HW230933   2.221   1.213   5.261 -0.0457  0.1331 -0.4873
 6433SOL     OW30934   4.584   1.124   3.000 -0.2243  0.6199  0.3551
 6433SOL    HW130935   4.669   1.135   2.959  0.5376 -1.3860  1.4542
 6433SOL    HW230936   4.534   1.117   2.918 -1.0712  0.5678  0.8698
 6434SOL     OW30937   3.938   4.063   4.527 -0.2732  0.4067  0.0185
 6434SOL    HW130938   3.929   3.972   4.557 -0.6041  0.5941  0.4800
 6434SOL    HW230939   3.967   4.101   4.609  1.9265 -2.7944  0.7441
 6435SOL     OW30940   4.474   2.511   5.466 -0.1724 -0.1027  0.8493
 6435SOL    HW130941   4.454   2.555   5.549 -1.2108 -1.7839  1.4933
 6435SOL    HW230942   4.560   2.545   5.442 -0.5669  0.3443  0.0546
 6436SOL     OW30943   3.250   1.041  17.504  0.1188  0.4670  0.1377
 6436SOL    HW130944   3.331   1.084  17.533 -0.5262  0.3696  2.1050
 6436SOL    HW230945   3.287   0.971  17.451  0.3338  0.9401 -0.3344
 6437SOL     OW30946   1.832   4.333   7.525 -0.2692 -0.4205 -0.1434
 6437SOL    HW130947   1.756   4.274   7.530  0.5894 -1.3005  2.4365
 6437SOL    HW230948   1.885   4.302   7.452 -1.2695 -2.8164  0.1564
 6438SOL     OW30949   2.989   0.904   4.946  0.3780 -0.5135  0.3164
 6438SOL    HW130950   2.958   0.927   5.033  0.8180  0.9503  0.0846
 6438SOL    HW230951   2.966   0.811   4.945  0.2661 -0.5167  3.0516
 6439SOL     OW30952   2.809   2.376   7.266  0.0182  0.9695  0.6037
 6439SOL    HW130953   2.873   2.325   7.315 -0.6462 -0.1254  0.3106
 6439SOL    HW230954   2.849   2.383   7.180 -1.5185  1.9724 -0.0380
 6440SOL     OW30955   0.085   4.508  12.733 -0.1390 -0.1368  0.1200
 6440SOL    HW130956   0.140   4.565  12.787 -2.0421  1.7394  0.0820
 6440SOL    HW230957   0.144   4.508  12.658  1.7229  1.8000  1.5698
 6441SOL     OW30958   0.731   1.945   0.755  0.2882 -0.1444 -0.0008
 6441SOL    HW130959   0.721   1.977   0.666  1.5111 -0.2905 -0.1851
 6441SOL    HW230960   0.808   1.889   0.754  1.4101  1.4438 -1.7044
 6442SOL     OW30961   4.499   3.921  16.584  0.1522  0.2362  0.2936
 6442SOL    HW130962   4.444   3.890  16.656  1.4801 -2.6694  0.0980
 6442SOL    HW230963   4.586   3.884  16.601  0.2978  0.5764  0.2773
 6443SOL     OW30964   4.584   0.997  14.654  0.8320 -0.3845 -0.1187
 6443SOL    HW130965   4.494   0.981  14.681  0.4961 -0.0864 -1.0630
 6443SOL    HW230966   4.573   1.037  14.568 -1.6802 -1.2185 -0.1617
 6444SOL     OW30967   4.105   1.958   4.210 -0.5375  0.0921 -0.4642
 6444SOL    HW130968   4.090   1.896   4.140 -0.3227 -2.2030  1.5352
 6444SOL    HW230969   4.183   2.003   4.177  0.5888  0.3547  2.5520
 6445SOL     OW30970   3.972   0.193   5.121 -0.2682 -0.2527  0.3348
 6445SOL    HW130971   4.016   0.107   5.125  1.4729  0.6632  0.8452
 6445SOL    HW230972   4.014   0.227   5.042  1.1027  0.1089  1.2087
 6446SOL     OW30973   1.730   2.526   7.196  0.6720  0.3931 -0.0943
 6446SOL    HW130974   1.810   2.520   7.144  0.6831  2.0779 -0.2680
 6446SOL    HW230975   1.761   2.572   7.274  2.7529 -1.6161  0.2691
 6447SOL     OW30976   1.185   1.658   7.115 -0.0553  0.0015 -0.2592
 6447SOL    HW130977   1.237   1.715   7.172  1.1608 -2.0213  0.6801
 6447SOL    HW230978   1.180   1.711   7.036  1.8273  0.3453 -0.1522
 6448SOL     OW30979   0.460   2.209   7.993 -0.1048  0.2396  0.0695
 6448SOL    HW130980   0.514   2.163   7.928  1.0762  0.4853  0.8858
 6448SOL    HW230981   0.387   2.232   7.935 -0.8412 -5.5544 -1.3695
 6449SOL     OW30982   1.419   2.015  17.322 -0.2198 -0.2981 -0.4131
 6449SOL    HW130983   1.497   1.976  17.283  0.4207  1.5559 -1.0143
 6449SOL    HW230984   1.356   1.943  17.314 -0.8761  0.4267 -1.6810
 6450SOL     OW30985   1.197   2.553   2.233 -0.4120 -0.0028  0.6203
 6450SOL    HW130986   1.113   2.547   2.188  0.7947 -3.2098 -1.1936
 6450SOL    HW230987   1.215   2.646   2.216 -0.2518  0.3125  2.4672
 6451SOL     OW30988   4.565   4.498  14.516  0.2428  0.2839  0.1228
 6451SOL    HW130989   4.491   4.501  14.577  0.8636  0.0503  0.8989
 6451SOL    HW230990   4.593   4.589  14.524  1.3869 -0.0599  0.0410
 6452SOL     OW30991   1.667   1.892  14.613  0.7428  0.6076 -0.9503
 6452SOL    HW130992   1.746   1.838  14.612 -1.4760 -2.6642 -1.3503
 6452SOL    HW230993   1.704   1.976  14.637  1.4042  0.2402 -0.6808
 6453SOL     OW30994   4.624   3.223   3.018 -0.1430  0.0412  0.0506
 6453SOL    HW130995   4.568   3.237   3.095 -0.9279  2.8326 -1.0185
 6453SOL    HW230996   4.571   3.285   2.967 -0.8678 -1.1004 -0.5771
 6454SOL     OW30997   3.191   1.320   1.042 -0.1888  0.3947  0.2415
 6454SOL    HW130998   3.242   1.291   1.117  0.1279  0.5141  0.0704
 6454SOL    HW230999   3.166   1.411   1.058  2.2223  1.4351 -1.8260
 6455SOL     OW31000   1.821   2.080   2.604 -0.3563  0.1434 -0.8403
 6455SOL    HW131001   1.786   2.168   2.620  0.1926  0.0915  0.7104
 6455SOL    HW231002   1.911   2.088   2.635 -0.6535 -0.3453  0.1431
 6456SOL     OW31003   1.225   2.023   2.437  0.2064  0.1955  0.5245
 6456SOL    HW131004   1.261   2.098   2.391  0.5379 -0.4456 -0.2696
 6456SOL    HW231005   1.292   1.960   2.412 -0.4465 -0.5355  0.5998
 6457SOL     OW31006   4.235   4.228   4.938  0.0584  0.1597  0.3985
 6457SOL    HW131007   4.256   4.269   5.021  1.7519  1.6842 -0.7770
 6457SOL    HW231008   4.321   4.209   4.899 -1.2288 -3.5700 -0.6824
 6458SOL     OW31009   2.327   0.890   3.572  0.0265 -0.0378  0.2605
 6458SOL    HW131010   2.313   0.982   3.548  0.6453  0.5959  2.3219
 6458SOL    HW231011   2.356   0.871   3.483 -1.1785  2.1768 -0.6215
 6459SOL     OW31012   2.316   0.639   3.362  0.4101  0.0091  0.1736
 6459SOL    HW131013   2.350   0.721   3.326 -0.2965 -0.3691 -1.3794
 6459SOL    HW231014   2.398   0.592   3.376  1.5306  0.6224 -4.3695
 6460SOL     OW31015   2.304   2.703   8.355  0.2890 -0.6971 -0.9053
 6460SOL    HW131016   2.330   2.788   8.391 -0.5929  0.0133 -1.9227
 6460SOL    HW231017   2.278   2.734   8.268 -1.4445 -0.6296 -0.3677
 6461SOL     OW31018   1.936   4.658   4.807  0.2306 -0.2111 -0.4671
 6461SOL    HW131019   1.974   4.583   4.761  0.3097 -0.1747 -0.4627
 6461SOL    HW231020   1.873   4.607   4.856  0.1971 -1.2198 -1.5551
 6462SOL     OW31021   4.281   2.473  11.807  0.4268 -0.0482  0.2268
 6462SOL    HW131022   4.255   2.407  11.871 -0.3830  0.3630  0.3183
 6462SOL    HW231023   4.247   2.432  11.727 -3.2772 -0.0318  1.7905
 6463SOL     OW31024   3.521   1.142   5.281 -0.5814 -0.0337 -0.3226
 6463SOL    HW131025   3.591   1.090   5.319  0.2066 -0.0205 -1.7892
 6463SOL    HW231026   3.516   1.106   5.193 -1.1102 -4.3878  1.4769
 6464SOL     OW31027   1.265   0.968   5.000 -0.1378  0.5532 -0.5589
 6464SOL    HW131028   1.314   0.909   4.942 -1.9154 -1.8537  0.3821
 6464SOL    HW231029   1.233   0.895   5.053  2.1384  1.1261  1.6057
 6465SOL     OW31030   3.148   0.489   2.451 -0.1846  0.5664 -0.0005
 6465SOL    HW131031   3.062   0.501   2.491  0.0025  0.4354  0.4515
 6465SOL    HW231032   3.196   0.552   2.506 -1.1995  0.5197  0.9396
 6466SOL     OW31033   2.002   0.108   1.951  0.4429  0.1646 -0.6375
 6466SOL    HW131034   1.923   0.160   1.934 -0.3630 -0.0626  2.3770
 6466SOL    HW231035   2.068   0.170   1.920  0.2621  0.8057  0.2443
 6467SOL     OW31036   0.789   0.250   3.405  0.0661  0.3692 -0.1746
 6467SOL    HW131037   0.794   0.345   3.408 -1.1622  0.4424 -0.7172
 6467SOL    HW231038   0.701   0.223   3.377 -0.4516  1.2338  0.6155
 6468SOL     OW31039   2.392   1.313   1.701 -0.6502 -0.0884  0.5217
 6468SOL    HW131040   2.401   1.267   1.617  0.3027  2.8322 -0.9795
 6468SOL    HW231041   2.357   1.397   1.674 -1.5047 -0.1093  1.5505
 6469SOL     OW31042   4.633   3.971   4.291 -0.0475 -0.2799  0.0274
 6469SOL    HW131043   4.682   4.023   4.227 -2.5376  1.5252 -0.4168
 6469SOL    HW231044   4.554   3.962   4.237 -1.5492  2.1092  1.8122
 6470SOL     OW31045   2.343   1.821  13.140 -0.2862  0.2503  0.2868
 6470SOL    HW131046   2.308   1.749  13.088  3.2321 -0.6631 -0.8182
 6470SOL    HW231047   2.417   1.779  13.185 -0.0429  0.8404  0.4304
 6471SOL     OW31048   0.630   0.527   5.718  0.4412 -0.0064 -0.5765
 6471SOL    HW131049   0.541   0.563   5.718 -0.2214 -1.6686 -1.2324
 6471SOL    HW231050   0.626   0.433   5.735  0.8767 -0.5299 -3.3045
 6472SOL     OW31051   2.923   1.640   1.822 -0.1227 -0.8963 -0.4423
 6472SOL    HW131052   2.925   1.736   1.816 -2.1992 -0.8357 -0.1444
 6472SOL    HW231053   3.007   1.630   1.866  0.0983  0.0871 -0.6194
 6473SOL     OW31054   4.329   2.393   9.091  0.3001 -0.1374  0.3658
 6473SOL    HW131055   4.339   2.316   9.146  0.8626 -0.1519  0.2430
 6473SOL    HW231056   4.376   2.458   9.145 -0.2884  0.3054  0.3447
 6474SOL     OW31057   1.578   3.919   4.055 -0.4769  0.3136 -0.6533
 6474SOL    HW131058   1.596   3.842   4.001  0.8149 -1.1560  1.8550
 6474SOL    HW231059   1.637   3.988   4.026  1.0009 -0.6374  0.0486
 6475SOL     OW31060   3.335   0.114   8.358  0.1039 -0.1450 -0.5737
 6475SOL    HW131061   3.297   0.045   8.413 -4.0039  2.2534 -0.3998
 6475SOL    HW231062   3.424   0.089   8.335  0.8843  0.8055  1.4351
 6476SOL     OW31063   1.594   1.770   3.866 -0.0196  0.0518  0.1330
 6476SOL    HW131064   1.649   1.845   3.890  0.1953 -0.5580  1.5690
 6476SOL    HW231065   1.647   1.691   3.869  0.4762  0.4235  1.1140
 6477SOL     OW31066   0.324   4.305   4.798 -0.2959  0.1115 -0.1194
 6477SOL    HW131067   0.391   4.256   4.845 -0.0338 -0.4949 -1.1297
 6477SOL    HW231068   0.359   4.394   4.791 -0.6348  0.3270  0.9763
 6478SOL     OW31069   2.056   4.050   2.188  0.0677  1.0452 -0.2016
 6478SOL    HW131070   2.152   4.050   2.188  0.0749 -1.6080 -1.0329
 6478SOL    HW231071   2.040   4.041   2.094 -1.3984  0.1356  0.1252
 6479SOL     OW31072   2.542   1.288   8.337 -0.5533  0.2546 -0.2702
 6479SOL    HW131073   2.554   1.283   8.242 -0.4048  1.5312 -0.3121
 6479SOL    HW231074   2.605   1.221   8.364 -1.1130 -0.1089  0.1617
 6480SOL     OW31075   1.563   2.384   6.461 -0.2305  0.3197 -0.2618
 6480SOL    HW131076   1.556   2.449   6.390  0.9001  0.0002 -0.6677
 6480SOL    HW231077   1.612   2.327   6.402 -1.4552 -0.6283 -0.3644
 6481SOL     OW31078   0.699   1.953   5.635 -0.7719  0.2729  0.3612
 6481SOL    HW131079   0.710   1.965   5.730  0.9903  0.7278  0.0959
 6481SOL    HW231080   0.785   1.924   5.604 -0.9843  1.1384 -1.0377
 6482SOL     OW31081   1.967   3.342   6.866 -0.3911  0.3834  0.2422
 6482SOL    HW131082   1.877   3.372   6.882 -0.5958 -0.7050  1.0907
 6482SOL    HW231083   1.951   3.252   6.838  4.0491 -0.4697  0.5598
 6483SOL     OW31084   2.363   2.860   8.987  0.2070 -0.0555  0.2148
 6483SOL    HW131085   2.337   2.768   8.986  1.4898 -0.4201  0.1832
 6483SOL    HW231086   2.308   2.894   9.057  2.7679  1.4518  1.4989
 6484SOL     OW31087   1.696   4.142   2.009  0.1078 -0.4705  0.0731
 6484SOL    HW131088   1.783   4.181   2.000 -0.2796  0.3853  0.0262
 6484SOL    HW231089   1.709   4.069   2.069 -1.8879  0.0711  1.1302
 6485SOL     OW31090   4.328   1.305   1.389  0.0306  0.0684 -0.0625
 6485SOL    HW131091   4.345   1.399   1.389  0.8581 -0.1030 -2.9281
 6485SOL    HW231092   4.323   1.286   1.296  0.5751 -0.7186  0.0709
 6486SOL     OW31093   3.427   2.863   3.344  0.1404 -0.0520  0.1365
 6486SOL    HW131094   3.423   2.930   3.412 -1.7639 -0.4993  0.4515
 6486SOL    HW231095   3.502   2.899   3.296  0.0924 -0.9061 -0.5799
 6487SOL     OW31096   1.867   2.709   1.782  0.3659  0.0663  0.1263
 6487SOL    HW131097   1.778   2.730   1.810  1.1120  0.1030  2.4691
 6487SOL    HW231098   1.855   2.614   1.774  0.3978  0.2267 -1.7307
 6488SOL     OW31099   0.995   0.668   3.174  0.1761  0.0525  0.2477
 6488SOL    HW131100   0.954   0.583   3.194  0.0414 -0.2168 -1.2070
 6488SOL    HW231101   1.041   0.688   3.256 -0.0846 -0.6202  0.5581
 6489SOL     OW31102   3.368   2.682  14.488 -0.1361  0.0019  0.1762
 6489SOL    HW131103   3.313   2.604  14.478  1.2949 -1.0300  0.2063
 6489SOL    HW231104   3.427   2.661  14.415 -0.5942 -0.2655 -0.1172
 6490SOL     OW31105   1.196   3.438   8.013  0.1411 -0.0883 -0.0672
 6490SOL    HW131106   1.180   3.416   8.104  1.9678  1.0560  0.5119
 6490SOL    HW231107   1.200   3.534   8.013 -1.0454 -0.0274 -0.6458
 6491SOL     OW31108   1.988   0.005  16.377  0.5870 -0.8629  0.4674
 6491SOL    HW131109   1.908   0.031  16.422  0.6824  0.2079  0.0212
 6491SOL    HW231110   1.952   4.686  16.307 -0.3134 -0.8504  0.9166
 6492SOL     OW31111   0.742   3.774   9.343 -0.8123 -0.5447 -0.3460
 6492SOL    HW131112   0.825   3.730   9.324 -0.8291 -0.2850 -1.0313
 6492SOL    HW231113   0.679   3.701   9.350  0.3127 -1.5198 -0.4269
 6493SOL     OW31114   3.145   3.687   2.852  0.1603  0.0393  0.5474
 6493SOL    HW131115   3.127   3.731   2.769 -0.5143 -2.7742 -0.7765
 6493SOL    HW231116   3.131   3.598   2.820 -0.2517  1.1003 -2.2431
 6494SOL     OW31117   0.394   4.571   5.301 -0.2818 -0.0374 -0.1118
 6494SOL    HW131118   0.338   4.509   5.347 -1.4600 -0.2815 -1.8964
 6494SOL    HW231119   0.337   4.635   5.260 -0.8898 -0.8340 -0.5010
 6495SOL     OW31120   3.690   3.731   4.420  0.0842  0.5143 -0.5216
 6495SOL    HW131121   3.732   3.645   4.415  1.3120  1.0387  0.7072
 6495SOL    HW231122   3.683   3.746   4.326  0.1380 -0.1039 -0.6270
 6496SOL     OW31123   4.624   3.562   8.535 -0.3253 -0.8676 -0.2066
 6496SOL    HW131124   4.666   3.646   8.518  0.9604 -0.9409  2.5487
 6496SOL    HW231125   4.549   3.568   8.476 -0.5328 -1.0556  0.0376
 6497SOL     OW31126   0.926   3.707   1.040 -0.3606 -0.1410 -0.1749
 6497SOL    HW131127   0.937   3.748   1.125 -0.8093 -0.7915  0.2057
 6497SOL    HW231128   0.840   3.746   1.025 -0.0158  0.6285 -0.1385
 6498SOL     OW31129   2.467   4.645  11.716 -0.4905  0.6620 -0.3298
 6498SOL    HW131130   2.378   4.669  11.741 -1.3229 -1.0282 -1.6966
 6498SOL    HW231131   2.495   4.635  11.807  1.4858 -0.8767 -1.0921
 6499SOL     OW31132   3.161   2.751   2.476  0.5318 -0.1238  0.2543
 6499SOL    HW131133   3.199   2.674   2.434  0.8368 -0.9591  2.0822
 6499SOL    HW231134   3.235   2.767   2.534  0.3369 -1.3804  0.8480
 6500SOL     OW31135   1.140   2.990   8.987  0.3159  0.4344 -0.3136
 6500SOL    HW131136   1.196   2.922   9.024  0.2919  0.8030  0.3937
 6500SOL    HW231137   1.074   2.932   8.947 -0.1403  0.0342  1.0002
 6501SOL     OW31138   3.844   1.677   6.026 -0.5127 -0.1464 -0.1736
 6501SOL    HW131139   3.825   1.734   5.952 -0.1953 -0.0525 -0.1827
 6501SOL    HW231140   3.816   1.740   6.093 -0.6049 -0.0583 -0.2953
 6502SOL     OW31141   4.578   3.128   8.478  0.5872 -0.2560  0.4916
 6502SOL    HW131142   4.628   3.066   8.425  1.9759 -0.0705  1.5565
 6502SOL    HW231143   4.516   3.160   8.413  0.7832  0.5866  0.7131
 6503SOL     OW31144   1.042   4.344   9.007  0.3244  0.0619 -0.3177
 6503SOL    HW131145   1.109   4.411   8.997  0.2743  0.1668  0.0399
 6503SOL    HW231146   1.084   4.281   8.948  0.3689 -0.7398  0.5632
 6504SOL     OW31147   3.752   0.993   7.601 -1.1602  0.0770  0.2076
 6504SOL    HW131148   3.670   0.985   7.649 -2.9175  0.3039 -2.7405
 6504SOL    HW231149   3.727   0.958   7.516 -0.0310 -1.0644  0.3399
 6505SOL     OW31150   2.800   0.440   9.302  0.4745  0.0700 -0.0093
 6505SOL    HW131151   2.771   0.359   9.259 -2.2604  1.2246 -0.2848
 6505SOL    HW231152   2.814   0.407   9.391 -0.6777 -0.8722 -0.1865
 6506SOL     OW31153   3.433   0.373   9.031 -0.4271  0.2113 -0.3082
 6506SOL    HW131154   3.369   0.314   9.071  0.5979 -0.9806 -0.4255
 6506SOL    HW231155   3.435   0.438   9.101  0.3124  0.3692 -0.4738
 6507SOL     OW31156   3.170   0.063   9.660 -0.2584 -0.4050  0.5031
 6507SOL    HW131157   3.237   4.734   9.638  0.6980  0.2435  1.5230
 6507SOL    HW231158   3.223   0.139   9.683 -3.0233  0.8484  2.7660
 6508SOL     OW31159   1.762   2.352   4.630 -0.0958  0.2510 -0.3819
 6508SOL    HW131160   1.741   2.262   4.605 -1.7498  0.3731  0.5906
 6508SOL    HW231161   1.858   2.353   4.625 -0.1289  0.5025 -1.0123
 6509SOL     OW31162   0.894   2.441   5.242  0.5145  0.4795  0.3547
 6509SOL    HW131163   0.853   2.355   5.237  2.7764 -0.6213  1.1281
 6509SOL    HW231164   0.824   2.499   5.272  0.5844  0.3492  0.7676
 6510SOL     OW31165   1.085   3.038   5.103  0.5606  0.2121  0.2170
 6510SOL    HW131166   1.148   3.042   5.032  0.6888 -1.2191  0.2542
 6510SOL    HW231167   1.128   3.109   5.151 -0.2679  0.8596  0.0015
 6511SOL     OW31168   2.184   1.927   4.596 -0.6071 -0.0706 -0.5545
 6511SOL    HW131169   2.162   1.895   4.684 -2.9441  1.4134 -0.5894
 6511SOL    HW231170   2.131   1.874   4.537 -2.7312 -0.2393  1.4929
 6512SOL     OW31171   4.108   1.649  12.516  0.2323 -0.2583  0.3449
 6512SOL    HW131172   4.015   1.631  12.513  0.4569 -0.9773 -2.4481
 6512SOL    HW231173   4.102   1.734  12.561 -3.3583 -0.3714  0.0738
 6513SOL     OW31174   2.852   4.713  15.769  0.0651  0.2693 -0.3585
 6513SOL    HW131175   2.770   4.698  15.720  0.6360  0.5875 -1.4042
 6513SOL    HW231176   2.818   4.731  15.856 -0.0112 -2.1332  0.1176
 6514SOL     OW31177   0.086   3.121   1.669 -0.4413  0.0513 -0.0557
 6514SOL    HW131178   0.053   3.033   1.688  0.4726 -0.6420 -1.6490
 6514SOL    HW231179   0.146   3.128   1.744 -0.5560 -0.3033  0.0697
 6515SOL     OW31180   2.437   0.859   3.255  0.4341 -0.0585  0.1637
 6515SOL    HW131181   2.470   0.943   3.285 -0.4701 -0.4163  2.1583
 6515SOL    HW231182   2.503   0.832   3.191 -0.7230  0.8750 -1.4316
 6516SOL     OW31183   0.512   2.265  14.609  0.0888  0.5046 -0.3275
 6516SOL    HW131184   0.431   2.309  14.636 -0.2022  0.9350 -1.9291
 6516SOL    HW231185   0.539   2.332  14.547  1.0124  0.9309  0.5355
 6517SOL     OW31186   4.691   1.192   1.984  0.1404  0.0829 -0.0150
 6517SOL    HW131187   4.713   1.187   1.891  1.6988  1.3895  0.2728
 6517SOL    HW231188   4.714   1.108   2.023 -2.7018  0.0545  1.5732
 6518SOL     OW31189   4.730   1.107  13.512 -0.4708 -0.0584 -0.0808
 6518SOL    HW131190   4.720   1.203  13.508  0.4128 -0.0318 -1.6091
 6518SOL    HW231191   0.068   1.106  13.572  0.1856 -1.4103 -0.9201
 6519SOL     OW31192   4.397   1.422   1.907  0.3786  0.4206  0.0396
 6519SOL    HW131193   4.418   1.448   1.997 -1.1769  1.3372  0.1361
 6519SOL    HW231194   4.368   1.331   1.916  1.1412  0.3807  2.2024
 6520SOL     OW31195   2.143   0.397   2.873  0.6742 -0.1586 -0.1072
 6520SOL    HW131196   2.137   0.489   2.901 -0.6160 -0.3805  0.3497
 6520SOL    HW231197   2.147   0.412   2.778 -1.7545  2.3196  0.1657
 6521SOL     OW31198   1.529   1.551   3.386 -0.6859 -0.1161 -0.2824
 6521SOL    HW131199   1.506   1.610   3.314 -0.2950 -0.2116 -0.4828
 6521SOL    HW231200   1.535   1.610   3.461 -1.4914  0.3288 -0.5647
 6522SOL     OW31201   1.185   2.488   5.499  0.6020 -0.5444  0.1446
 6522SOL    HW131202   1.204   2.506   5.591  0.1889  0.1137  0.1024
 6522SOL    HW231203   1.090   2.475   5.504  0.2144  2.1097 -0.4735
 6523SOL     OW31204   3.741   3.087   4.231 -0.2040  0.3173  0.0993
 6523SOL    HW131205   3.688   3.051   4.302  2.5760 -0.1714  1.9054
 6523SOL    HW231206   3.805   3.016   4.220  0.7997  1.1982  0.3242
 6524SOL     OW31207   2.953   3.742   6.766  0.2406 -0.0152  0.0703
 6524SOL    HW131208   2.902   3.723   6.845 -1.7001  1.9558 -0.7184
 6524SOL    HW231209   2.897   3.693   6.705 -2.3713  0.8089  1.7988
 6525SOL     OW31210   2.595   2.750  11.536 -0.6409  0.3645  0.1054
 6525SOL    HW131211   2.630   2.661  11.538  1.2338  1.0708 -0.7184
 6525SOL    HW231212   2.673   2.799  11.563 -0.6099  1.6808 -2.4165
 6526SOL     OW31213   4.196   1.035   3.636 -0.1494 -0.2630 -0.3177
 6526SOL    HW131214   4.152   0.953   3.660  1.0015 -0.9904 -0.7298
 6526SOL    HW231215   4.131   1.069   3.575 -0.8176  1.0929  1.1427
 6527SOL     OW31216   3.806   4.293   7.059 -0.2051 -0.1748  1.1192
 6527SOL    HW131217   3.715   4.305   7.088 -1.5063 -2.5733 -1.8463
 6527SOL    HW231218   3.825   4.199   7.050  2.2168  0.5875 -1.7957
 6528SOL     OW31219   1.670   4.724   8.074  0.0412  0.5894 -0.5483
 6528SOL    HW131220   1.690   4.633   8.050 -1.9204 -0.0933  0.4172
 6528SOL    HW231221   1.756   0.031   8.082  1.9401 -2.7168 -3.2517
 6529SOL     OW31222   0.191   4.196   8.188 -0.6714  0.1699 -0.1114
 6529SOL    HW131223   0.209   4.209   8.281  1.3447 -1.4750 -0.2816
 6529SOL    HW231224   0.199   4.101   8.185 -0.5295  0.1767  0.0529
 6530SOL     OW31225   4.251   4.669   6.128  0.2295 -0.4506 -0.2498
 6530SOL    HW131226   4.208   4.725   6.064 -2.8859  0.2444  2.4258
 6530SOL    HW231227   4.247   4.725   6.206  1.5655 -0.1424 -0.4067
 6531SOL     OW31228   4.473   1.964  12.138  0.0718  0.3315 -0.5137
 6531SOL    HW131229   4.397   1.954  12.196  0.4295  1.8083  0.1990
 6531SOL    HW231230   4.432   1.988  12.054 -3.3127 -1.0004  0.7406
 6532SOL     OW31231   2.108   2.771  16.434 -0.0341 -0.2794 -0.4625
 6532SOL    HW131232   2.107   2.731  16.520 -1.3345 -0.7113 -0.6848
 6532SOL    HW231233   2.131   2.690  16.389 -0.0301 -0.5719  0.0758
 6533SOL     OW31234   0.741   0.223   6.332 -0.0328  0.1503  0.3788
 6533SOL    HW131235   0.678   0.272   6.279  1.0097  1.7149  0.5549
 6533SOL    HW231236   0.809   0.290   6.324 -1.5777  1.3031 -3.1109
 6534SOL     OW31237   1.049   1.622  13.004  0.4778  0.1704 -0.3408
 6534SOL    HW131238   1.138   1.644  13.029  0.4273 -0.2411  0.1804
 6534SOL    HW231239   1.052   1.646  12.911  0.8838 -0.9791 -0.6236
 6535SOL     OW31240   2.765   0.819   3.611 -0.3421 -0.1946 -0.9116
 6535SOL    HW131241   2.831   0.885   3.632 -1.1884 -0.2511  1.9160
 6535SOL    HW231242   2.783   0.808   3.518  0.2484 -0.7505 -0.7382
 6536SOL     OW31243   1.292   1.689   6.525  0.1449  0.0322  0.4054
 6536SOL    HW131244   1.341   1.620   6.569  2.4201  1.1436 -0.3687
 6536SOL    HW231245   1.320   1.672   6.435  0.3665  1.6842  0.1473
 6537SOL     OW31246   2.457   0.804   5.754 -0.2342 -0.1211 -0.1469
 6537SOL    HW131247   2.429   0.714   5.737 -0.6387  0.0410 -0.3576
 6537SOL    HW231248   2.416   0.841   5.675  3.5067 -1.1651 -2.5736
 6538SOL     OW31249   0.966   0.067   6.105 -0.4129  0.3217  0.4755
 6538SOL    HW131250   1.050   0.106   6.127 -0.2594  0.1676  0.1647
 6538SOL    HW231251   0.960   0.010   6.181  2.3655  1.3118  1.4398
 6539SOL     OW31252   3.926   1.406   1.925 -0.0511  0.0248 -0.0277
 6539SOL    HW131253   3.935   1.324   1.877  2.1537  0.2946 -0.0702
 6539SOL    HW231254   4.008   1.422   1.972  0.0644  2.1526 -0.9246
 6540SOL     OW31255   1.146   2.800   4.864 -0.0464  0.5516 -0.0212
 6540SOL    HW131256   1.190   2.880   4.892 -1.6300  1.1921  0.6510
 6540SOL    HW231257   1.165   2.740   4.936  2.6160  0.4441 -0.8012
 6541SOL     OW31258   2.894   2.499  12.577  0.5648  0.4890 -0.3142
 6541SOL    HW131259   2.837   2.423  12.562  0.3208  0.5786  0.1517
 6541SOL    HW231260   2.897   2.510  12.672 -0.4100  2.0823 -0.4755
 6542SOL     OW31261   1.257   0.391   2.804  0.3484 -0.3408 -0.1514
 6542SOL    HW131262   1.330   0.386   2.742  1.7396  0.3424  1.4309
 6542SOL    HW231263   1.258   0.486   2.821 -1.4752 -0.5804  1.3331
 6543SOL     OW31264   0.608   2.958  13.772  0.4522 -0.4641  0.2289
 6543SOL    HW131265   0.625   2.904  13.849 -2.5200 -1.2143  0.3655
 6543SOL    HW231266   0.537   3.018  13.793 -0.0229 -0.9247 -0.0640
 6544SOL     OW31267   2.663   2.919  13.714 -0.1503 -0.0601  0.0120
 6544SOL    HW131268   2.571   2.926  13.740 -0.6276 -0.6051 -1.5053
 6544SOL    HW231269   2.651   2.929  13.619  3.4338  0.4936 -0.4017
 6545SOL     OW31270   1.282   4.306  11.077 -0.7100 -0.1590 -0.0255
 6545SOL    HW131271   1.233   4.264  11.148  0.7519  1.2475  1.8184
 6545SOL    HW231272   1.242   4.252  11.008 -0.0727 -0.8083  0.1054
 6546SOL     OW31273   1.548   2.142   5.625 -0.0823 -0.1878  0.6875
 6546SOL    HW131274   1.452   2.141   5.618  0.1056 -1.0062 -1.7128
 6546SOL    HW231275   1.559   2.061   5.676 -2.2334  0.0023  1.4600
 6547SOL     OW31276   0.725   0.795   7.996 -0.0770 -0.6601  0.2897
 6547SOL    HW131277   0.763   0.729   7.938  2.2023  0.3316  0.6621
 6547SOL    HW231278   0.740   0.877   7.948 -0.4812  0.6870  2.4542
 6548SOL     OW31279   0.950   2.289   0.966 -0.6843  0.3558  0.0382
 6548SOL    HW131280   0.868   2.306   1.012 -1.0185  0.8474 -0.7471
 6548SOL    HW231281   0.977   2.378   0.946  3.2165 -0.6195  0.9426
 6549SOL     OW31282   2.777   2.975  16.635  0.2608 -0.3733 -0.4321
 6549SOL    HW131283   2.717   3.009  16.568 -0.5579  1.2163  1.0906
 6549SOL    HW231284   2.825   2.912  16.582  0.7070  0.4249 -0.9823
 6550SOL     OW31285   3.838   4.253  15.331  0.4817  0.0134 -0.2013
 6550SOL    HW131286   3.813   4.169  15.293  0.4500  0.1309 -0.4416
 6550SOL    HW231287   3.771   4.261  15.399  1.9221  0.0010  1.1985
 6551SOL     OW31288   1.737   1.510   6.146  0.3694 -0.5029  0.0047
 6551SOL    HW131289   1.819   1.534   6.104  0.3602 -2.4452 -1.1163
 6551SOL    HW231290   1.745   1.541   6.236  0.6507 -1.5286  0.3296
 6552SOL     OW31291   0.902   2.452   8.887  0.1142  0.6004 -0.0064
 6552SOL    HW131292   0.859   2.481   8.806  2.0681 -1.3032 -1.7388
 6552SOL    HW231293   0.960   2.382   8.856 -1.1864 -0.3388 -0.3155
 6553SOL     OW31294   1.344   0.073  12.700 -0.1352  0.4181 -0.0460
 6553SOL    HW131295   1.276   0.037  12.757 -0.7776 -0.1875 -1.1842
 6553SOL    HW231296   1.302   0.158  12.690  0.9915  1.0978  1.1715
 6554SOL     OW31297   3.195   0.768   4.003 -0.0374  0.1562 -0.1251
 6554SOL    HW131298   3.142   0.819   4.064 -0.8946 -2.6687  1.5120
 6554SOL    HW231299   3.243   0.721   4.072  0.2721  2.4306  1.2340
 6555SOL     OW31300   3.455   2.312   4.023 -0.0558 -0.0100  0.9818
 6555SOL    HW131301   3.511   2.382   4.057 -2.0143  1.5925  0.9260
 6555SOL    HW231302   3.396   2.360   3.964  2.2774  0.4662 -0.9378
 6556SOL     OW31303   2.028   3.944   6.011 -0.5874 -0.5911  0.2319
 6556SOL    HW131304   2.004   3.852   6.006 -0.0147 -0.7444  0.2708
 6556SOL    HW231305   1.944   3.989   6.019 -0.6209 -0.2669 -1.9645
 6557SOL     OW31306   0.906   1.168   4.923  0.1619  0.3151  0.6340
 6557SOL    HW131307   0.974   1.153   4.989  2.2056 -0.4213 -1.6454
 6557SOL    HW231308   0.850   1.091   4.931  1.4594 -0.6632  0.3617
 6558SOL     OW31309   3.382   0.087   6.566  0.1309 -0.3077 -0.1905
 6558SOL    HW131310   3.314   0.032   6.528  0.3691  0.3002 -1.4865
 6558SOL    HW231311   3.437   0.094   6.489 -2.0682 -0.3379 -1.7606
 6559SOL     OW31312   2.138   1.031   4.977  0.2046 -0.8087  0.1787
 6559SOL    HW131313   2.051   1.007   5.009  0.4849 -0.9026  0.8749
 6559SOL    HW231314   2.171   1.099   5.036  2.7389 -1.2551 -0.6895
 6560SOL     OW31315   2.264   4.693   1.107 -0.9794  0.1499 -0.3328
 6560SOL    HW131316   2.337   0.012   1.136 -1.3630 -0.1670  1.2090
 6560SOL    HW231317   2.243   4.641   1.184  0.3907  1.5673  0.9842
 6561SOL     OW31318   4.146   3.543   6.350  0.0018  0.0693 -0.0740
 6561SOL    HW131319   4.133   3.633   6.381 -1.3070 -0.7729  1.7880
 6561SOL    HW231320   4.168   3.505   6.434 -2.3426 -0.7479  0.1705
 6562SOL     OW31321   2.870   2.212   8.963 -0.4707 -0.0649 -0.4303
 6562SOL    HW131322   2.796   2.258   8.924 -1.3633  0.1510  1.5175
 6562SOL    HW231323   2.818   2.149   9.013 -0.3779  0.3019  0.1310
 6563SOL     OW31324   4.501   3.170   1.137  0.1531  0.0240 -0.1708
 6563SOL    HW131325   4.529   3.145   1.049  2.0028 -1.0179  0.7133
 6563SOL    HW231326   4.421   3.214   1.109  1.3030  0.5777 -2.5867
 6564SOL     OW31327   2.837   2.209   6.735 -0.5198  0.5394 -0.2448
 6564SOL    HW131328   2.809   2.262   6.809 -1.1368  0.5777 -0.5049
 6564SOL    HW231329   2.865   2.127   6.776 -0.1668 -1.0732 -3.6588
 6565SOL     OW31330   1.967   0.145   4.564 -0.2727  0.2633  0.1505
 6565SOL    HW131331   2.034   0.080   4.585 -2.1776 -1.9678 -0.8200
 6565SOL    HW231332   1.961   0.196   4.645 -0.2306 -1.2690  1.1055
 6566SOL     OW31333   1.769   1.151  12.144  0.6802  0.4707  0.6980
 6566SOL    HW131334   1.673   1.159  12.139  0.7888  0.2758 -1.6870
 6566SOL    HW231335   1.794   1.189  12.229 -2.4111  1.8159  1.0355
 6567SOL     OW31336   4.120   1.269   7.013 -0.4897 -1.1945 -0.1710
 6567SOL    HW131337   4.120   1.231   6.924  2.3049  1.9802 -1.4929
 6567SOL    HW231338   4.028   1.287   7.032 -0.3848 -1.0509  0.1973
 6568SOL     OW31339   3.516   4.330   7.078 -0.7511 -0.2213  0.2875
 6568SOL    HW131340   3.452   4.392   7.042  1.0497  0.2954 -2.0020
 6568SOL    HW231341   3.464   4.250   7.073 -0.9477 -0.1739  1.4727
 6569SOL     OW31342   2.375   2.570   3.603 -0.7307  0.0546 -0.3687
 6569SOL    HW131343   2.303   2.632   3.592 -0.2714  0.4356 -1.2388
 6569SOL    HW231344   2.381   2.564   3.698  2.8374 -0.7966 -0.6165
 6570SOL     OW31345   1.728   3.778   2.565  0.6231  0.3885 -0.2767
 6570SOL    HW131346   1.694   3.770   2.653  1.7952 -2.3825 -0.0789
 6570SOL    HW231347   1.684   3.860   2.542  0.1992 -0.0721 -1.0980
 6571SOL     OW31348   3.290   2.020   5.824 -0.0793  0.0753 -0.4050
 6571SOL    HW131349   3.207   2.046   5.784 -1.8529 -0.6266  2.9007
 6571SOL    HW231350   3.280   1.925   5.826 -0.9211  0.1085 -3.2333
 6572SOL     OW31351   4.022   2.935   4.848  0.1442  0.0971  0.2452
 6572SOL    HW131352   4.091   2.879   4.885  1.1939  1.1290 -0.1409
 6572SOL    HW231353   3.943   2.903   4.891 -1.1746 -0.5644 -2.6932
 6573SOL     OW31354   2.679   2.969   4.482 -0.5853  0.0704  0.4804
 6573SOL    HW131355   2.605   2.927   4.438 -0.4617  0.5258 -0.1780
 6573SOL    HW231356   2.627   3.044   4.511 -0.1328  0.1094  1.1907
 6574SOL     OW31357   3.763   4.350   4.785 -0.0956  0.6397 -0.1914
 6574SOL    HW131358   3.846   4.315   4.753  0.5871  1.0076  1.1794
 6574SOL    HW231359   3.754   4.292   4.860  2.1689  0.9930  0.3543
 6575SOL     OW31360   1.402   2.211   2.620  0.3466  0.1248  0.7929
 6575SOL    HW131361   1.340   2.218   2.548  0.2462  2.9135  1.1196
 6575SOL    HW231362   1.480   2.221   2.566 -0.2856  0.8715  0.0289
 6576SOL     OW31363   3.585   3.046   9.716 -0.2243 -0.2044  0.5419
 6576SOL    HW131364   3.496   3.024   9.744 -1.3839  4.1023  0.2085
 6576SOL    HW231365   3.570   3.083   9.629  0.8979 -0.7903  0.1031
 6577SOL     OW31366   3.520   2.986   7.896  0.1537  0.0212 -0.3034
 6577SOL    HW131367   3.509   3.072   7.858  1.3601  0.2742 -0.0797
 6577SOL    HW231368   3.607   2.955   7.871 -0.5901 -2.0762 -0.3278
 6578SOL     OW31369   2.941   1.556  12.321 -0.3023  0.0156  0.1207
 6578SOL    HW131370   2.899   1.476  12.289 -1.6898  1.8043 -2.5430
 6578SOL    HW231371   2.879   1.580  12.390 -1.2421  0.1905 -0.7759
 6579SOL     OW31372   4.684   2.553  12.677  0.3695  0.8852 -0.0847
 6579SOL    HW131373   4.677   2.479  12.737  0.6216 -1.4349 -2.8835
 6579SOL    HW231374   4.597   2.557  12.638  0.4650 -0.1380 -0.4095
 6580SOL     OW31375   3.676   3.249   7.508 -0.3524 -0.4573  0.1402
 6580SOL    HW131376   3.584   3.272   7.519  0.1049  0.8968  1.0956
 6580SOL    HW231377   3.716   3.279   7.590 -0.0634 -0.9385  0.1790
 6581SOL     OW31378   4.465   2.481   7.680 -0.0879  0.0472 -0.0321
 6581SOL    HW131379   4.419   2.401   7.654 -1.1360  0.0937  1.7660
 6581SOL    HW231380   4.508   2.454   7.761  0.2051  1.6358  0.3400
 6582SOL     OW31381   0.355   4.324   6.977  0.1945  0.3223 -0.1713
 6582SOL    HW131382   0.307   4.380   6.917  1.2456 -0.1703 -1.4656
 6582SOL    HW231383   0.320   4.353   7.061  2.3298 -0.3222  0.9618
 6583SOL     OW31384   1.092   1.904  11.678 -0.2236 -0.0429  0.1738
 6583SOL    HW131385   1.185   1.885  11.668 -0.1241  0.1121  0.8150
 6583SOL    HW231386   1.074   1.977  11.619 -1.9634  1.6332  2.7478
 6584SOL     OW31387   0.323   3.719   8.617  0.4673  0.1152 -0.8109
 6584SOL    HW131388   0.288   3.683   8.699  0.5171 -1.9531 -1.6772
 6584SOL    HW231389   0.303   3.809   8.641  1.5813 -0.5627  2.5933
 6585SOL     OW31390   2.633   0.912  11.925  0.1791 -0.9126 -0.4007
 6585SOL    HW131391   2.639   0.911  11.830  0.8862 -3.8561 -0.3372
 6585SOL    HW231392   2.616   0.821  11.950  0.2730 -0.7340  0.3127
 6586SOL     OW31393   1.935   0.117   2.610 -0.3459  0.0044  0.2801
 6586SOL    HW131394   2.012   0.100   2.556  1.0253  1.6214  1.7155
 6586SOL    HW231395   1.959   0.084   2.697  2.0760 -2.1311 -1.2306
 6587SOL     OW31396   0.934   3.315  12.744 -0.3188  0.1254  0.3434
 6587SOL    HW131397   0.947   3.274  12.659 -1.0226 -1.9452  1.2231
 6587SOL    HW231398   1.025   3.336  12.768 -0.1940  0.0524 -0.0737
 6588SOL     OW31399   2.767   2.242   3.755 -0.2081  0.4720  0.0028
 6588SOL    HW131400   2.826   2.286   3.694  1.0154 -0.0955  0.7598
 6588SOL    HW231401   2.722   2.187   3.691 -1.1636  0.2015  0.9041
 6589SOL     OW31402   1.054   4.466   3.832 -0.5151  0.5614  0.0374
 6589SOL    HW131403   1.096   4.460   3.746  0.5368 -0.7892  0.6426
 6589SOL    HW231404   1.102   4.531   3.883  0.6779  1.2260 -1.9032
 6590SOL     OW31405   4.475   3.401   1.513  0.2276  0.7976 -0.3012
 6590SOL    HW131406   4.398   3.417   1.568  0.0771  1.7056 -0.7820
 6590SOL    HW231407   4.453   3.454   1.437  0.3331  1.6148  0.2348
 6591SOL     OW31408   2.823   0.881   0.304  0.2922  0.0361 -0.3995
 6591SOL    HW131409   2.856   0.959   0.349  2.0257 -0.0131 -1.5903
 6591SOL    HW231410   2.852   0.896   0.214 -3.6777  0.5082 -1.6066
 6592SOL     OW31411   1.800   1.981   5.254  0.1559  0.2094 -0.1594
 6592SOL    HW131412   1.766   2.062   5.292  0.3476  0.6505 -0.9398
 6592SOL    HW231413   1.828   1.935   5.333  0.2370 -0.0300 -0.3254
 6593SOL     OW31414   2.481   0.651   6.854 -0.0240  0.5626 -0.1628
 6593SOL    HW131415   2.501   0.654   6.948 -2.1955  1.1435  0.2843
 6593SOL    HW231416   2.511   0.563   6.832  0.5967  0.7556 -0.1077
 6594SOL     OW31417   2.844   0.461   6.359  0.1013  0.8485  0.4357
 6594SOL    HW131418   2.861   0.553   6.380  1.3187  1.0935 -1.6153
 6594SOL    HW231419   2.786   0.438   6.432 -0.6257  2.0437  0.2382
 6595SOL     OW31420   3.590   3.852  10.966  0.7804  0.1772  0.0957
 6595SOL    HW131421   3.560   3.942  10.954  0.0873  0.2323  2.1527
 6595SOL    HW231422   3.626   3.872  11.052  0.5127 -0.6345  0.3960
 6596SOL     OW31423   1.772   0.852   6.627 -0.0009  0.7505  0.3598
 6596SOL    HW131424   1.796   0.776   6.680  0.3531 -0.5154 -1.5962
 6596SOL    HW231425   1.856   0.897   6.624  0.3607 -0.0078 -1.0196
 6597SOL     OW31426   0.120   1.533   3.476 -0.1914 -0.5180  0.2271
 6597SOL    HW131427   0.151   1.572   3.558  0.6590 -0.5692 -0.0681
 6597SOL    HW231428   0.026   1.549   3.475 -0.1314 -0.2267 -0.6413
 6598SOL     OW31429   2.643   4.586   4.573  0.4879  0.1486 -0.2260
 6598SOL    HW131430   2.616   4.522   4.508 -0.6638 -0.7948  1.1821
 6598SOL    HW231431   2.623   4.541   4.655  2.7113 -2.7547 -1.2729
 6599SOL     OW31432   0.742   4.294   8.436 -0.0752  0.4004 -0.4507
 6599SOL    HW131433   0.724   4.368   8.378 -3.3000  0.4184  0.5559
 6599SOL    HW231434   0.813   4.325   8.492  1.0656 -0.8183 -1.2517
 6600SOL     OW31435   0.262   1.849   8.231 -0.2759 -0.2814 -0.3750
 6600SOL    HW131436   0.239   1.833   8.140  1.3732 -3.5188 -0.2356
 6600SOL    HW231437   0.358   1.850   8.234 -0.3077 -0.1337  0.6533
 6601SOL     OW31438   2.966   2.766   1.963  0.3859  0.0381  0.1220
 6601SOL    HW131439   2.877   2.731   1.962  0.1133  0.7199  0.9183
 6601SOL    HW231440   3.012   2.685   1.984  0.4015  0.4546  1.6975
 6602SOL     OW31441   0.782   1.785   8.016 -0.0571 -0.2529 -0.0576
 6602SOL    HW131442   0.745   1.700   7.990  0.3886 -0.3443 -0.3941
 6602SOL    HW231443   0.835   1.754   8.089 -1.0373  0.7936  1.0958
 6603SOL     OW31444   2.423   3.085   4.801  0.0455 -0.2579 -0.7405
 6603SOL    HW131445   2.341   3.062   4.759  0.5415 -2.3877 -0.5450
 6603SOL    HW231446   2.460   2.996   4.799 -0.5044 -0.5311  1.0278
 6604SOL     OW31447   1.464   3.640   6.537 -0.5817 -0.1684 -0.0300
 6604SOL    HW131448   1.424   3.692   6.606 -1.2424 -1.2067  0.3614
 6604SOL    HW231449   1.461   3.556   6.582 -0.4479  0.0486  0.3756
 6605SOL     OW31450   4.675   0.027   3.836  0.4158 -0.0199  0.0268
 6605SOL    HW131451   4.680   0.038   3.741 -2.1239  2.3287  0.1612
 6605SOL    HW231452   0.029   4.732   3.845  0.7146  0.3258 -1.6974
 6606SOL     OW31453   2.475   0.568   7.507  0.7192 -0.1977  0.3228
 6606SOL    HW131454   2.515   0.646   7.544  0.3192 -0.0888  0.5354
 6606SOL    HW231455   2.382   0.574   7.531  0.3572  1.1110 -1.3707
 6607SOL     OW31456   3.306   2.721   5.045  0.3772 -0.4028 -0.1855
 6607SOL    HW131457   3.288   2.728   4.952  0.7887  0.3770 -0.2015
 6607SOL    HW231458   3.238   2.658   5.069 -1.4751  1.9422  0.7345
 6608SOL     OW31459   0.232   4.129  13.039 -0.4371 -0.4218  0.3406
 6608SOL    HW131460   0.322   4.160  13.052 -1.1538  1.4011  0.9373
 6608SOL    HW231461   0.207   4.179  12.961 -1.4221  0.7125  1.3924
 6609SOL     OW31462   3.033   0.974   7.563  0.2399 -0.2829  0.1231
 6609SOL    HW131463   2.966   1.035   7.533  2.1072  1.5050 -0.4130
 6609SOL    HW231464   3.081   1.022   7.630 -0.7503  0.0484  0.5951
 6610SOL     OW31465   4.649   2.409   3.784  0.6988 -0.5987 -0.6468
 6610SOL    HW131466   4.684   2.321   3.800  1.4101  0.2246  2.3198
 6610SOL    HW231467   4.683   2.453   3.862 -0.8643 -1.6176  0.5839
 6611SOL     OW31468   3.204   1.056   1.433  0.1266  0.5008 -0.2301
 6611SOL    HW131469   3.261   1.082   1.505 -1.4763  0.2293  1.1298
 6611SOL    HW231470   3.141   0.998   1.474  4.0767 -1.5017  2.9508
 6612SOL     OW31471   4.247   3.390   4.041  0.6547 -0.9114 -0.0232
 6612SOL    HW131472   4.222   3.368   3.951 -3.3882 -0.5466  0.9696
 6612SOL    HW231473   4.210   3.314   4.085  0.2643 -0.3902  0.5534
 6613SOL     OW31474   0.025   3.798  12.741 -0.2968 -0.2938 -0.4027
 6613SOL    HW131475   0.096   3.733  12.747 -0.6329 -0.6046  0.1861
 6613SOL    HW231476   0.055   3.857  12.809 -1.3161 -0.9533  0.6160
 6614SOL     OW31477   0.291   3.246   7.832  0.0570 -0.2874  0.0535
 6614SOL    HW131478   0.286   3.163   7.784  1.6345 -2.4728  3.7300
 6614SOL    HW231479   0.206   3.289   7.834 -0.2981 -0.9900 -0.0753
 6615SOL     OW31480   1.457   3.833  10.284  0.0887 -0.0860  0.1562
 6615SOL    HW131481   1.442   3.786  10.201  1.2834 -0.7360  0.3106
 6615SOL    HW231482   1.382   3.809  10.338  1.0286 -0.8743  1.1004
 6616SOL     OW31483   0.851   1.791   6.367 -0.4709  0.2454 -0.0496
 6616SOL    HW131484   0.824   1.873   6.410  2.9016 -0.6703  3.7827
 6616SOL    HW231485   0.818   1.796   6.277  0.5618  0.9954 -0.3860
 6617SOL     OW31486   1.981   3.278   0.129 -0.0948 -0.2470  0.1407
 6617SOL    HW131487   1.889   3.286   0.154  0.2311  1.3472  0.7886
 6617SOL    HW231488   2.022   3.217   0.191 -1.3550  0.3313  1.5322
 6618SOL     OW31489   2.078   0.023  13.699 -0.2430  0.0508 -0.5358
 6618SOL    HW131490   2.036   0.101  13.733  1.1146 -1.3200  4.2752
 6618SOL    HW231491   2.037   4.693  13.755  0.2195 -0.7257 -1.0968
 6619SOL     OW31492   1.535   0.333   2.013  0.3401  0.2559 -0.0086
 6619SOL    HW131493   1.518   0.322   2.106 -2.7212  0.7404 -0.5190
 6619SOL    HW231494   1.521   0.427   2.005 -1.3468 -0.0170 -0.3903
 6620SOL     OW31495   1.392   0.987   8.171  0.3591  0.5230  0.2025
 6620SOL    HW131496   1.397   0.981   8.075  0.9132 -1.3075  0.3485
 6620SOL    HW231497   1.485   0.978   8.195 -0.0859 -0.2954  1.5876
 6621SOL     OW31498   3.707   4.189   8.511 -0.3479 -0.2496 -0.0417
 6621SOL    HW131499   3.710   4.237   8.593 -0.7414 -2.4456  1.2703
 6621SOL    HW231500   3.693   4.255   8.443  1.1266 -0.4107 -0.4966
 6622SOL     OW31501   1.888   0.683   6.839  0.1981 -0.4589 -0.0208
 6622SOL    HW131502   1.842   0.600   6.852 -2.1631  0.7521 -0.7545
 6622SOL    HW231503   1.968   0.667   6.889  0.7963 -0.5449 -1.0078
 6623SOL     OW31504   1.630   0.150   3.722 -0.2685  0.4219  0.2345
 6623SOL    HW131505   1.641   0.159   3.816  0.2517  2.4439  0.0002
 6623SOL    HW231506   1.650   0.238   3.688  1.4450  0.4363  1.2949
 6624SOL     OW31507   4.309   2.882   7.683 -0.1266  0.5664  0.6254
 6624SOL    HW131508   4.237   2.861   7.742 -0.0499  1.7319  1.1252
 6624SOL    HW231509   4.282   2.972   7.662 -1.0946  0.2944  0.7009
 6625SOL     OW31510   3.000   2.518   4.053  0.5646  0.7531 -0.4048
 6625SOL    HW131511   2.912   2.522   4.017 -0.1451  0.6154  1.3138
 6625SOL    HW231512   3.056   2.484   3.982  0.4003  1.2211 -0.7517
 6626SOL     OW31513   0.674   3.727   0.086 -0.4051  0.0997 -0.6777
 6626SOL    HW131514   0.760   3.762   0.064 -1.5565  2.3744 -1.5430
 6626SOL    HW231515   0.644   3.789   0.153 -0.4667 -1.7158  0.9850
 6627SOL     OW31516   0.934   0.824   7.275 -0.1579 -0.1073  0.3096
 6627SOL    HW131517   0.962   0.746   7.323  1.6385  0.8264  0.7581
 6627SOL    HW231518   0.839   0.825   7.289 -0.2001 -1.3520  0.1634
 6628SOL     OW31519   3.622   0.670   5.450 -0.1898  0.0138  0.2612
 6628SOL    HW131520   3.591   0.580   5.443  1.7073 -0.6771  0.8615
 6628SOL    HW231521   3.576   0.716   5.379  0.9778 -0.9184 -1.0940
 6629SOL     OW31522   1.774   4.090   6.577 -0.1592 -0.0823 -0.1007
 6629SOL    HW131523   1.751   4.080   6.484 -0.9835  0.1563  0.0741
 6629SOL    HW231524   1.869   4.081   6.576  0.0465  2.1926 -0.6392
 6630SOL     OW31525   2.305   2.354   9.763 -0.2607  0.1490  0.8946
 6630SOL    HW131526   2.391   2.379   9.798 -0.3148  1.9451 -0.2260
 6630SOL    HW231527   2.254   2.341   9.842 -3.5023  2.6023 -0.7767
 6631SOL     OW31528   1.868   3.265  10.328 -0.2304 -0.6315 -0.0517
 6631SOL    HW131529   1.781   3.230  10.309 -0.4073 -0.5827  0.6994
 6631SOL    HW231530   1.908   3.193  10.378  1.4540 -0.3318 -0.9788
 6632SOL     OW31531   1.429   3.344   3.683  0.1423  0.2369 -0.1473
 6632SOL    HW131532   1.370   3.346   3.607  1.6752 -0.7561 -1.3616
 6632SOL    HW231533   1.505   3.363   3.628  0.7633 -0.1406  0.5839
 6633SOL     OW31534   2.518   4.126  12.060 -0.0147  0.3638 -0.0999
 6633SOL    HW131535   2.523   4.222  12.056 -1.2861  0.4176 -0.3002
 6633SOL    HW231536   2.557   4.101  11.976 -0.5735 -1.1723  0.1162
 6634SOL     OW31537   2.197   3.161   9.318 -0.7827  0.3606  0.2193
 6634SOL    HW131538   2.290   3.142   9.329 -0.8213 -0.1430 -0.3059
 6634SOL    HW231539   2.200   3.250   9.283  2.4984 -0.4007 -1.5397
 6635SOL     OW31540   2.389   2.564  13.380  0.0471 -0.4201  0.3207
 6635SOL    HW131541   2.358   2.475  13.397  2.3064 -1.3446 -0.4489
 6635SOL    HW231542   2.328   2.591  13.311 -0.9797  1.7549  2.0698
 6636SOL     OW31543   1.033   3.843   0.640 -0.2587  0.2632  0.4192
 6636SOL    HW131544   1.037   3.839   0.545 -2.4475  1.7184  0.2558
 6636SOL    HW231545   0.982   3.763   0.655  0.2595 -0.2714 -0.7122
 6637SOL     OW31546   2.770   0.619   1.526  0.2483 -0.4328 -0.5061
 6637SOL    HW131547   2.855   0.661   1.524 -0.8491  1.9404  2.6365
 6637SOL    HW231548   2.722   0.648   1.449 -2.4884 -1.2178  0.8509
 6638SOL     OW31549   0.659   2.019  17.439 -0.2731  0.1054 -0.3861
 6638SOL    HW131550   0.745   1.994  17.406 -0.4251 -2.5773  1.2132
 6638SOL    HW231551   0.611   2.017  17.356  0.7640 -0.9758 -0.9529
 6639SOL     OW31552   1.493   1.989   6.993 -0.3118 -0.2378 -0.2554
 6639SOL    HW131553   1.417   1.932   6.992  0.2033 -0.9351  0.2500
 6639SOL    HW231554   1.455   2.077   7.003 -0.0760  0.0448 -1.8166
 6640SOL     OW31555   2.605   1.252   2.604 -0.3018 -0.1551  0.0684
 6640SOL    HW131556   2.617   1.160   2.628  0.5865  0.3144  1.4488
 6640SOL    HW231557   2.543   1.245   2.532 -0.6463  0.5820  0.2874
 6641SOL     OW31558   0.866   1.910   4.089  0.1052 -0.0482 -0.2920
 6641SOL    HW131559   0.791   1.894   4.147  0.1668 -1.7340 -0.6941
 6641SOL    HW231560   0.904   1.827   4.060  0.0194 -0.5041  0.9158
 6642SOL     OW31561   4.455   0.798   8.606 -0.1253  0.4720 -0.4727
 6642SOL    HW131562   4.421   0.887   8.604 -0.3003  0.3799 -1.6327
 6642SOL    HW231563   4.373   0.763   8.572 -1.1014  2.4649 -0.1677
 6643SOL     OW31564   2.870   0.649   3.162  0.0610 -0.1029 -0.9292
 6643SOL    HW131565   2.792   0.594   3.155  1.1835 -1.6281 -1.5392
 6643SOL    HW231566   2.907   0.623   3.077 -2.0333 -3.9871 -0.6387
 6644SOL     OW31567   0.177   3.765   0.991  0.5928  0.0602  0.1401
 6644SOL    HW131568   0.254   3.737   0.942  0.4102  2.0823 -1.2613
 6644SOL    HW231569   0.213   3.765   1.080  0.0860  0.3111  0.3495
 6645SOL     OW31570   3.263   0.298   9.771 -0.3089 -0.4009  0.2655
 6645SOL    HW131571   3.173   0.330   9.769  0.3946  1.7089  1.8548
 6645SOL    HW231572   3.314   0.356   9.828  1.9981 -0.0223 -2.1614
 6646SOL     OW31573   1.557   1.388   1.895 -0.0380 -0.2108  0.4763
 6646SOL    HW131574   1.480   1.373   1.950  0.1992  0.9979  1.1402
 6646SOL    HW231575   1.628   1.360   1.952 -0.1656 -0.9697  0.2647
 6647SOL     OW31576   4.150   3.968   4.386  0.4018  0.2993  0.6334
 6647SOL    HW131577   4.060   3.990   4.409  0.3921 -1.1606  2.0271
 6647SOL    HW231578   4.199   4.005   4.460 -1.2173  0.0774  1.8236
 6648SOL     OW31579   2.767   0.117   8.021  0.4427 -0.6325  0.2175
 6648SOL    HW131580   2.744   0.024   8.028 -0.5535 -0.3823  0.2494
 6648SOL    HW231581   2.753   0.140   8.113 -4.8705 -4.7470  0.4303
 6649SOL     OW31582   3.979   4.409  15.173 -0.3073 -0.0580 -0.7158
 6649SOL    HW131583   3.928   4.354  15.232  0.1304 -1.5624 -1.7156
 6649SOL    HW231584   3.995   4.344  15.104  0.2315  0.3577 -0.9778
 6650SOL     OW31585   0.836   2.388  15.203 -0.1327 -0.2547 -0.1364
 6650SOL    HW131586   0.773   2.330  15.247 -0.0077  0.5393  1.0911
 6650SOL    HW231587   0.921   2.366  15.241  0.9889  2.1876 -1.2251
 6651SOL     OW31588   0.445   1.098   3.717 -0.0782 -0.5468  0.4812
 6651SOL    HW131589   0.423   1.061   3.802  0.0657  0.7113  1.0646
 6651SOL    HW231590   0.495   1.026   3.677 -0.8938  0.9515 -3.2647
 6652SOL     OW31591   1.309   0.558   1.826 -0.4380 -0.7188  0.2115
 6652SOL    HW131592   1.274   0.479   1.784  1.2102 -0.4241 -1.7471
 6652SOL    HW231593   1.240   0.588   1.885  0.5496 -2.4173  2.2499
 6653SOL     OW31594   1.590   3.910   3.109  0.0001 -0.2671  0.5461
 6653SOL    HW131595   1.562   3.939   3.196  1.3091  1.1923  0.4791
 6653SOL    HW231596   1.577   3.818   3.132 -0.3929 -0.0498  1.2049
 6654SOL     OW31597   0.837   3.277  17.518 -0.0530  0.3238  0.3513
 6654SOL    HW131598   0.841   3.275  17.613 -1.5850 -1.6082  0.3655
 6654SOL    HW231599   0.909   3.339  17.505  0.5674 -0.4572  0.0295
 6655SOL     OW31600   3.765   4.447  12.338  0.1399 -0.3737 -0.8431
 6655SOL    HW131601   3.856   4.452  12.370 -0.0370 -2.2438 -0.0570
 6655SOL    HW231602   3.718   4.513  12.389  0.1182  0.3508 -1.7979
 6656SOL     OW31603   1.337   2.434   6.108  0.3959 -0.0950  0.1858
 6656SOL    HW131604   1.409   2.417   6.048  1.5292 -0.1753  1.5707
 6656SOL    HW231605   1.382   2.493   6.168 -0.3249  0.4376  0.2064
 6657SOL     OW31606   1.340   1.832   7.257 -0.2705  0.2188 -0.2782
 6657SOL    HW131607   1.361   1.923   7.234 -1.0119  0.4435 -0.0592
 6657SOL    HW231608   1.320   1.843   7.350 -0.1083 -0.2696 -0.1893
 6658SOL     OW31609   1.361   4.218   8.087  0.2377 -0.5387 -0.1251
 6658SOL    HW131610   1.432   4.270   8.125  2.1658 -1.4748 -2.3942
 6658SOL    HW231611   1.357   4.148   8.152  1.9743  1.4311  2.1005
 6659SOL     OW31612   2.229   3.523   7.527  0.3667 -0.4003  0.6459
 6659SOL    HW131613   2.221   3.452   7.464 -0.6402  2.1566 -2.1138
 6659SOL    HW231614   2.230   3.467   7.604 -1.5791 -1.4357 -0.0757
 6660SOL     OW31615   3.130   0.138   0.551 -0.3125 -0.1824 -0.3081
 6660SOL    HW131616   3.124   0.226   0.516  0.9311  0.7538  1.8025
 6660SOL    HW231617   3.058   0.106   0.496 -0.5595  1.6678 -1.0314
 6661SOL     OW31618   2.631   3.801   0.244 -0.1988  0.1402  0.3904
 6661SOL    HW131619   2.658   3.890   0.223  1.1874 -0.5464 -0.6741
 6661SOL    HW231620   2.576   3.780   0.168  0.1724  2.4429 -0.5061
 6662SOL     OW31621   2.340   0.689   2.012 -0.4319  0.0825  0.2294
 6662SOL    HW131622   2.269   0.624   2.015  0.9489 -1.3916  0.4492
 6662SOL    HW231623   2.416   0.635   2.032 -1.9376 -2.3920 -0.8088
 6663SOL     OW31624   1.771   0.483  12.672 -0.0233  0.2427 -0.0186
 6663SOL    HW131625   1.807   0.412  12.618 -0.1488 -1.1941  1.7874
 6663SOL    HW231626   1.815   0.459  12.753  1.1827 -0.4368 -0.8755
 6664SOL     OW31627   3.237   4.111  14.737  0.3870  0.5122  0.7430
 6664SOL    HW131628   3.150   4.147  14.722  0.7248  1.5778  1.3046
 6664SOL    HW231629   3.242   4.135  14.829  1.8990 -2.5496  1.4601
 6665SOL     OW31630   3.058   4.196   1.109  0.3436  0.6436 -0.1832
 6665SOL    HW131631   3.096   4.109   1.122  1.5532  1.5092  2.1400
 6665SOL    HW231632   2.964   4.185   1.124  0.3463  0.6048 -0.1947
 6666SOL     OW31633   2.445   4.327  13.595  0.0154 -0.4604 -0.3264
 6666SOL    HW131634   2.411   4.393  13.656  1.6376  0.2146 -0.1276
 6666SOL    HW231635   2.378   4.339  13.528  1.2296 -0.2863 -1.5048
 6667SOL     OW31636   1.816   2.664   5.357 -0.0385 -0.1744  0.0657
 6667SOL    HW131637   1.891   2.694   5.408 -0.2437  1.6099 -0.6691
 6667SOL    HW231638   1.838   2.574   5.334  1.0826 -0.0968  0.8768
 6668SOL     OW31639   2.520   4.000   4.448 -0.2044  0.5474  0.6869
 6668SOL    HW131640   2.549   4.037   4.364  1.9702  0.3798  1.3673
 6668SOL    HW231641   2.570   4.057   4.506 -0.3641  1.1900  0.1874
 6669SOL     OW31642   3.258   4.009  12.625 -0.3266  0.2809 -0.0934
 6669SOL    HW131643   3.351   4.030  12.630 -0.8531  2.5692 -0.1589
 6669SOL    HW231644   3.241   3.997  12.532 -2.2132  2.0696  0.0266
 6670SOL     OW31645   3.239   4.451   3.130 -0.0822 -0.5113 -0.1979
 6670SOL    HW131646   3.154   4.495   3.127  0.7001  0.9758 -0.9253
 6670SOL    HW231647   3.295   4.500   3.070 -2.0525  0.8368 -0.9128
 6671SOL     OW31648   2.197   1.926   2.229  0.5780 -0.3474  0.5418
 6671SOL    HW131649   2.240   1.970   2.156  1.9792 -0.4070  1.3403
 6671SOL    HW231650   2.210   1.985   2.303  0.1694  1.7408 -1.0468
 6672SOL     OW31651   1.946   1.063   6.654  0.1223  0.3829  0.1438
 6672SOL    HW131652   1.866   1.114   6.663 -1.2891 -1.8028  0.0502
 6672SOL    HW231653   2.008   1.131   6.629 -2.5957  2.6294 -0.5197
 6673SOL     OW31654   0.592   4.176  16.709  0.0387  0.0092  0.0265
 6673SOL    HW131655   0.676   4.211  16.679  0.2057 -1.0290 -0.6989
 6673SOL    HW231656   0.538   4.242  16.666 -1.4667 -0.3241  1.4004
 6674SOL     OW31657   2.314   3.430   8.460  0.0155 -0.1060  0.3783
 6674SOL    HW131658   2.278   3.433   8.371 -0.3221 -0.7163  0.4935
 6674SOL    HW231659   2.396   3.385   8.440  0.8904  1.7609 -0.1984
 6675SOL     OW31660   2.315   0.443   6.348 -0.2398 -0.1972  0.0002
 6675SOL    HW131661   2.339   0.435   6.440  0.8314 -1.1467 -0.3588
 6675SOL    HW231662   2.396   0.439   6.298 -1.4310  0.8547 -2.0099
 6676SOL     OW31663   4.177   2.950  15.514  0.2333 -0.3322 -0.5300
 6676SOL    HW131664   4.153   2.984  15.428 -0.8310  0.1346 -0.0537
 6676SOL    HW231665   4.128   2.995  15.582  2.1994  0.1343  0.5595
 6677SOL     OW31666   2.576   3.108   7.142 -0.1829 -0.1047 -0.3200
 6677SOL    HW131667   2.605   3.189   7.100 -0.2916 -0.1651 -0.5092
 6677SOL    HW231668   2.506   3.144   7.197 -0.6602 -1.9763  0.2796
 6678SOL     OW31669   0.889   1.095   2.452 -0.2696 -0.3033 -0.1595
 6678SOL    HW131670   0.847   1.180   2.436  1.3417  0.4582 -0.3475
 6678SOL    HW231671   0.816   1.043   2.486 -0.7675 -0.9914 -2.3408
 6679SOL     OW31672   4.243   2.977  13.977  0.2775  0.3460 -0.1919
 6679SOL    HW131673   4.197   2.899  13.944 -1.9164  1.6730 -0.2039
 6679SOL    HW231674   4.332   2.944  13.992 -0.0427 -0.4296  0.0045
 6680SOL     OW31675   1.092   2.070   4.045 -0.3589 -0.2783 -0.4201
 6680SOL    HW131676   1.018   2.011   4.031 -0.5621 -0.5303  1.6362
 6680SOL    HW231677   1.151   2.035   3.979  0.1821  1.7497 -0.9926
 6681SOL     OW31678   4.252   0.064   8.313 -0.2073  0.0320 -0.5468
 6681SOL    HW131679   4.273   0.088   8.223 -1.8382 -0.8201 -1.1311
 6681SOL    HW231680   4.249   4.705   8.302 -2.0099  0.1104 -0.7010
 6682SOL     OW31681   0.987   1.128   5.558  0.2835 -0.0197 -1.2059
 6682SOL    HW131682   1.064   1.172   5.522 -0.3751  0.7058 -1.7162
 6682SOL    HW231683   1.024   1.044   5.587  1.7592  1.2002  0.4460
 6683SOL     OW31684   4.278   3.791  17.052 -0.3389  0.7794 -0.6532
 6683SOL    HW131685   4.311   3.781  17.142  1.3260  0.1959 -1.3257
 6683SOL    HW231686   4.276   3.699  17.027 -0.2845  0.4317  0.5991
 6684SOL     OW31687   4.717   1.338   5.604  0.3228 -0.1713 -0.0587
 6684SOL    HW131688   0.047   1.332   5.534 -1.2712 -1.1423 -1.4754
 6684SOL    HW231689   4.694   1.431   5.594 -0.1759 -0.1990  0.9039
 6685SOL     OW31690   0.701   1.406   6.418 -0.7838 -0.3800  0.3082
 6685SOL    HW131691   0.671   1.366   6.336 -0.0230  0.3824 -0.3392
 6685SOL    HW231692   0.759   1.333   6.437 -0.9599 -0.6995 -0.3892
 6686SOL     OW31693   3.854   3.595   6.938 -0.7015  0.7346  0.1767
 6686SOL    HW131694   3.773   3.625   6.897 -0.6981  0.9529  0.3310
 6686SOL    HW231695   3.924   3.630   6.882 -3.6669  1.6845 -2.9608
 6687SOL     OW31696   4.367   3.388   9.770 -0.2744 -0.5049  0.0169
 6687SOL    HW131697   4.273   3.370   9.771 -0.5671  1.1177  1.8135
 6687SOL    HW231698   4.416   3.306   9.772 -1.2446 -1.1055 -0.9832
 6688SOL     OW31699   3.118   4.014  11.824 -0.0801  0.1721 -0.1774
 6688SOL    HW131700   3.029   4.018  11.788 -0.7511  0.2284  1.5002
 6688SOL    HW231701   3.117   4.102  11.862  0.2932  0.9966 -2.0996
 6689SOL     OW31702   4.456   0.411   8.499 -0.3706  0.0650 -0.5199
 6689SOL    HW131703   4.378   0.356   8.486 -0.2912 -0.2088  0.1337
 6689SOL    HW231704   4.492   0.377   8.581  2.1764  0.2432 -1.5855
 6690SOL     OW31705   4.383   2.222   4.751  0.1063 -0.7753 -0.7318
 6690SOL    HW131706   4.474   2.214   4.776 -0.1343  0.3081  0.4726
 6690SOL    HW231707   4.347   2.134   4.766 -0.1595 -0.5450 -0.0092
 6691SOL     OW31708   2.910   1.628   4.115 -0.2439  0.1479 -1.3919
 6691SOL    HW131709   2.977   1.608   4.049  2.0246 -0.5625  1.1479
 6691SOL    HW231710   2.911   1.723   4.122  0.1926 -0.1803  2.7588
 6692SOL     OW31711   4.322   4.567   7.494  0.0134 -0.4354 -0.0066
 6692SOL    HW131712   4.317   4.638   7.558  0.8802 -1.5414  1.2999
 6692SOL    HW231713   4.361   4.495   7.544 -2.0635  0.0854  2.3435
 6693SOL     OW31714   2.874   1.819   2.712  0.3000 -0.5432 -0.3647
 6693SOL    HW131715   2.859   1.762   2.637  2.3128 -1.0820 -0.3602
 6693SOL    HW231716   2.897   1.903   2.673 -0.2534  0.5489  1.6590
 6694SOL     OW31717   0.675   1.724  12.538 -0.3089  0.2914  0.1184
 6694SOL    HW131718   0.587   1.702  12.571  0.3137 -2.9585 -0.4420
 6694SOL    HW231719   0.667   1.725  12.443 -1.0588  0.0783  0.1759
 6695SOL     OW31720   1.392   4.179   7.802 -0.3409  0.0653 -0.2622
 6695SOL    HW131721   1.485   4.165   7.788 -0.2290 -0.0560  0.6491
 6695SOL    HW231722   1.384   4.177   7.897 -2.4640  2.4835 -0.3646
 6696SOL     OW31723   3.475   2.574   8.948 -0.4556 -0.1478  0.0059
 6696SOL    HW131724   3.398   2.627   8.931 -0.6191  0.4793  2.7031
 6696SOL    HW231725   3.479   2.529   8.864  2.4028 -0.3457  0.2461
 6697SOL     OW31726   0.986   1.966   3.110  0.3414 -0.2519 -0.1381
 6697SOL    HW131727   0.908   1.993   3.060 -0.2596  1.0602  1.4790
 6697SOL    HW231728   0.963   1.996   3.198  0.4861  1.3886 -0.6467
 6698SOL     OW31729   2.449   4.723   0.149  0.0839 -0.1691  0.4820
 6698SOL    HW131730   2.497   4.675   0.217 -0.0763  2.4483  2.4686
 6698SOL    HW231731   2.385   4.655   0.130 -0.7317  1.1691 -1.5322
 6699SOL     OW31732   1.262   1.795  17.286  0.3907 -0.3028  0.4009
 6699SOL    HW131733   1.204   1.719  17.280  1.3147 -1.0379  0.9653
 6699SOL    HW231734   1.306   1.784  17.202 -0.9653 -0.5735 -0.2850
 6700SOL     OW31735   0.427   3.290  12.837  0.7706  0.4380 -0.5343
 6700SOL    HW131736   0.512   3.273  12.798 -0.0163  0.0208 -2.0920
 6700SOL    HW231737   0.422   3.218  12.900 -0.2140  2.4387  1.6776
 6701SOL     OW31738   2.770   1.319   3.000 -0.3362  0.2121 -0.1452
 6701SOL    HW131739   2.840   1.318   3.066 -0.8388  1.1709  0.3898
 6701SOL    HW231740   2.695   1.360   3.043 -0.8404 -0.8875  0.0448
 6702SOL     OW31741   2.555   2.409   5.321  0.1765  0.1120 -0.5178
 6702SOL    HW131742   2.501   2.485   5.300  0.0824  0.2118  0.0656
 6702SOL    HW231743   2.482   2.348   5.326  1.3609 -1.1709  1.1151
 6703SOL     OW31744   4.283   3.346   1.081 -0.3546 -0.2295  0.1053
 6703SOL    HW131745   4.313   3.401   1.008 -1.2325 -0.4293 -0.3969
 6703SOL    HW231746   4.283   3.405   1.156 -1.4941  0.5753 -0.5205
 6704SOL     OW31747   2.954   1.345  10.400  0.1770  0.1372 -0.1535
 6704SOL    HW131748   2.883   1.304  10.448  0.0574  1.8524  1.1376
 6704SOL    HW231749   2.895   1.395  10.342 -1.4719 -0.9615  0.5808
 6705SOL     OW31750   0.431   1.775   2.876  0.0002 -0.8321 -0.0837
 6705SOL    HW131751   0.429   1.870   2.872 -1.4625 -0.8413  0.5605
 6705SOL    HW231752   0.526   1.764   2.867  0.3027  1.1748  0.5823
 6706SOL     OW31753   4.574   1.098   1.225  0.0108 -0.4256  0.2100
 6706SOL    HW131754   4.583   1.003   1.222 -0.3304 -0.4504 -0.0103
 6706SOL    HW231755   4.556   1.109   1.318  0.7200  0.1692  0.2823
 6707SOL     OW31756   0.010   1.438   6.134  0.0460  0.1179 -0.2927
 6707SOL    HW131757   4.686   1.508   6.108 -0.7700 -0.2817  0.5068
 6707SOL    HW231758   4.687   1.362   6.133 -1.7819  1.5178  1.1861
 6708SOL     OW31759   2.116   0.397   6.182  0.3322  0.0279 -0.0450
 6708SOL    HW131760   2.049   0.352   6.234  0.9712 -0.8800 -0.0066
 6708SOL    HW231761   2.193   0.403   6.238 -1.3404  1.0152  2.1226
 6709SOL     OW31762   3.571   1.609  16.678  0.1981 -0.3290 -0.1924
 6709SOL    HW131763   3.546   1.552  16.751  2.0072  1.1231  1.5473
 6709SOL    HW231764   3.513   1.581  16.607  0.7083 -0.6415 -0.4816
 6710SOL     OW31765   0.891   2.024   4.603 -0.1782 -0.6569  0.3016
 6710SOL    HW131766   0.937   2.026   4.518 -0.1722  1.3629  0.3642
 6710SOL    HW231767   0.847   2.108   4.595 -0.1526 -0.5381  1.4961
 6711SOL     OW31768   0.726   2.362   1.095  0.3005 -0.0394 -0.2507
 6711SOL    HW131769   0.659   2.294   1.101  0.4178 -0.0137  1.4584
 6711SOL    HW231770   0.665   2.431   1.069 -2.4980 -1.2602  3.0110
 6712SOL     OW31771   1.294   0.473  12.690  0.1252 -0.2723  0.1568
 6712SOL    HW131772   1.253   0.559  12.681 -0.0707 -0.4406 -0.5671
 6712SOL    HW231773   1.217   0.423  12.664 -0.7648  0.6864  0.9303
 6713SOL     OW31774   4.252   1.547   3.256 -0.2428  0.6865  0.3019
 6713SOL    HW131775   4.214   1.466   3.289  0.3501  0.2567 -0.0781
 6713SOL    HW231776   4.338   1.540   3.297  0.8990 -2.7016 -2.6465
 6714SOL     OW31777   4.590   2.279   8.218  0.1864 -0.1610 -0.7050
 6714SOL    HW131778   4.512   2.297   8.166  0.2363  1.0228 -0.3807
 6714SOL    HW231779   4.585   2.189   8.248  2.8244 -0.6171 -1.5991
 6715SOL     OW31780   0.617   4.574  13.879  0.6187 -0.3053 -0.2317
 6715SOL    HW131781   0.629   4.666  13.904  1.0324 -1.0792  2.5130
 6715SOL    HW231782   0.711   4.554  13.871  0.7508 -0.1833  0.9951
 6716SOL     OW31783   3.386   1.745   2.265 -0.2477 -0.2306  0.3055
 6716SOL    HW131784   3.423   1.731   2.178  1.4467  0.6009  0.8952
 6716SOL    HW231785   3.352   1.657   2.280  0.2539 -0.6463 -0.9855
 6717SOL     OW31786   4.031   4.278   1.114 -0.1364 -0.0327 -0.0009
 6717SOL    HW131787   3.968   4.227   1.064  0.1525  0.4492 -0.8607
 6717SOL    HW231788   3.978   4.336   1.168 -0.2306  0.0740 -0.2056
 6718SOL     OW31789   3.881   3.577   0.464 -0.5754 -0.5598 -0.0401
 6718SOL    HW131790   3.832   3.553   0.385 -0.7041  0.2910 -0.2276
 6718SOL    HW231791   3.974   3.571   0.443 -0.2467  0.4848  1.1220
 6719SOL     OW31792   1.953   2.422  13.170  0.5121 -0.0939 -0.2127
 6719SOL    HW131793   1.986   2.340  13.134  1.4727 -0.6039  1.7977
 6719SOL    HW231794   2.032   2.476  13.178  0.8948 -0.4819 -1.3633
 6720SOL     OW31795   4.459   1.169   5.265  0.2077  1.1105 -0.0301
 6720SOL    HW131796   4.501   1.254   5.250  1.8628  0.6174  1.9595
 6720SOL    HW231797   4.487   1.147   5.354  0.0138 -0.2006 -0.3050
 6721SOL     OW31798   1.732   1.535  16.379 -0.3324  0.5934 -0.2455
 6721SOL    HW131799   1.690   1.529  16.293  0.2541  0.7933 -0.5447
 6721SOL    HW231800   1.811   1.586  16.364  1.5787 -2.1399  0.4483
 6722SOL     OW31801   2.043   3.588   1.988 -0.3448 -0.5971 -0.0574
 6722SOL    HW131802   2.005   3.658   1.934  1.2363  1.6322  1.7019
 6722SOL    HW231803   2.118   3.637   2.023 -0.8892  0.7384 -0.7751
 6723SOL     OW31804   3.734   2.258   3.737  0.3695  0.2490 -0.0144
 6723SOL    HW131805   3.648   2.271   3.777  0.6482 -0.1873  0.7044
 6723SOL    HW231806   3.787   2.207   3.798 -0.9353 -1.9520 -0.7006
 6724SOL     OW31807   4.266   1.234   4.712  0.0819 -0.3794 -0.1132
 6724SOL    HW131808   4.264   1.140   4.730 -0.7970 -0.0844  1.3625
 6724SOL    HW231809   4.352   1.236   4.671 -0.1338  0.9269 -0.5095
 6725SOL     OW31810   4.376   1.066   9.270 -0.1314 -0.5035 -0.3365
 6725SOL    HW131811   4.298   1.090   9.320  0.2227  0.8895 -0.4520
 6725SOL    HW231812   4.406   0.985   9.312 -0.0011  0.7600  1.9870
 6726SOL     OW31813   2.419   4.398  11.970 -0.2728 -0.1278 -0.2199
 6726SOL    HW131814   2.341   4.440  12.005  0.5153 -0.3157  1.7678
 6726SOL    HW231815   2.482   4.469  11.957 -0.0797 -0.1306  0.6677
 6727SOL     OW31816   0.635   0.781   3.124  0.3478  0.1488  0.2304
 6727SOL    HW131817   0.688   0.745   3.052  1.1249 -0.2890  1.0151
 6727SOL    HW231818   0.570   0.711   3.124 -0.3000  0.7743  2.2818
 6728SOL     OW31819   0.762   4.137   6.378 -0.0125  0.2975 -0.1630
 6728SOL    HW131820   0.850   4.131   6.415  0.7078  2.0875 -1.5562
 6728SOL    HW231821   0.773   4.224   6.340 -1.2147  0.0254 -1.1218
 6729SOL     OW31822   4.038   3.209   1.316  0.6667  0.3861  0.0965
 6729SOL    HW131823   4.011   3.127   1.274  1.5095 -0.3753  1.0266
 6729SOL    HW231824   4.114   3.187   1.370  0.4855 -2.8627 -0.9622
 6730SOL     OW31825   0.134   0.400   4.592 -0.5427 -0.1628 -0.6076
 6730SOL    HW131826   0.166   0.331   4.533 -2.1926  0.9869 -2.8782
 6730SOL    HW231827   0.186   0.380   4.669 -2.2916 -2.5250 -0.0168
 6731SOL     OW31828   3.134   1.763  12.939  0.2496 -0.0164  0.1440
 6731SOL    HW131829   3.174   1.694  12.992 -0.2717 -0.3414  0.1192
 6731SOL    HW231830   3.135   1.720  12.853  1.4675 -1.3853  0.8313
 6732SOL     OW31831   1.730   4.708   1.768  0.4055  0.4955  0.0375
 6732SOL    HW131832   1.794   0.007   1.831 -0.6544  1.4962  0.5574
 6732SOL    HW231833   1.653   0.028   1.771 -0.9390 -1.3527 -0.6047
 6733SOL     OW31834   4.447   0.740   2.629  0.8874 -0.1082  0.1743
 6733SOL    HW131835   4.425   0.756   2.721  2.0487  0.0578  0.4238
 6733SOL    HW231836   4.442   0.831   2.599 -0.2693 -0.8865 -1.9513
 6734SOL     OW31837   0.175   0.260   9.681 -0.0885  0.8062  0.7358
 6734SOL    HW131838   0.264   0.231   9.703 -0.5867 -2.7020 -1.7567
 6734SOL    HW231839   0.133   0.247   9.766 -0.3039 -0.4021  0.4423
 6735SOL     OW31840   2.239   2.072  14.004  0.0837  0.3418 -0.2211
 6735SOL    HW131841   2.163   2.016  14.021 -0.8992  1.3988 -1.2218
 6735SOL    HW231842   2.244   2.057  13.910 -0.1534  1.3517 -0.3879
 6736SOL     OW31843   3.911   1.414   5.939 -0.1132  0.1520  0.0479
 6736SOL    HW131844   3.885   1.445   5.853 -0.5296 -0.7001 -0.1333
 6736SOL    HW231845   3.864   1.477   5.994 -0.2987 -0.8406  1.0391
 6737SOL     OW31846   3.596   0.328   3.309 -0.4682 -0.2308 -0.3031
 6737SOL    HW131847   3.611   0.339   3.215 -1.3729  1.0467 -0.2972
 6737SOL    HW231848   3.596   0.232   3.316  0.2233 -0.0137  2.6153
 6738SOL     OW31849   3.024   1.968  15.238  0.1120  0.2336 -0.0383
 6738SOL    HW131850   3.082   1.942  15.309 -1.4025 -0.3324  1.0019
 6738SOL    HW231851   3.085   1.987  15.168  0.8467 -2.1983 -0.0240
 6739SOL     OW31852   0.045   4.318   8.477 -0.2453  0.1428  0.3900
 6739SOL    HW131853   0.118   4.257   8.479 -0.1238  0.2697 -0.3593
 6739SOL    HW231854   4.715   4.266   8.431 -0.7406  1.4841 -0.4052
 6740SOL     OW31855   1.971   2.093  14.711  0.1758  0.0619  0.1506
 6740SOL    HW131856   2.039   2.143  14.756  1.3656 -1.9785  0.6043
 6740SOL    HW231857   2.014   2.025  14.659  0.2318  0.1836  0.0371
 6741SOL     OW31858   1.536   2.293  15.227  0.0059 -0.2353 -0.1847
 6741SOL    HW131859   1.602   2.238  15.271 -1.5939 -0.2809  2.1615
 6741SOL    HW231860   1.571   2.379  15.252  0.3659 -0.1802 -0.8964
 6742SOL     OW31861   0.625   4.671   6.958 -0.2744 -0.1207  0.2149
 6742SOL    HW131862   0.681   4.688   6.882 -0.7686  0.9773  0.0839
 6742SOL    HW231863   0.538   4.648   6.924  0.8679 -3.2867 -0.5894
 6743SOL     OW31864   0.324   0.431   6.469  0.7782  0.2682  0.0796
 6743SOL    HW131865   0.299   0.430   6.561 -2.6965  0.8454 -0.8733
 6743SOL    HW231866   0.331   0.336   6.459  0.8253  0.3449 -0.6500
 6744SOL     OW31867   0.216   4.027   9.023  0.2174 -0.7820 -0.3438
 6744SOL    HW131868   0.254   4.074   9.097  0.0376  0.1250 -0.8349
 6744SOL    HW231869   0.145   3.977   9.064  0.6173 -0.9181  0.1847
 6745SOL     OW31870   0.373   2.222  17.698 -0.4618  0.0720  0.4013
 6745SOL    HW131871   0.432   2.146  17.694  0.1133  0.4974  0.8436
 6745SOL    HW231872   0.329   2.211  17.614  0.4510 -1.0272  0.0585
 6746SOL     OW31873   3.957   3.018   6.351  0.1988  0.0051  0.4024
 6746SOL    HW131874   3.983   3.077   6.422 -0.8344 -1.2514  1.8479
 6746SOL    HW231875   4.010   3.052   6.279 -0.6675 -1.7328 -1.0422
 6747SOL     OW31876   1.876   2.569   4.248  0.0334 -0.0860  0.2376
 6747SOL    HW131877   1.837   2.657   4.252 -0.0940 -0.1123 -0.3044
 6747SOL    HW231878   1.802   2.509   4.259  0.6938 -0.3922  2.9796
 6748SOL     OW31879   2.229   0.050   4.514 -0.2063  0.1108 -0.2498
 6748SOL    HW131880   2.196   0.085   4.432 -2.5226 -0.5597  0.3934
 6748SOL    HW231881   2.247   4.698   4.480 -3.4733 -0.3001 -0.9844
 6749SOL     OW31882   4.372   3.894   2.601  0.0394 -0.2653 -0.1915
 6749SOL    HW131883   4.352   3.959   2.533 -0.0823 -0.4577 -0.3402
 6749SOL    HW231884   4.307   3.829   2.575  0.8211 -0.4148 -1.7386
 6750SOL     OW31885   1.766   0.120  12.863 -0.3836 -0.2079 -0.3994
 6750SOL    HW131886   1.724   0.123  12.948 -0.1560 -0.9630 -0.2644
 6750SOL    HW231887   1.686   0.106  12.812 -0.9142  3.1966 -0.5337
 6751SOL     OW31888   1.660   4.101   4.978  0.0904 -0.2827 -0.2022
 6751SOL    HW131889   1.669   4.186   5.021 -0.6565 -0.2705 -0.0767
 6751SOL    HW231890   1.574   4.074   5.009  0.4851 -2.0936 -0.6924
 6752SOL     OW31891   4.220   1.821   1.665  0.2748  0.0528 -0.3383
 6752SOL    HW131892   4.258   1.735   1.645  1.8485  0.5961  0.2992
 6752SOL    HW231893   4.177   1.842   1.582 -0.1885 -1.2934 -0.4484
 6753SOL     OW31894   0.246   3.932   8.195 -0.5735  0.0124 -0.2392
 6753SOL    HW131895   0.220   3.869   8.127 -2.7985 -0.0844  0.7198
 6753SOL    HW231896   0.242   3.884   8.278  2.4258  0.4957  0.1873
 6754SOL     OW31897   0.521   2.735  10.786  0.3553 -0.0579 -0.0492
 6754SOL    HW131898   0.516   2.813  10.731  2.0302 -0.9291 -1.4280
 6754SOL    HW231899   0.615   2.732  10.803  0.6544 -1.1802 -1.8742
 6755SOL     OW31900   0.277   3.257   6.876  0.3508  0.1902 -0.4860
 6755SOL    HW131901   0.195   3.307   6.882  1.3001  1.4647  2.0482
 6755SOL    HW231902   0.338   3.328   6.896 -0.9540  1.4199 -0.8262
 6756SOL     OW31903   2.982   2.286   7.809  0.9616 -0.0090  0.2944
 6756SOL    HW131904   3.003   2.261   7.899 -0.5481 -0.4834  0.5057
 6756SOL    HW231905   2.926   2.364   7.817  0.2801 -0.4393 -0.2916
 6757SOL     OW31906   0.906   3.118   8.339 -0.3526  0.0828 -0.0523
 6757SOL    HW131907   0.840   3.129   8.271  2.1742  1.7535 -2.2493
 6757SOL    HW231908   0.878   3.173   8.412  2.7129  1.4496  0.1061
 6758SOL     OW31909   1.349   4.001   6.173 -0.3605  0.0031  0.1523
 6758SOL    HW131910   1.293   3.971   6.102  0.3867  1.1138 -0.8998
 6758SOL    HW231911   1.338   3.932   6.238 -2.5251  0.1017 -0.1310
 6759SOL     OW31912   3.231   0.117   1.249 -0.1188  0.0298 -0.4804
 6759SOL    HW131913   3.267   0.059   1.182  1.1788 -0.5574  0.7354
 6759SOL    HW231914   3.201   0.058   1.318  1.2999  1.1903  1.1134
 6760SOL     OW31915   3.498   3.203   2.326 -0.0928 -0.3608 -0.9267
 6760SOL    HW131916   3.498   3.262   2.250 -3.9517  2.2849  1.1074
 6760SOL    HW231917   3.508   3.117   2.286  1.2007 -0.9220  0.6050
 6761SOL     OW31918   2.975   2.282   4.518  0.4784  0.2160  0.2214
 6761SOL    HW131919   3.021   2.365   4.512  1.0243 -0.2173 -1.6335
 6761SOL    HW231920   2.885   2.296   4.548 -0.1117 -0.9546 -0.9708
 6762SOL     OW31921   4.052   4.225   1.975  0.3051 -0.0885 -0.1493
 6762SOL    HW131922   4.036   4.306   1.926  0.5625 -1.0478 -1.8385
 6762SOL    HW231923   4.147   4.215   1.981  0.2859 -0.5956 -0.6704
 6763SOL     OW31924   0.698   3.952  11.176  0.1974  0.2105  0.3205
 6763SOL    HW131925   0.641   3.933  11.251  0.0964 -0.2686  0.1228
 6763SOL    HW231926   0.644   4.012  11.125  1.3800 -1.0022 -2.3648
 6764SOL     OW31927   2.902   2.101   7.345  0.5501  0.3586  0.2888
 6764SOL    HW131928   2.974   2.040   7.357  0.7740  0.1823 -2.0158
 6764SOL    HW231929   2.853   2.038   7.292 -1.4207  0.8748  1.4615
 6765SOL     OW31930   0.595   2.962   5.978 -0.0667 -0.3715  0.6174
 6765SOL    HW131931   0.523   2.909   5.943  1.1393 -0.2681 -2.0006
 6765SOL    HW231932   0.553   3.048   5.982 -0.2747 -0.4466 -0.0708
 6766SOL     OW31933   1.724   0.588   1.282 -0.3599  0.1358  0.6498
 6766SOL    HW131934   1.726   0.670   1.234  0.4694 -0.7455 -0.8050
 6766SOL    HW231935   1.648   0.588   1.340 -1.3676  2.1178 -0.6682
 6767SOL     OW31936   4.500   1.565   7.287 -0.3733  0.0745 -0.3096
 6767SOL    HW131937   4.494   1.470   7.276 -0.0887  0.2739 -2.2297
 6767SOL    HW231938   4.591   1.577   7.314 -0.5264  0.5396 -0.0053
 6768SOL     OW31939   2.518   1.445   5.820  0.5985  0.1778 -0.3832
 6768SOL    HW131940   2.592   1.494   5.858  0.3715  0.6347 -0.5294
 6768SOL    HW231941   2.553   1.451   5.731 -1.4305 -0.8955 -1.2386
 6769SOL     OW31942   3.541   3.179   0.756 -0.0441 -0.4547  0.3205
 6769SOL    HW131943   3.484   3.256   0.756  2.0512  1.1204  1.9304
 6769SOL    HW231944   3.525   3.157   0.665  0.6987 -2.2315  0.6178
 6770SOL     OW31945   3.052   1.927   4.449 -0.0337  0.2840  0.1796
 6770SOL    HW131946   3.116   1.996   4.430  0.7787 -0.7445 -0.7857
 6770SOL    HW231947   2.972   1.963   4.409 -0.5549 -1.8393 -0.6943
 6771SOL     OW31948   1.025   1.452   3.339  0.0809 -0.3950  0.2203
 6771SOL    HW131949   1.112   1.411   3.334  0.9853  1.4428  0.7630
 6771SOL    HW231950   0.964   1.379   3.352 -1.7108  1.0383 -0.2358
 6772SOL     OW31951   3.579   0.244  16.823 -0.3781  0.2346 -0.0692
 6772SOL    HW131952   3.548   0.196  16.746 -2.0196  2.8057 -0.9928
 6772SOL    HW231953   3.502   0.236  16.879 -1.7169  1.9467 -1.6701
 6773SOL     OW31954   1.125   2.538   1.319 -0.0980 -0.4337  0.4455
 6773SOL    HW131955   1.063   2.574   1.255  1.6058  1.2562 -0.2604
 6773SOL    HW231956   1.163   2.609   1.371  0.7540  0.7795 -1.8088
 6774SOL     OW31957   2.598   4.303   0.158 -0.0245 -0.4326  0.0166
 6774SOL    HW131958   2.558   4.246   0.224 -1.8472 -1.5108 -2.0262
 6774SOL    HW231959   2.523   4.352   0.124  0.1354  0.1915  0.5604
 6775SOL     OW31960   3.260   2.733   2.902  0.2660 -0.4066 -0.0607
 6775SOL    HW131961   3.311   2.683   2.839  1.1662 -2.1424  2.0516
 6775SOL    HW231962   3.320   2.723   2.976 -0.6665 -0.4594  0.7011
 6776SOL     OW31963   2.636   1.021   7.811  0.1750  0.0803 -0.2599
 6776SOL    HW131964   2.635   1.096   7.751 -0.2723  1.7778  1.8387
 6776SOL    HW231965   2.586   1.060   7.883 -1.2616 -3.1547  0.4826
 6777SOL     OW31966   0.590   1.164   7.779  0.0941  0.1129 -0.5935
 6777SOL    HW131967   0.642   1.115   7.843 -0.4302 -1.6350 -1.5010
 6777SOL    HW231968   0.657   1.223   7.743  0.1486  0.8668  0.7484
 6778SOL     OW31969   3.749   4.216   4.391 -0.3397 -0.5576 -0.2779
 6778SOL    HW131970   3.804   4.294   4.395 -1.2115  0.0724 -0.7516
 6778SOL    HW231971   3.809   4.156   4.437 -1.5753 -0.2485  1.7286
 6779SOL     OW31972   2.282   2.634   3.132  0.3395  0.0055  0.0920
 6779SOL    HW131973   2.212   2.580   3.168 -0.6269 -0.2438 -2.1257
 6779SOL    HW231974   2.334   2.646   3.212 -0.2017  1.0489  0.2826
 6780SOL     OW31975   4.342   1.826  13.952  0.0954  0.0969 -0.4949
 6780SOL    HW131976   4.273   1.887  13.977 -1.4489 -2.2686  1.0937
 6780SOL    HW231977   4.346   1.841  13.857 -0.5488  1.4038 -0.3182
 6781SOL     OW31978   3.172   0.426  10.848  0.2534 -0.0527 -0.1919
 6781SOL    HW131979   3.141   0.426  10.757 -2.0102  0.4694  0.5829
 6781SOL    HW231980   3.262   0.453  10.829  0.1041  0.7911  0.3077
 6782SOL     OW31981   4.709   0.820   9.315  0.0834 -0.1574 -0.1928
 6782SOL    HW131982   4.621   0.822   9.352 -0.6416  1.0399 -1.9365
 6782SOL    HW231983   4.686   0.840   9.224 -0.0235  3.0136  0.5285
 6783SOL     OW31984   3.826   3.741   7.611 -0.1577  0.1683 -0.0456
 6783SOL    HW131985   3.749   3.742   7.668  1.1002  1.3421  1.6447
 6783SOL    HW231986   3.825   3.658   7.563  1.4901 -0.0518  0.3110
 6784SOL     OW31987   3.214   1.118   2.260 -0.0115  0.4949 -0.0223
 6784SOL    HW131988   3.212   1.023   2.254 -1.9488  0.3515  3.0277
 6784SOL    HW231989   3.122   1.136   2.281  0.3903  3.1644 -0.4890
 6785SOL     OW31990   4.506   3.420   9.164 -0.3253  0.5609  0.1567
 6785SOL    HW131991   4.447   3.400   9.237 -1.4053  0.9013 -0.6241
 6785SOL    HW231992   4.524   3.332   9.130  1.0826  2.0414 -2.9063
 6786SOL     OW31993   1.129   1.581   6.779  0.1290  0.2126  0.4738
 6786SOL    HW131994   1.057   1.559   6.837  0.8514 -1.9497  0.5303
 6786SOL    HW231995   1.085   1.608   6.698 -1.5667  1.5368  1.8147
 6787SOL     OW31996   2.073   2.401  10.731 -0.4242 -0.0855  0.4059
 6787SOL    HW131997   2.101   2.458  10.660 -2.3663  2.0657  1.4024
 6787SOL    HW231998   1.978   2.410  10.730 -0.2749  1.3146 -0.9284
 6788SOL     OW31999   4.047   2.960   2.328  0.0945  0.0306  0.6252
 6788SOL    HW132000   4.137   2.985   2.308  0.1262  0.9366  1.8921
 6788SOL    HW232001   4.018   3.022   2.395  1.8937  1.1406  0.3625
 6789SOL     OW32002   0.425   1.609   5.994  0.5223  0.1376 -0.0276
 6789SOL    HW132003   0.455   1.682   5.939  0.9776  0.3415  0.4868
 6789SOL    HW232004   0.372   1.647   6.064  2.5283  3.2307 -0.1587
 6790SOL     OW32005   0.063   1.427   2.755 -0.3414  0.1883 -0.0671
 6790SOL    HW132006   0.089   1.455   2.843  3.3526 -1.5633 -0.6504
 6790SOL    HW232007   0.126   1.477   2.704 -0.5488  1.6437  1.1062
 6791SOL     OW32008   1.538   0.396  12.818 -0.2282  0.0553 -0.1911
 6791SOL    HW132009   1.454   0.410  12.774  0.2370  0.4704 -0.9463
 6791SOL    HW232010   1.587   0.419  12.739  1.3476 -0.8636  0.5132
 6792SOL     OW32011   0.095   2.361   4.459  0.5029 -0.1104  0.1197
 6792SOL    HW132012   0.175   2.412   4.475 -0.5947  1.7778 -0.4147
 6792SOL    HW232013   0.045   2.392   4.534  0.7333 -0.1836  0.3059
 6793SOL     OW32014   2.839   1.773   6.287  0.4547 -0.6130 -0.5864
 6793SOL    HW132015   2.930   1.750   6.308  0.5565 -0.4559 -0.8631
 6793SOL    HW232016   2.838   1.743   6.196 -2.0287  1.8906 -1.3819
 6794SOL     OW32017   1.152   1.392   2.835 -0.2317  0.5084 -0.4772
 6794SOL    HW132018   1.192   1.330   2.773  0.3105  0.5205 -0.1397
 6794SOL    HW232019   1.193   1.471   2.801  2.1112 -0.4513  0.1020
 6795SOL     OW32020   1.272   1.336  13.971 -1.0272  0.4511  0.1186
 6795SOL    HW132021   1.339   1.276  14.002 -0.5898  0.9757  0.1975
 6795SOL    HW232022   1.291   1.417  14.018  3.6338  0.2559 -1.4336
 6796SOL     OW32023   1.042   0.496   4.399 -0.3611 -0.4871  0.3334
 6796SOL    HW132024   1.052   0.590   4.416 -0.0085 -0.4525 -0.0601
 6796SOL    HW232025   1.014   0.497   4.308 -0.7783 -1.9269  0.4417
 6797SOL     OW32026   3.559   4.258  14.304 -0.4900 -0.9070 -0.4051
 6797SOL    HW132027   3.470   4.272  14.336 -0.2328 -0.5994  0.1849
 6797SOL    HW232028   3.588   4.202  14.376  0.2594  0.1632  0.1228
 6798SOL     OW32029   2.381   4.082   2.297 -0.7336 -0.1724 -0.2107
 6798SOL    HW132030   2.407   4.170   2.324  0.9839  0.1124 -2.7678
 6798SOL    HW232031   2.400   4.091   2.204 -1.3789 -0.0477 -0.3353
 6799SOL     OW32032   2.161   4.241   7.594  0.2281 -0.5466  0.1676
 6799SOL    HW132033   2.140   4.331   7.619 -0.5834 -0.7389  0.1669
 6799SOL    HW232034   2.249   4.257   7.559 -0.4516  0.9718 -0.8196
 6800SOL     OW32035   1.490   0.096   4.901 -0.7455  0.0598  0.7326
 6800SOL    HW132036   1.556   0.128   4.840 -2.3708 -0.3809 -1.2576
 6800SOL    HW232037   1.523   0.129   4.984 -1.4713  1.2303  0.5553
 6801SOL     OW32038   4.122   2.493   7.700  0.3311 -0.1026  0.0190
 6801SOL    HW132039   4.120   2.578   7.744  2.8297  0.5429 -1.0965
 6801SOL    HW232040   4.215   2.473   7.708  0.5512  0.7074 -0.4713
 6802SOL     OW32041   2.271   2.877   3.036 -0.1411 -0.2400 -0.3321
 6802SOL    HW132042   2.259   2.785   3.061 -3.2807  0.5082  0.8382
 6802SOL    HW232043   2.303   2.911   3.120  1.0460 -0.1719 -0.8080
 6803SOL     OW32044   2.430   1.167  12.213  0.0074  0.7033  0.2780
 6803SOL    HW132045   2.409   1.073  12.212  1.9995  0.2265  3.0647
 6803SOL    HW232046   2.451   1.181  12.121  1.4038  1.3842  0.6968
 6804SOL     OW32047   3.578   2.984   1.556  0.8550 -0.4219 -0.4328
 6804SOL    HW132048   3.613   2.915   1.613  0.0621 -1.2525 -0.9644
 6804SOL    HW232049   3.486   2.962   1.550  0.5388  0.8423 -0.3567
 6805SOL     OW32050   2.618   0.318  15.797 -0.8553  0.9951  0.7409
 6805SOL    HW132051   2.706   0.298  15.767 -1.7688 -2.9079  0.6430
 6805SOL    HW232052   2.641   0.387  15.860 -1.3695  0.4594  1.5172
 6806SOL     OW32053   3.509   0.899   7.733 -0.0249  0.3060 -0.5966
 6806SOL    HW132054   3.498   0.805   7.726 -0.0268  0.1662  1.2391
 6806SOL    HW232055   3.427   0.923   7.777  0.1381 -0.5613  0.1682
 6807SOL     OW32056   0.831   4.015   3.682  0.1897 -0.0938 -0.7170
 6807SOL    HW132057   0.834   3.970   3.767  0.4673  0.9422 -0.1864
 6807SOL    HW232058   0.825   4.107   3.706  1.0772  0.0860 -1.2194
 6808SOL     OW32059   1.287   2.535   9.112 -0.4017  0.5975  0.7386
 6808SOL    HW132060   1.291   2.481   9.191 -1.0112 -1.5960 -0.7399
 6808SOL    HW232061   1.299   2.478   9.037  0.0956  1.6624  0.0176
 6809SOL     OW32062   1.293   4.271   5.840  0.2248 -0.4728  0.5180
 6809SOL    HW132063   1.319   4.357   5.807 -2.9100 -0.3158 -1.4763
 6809SOL    HW232064   1.339   4.263   5.923 -1.2809  2.4606  1.6166
 6810SOL     OW32065   4.438   0.882  11.844  0.3855  0.5118  0.1465
 6810SOL    HW132066   4.374   0.950  11.825  1.3626  1.4827  0.3572
 6810SOL    HW232067   4.474   0.868  11.757  1.9525  0.4935  0.8095
 6811SOL     OW32068   2.244   1.942   6.695  0.2320 -0.1174  0.1563
 6811SOL    HW132069   2.310   1.884   6.656  0.1345  0.9160 -1.5430
 6811SOL    HW232070   2.297   2.005   6.743  1.0480 -0.9833  0.3934
 6812SOL     OW32071   1.990   0.729   3.992 -0.5036 -0.0427  0.1518
 6812SOL    HW132072   2.061   0.665   3.984 -1.2980 -0.6933 -1.7449
 6812SOL    HW232073   1.922   0.680   4.039  0.5263 -1.0593  0.5665
 6813SOL     OW32074   4.033   2.308   7.170  0.2253 -0.6881  0.0610
 6813SOL    HW132075   4.014   2.336   7.260 -0.3922 -0.2412 -0.2089
 6813SOL    HW232076   4.070   2.392   7.143 -1.1961  0.1298  0.6744
 6814SOL     OW32077   0.804   0.619   9.365 -0.6129 -0.5501  0.1051
 6814SOL    HW132078   0.772   0.571   9.441  1.4782 -2.5197 -0.2569
 6814SOL    HW232079   0.759   0.703   9.378 -2.2280 -1.3738 -0.2157
 6815SOL     OW32080   3.433   0.326   0.774 -0.1274  0.4044  0.5890
 6815SOL    HW132081   3.398   0.265   0.709  1.6749 -1.0957  1.0221
 6815SOL    HW232082   3.527   0.310   0.767 -0.4056 -0.6363 -0.9884
 6816SOL     OW32083   1.411   2.999  12.823 -0.7405 -0.4797  0.1371
 6816SOL    HW132084   1.456   3.058  12.883 -0.5103  0.0145 -0.5170
 6816SOL    HW232085   1.385   3.047  12.745  0.1851 -0.1854  0.0059
 6817SOL     OW32086   1.047   3.861   6.290  0.3200  0.2292 -1.0978
 6817SOL    HW132087   1.095   3.894   6.214  1.7970  1.7842  0.5039
 6817SOL    HW232088   1.028   3.770   6.270  0.4430 -0.1827  0.6244
 6818SOL     OW32089   3.915   2.096   5.119 -0.4385 -0.1337  0.4227
 6818SOL    HW132090   3.963   2.160   5.172 -1.3828  0.5661  0.4368
 6818SOL    HW232091   3.871   2.046   5.188 -0.8765  0.5095  0.6198
 6819SOL     OW32092   2.582   2.834   9.329 -0.0358 -0.6311  0.2410
 6819SOL    HW132093   2.522   2.828   9.403 -0.5229  0.5406 -0.0624
 6819SOL    HW232094   2.668   2.822   9.369 -0.3793 -2.2212  0.4707
 6820SOL     OW32095   0.026   1.832   4.854  0.2573  0.0766 -0.1645
 6820SOL    HW132096   0.066   1.807   4.770 -1.4456 -0.9838 -0.6559
 6820SOL    HW232097   4.680   1.785   4.836  0.4219 -0.5832  0.8481
 6821SOL     OW32098   0.497   3.692   7.069 -1.2515  0.1463 -0.1030
 6821SOL    HW132099   0.411   3.714   7.032 -1.8982 -3.9048 -1.0207
 6821SOL    HW232100   0.547   3.662   6.993 -0.2359  1.8305 -0.1095
 6822SOL     OW32101   4.093   3.756   5.129 -0.0139  0.2885  0.0085
 6822SOL    HW132102   4.081   3.851   5.138 -1.2215  0.1362 -0.0595
 6822SOL    HW232103   4.061   3.744   5.039 -3.5900 -2.3079  1.6105
 6823SOL     OW32104   3.031   0.509   1.819  0.1682 -0.6015  0.1441
 6823SOL    HW132105   2.963   0.576   1.814  0.8878  0.1103 -0.0693
 6823SOL    HW232106   3.081   0.541   1.893  0.8080 -3.2745  0.8731
 6824SOL     OW32107   1.792   2.483   4.954 -0.3917 -0.0547  0.3340
 6824SOL    HW132108   1.804   2.578   4.952 -1.8467  0.1195 -0.6093
 6824SOL    HW232109   1.816   2.478   4.861  0.4297  1.3577  0.4626
 6825SOL     OW32110   2.316   0.812   3.861 -0.4385 -0.3268  0.0321
 6825SOL    HW132111   2.397   0.763   3.846  0.4614  0.9154  0.8861
 6825SOL    HW232112   2.329   0.868   3.785 -1.8669 -3.8595 -2.8342
 6826SOL     OW32113   4.048   3.895   7.642  0.1358 -0.0621  0.2134
 6826SOL    HW132114   3.984   3.830   7.614 -2.5086  2.6730  0.0059
 6826SOL    HW232115   4.049   3.951   7.564  0.4164 -2.1671 -1.3005
 6827SOL     OW32116   0.000   2.600   8.668  0.0936 -0.2111 -0.0984
 6827SOL    HW132117   0.023   2.581   8.759 -3.0380 -1.8789  0.3358
 6827SOL    HW232118   0.007   2.510   8.635  0.4391 -0.4731  0.6946
 6828SOL     OW32119   4.324   2.321   3.426 -0.2656  0.1562  0.1520
 6828SOL    HW132120   4.390   2.281   3.484  1.6831  0.1423 -2.0560
 6828SOL    HW232121   4.341   2.414   3.435 -0.9565  0.1262  1.6812
 6829SOL     OW32122   4.157   3.044   1.886  0.3464  0.0627 -0.0421
 6829SOL    HW132123   4.171   2.957   1.924 -0.4474  0.2791  0.7447
 6829SOL    HW232124   4.068   3.023   1.858 -0.0372 -1.1515  2.0352
 6830SOL     OW32125   4.011   0.466   1.251  0.0678 -0.4510  0.1292
 6830SOL    HW132126   3.984   0.428   1.335  1.7468 -1.5214  0.1706
 6830SOL    HW232127   4.008   0.559   1.274  2.2554 -0.8673  2.0885
 6831SOL     OW32128   1.901   1.537  10.668 -0.3558 -0.0772 -0.5734
 6831SOL    HW132129   1.960   1.590  10.722  0.0149 -1.2440  0.1594
 6831SOL    HW232130   1.959   1.462  10.656 -0.8913 -0.0403 -3.4027
 6832SOL     OW32131   1.642   3.491  17.525  0.3146 -0.1751 -0.6635
 6832SOL    HW132132   1.639   3.444  17.441  0.8801  1.2865 -1.5067
 6832SOL    HW232133   1.685   3.423  17.577  0.0378 -1.0565 -1.5883
 6833SOL     OW32134   3.954   2.439   7.441 -0.4554  0.0371  0.1025
 6833SOL    HW132135   3.859   2.433   7.435 -0.4418  0.4251 -0.6262
 6833SOL    HW232136   3.983   2.403   7.525 -3.6785 -0.1981  1.1014
 6834SOL     OW32137   2.895   0.455   2.521  0.1218 -0.0650  0.1747
 6834SOL    HW132138   2.837   0.525   2.493 -0.5333 -0.9970 -0.7554
 6834SOL    HW232139   2.875   0.394   2.450 -0.8558 -0.9535  1.2203
 6835SOL     OW32140   3.843   2.734   3.478 -0.2653 -0.4867  0.8805
 6835SOL    HW132141   3.749   2.721   3.487 -0.2399  0.3376  2.4016
 6835SOL    HW232142   3.857   2.755   3.571 -1.1575 -1.3023  1.1906
 6836SOL     OW32143   3.817   1.714  13.598 -0.4273  0.3095 -0.4728
 6836SOL    HW132144   3.741   1.659  13.577 -0.4091 -0.4148  1.3675
 6836SOL    HW232145   3.781   1.796  13.630 -1.1799 -0.6914  1.2322
 6837SOL     OW32146   4.021   3.569   7.895 -0.1218  0.2811 -0.2372
 6837SOL    HW132147   4.060   3.583   7.981  2.3299  0.0166 -1.3133
 6837SOL    HW232148   3.939   3.618   7.908  0.0564  1.0894 -2.2112
 6838SOL     OW32149   1.832   2.736  17.500 -0.8007 -0.0172  0.0032
 6838SOL    HW132150   1.760   2.756  17.440 -1.0947 -2.5808 -0.5273
 6838SOL    HW232151   1.781   2.709  17.577 -0.9620  1.9414  0.5904
 6839SOL     OW32152   4.634   4.074  13.355  0.0321 -0.0910 -0.3575
 6839SOL    HW132153   4.721   4.111  13.366  0.8759 -2.2577  0.2251
 6839SOL    HW232154   4.588   4.092  13.437  1.5675 -0.6960  0.6320
 6840SOL     OW32155   2.333   0.964  14.896  0.1084 -0.1574 -0.5452
 6840SOL    HW132156   2.395   0.900  14.863  2.0473  1.4854 -0.0894
 6840SOL    HW232157   2.360   0.974  14.987 -4.3234  2.6949  0.4660
 6841SOL     OW32158   3.436   3.637   6.267 -0.8003  0.2559  0.0371
 6841SOL    HW132159   3.498   3.597   6.328 -3.9386 -1.7371  1.9098
 6841SOL    HW232160   3.495   3.658   6.194 -1.9776  1.9802 -0.4129
 6842SOL     OW32161   0.410   3.170   8.985  0.6961 -1.0380 -0.0560
 6842SOL    HW132162   0.467   3.210   9.051  0.8116  0.1484 -0.8726
 6842SOL    HW232163   0.419   3.077   9.002 -0.6755 -0.8085  2.0560
 6843SOL     OW32164   2.652   3.269   5.174 -0.2785  0.1763  0.0882
 6843SOL    HW132165   2.666   3.217   5.253 -1.3475  0.8543  0.7238
 6843SOL    HW232166   2.620   3.206   5.110  1.8681 -0.8389  0.0297
 6844SOL     OW32167   0.833   0.030   2.000 -0.7031  0.0297  0.2418
 6844SOL    HW132168   0.887   4.697   2.039 -1.3921 -0.6106  0.0598
 6844SOL    HW232169   0.901   0.092   1.971 -1.2837  1.1594  1.2711
 6845SOL     OW32170   2.235   0.113   6.654  0.4083  0.5030  0.5871
 6845SOL    HW132171   2.265   0.034   6.698 -3.5913 -1.0648  0.4921
 6845SOL    HW232172   2.274   0.103   6.567 -0.0519 -1.8325  0.6515
 6846SOL     OW32173   4.632   2.980   3.524  0.0339  0.3337 -0.0544
 6846SOL    HW132174   4.671   2.912   3.469 -1.5258  0.0352 -0.7836
 6846SOL    HW232175   4.645   3.063   3.477  0.8829 -0.6208 -1.4894
 6847SOL     OW32176   1.491   1.817  17.561 -0.1041  0.1625  0.0296
 6847SOL    HW132177   1.439   1.835  17.484  2.1583  1.9115 -1.0997
 6847SOL    HW232178   1.437   1.847  17.634 -0.1077 -1.0613  0.5331
 6848SOL     OW32179   1.029   0.689   8.049  0.0626 -0.7870  0.0287
 6848SOL    HW132180   0.944   0.682   8.092 -0.6338 -0.4317 -1.2827
 6848SOL    HW232181   1.038   0.596   8.028 -0.1947 -0.9868  0.7790
 6849SOL     OW32182   1.870   3.449   2.155 -0.6714 -0.1680 -0.2260
 6849SOL    HW132183   1.847   3.495   2.236 -1.3230  1.5461 -1.3892
 6849SOL    HW232184   1.946   3.501   2.127 -2.7186  2.9961  0.0479
 6850SOL     OW32185   0.245   3.124   4.614 -0.5155  0.0527 -0.4613
 6850SOL    HW132186   0.158   3.165   4.623  0.5739  2.1794  0.3123
 6850SOL    HW232187   0.240   3.101   4.521  1.1879  1.8238 -0.9906
 6851SOL     OW32188   2.288   0.119  10.182 -0.4479 -0.0428 -1.0198
 6851SOL    HW132189   2.353   0.053  10.207 -2.1649 -1.4693 -0.3828
 6851SOL    HW232190   2.212   0.103  10.238  0.6261 -1.1282  0.1242
 6852SOL     OW32191   4.481   4.600  15.315 -0.4422 -0.5360  0.1052
 6852SOL    HW132192   4.550   4.537  15.340  0.2278  0.2621  0.2739
 6852SOL    HW232193   4.478   4.653  15.395  0.4220  1.3971 -1.1469
 6853SOL     OW32194   1.054   3.722   3.467 -0.0740  0.4324  0.1664
 6853SOL    HW132195   1.060   3.681   3.553 -2.5419  0.4409  0.3414
 6853SOL    HW232196   0.962   3.740   3.448 -0.1474  1.9139  1.9519
 6854SOL     OW32197   4.301   0.296   3.462 -0.0222  0.6284 -0.6740
 6854SOL    HW132198   4.300   0.364   3.530  0.7395 -1.3441  1.3117
 6854SOL    HW232199   4.339   0.227   3.516  0.8545  1.7333  0.1120
 6855SOL     OW32200   2.999   2.576   5.990 -0.5342  0.4100 -0.0972
 6855SOL    HW132201   3.064   2.590   5.921  0.5355 -0.1648  0.7914
 6855SOL    HW232202   3.006   2.484   6.015 -0.8285  0.6512  0.8629
 6856SOL     OW32203   4.271   3.670   5.848 -0.2438 -0.3989  0.2269
 6856SOL    HW132204   4.311   3.639   5.930 -1.0849  0.6260  1.0212
 6856SOL    HW232205   4.236   3.757   5.868  0.9166  0.5755 -2.0758
 6857SOL     OW32206   4.448   3.515  17.070 -0.1046 -0.0894 -0.5109
 6857SOL    HW132207   4.507   3.589  17.083 -1.0697  0.6788 -0.5314
 6857SOL    HW232208   4.453   3.498  16.976  1.6426 -1.4731 -0.1733
 6858SOL     OW32209   1.387   1.645   8.414  0.1518 -0.0280  0.1008
 6858SOL    HW132210   1.394   1.556   8.380 -1.1970 -0.7932  1.8206
 6858SOL    HW232211   1.348   1.632   8.501 -0.1999 -2.2382 -0.3933
 6859SOL     OW32212   4.725   0.352   2.271 -0.2909 -0.2578  0.7151
 6859SOL    HW132213   4.719   0.304   2.353  0.8985  0.6334  1.3325
 6859SOL    HW232214   0.064   0.316   2.222 -0.9109 -0.7012  0.1033
 6860SOL     OW32215   3.468   3.940   2.778  0.0613 -0.2860  0.2912
 6860SOL    HW132216   3.529   3.867   2.786 -0.1531 -0.8193 -2.7918
 6860SOL    HW232217   3.470   3.944   2.873 -3.5628 -1.2046  0.4218
 6861SOL     OW32218   1.472   4.724   7.450  0.3375  0.5718  0.7114
 6861SOL    HW132219   1.531   4.701   7.379 -0.1483  1.7155 -0.0595
 6861SOL    HW232220   1.537   0.014   7.516  0.5512  0.7540  0.4332
 6862SOL     OW32221   2.102   4.393   9.448  0.1700  0.0384  0.6458
 6862SOL    HW132222   2.020   4.442   9.454 -0.8697 -1.6897  0.5002
 6862SOL    HW232223   2.154   4.467   9.417  1.3815 -0.7684  0.7531
 6863SOL     OW32224   4.370   2.917   3.525  0.2363  0.0810 -0.1013
 6863SOL    HW132225   4.452   2.958   3.553 -0.3508  2.4984 -1.9518
 6863SOL    HW232226   4.378   2.907   3.431 -0.2814 -1.9757  0.0711
 6864SOL     OW32227   0.584   1.498   9.464 -0.2371 -0.0408  0.4311
 6864SOL    HW132228   0.648   1.429   9.450 -2.6613 -2.0324 -0.8359
 6864SOL    HW232229   0.643   1.572   9.477  0.3541 -0.1952 -1.4958
 6865SOL     OW32230   1.590   1.262   9.065 -0.6392  0.0875  0.5438
 6865SOL    HW132231   1.550   1.175   9.068  0.1516 -0.4166 -3.1386
 6865SOL    HW232232   1.509   1.314   9.059  0.6078  2.1403  1.5553
 6866SOL     OW32233   1.770   3.311   3.744 -0.0016 -0.0540  0.8109
 6866SOL    HW132234   1.828   3.387   3.739  0.8185 -0.7926 -0.8693
 6866SOL    HW232235   1.710   3.338   3.813  0.1452 -0.3603  1.0549
 6867SOL     OW32236   4.483   3.185  16.739  0.7830  0.3444  0.1920
 6867SOL    HW132237   4.440   3.100  16.746  0.2785  0.6164  0.3868
 6867SOL    HW232238   4.479   3.184  16.643 -2.2068  0.9050  0.3153
 6868SOL     OW32239   2.446   0.069   6.455  0.1573 -0.1919 -0.2832
 6868SOL    HW132240   2.502   0.003   6.496 -0.4754  0.2306  1.2576
 6868SOL    HW232241   2.509   0.118   6.402  1.0539 -1.1500 -0.1030
 6869SOL     OW32242   2.024   0.102   2.209  0.4712  0.1289  0.1911
 6869SOL    HW132243   2.030   0.115   2.114 -0.0249  1.5074  0.3491
 6869SOL    HW232244   2.048   0.010   2.216 -1.4347 -0.3381  0.6761
 6870SOL     OW32245   2.637   4.223   2.230 -0.3268  0.3731  0.3751
 6870SOL    HW132246   2.709   4.269   2.274  0.0540  0.6292 -0.5109
 6870SOL    HW232247   2.605   4.295   2.175  2.1046  1.9455  1.0190
 6871SOL     OW32248   0.205   3.272  11.866 -0.1767  0.0429  0.0548
 6871SOL    HW132249   0.128   3.325  11.847 -0.4411  0.4483  2.2348
 6871SOL    HW232250   0.192   3.202  11.802 -1.4289 -1.7506  2.2525
 6872SOL     OW32251   2.299   2.391   8.033 -0.4802  0.2649 -0.0173
 6872SOL    HW132252   2.225   2.436   8.075  0.7989  2.7627 -0.4055
 6872SOL    HW232253   2.366   2.453   8.063 -0.9537  0.9387 -0.3483
 6873SOL     OW32254   4.467   1.548   2.154  0.3967 -0.2733  0.2759
 6873SOL    HW132255   4.534   1.616   2.142  0.7298 -0.2796  2.0957
 6873SOL    HW232256   4.388   1.597   2.173 -0.5995 -0.5766 -3.1399
 6874SOL     OW32257   4.211   1.288   5.135  1.0230  0.7515  0.4247
 6874SOL    HW132258   4.167   1.258   5.214 -0.6157  1.3726 -0.2461
 6874SOL    HW232259   4.299   1.266   5.167  1.3615 -0.3709 -1.2756
 6875SOL     OW32260   4.690   1.078  11.831 -0.1728 -0.8546 -0.0375
 6875SOL    HW132261   4.678   0.989  11.866 -0.7493 -0.7278  0.0794
 6875SOL    HW232262   4.629   1.082  11.758 -0.5752 -0.4096  0.3269
 6876SOL     OW32263   2.809   3.457   0.013  0.5523  0.0185 -0.3372
 6876SOL    HW132264   2.850   3.420  17.676 -0.1205  1.9439 -1.5805
 6876SOL    HW232265   2.824   3.389   0.079  1.0970 -0.5124 -1.0148
 6877SOL     OW32266   4.698   2.421   4.682  0.3429 -0.7789  0.0774
 6877SOL    HW132267   4.675   2.333   4.712 -1.5001 -0.6421 -0.9714
 6877SOL    HW232268   0.032   2.451   4.741  1.5009 -0.7873 -1.2673
 6878SOL     OW32269   2.119   0.400   8.648  0.3084 -0.0267  0.0851
 6878SOL    HW132270   2.189   0.411   8.712 -0.8766  1.2958  1.1815
 6878SOL    HW232271   2.094   0.485   8.610  1.4074  0.4026  0.3290
 6879SOL     OW32272   2.362   0.458  17.157  0.6865 -0.0925  0.3013
 6879SOL    HW132273   2.442   0.410  17.178  1.6295  0.5694 -1.7704
 6879SOL    HW232274   2.376   0.546  17.192 -1.3509 -0.3832  1.8481
 6880SOL     OW32275   1.919   1.623   7.287 -0.3948 -0.0886 -0.4490
 6880SOL    HW132276   1.942   1.530   7.292 -2.6078 -0.4551  2.9999
 6880SOL    HW232277   1.980   1.643   7.216  2.6255 -5.3295  0.6301
 6881SOL     OW32278   1.491   0.444   5.280 -0.3794  0.5427 -0.6859
 6881SOL    HW132279   1.537   0.435   5.197 -0.1446 -1.0652 -0.3949
 6881SOL    HW232280   1.572   0.455   5.329 -1.6211  1.6011  1.1452
 6882SOL     OW32281   1.547   2.528   1.934  0.1563  0.1938  0.4238
 6882SOL    HW132282   1.561   2.623   1.931  1.0129  0.0034 -1.5931
 6882SOL    HW232283   1.461   2.525   1.893 -0.1650  0.6476  1.0602
 6883SOL     OW32284   3.864   0.817   4.064  0.1426 -0.3031  0.0637
 6883SOL    HW132285   3.891   0.897   4.019 -2.2440  0.3082 -0.2620
 6883SOL    HW232286   3.824   0.848   4.145  0.9549 -0.1469  0.4119
 6884SOL     OW32287   0.395   3.439   5.898 -0.1805  1.1376 -0.1349
 6884SOL    HW132288   0.426   3.499   5.967 -1.7420 -0.5424  2.0324
 6884SOL    HW232289   0.370   3.495   5.825 -0.4758  0.4513 -0.5502
 6885SOL     OW32290   3.553   4.332   7.973  0.7136  0.2138  0.0799
 6885SOL    HW132291   3.614   4.290   8.034  0.5588  0.3903  0.3558
 6885SOL    HW232292   3.561   4.273   7.898 -1.4606  0.0109 -0.0028
 6886SOL     OW32293   4.108   0.910   0.035  0.2781 -0.2246 -0.0844
 6886SOL    HW132294   4.040   0.934   0.097 -0.5658 -0.6159 -0.8649
 6886SOL    HW232295   4.089   0.818   0.018  2.2635 -0.2987 -1.9042
 6887SOL     OW32296   4.295   2.082   8.445 -0.3935 -0.5922  0.1874
 6887SOL    HW132297   4.286   2.154   8.508 -1.8252 -0.6575  0.0470
 6887SOL    HW232298   4.227   2.097   8.379 -0.0193  1.1943  0.2171
 6888SOL     OW32299   1.094   1.494   8.186  0.1291  0.0497  0.6042
 6888SOL    HW132300   1.002   1.487   8.209 -0.5008  0.2484 -1.9438
 6888SOL    HW232301   1.132   1.517   8.271 -0.3956  0.7957  0.6329
 6889SOL     OW32302   1.422   3.285  17.730  0.2407  0.7808  0.4494
 6889SOL    HW132303   1.518   3.288  17.734  0.3152 -1.3194  0.4280
 6889SOL    HW232304   1.406   3.191   0.003  1.2636  0.6305  0.6494
 6890SOL     OW32305   3.914   2.956   1.867  1.0317  0.1676  0.1487
 6890SOL    HW132306   3.868   3.031   1.828  0.8911  0.1999  0.3813
 6890SOL    HW232307   3.902   2.889   1.800  1.1747  0.3454 -0.0607
 6891SOL     OW32308   2.766   2.448   5.820 -0.0207 -0.4879  0.0273
 6891SOL    HW132309   2.850   2.473   5.857 -0.0862  1.3801 -1.0310
 6891SOL    HW232310   2.769   2.354   5.837 -1.0335  0.0380  3.0889
 6892SOL     OW32311   4.486   1.873  17.571 -0.3597 -0.3721 -0.3248
 6892SOL    HW132312   4.414   1.873  17.508 -1.2094 -0.1249  0.6506
 6892SOL    HW232313   4.427   1.861  17.645 -1.1898  3.9824 -0.3243
 6893SOL     OW32314   1.074   3.913  17.567 -0.4179  0.5187  0.2298
 6893SOL    HW132315   1.165   3.912  17.536 -0.1920  0.7109  0.9059
 6893SOL    HW232316   1.031   3.835  17.532 -0.2665  0.3787  0.3514
 6894SOL     OW32317   2.743   2.252   2.552  0.4484  0.3577 -0.4706
 6894SOL    HW132318   2.761   2.332   2.502  3.9470 -0.5926 -0.7240
 6894SOL    HW232319   2.781   2.282   2.635 -0.6761 -0.0339  0.1900
 6895SOL     OW32320   1.752   3.456   7.202 -0.3119  0.0035  0.0760
 6895SOL    HW132321   1.766   3.428   7.112 -3.5754  2.2260 -1.1339
 6895SOL    HW232322   1.760   3.552   7.195  0.4169  0.0541  1.5488
 6896SOL     OW32323   2.711   2.981   1.870  0.3167 -0.1551  0.1239
 6896SOL    HW132324   2.697   3.076   1.871 -0.7115 -0.2917 -0.9004
 6896SOL    HW232325   2.699   2.955   1.961  1.0163  0.4349  0.3826
 6897SOL     OW32326   2.323   4.569   2.845  0.2780  0.0138  0.2755
 6897SOL    HW132327   2.270   4.629   2.794  0.7288 -1.1735 -1.5820
 6897SOL    HW232328   2.298   4.595   2.934  0.3661  1.2205 -0.0558
 6898SOL     OW32329   3.766   3.347   6.742 -0.2743 -0.1002 -0.0411
 6898SOL    HW132330   3.817   3.266   6.738 -0.6320 -0.3419  0.4849
 6898SOL    HW232331   3.830   3.404   6.698 -1.3207  0.9517 -0.2041
 6899SOL     OW32332   2.142   0.658   2.951  0.0509 -0.0544  0.2309
 6899SOL    HW132333   2.188   0.726   2.999  0.7962 -0.7431  0.5078
 6899SOL    HW232334   2.055   0.697   2.959 -0.2046 -0.5466 -0.1379
 6900SOL     OW32335   0.681   4.734   7.941  0.1354 -0.3191 -0.0354
 6900SOL    HW132336   0.651   0.016   8.030  1.1821 -1.8432  0.6362
 6900SOL    HW232337   0.664   4.640   7.933 -1.0494 -0.1469  0.5848
 6901SOL     OW32338   2.171   2.230  14.832 -0.7783 -0.0759  0.2851
 6901SOL    HW132339   2.198   2.307  14.882 -0.1106  0.0176 -0.2120
 6901SOL    HW232340   2.228   2.243  14.755  0.3217 -2.6434  0.6578
 6902SOL     OW32341   2.076   1.948   3.861 -0.0306 -0.2826 -0.0482
 6902SOL    HW132342   2.163   1.908   3.870 -0.3079 -0.7535  0.5789
 6902SOL    HW232343   2.088   2.023   3.804 -3.5637 -0.1691 -0.6448
 6903SOL     OW32344   1.551   3.800   5.221 -0.1341  0.2296 -0.4497
 6903SOL    HW132345   1.464   3.839   5.217 -1.3146 -2.0739  2.4359
 6903SOL    HW232346   1.546   3.776   5.313 -1.4967 -2.3255 -1.1648
 6904SOL     OW32347   4.195   4.708   1.271 -0.0014  0.1089  0.0938
 6904SOL    HW132348   4.208   4.658   1.352  0.5882 -1.5460 -1.0291
 6904SOL    HW232349   4.219   0.055   1.315  0.2469 -0.1001  0.3519
 6905SOL     OW32350   0.438   1.441  13.328  0.3388  0.3806  0.6605
 6905SOL    HW132351   0.487   1.430  13.409  1.2063  0.9163  0.2078
 6905SOL    HW232352   0.366   1.380  13.344  2.6554 -2.6080 -0.0905
 6906SOL     OW32353   2.416   2.496   4.643  0.0313 -0.3207 -0.4331
 6906SOL    HW132354   2.329   2.460   4.656 -1.4021  3.1058 -0.6807
 6906SOL    HW232355   2.456   2.456   4.721 -0.0927 -0.5489 -0.4873
 6907SOL     OW32356   3.905   3.878  15.708  0.2783 -0.5222  0.2513
 6907SOL    HW132357   3.884   3.968  15.682 -0.4230 -0.3652  1.3526
 6907SOL    HW232358   3.850   3.871  15.786 -0.1449 -1.2521 -0.1112
 6908SOL     OW32359   4.702   4.573   7.435 -0.0547  0.1773 -0.1270
 6908SOL    HW132360   4.731   4.482   7.433  0.3504  0.2842  0.7382
 6908SOL    HW232361   4.728   4.604   7.522 -1.6869 -0.3030  0.5321
 6909SOL     OW32362   2.633   0.430   3.905 -0.1682 -0.2925  0.0834
 6909SOL    HW132363   2.565   0.495   3.923  0.3916  0.6550 -1.3099
 6909SOL    HW232364   2.695   0.458   3.973  1.4044  1.1581 -1.9507
 6910SOL     OW32365   3.927   4.665   1.241  0.4088 -0.0919  0.5365
 6910SOL    HW132366   4.018   4.686   1.260  0.6610 -1.0003  0.3301
 6910SOL    HW232367   3.896   4.730   1.178 -1.2549 -1.2627  0.1539
 6911SOL     OW32368   3.766   3.332   7.768  0.1499  0.0883 -0.0650
 6911SOL    HW132369   3.801   3.246   7.791 -1.3321 -0.7302 -0.8945
 6911SOL    HW232370   3.838   3.386   7.800 -2.1973  1.2344  3.2336
 6912SOL     OW32371   3.517   0.231   3.974  0.0424 -0.3782 -0.6253
 6912SOL    HW132372   3.555   0.143   3.965  0.5019 -0.3582  1.1635
 6912SOL    HW232373   3.589   0.292   3.988 -0.2546 -0.1744 -0.0086
 6913SOL     OW32374   2.855   3.361   4.801  0.1185 -0.4751  0.1897
 6913SOL    HW132375   2.846   3.448   4.762 -0.4521 -1.2451 -1.3979
 6913SOL    HW232376   2.766   3.329   4.786  0.3201 -0.1983 -1.5875
 6914SOL     OW32377   0.241   0.308  13.260  0.5379  0.0944 -0.7960
 6914SOL    HW132378   0.337   0.313  13.252  0.8792 -0.6048  2.6815
 6914SOL    HW232379   0.213   0.399  13.267 -0.2018 -0.0789 -1.6598
 6915SOL     OW32380   0.328   0.606   1.264 -0.3980  0.2168 -0.3339
 6915SOL    HW132381   0.279   0.525   1.252 -0.2661  0.2243 -0.9322
 6915SOL    HW232382   0.400   0.572   1.317 -1.4349 -0.4782  0.6180
 6916SOL     OW32383   3.192   4.252  12.782  0.4251 -0.2497  0.2959
 6916SOL    HW132384   3.146   4.172  12.756  1.5141 -0.8502  0.2025
 6916SOL    HW232385   3.271   4.241  12.728  0.7153  1.3081  0.3964
 6917SOL     OW32386   3.588   2.861   9.940  0.0995 -0.2750  0.6292
 6917SOL    HW132387   3.565   2.921   9.869 -1.8228 -1.2621  0.4101
 6917SOL    HW232388   3.505   2.814   9.946  2.4521 -4.3064  1.0271
 6918SOL     OW32389   3.389   4.541   2.002 -0.4210  0.6273 -0.1286
 6918SOL    HW132390   3.334   4.523   2.079 -0.3632  0.9212 -0.0179
 6918SOL    HW232391   3.454   4.471   2.000 -0.6624  0.3187  2.4878
 6919SOL     OW32392   2.818   2.684   5.713 -0.2700 -0.3215  0.1359
 6919SOL    HW132393   2.785   2.600   5.746 -0.4937  0.2528  1.3603
 6919SOL    HW232394   2.901   2.651   5.678 -0.8322 -0.1347 -1.4027
 6920SOL     OW32395   3.147   3.991   7.465 -0.3358 -0.4275 -0.5570
 6920SOL    HW132396   3.151   4.083   7.437 -1.5122 -0.6960 -1.5926
 6920SOL    HW232397   3.218   3.958   7.410 -0.5686  0.6604 -1.5192
 6921SOL     OW32398   3.315   2.700   5.822  0.9042  0.2363 -0.1053
 6921SOL    HW132399   3.343   2.616   5.858 -0.3272 -1.4286 -2.9982
 6921SOL    HW232400   3.325   2.690   5.727 -1.2672  3.3149 -0.6888
 6922SOL     OW32401   2.964   1.985  12.992 -0.2230 -0.0840  0.1335
 6922SOL    HW132402   2.926   1.956  12.909 -0.4146 -1.4461  0.6998
 6922SOL    HW232403   3.031   1.918  12.997 -0.9700 -0.8911 -0.6673
 6923SOL     OW32404   3.512   2.729   3.082 -0.2992 -0.3729 -0.0588
 6923SOL    HW132405   3.590   2.753   3.132 -0.5593  1.5870 -0.6236
 6923SOL    HW232406   3.462   2.700   3.158 -0.2564  1.2686  0.5794
 6924SOL     OW32407   3.736   1.250   8.068  0.7603  0.0767 -0.0235
 6924SOL    HW132408   3.780   1.166   8.055 -0.3070 -1.0363  3.5321
 6924SOL    HW232409   3.650   1.222   8.037  0.4639  1.7760 -0.7199
 6925SOL     OW32410   3.088   3.229   4.734 -0.3846 -0.0376  0.2818
 6925SOL    HW132411   3.025   3.289   4.775  0.6897  0.9887  0.4370
 6925SOL    HW232412   3.031   3.196   4.665 -1.4420  1.4026  0.4568
 6926SOL     OW32413   3.773   0.273   2.013  0.0799  0.9467  0.6055
 6926SOL    HW132414   3.852   0.302   1.966 -0.6529 -0.1886 -1.3335
 6926SOL    HW232415   3.715   0.275   1.937  0.8835 -0.3506 -0.0375
 6927SOL     OW32416   2.565   0.085  13.671 -0.0657  0.0176  0.0733
 6927SOL    HW132417   2.539   4.731  13.694  0.6371  0.0171  0.8312
 6927SOL    HW232418   2.500   0.140  13.715  0.0601  0.3731 -0.1879
 6928SOL     OW32419   0.292   0.662   7.244  0.5358  0.3953 -0.4637
 6928SOL    HW132420   0.205   0.694   7.268 -0.4039 -1.3919 -1.4566
 6928SOL    HW232421   0.288   0.567   7.259 -0.7104  0.2915 -1.4046
 6929SOL     OW32422   0.491   1.179   2.607  0.1335  1.1236  0.6041
 6929SOL    HW132423   0.496   1.122   2.531  1.2664  1.8669  0.1315
 6929SOL    HW232424   0.473   1.262   2.562 -0.5877  1.6295  1.7884
 6930SOL     OW32425   1.259   1.418  11.651  0.0450 -0.3739 -0.3296
 6930SOL    HW132426   1.219   1.451  11.570 -0.0167 -0.7017 -0.4363
 6930SOL    HW232427   1.223   1.329  11.654  1.0495 -0.7474  0.3439
 6931SOL     OW32428   0.215   3.037   4.360 -0.6976 -0.3309 -0.1768
 6931SOL    HW132429   0.173   2.960   4.322 -3.6418  2.0777 -1.7356
 6931SOL    HW232430   0.285   3.064   4.300 -0.8860 -1.4713 -0.9090
 6932SOL     OW32431   2.166   3.901   6.297  0.4949 -0.3013  0.0013
 6932SOL    HW132432   2.115   3.936   6.223  2.0037  2.0737  0.0779
 6932SOL    HW232433   2.249   3.947   6.282 -0.3448  0.2522 -2.9592
 6933SOL     OW32434   3.900   1.903   8.576  0.0860 -0.2360  0.5383
 6933SOL    HW132435   3.847   1.982   8.568 -1.6483 -1.5617 -0.9570
 6933SOL    HW232436   3.905   1.893   8.671  1.4650 -3.3126  0.1192
 6934SOL     OW32437   2.118   2.623   3.606  0.0711 -0.7677 -0.0194
 6934SOL    HW132438   2.081   2.537   3.591  1.0896 -1.1012 -0.6562
 6934SOL    HW232439   2.052   2.660   3.664 -1.3356  0.6247 -2.5313
 6935SOL     OW32440   3.501   0.438   0.235  0.1356 -0.0581  0.5003
 6935SOL    HW132441   3.584   0.421   0.280  1.4725 -1.1018 -2.3343
 6935SOL    HW232442   3.530   0.446   0.144  2.2119 -1.3020  1.0629
 6936SOL     OW32443   4.614   0.329   3.177  0.0426  0.4723  0.4297
 6936SOL    HW132444   4.649   0.335   3.088 -0.8871 -4.0111 -0.2708
 6936SOL    HW232445   4.636   0.236   3.190 -2.3536 -0.0208  0.9398
 6937SOL     OW32446   0.527   1.015   8.042  0.3637 -0.1102  0.2715
 6937SOL    HW132447   0.559   0.978   7.960  1.2673  0.8152  0.2084
 6937SOL    HW232448   0.572   1.099   8.049  0.1813  0.0541 -0.4998
 6938SOL     OW32449   2.573   1.777   3.883 -0.0835 -0.2086 -0.0571
 6938SOL    HW132450   2.617   1.736   3.958 -2.9073  0.5409  2.0093
 6938SOL    HW232451   2.493   1.813   3.921  0.2387 -0.7037  1.0755
 6939SOL     OW32452   2.029   4.032   6.524  0.3710  0.6523  0.2755
 6939SOL    HW132453   2.082   3.982   6.586 -1.2363 -0.2037  0.9550
 6939SOL    HW232454   2.062   4.003   6.439 -2.4732 -1.5183 -0.0829
 6940SOL     OW32455   3.841   1.450   7.762  0.1424 -0.2360  0.0972
 6940SOL    HW132456   3.809   1.540   7.766  1.6861  0.3100  0.1789
 6940SOL    HW232457   3.868   1.436   7.671 -1.0671  1.0555 -0.4663
 6941SOL     OW32458   1.801   3.322  12.639 -0.0894 -0.6020  0.0441
 6941SOL    HW132459   1.783   3.251  12.700 -1.4787  0.8489  1.3451
 6941SOL    HW232460   1.715   3.334  12.597 -1.1210 -1.1744  1.9871
 6942SOL     OW32461   0.481   3.352   8.313 -0.2811  0.1451 -0.0981
 6942SOL    HW132462   0.559   3.349   8.258  0.1602  1.5429  0.4469
 6942SOL    HW232463   0.421   3.310   8.252  0.2513  0.1217 -0.6034
 6943SOL     OW32464   3.440   3.247   1.628  0.5288 -0.3150  0.0667
 6943SOL    HW132465   3.448   3.201   1.544 -0.6399  0.2901 -0.3715
 6943SOL    HW232466   3.447   3.175   1.690  0.4734  0.5147  1.0330
 6944SOL     OW32467   2.973   3.133   3.668 -0.3755  0.0020 -0.5422
 6944SOL    HW132468   2.941   3.048   3.639 -1.6233 -0.1385  1.2700
 6944SOL    HW232469   3.066   3.111   3.663 -0.4593 -0.8976  2.1233
 6945SOL     OW32470   3.721   1.098   2.742 -0.1034  0.7038  0.4889
 6945SOL    HW132471   3.753   1.142   2.821  0.5631  1.7360 -0.3635
 6945SOL    HW232472   3.630   1.119   2.762 -1.0407 -1.9274 -1.0120
 6946SOL     OW32473   1.115   4.485   7.067 -0.1697 -0.0005 -0.0557
 6946SOL    HW132474   1.020   4.488   7.081 -0.4430  1.2769 -2.2897
 6946SOL    HW232475   1.141   4.569   7.105  1.5311  0.4317 -2.2327
 6947SOL     OW32476   1.513   3.324   8.023  0.2189 -0.1707 -0.4373
 6947SOL    HW132477   1.426   3.356   8.002  0.8789 -0.5772 -3.8171
 6947SOL    HW232478   1.503   3.296   8.114  0.7060  0.7550 -0.1019
 6948SOL     OW32479   3.628   4.567   4.449 -0.7132  0.0096  0.3801
 6948SOL    HW132480   3.647   4.570   4.355 -1.9597 -2.0550  0.0750
 6948SOL    HW232481   3.633   4.662   4.463 -0.6198  0.0062  0.3692
 6949SOL     OW32482   2.292   0.287   8.401  0.2634 -1.0768 -0.4956
 6949SOL    HW132483   2.229   0.354   8.372  0.3979 -0.7526 -0.0367
 6949SOL    HW232484   2.319   0.244   8.320  0.5437  0.2590 -1.1101
 6950SOL     OW32485   4.047   0.499   6.001  0.1786 -0.3047 -0.0898
 6950SOL    HW132486   4.049   0.566   6.069 -2.0794 -1.4797  1.1658
 6950SOL    HW232487   4.052   0.428   6.065  1.1217 -0.5663 -0.4480
 6951SOL     OW32488   0.419   2.891   7.499 -0.5382 -0.3580  0.1881
 6951SOL    HW132489   0.482   2.835   7.545  0.8571  0.2097 -1.0410
 6951SOL    HW232490   0.390   2.840   7.423  0.0789 -2.6761  1.5057
 6952SOL     OW32491   0.085   0.826  16.761  0.5089  0.0293  0.2711
 6952SOL    HW132492   0.102   0.917  16.786 -0.0237 -0.3051  1.8654
 6952SOL    HW232493   4.725   0.825  16.752  0.6664 -0.5333 -1.2418
 6953SOL     OW32494   0.782   4.538   3.820  0.1827 -0.4175 -0.0360
 6953SOL    HW132495   0.758   4.478   3.750  2.2853 -0.8308 -0.3959
 6953SOL    HW232496   0.858   4.493   3.857  0.0607  1.5207  2.6147
 6954SOL     OW32497   2.784   0.622   0.415  0.1905 -0.1410  0.1353
 6954SOL    HW132498   2.809   0.708   0.381 -0.4620 -0.0882 -0.2199
 6954SOL    HW232499   2.844   0.570   0.363  1.9671  0.6405  1.4031
 6955SOL     OW32500   0.220   0.469   9.518  0.9274 -0.0235  0.3262
 6955SOL    HW132501   0.185   0.520   9.591 -1.0007 -1.5525  0.4709
 6955SOL    HW232502   0.206   0.388   9.567  2.4894 -0.9470 -0.7505
 6956SOL     OW32503   3.426   1.458   9.570 -0.1579  0.9509 -0.1949
 6956SOL    HW132504   3.517   1.448   9.598  0.1033 -2.8587 -2.4004
 6956SOL    HW232505   3.417   1.551   9.588 -3.2163  0.5791  0.2800
 6957SOL     OW32506   4.727   3.315   3.868 -0.0252 -0.4107 -0.3253
 6957SOL    HW132507   4.661   3.268   3.817  0.6663 -1.6800 -0.0469
 6957SOL    HW232508   0.025   3.248   3.928 -2.1178 -1.1671  0.0246
 6958SOL     OW32509   3.193   2.242   7.356 -0.1590 -0.0589  0.2500
 6958SOL    HW132510   3.111   2.195   7.369 -0.6122  0.4113 -0.8804
 6958SOL    HW232511   3.235   2.187   7.291 -0.1331  1.0134 -0.6425
 6959SOL     OW32512   1.070   0.648   0.859 -0.5493 -0.1520  0.7219
 6959SOL    HW132513   0.979   0.642   0.831  0.0148  0.8682 -1.3796
 6959SOL    HW232514   1.062   0.631   0.952 -0.0160  0.7056  0.9208
 6960SOL     OW32515   1.181   3.238   5.814 -0.4296 -0.1667 -0.4873
 6960SOL    HW132516   1.208   3.162   5.864 -0.1722  0.5146  0.4075
 6960SOL    HW232517   1.158   3.204   5.727  0.5047 -1.0602 -0.3790
 6961SOL     OW32518   4.152   2.489   6.022 -0.4918  0.6774  0.1207
 6961SOL    HW132519   4.105   2.548   6.081  0.3496  0.3259  1.1449
 6961SOL    HW232520   4.242   2.474   6.048  0.0984  1.5298 -1.4147
 6962SOL     OW32521   2.049   1.706   1.885  0.3783 -0.0777  0.3114
 6962SOL    HW132522   2.049   1.634   1.947 -1.9286  0.1798  0.6017
 6962SOL    HW232523   2.054   1.660   1.800 -0.5827  0.3065  0.0471
 6963SOL     OW32524   2.148   0.148   7.403  0.6520 -0.2202 -0.0094
 6963SOL    HW132525   2.092   0.196   7.463  1.5125  0.3918  0.3108
 6963SOL    HW232526   2.198   0.090   7.462  0.0803  2.1151  2.7534
 6964SOL     OW32527   1.557   0.665   3.946  0.0144  0.3127  0.0498
 6964SOL    HW132528   1.469   0.629   3.939 -0.4648  1.4145  0.4524
 6964SOL    HW232529   1.608   0.598   3.900 -0.6461 -1.2788  1.6592
 6965SOL     OW32530   2.271   2.652   2.858 -0.2451 -0.0494 -0.3515
 6965SOL    HW132531   2.337   2.720   2.852 -0.0461 -0.3610 -1.6504
 6965SOL    HW232532   2.277   2.632   2.951 -1.6351  2.5556  0.2815
 6966SOL     OW32533   1.543   0.630   8.316 -0.0388  0.6314 -0.6110
 6966SOL    HW132534   1.535   0.535   8.322 -2.6204  0.7764 -1.6322
 6966SOL    HW232535   1.456   0.654   8.284 -1.3152 -2.7160  0.3460
 6967SOL     OW32536   2.705   0.221   9.156  0.4125 -0.1542  0.3782
 6967SOL    HW132537   2.712   0.135   9.196 -0.1145 -0.0275  0.7329
 6967SOL    HW232538   2.636   0.203   9.093  1.5560 -0.9761 -0.6506
 6968SOL     OW32539   3.623   3.102   5.206 -0.4869  0.4019  0.3519
 6968SOL    HW132540   3.634   3.141   5.119  0.2067 -2.7377 -0.9543
 6968SOL    HW232541   3.568   3.025   5.190 -0.3434 -0.0713  2.1530
 6969SOL     OW32542   4.169   4.718   5.374 -0.0914  0.2900 -0.2390
 6969SOL    HW132543   4.119   4.704   5.294 -1.6619  3.5826  0.1630
 6969SOL    HW232544   4.193   4.627   5.394 -1.4460 -0.1637 -0.6303
 6970SOL     OW32545   0.335   3.768   1.590  0.3637 -0.0305 -0.1358
 6970SOL    HW132546   0.287   3.828   1.533  0.9924 -0.8872 -1.5646
 6970SOL    HW232547   0.260   3.716   1.619  0.5830 -0.0045  0.4878
 6971SOL     OW32548   3.018   4.282   6.558  0.1170 -0.1633 -0.0052
 6971SOL    HW132549   3.012   4.188   6.579 -1.3976 -0.4863 -1.7862
 6971SOL    HW232550   2.966   4.320   6.628  0.3691 -0.0106  0.0969
 6972SOL     OW32551   0.607   3.996  12.263 -0.2304 -0.0169  0.2312
 6972SOL    HW132552   0.669   3.948  12.208 -0.3359 -1.0986  1.0553
 6972SOL    HW232553   0.535   4.009  12.201  0.0099  0.4331  0.0536
 6973SOL     OW32554   0.389   3.393   3.539 -0.7139 -0.1565  0.4469
 6973SOL    HW132555   0.313   3.418   3.593 -0.1772 -1.0608  1.6088
 6973SOL    HW232556   0.365   3.407   3.447  0.8338  2.6328  0.4592
 6974SOL     OW32557   1.316   0.618   1.315  0.0027 -0.1472  0.8668
 6974SOL    HW132558   1.384   0.584   1.373  2.1968  1.5334 -0.7277
 6974SOL    HW232559   1.241   0.579   1.359  0.8086 -2.6007  0.0377
 6975SOL     OW32560   0.841   3.611   8.600  0.4458 -0.3847  0.3048
 6975SOL    HW132561   0.839   3.599   8.505  1.1652  0.5964  0.1758
 6975SOL    HW232562   0.757   3.652   8.621  2.0813  2.7384  0.6698
 6976SOL     OW32563   3.964   1.226  17.268 -0.3579 -0.4650  0.7079
 6976SOL    HW132564   4.049   1.270  17.257 -1.0302  0.9048  1.1022
 6976SOL    HW232565   3.913   1.258  17.194 -0.4992  1.3647  1.5997
 6977SOL     OW32566   0.166   3.822  17.696 -0.0947 -0.2977  0.5274
 6977SOL    HW132567   0.143   3.822  17.603 -1.6293  1.8433  0.9094
 6977SOL    HW232568   0.128   3.740  17.726 -1.9877  0.4396  0.1535
 6978SOL     OW32569   1.354   3.157   4.412 -0.0025 -0.1735 -0.4122
 6978SOL    HW132570   1.321   3.119   4.331  0.3889 -1.5622  0.0752
 6978SOL    HW232571   1.389   3.241   4.384 -0.9505  1.1096  2.2777
 6979SOL     OW32572   1.241   0.284   4.358  0.1659  0.3098 -0.8329
 6979SOL    HW132573   1.232   0.263   4.451  0.5988 -1.6801 -1.2431
 6979SOL    HW232574   1.189   0.364   4.358  0.0880  0.2479 -2.0632
 6980SOL     OW32575   1.678   1.844   2.599  0.4542 -0.7621 -0.2389
 6980SOL    HW132576   1.591   1.834   2.635  1.0811  2.5590  2.1933
 6980SOL    HW232577   1.702   1.932   2.629 -0.3594 -0.3796 -0.7110
 6981SOL     OW32578   2.513   0.923   8.271  0.1894  0.4117 -0.2300
 6981SOL    HW132579   2.452   0.850   8.267  0.1757  0.4077  0.0566
 6981SOL    HW232580   2.582   0.878   8.319 -0.1429  1.2907  1.0755
 6982SOL     OW32581   2.733   3.477   5.035  0.2321 -0.2920  0.0735
 6982SOL    HW132582   2.713   3.398   5.085  0.9630  1.5206  3.1970
 6982SOL    HW232583   2.794   3.438   4.972 -2.8910 -1.9678 -1.9259
 6983SOL     OW32584   3.019   2.578   2.864  0.2916 -0.5735  0.2275
 6983SOL    HW132585   2.990   2.596   2.953 -2.1594 -1.5295 -0.3816
 6983SOL    HW232586   3.111   2.607   2.869  0.5098 -1.2790  0.2823
 6984SOL     OW32587   1.228   3.039   1.895 -0.1681  0.4195 -0.1777
 6984SOL    HW132588   1.256   3.131   1.890  0.2543  0.4371  2.8196
 6984SOL    HW232589   1.162   3.059   1.961  1.7997 -1.8703  2.4567
 6985SOL     OW32590   0.510   0.388  12.603 -0.3303 -0.7542  0.1014
 6985SOL    HW132591   0.564   0.360  12.530 -0.1901 -0.4444  0.0899
 6985SOL    HW232592   0.558   0.463  12.638  0.4006 -1.4270  0.5302
 6986SOL     OW32593   2.242   4.364   8.297  0.0794 -0.0529  0.0796
 6986SOL    HW132594   2.281   4.365   8.209  0.7155  1.7077  0.3761
 6986SOL    HW232595   2.261   4.273   8.322  0.6164  0.0097 -0.0973
 6987SOL     OW32596   0.503   3.476   8.918  0.0082 -0.5763 -0.6152
 6987SOL    HW132597   0.536   3.465   9.007 -0.7334 -1.6472 -0.4718
 6987SOL    HW232598   0.544   3.400   8.879 -0.2721 -1.9461  1.7635
 6988SOL     OW32599   2.652   4.449  11.261 -0.3287 -0.3720  0.1746
 6988SOL    HW132600   2.696   4.440  11.176 -1.3087  0.4258 -0.4247
 6988SOL    HW232601   2.680   4.368  11.303  1.8881  0.0751 -0.4236
 6989SOL     OW32602   1.037   2.224  12.765  0.0599 -0.6621  0.3555
 6989SOL    HW132603   1.066   2.283  12.835 -0.9882 -0.3062  0.4864
 6989SOL    HW232604   1.092   2.149  12.787  1.2938  0.0883 -0.1376
 6990SOL     OW32605   3.001   1.155   1.730  0.4120  0.3392 -0.0650
 6990SOL    HW132606   2.951   1.236   1.738  0.5261  0.5015 -0.9266
 6990SOL    HW232607   2.944   1.095   1.681 -2.8134  1.9898  1.6711
 6991SOL     OW32608   1.816   2.937   5.846  0.9787  0.0295 -0.0076
 6991SOL    HW132609   1.891   2.908   5.898  1.7620  3.0441  0.5628
 6991SOL    HW232610   1.859   3.017   5.817  0.6579 -0.3409 -1.4840
 6992SOL     OW32611   3.997   0.844   3.609  0.8425 -0.1253 -0.2171
 6992SOL    HW132612   4.018   0.802   3.525  3.3887 -0.4675  0.5816
 6992SOL    HW232613   3.909   0.808   3.622  1.7521 -1.6351  1.7627
 6993SOL     OW32614   4.279   3.493   6.860  0.3739  0.3065  0.4252
 6993SOL    HW132615   4.228   3.452   6.929  0.1986  0.2252  0.2460
 6993SOL    HW232616   4.367   3.464   6.885  0.8246  1.0128 -0.3178
 6994SOL     OW32617   2.360   0.263  10.569 -0.1724  0.2316  0.4989
 6994SOL    HW132618   2.334   0.173  10.589 -1.2317  1.1043  3.0191
 6994SOL    HW232619   2.276   0.309  10.578 -0.0382  0.4521  0.6177
 6995SOL     OW32620   2.824   0.565   4.067 -1.0049 -0.3021 -0.2898
 6995SOL    HW132621   2.813   0.655   4.034 -1.5116 -0.9599 -1.9075
 6995SOL    HW232622   2.857   0.583   4.155  1.7497 -0.5935 -1.2545
 6996SOL     OW32623   1.211   2.928   5.407  0.0217  0.5056 -0.8230
 6996SOL    HW132624   1.235   2.942   5.315 -2.1524  0.6826 -1.3502
 6996SOL    HW232625   1.266   2.854   5.433  2.0049  1.5284 -2.0154
 6997SOL     OW32626   2.893   0.458   4.355  0.6327  0.1567  0.5445
 6997SOL    HW132627   2.950   0.393   4.314  0.2979  1.7568 -2.4704
 6997SOL    HW232628   2.807   0.417   4.347  1.0156 -0.8175  1.4792
 6998SOL     OW32629   4.357   0.946   0.870 -0.0065  0.1367 -0.4637
 6998SOL    HW132630   4.309   0.980   0.946 -1.2498 -1.0625 -0.7124
 6998SOL    HW232631   4.418   0.884   0.911 -0.9381 -0.1136  0.5548
 6999SOL     OW32632   0.607   3.066   1.248  0.7355 -0.1011 -0.1710
 6999SOL    HW132633   0.637   3.156   1.259 -1.2081  0.3632  1.3041
 6999SOL    HW232634   0.612   3.060   1.153  2.3147  3.7023 -0.3114
 7000SOL     OW32635   3.480   0.456  16.654 -0.1516  0.1745 -0.3074
 7000SOL    HW132636   3.491   0.425  16.744  0.6631  1.5606  0.0706
 7000SOL    HW232637   3.388   0.483  16.661  0.2983  0.6742  3.9858
 7001SOL     OW32638   2.830   3.153   1.452  0.1417 -0.4822 -0.2116
 7001SOL    HW132639   2.861   3.238   1.422  0.3027 -1.1683 -2.0031
 7001SOL    HW232640   2.767   3.131   1.383 -1.9567 -2.1870  2.2368
 7002SOL     OW32641   2.685   4.103   5.141  0.4201  0.2322 -0.5863
 7002SOL    HW132642   2.737   4.024   5.157  1.0299  0.9118  0.8108
 7002SOL    HW232643   2.745   4.176   5.158  1.6297 -0.6275 -1.1343
 7003SOL     OW32644   1.838   4.034   3.741 -0.0848  0.5041  0.0378
 7003SOL    HW132645   1.832   3.939   3.745  1.0619  0.3931 -0.7793
 7003SOL    HW232646   1.836   4.041   3.646 -0.7844  0.2673  0.0411
 7004SOL     OW32647   1.003   3.740   6.674  0.8135 -0.1490  0.1522
 7004SOL    HW132648   1.021   3.701   6.759 -0.6404  0.4006  0.7184
 7004SOL    HW232649   0.934   3.804   6.691  1.7729  1.4228 -1.9175
 7005SOL     OW32650   3.613   3.464   6.444 -0.5448  0.7885 -0.3719
 7005SOL    HW132651   3.577   3.375   6.444  0.6005  0.3220  0.6984
 7005SOL    HW232652   3.700   3.442   6.412 -0.5853 -2.6175  1.8303
 7006SOL     OW32653   0.854   0.701   6.250 -0.5577 -0.6252  0.1698
 7006SOL    HW132654   0.946   0.715   6.275 -0.9406  1.3299  0.4604
 7006SOL    HW232655   0.817   0.665   6.331  1.0064 -2.3806  0.1101
 7007SOL     OW32656   4.469   3.681   8.003  0.1118  0.0689 -0.0237
 7007SOL    HW132657   4.483   3.594   8.039  1.1682  0.2631  0.0313
 7007SOL    HW232658   4.378   3.676   7.973 -0.0331 -1.1995  0.6262
 7008SOL     OW32659   4.037   0.978   8.286  0.3866  0.4899  0.1481
 7008SOL    HW132660   4.111   0.919   8.269 -1.0219 -1.0761 -0.4790
 7008SOL    HW232661   4.007   1.005   8.200 -0.8742 -0.8507  0.1691
 7009SOL     OW32662   1.383   1.073   3.898 -0.0512  0.0266 -0.1445
 7009SOL    HW132663   1.377   1.130   3.975 -0.1126 -0.3132  0.1035
 7009SOL    HW232664   1.455   1.015   3.925 -0.7415  0.8444  3.4996
 7010SOL     OW32665   3.596   1.287   7.749 -0.5014 -0.2064  0.2805
 7010SOL    HW132666   3.559   1.275   7.837 -0.6557 -1.5916  0.0245
 7010SOL    HW232667   3.681   1.325   7.774  0.2144 -1.3246 -0.4577
 7011SOL     OW32668   0.756   3.590  16.288 -0.0639  0.4224  0.3208
 7011SOL    HW132669   0.729   3.614  16.377 -1.9556 -0.2068 -0.0846
 7011SOL    HW232670   0.836   3.643  16.287  0.6223 -0.5787  2.7008
 7012SOL     OW32671   4.557   4.123   3.184 -0.0614 -0.1161  0.2360
 7012SOL    HW132672   4.540   4.178   3.108  1.4272 -0.3443 -0.2675
 7012SOL    HW232673   4.584   4.043   3.139 -0.3194  0.0812 -0.2661
 7013SOL     OW32674   3.559   2.668   3.497 -0.3503  0.2492 -0.3703
 7013SOL    HW132675   3.548   2.617   3.417 -0.6858 -1.5868  0.8738
 7013SOL    HW232676   3.501   2.744   3.482 -2.0397 -1.4956 -2.6732
 7014SOL     OW32677   4.081   0.824   1.910 -0.2522  0.3492  1.0392
 7014SOL    HW132678   4.028   0.840   1.988 -0.6095  0.3050  0.8047
 7014SOL    HW232679   4.019   0.761   1.873  0.4846 -0.7267  1.6417
 7015SOL     OW32680   1.166   3.144   7.970 -0.6972 -0.1919  0.7121
 7015SOL    HW132681   1.166   3.238   7.989 -1.2385 -0.3071  1.2797
 7015SOL    HW232682   1.126   3.137   7.884  1.1288  1.3580 -0.2881
 7016SOL     OW32683   3.427   0.407  13.479 -0.4238  0.5220 -0.1875
 7016SOL    HW132684   3.336   0.408  13.509 -0.5305  1.4197 -0.5677
 7016SOL    HW232685   3.449   0.338  13.542  1.4897  0.8227 -0.5314
 7017SOL     OW32686   4.523   3.534  16.559 -0.1672  0.7592  0.6399
 7017SOL    HW132687   4.598   3.594  16.563  1.1907 -0.9257  0.7602
 7017SOL    HW232688   4.472   3.570  16.487 -1.5710 -1.6763  0.4197
 7018SOL     OW32689   4.181   4.026  15.641 -0.4506  0.8019  1.0068
 7018SOL    HW132690   4.166   4.082  15.564 -3.3641 -1.4178 -0.0579
 7018SOL    HW232691   4.093   3.993  15.658  0.8160 -2.3233  1.4827
 7019SOL     OW32692   3.928   4.438   5.415 -0.6383 -0.3296 -0.2485
 7019SOL    HW132693   3.980   4.359   5.434 -1.0150 -0.7954 -1.1425
 7019SOL    HW232694   3.898   4.421   5.326 -0.8679  0.1551 -0.2619
 7020SOL     OW32695   0.059   4.601   8.447 -0.1710  0.2893  0.0051
 7020SOL    HW132696   0.014   4.518   8.461  2.6654 -1.5140 -1.6500
 7020SOL    HW232697   0.147   4.564   8.453  0.2822  1.5583  1.2872
 7021SOL     OW32698   4.466   3.998   5.810  0.0560 -0.2720 -0.0175
 7021SOL    HW132699   4.414   3.938   5.863 -1.5231  1.1594  0.0520
 7021SOL    HW232700   4.535   4.012   5.874 -0.7838  2.2461  0.3559
 7022SOL     OW32701   3.780   2.469   2.298 -0.0808 -0.6247  0.7620
 7022SOL    HW132702   3.753   2.418   2.374 -0.6597  0.6969  1.4440
 7022SOL    HW232703   3.874   2.468   2.314  0.3458  1.2555 -1.4281
 7023SOL     OW32704   3.163   0.779  17.046  0.9370 -0.3482  0.5595
 7023SOL    HW132705   3.126   0.712  17.103 -0.3856 -0.1237 -0.0080
 7023SOL    HW232706   3.225   0.721  17.003  1.9793  0.6331  0.7407
 7024SOL     OW32707   3.384   0.743   0.601 -0.2245 -0.2274  0.1874
 7024SOL    HW132708   3.387   0.663   0.549 -1.0420 -0.2237  0.1303
 7024SOL    HW232709   3.289   0.740   0.611 -0.4788  0.6800 -1.9447
 7025SOL     OW32710   4.541   0.268   5.887  0.4463 -0.3249 -0.2590
 7025SOL    HW132711   4.632   0.297   5.893  0.5764 -0.5354 -1.1779
 7025SOL    HW232712   4.532   0.225   5.972  2.4665 -2.7244 -1.2516
 7026SOL     OW32713   3.744   3.151   1.799  0.1277 -0.4668  0.1061
 7026SOL    HW132714   3.653   3.132   1.774  1.0975 -1.9529 -2.1870
 7026SOL    HW232715   3.745   3.246   1.808 -1.5935 -0.3603 -0.9127
 7027SOL     OW32716   4.654   1.599  11.256 -0.4761 -0.3458  0.0096
 7027SOL    HW132717   4.588   1.650  11.303 -0.3050 -1.2457  1.2261
 7027SOL    HW232718   4.708   1.583  11.333  1.0111 -0.1049 -0.9718
 7028SOL     OW32719   2.217   1.165   3.024 -0.0923 -0.1613 -0.4048
 7028SOL    HW132720   2.303   1.207   3.017  0.4987 -1.7238 -2.5648
 7028SOL    HW232721   2.165   1.233   2.981  0.4838  2.2197  2.6959
 7029SOL     OW32722   0.286   2.553   8.175  0.2751  0.5324 -0.0448
 7029SOL    HW132723   0.369   2.520   8.211 -0.4951 -1.2910  0.0613
 7029SOL    HW232724   0.223   2.494   8.216  0.2335  1.0012  0.5563
 7030SOL     OW32725   0.139   2.126  11.203 -0.0657 -0.0807 -0.2677
 7030SOL    HW132726   0.151   2.048  11.149 -2.5150  0.2379 -1.2811
 7030SOL    HW232727   0.176   2.101  11.287  2.1811 -1.5416 -1.6865
 7031SOL     OW32728   2.037   0.366   1.707 -0.0732 -0.3854  0.5020
 7031SOL    HW132729   2.048   0.429   1.636 -0.7294 -0.0072  0.7351
 7031SOL    HW232730   2.055   0.281   1.667  0.9371 -0.2525  0.6650
 7032SOL     OW32731   3.605   0.909   3.504 -0.1888  0.5346 -0.4215
 7032SOL    HW132732   3.548   0.889   3.430 -0.6671  0.7495 -0.1059
 7032SOL    HW232733   3.595   0.833   3.561 -0.2764  1.3683  0.6832
 7033SOL     OW32734   1.689   4.100   2.919  0.1818 -0.7888 -0.4560
 7033SOL    HW132735   1.730   4.168   2.972 -1.2649  1.5991 -2.4120
 7033SOL    HW232736   1.666   4.030   2.980 -1.9297 -0.3843 -0.7989
 7034SOL     OW32737   1.682   3.296   6.505 -0.7513  0.0060 -0.4993
 7034SOL    HW132738   1.612   3.334   6.558  0.5451 -1.3982  2.2457
 7034SOL    HW232739   1.685   3.373   6.448 -0.7881  0.3977  0.0273
 7035SOL     OW32740   2.367   1.122   8.515  0.2048  0.2186 -0.1831
 7035SOL    HW132741   2.397   1.147   8.602 -2.3240  1.6596  0.3062
 7035SOL    HW232742   2.424   1.177   8.462 -0.3557  1.0019  0.0170
 7036SOL     OW32743   0.896   2.525   7.870 -0.2652 -0.3431 -0.0996
 7036SOL    HW132744   0.974   2.475   7.847  0.8931  1.5672 -0.2917
 7036SOL    HW232745   0.909   2.547   7.963 -1.3765 -0.7057  0.1397
 7037SOL     OW32746   3.948   2.779  13.369 -0.3857  0.5661 -0.7088
 7037SOL    HW132747   3.947   2.859  13.422  3.0645  0.0247  0.1705
 7037SOL    HW232748   4.032   2.786  13.324  0.0071 -2.5999 -0.4341
 7038SOL     OW32749   1.060   4.366   9.454  0.1974 -0.0365  0.5896
 7038SOL    HW132750   1.042   4.279   9.490  0.6943  1.2566  3.9005
 7038SOL    HW232751   1.150   4.351   9.423  0.0986  0.3719  0.1034
 7039SOL     OW32752   0.454   1.724  17.395 -0.2714 -0.3107 -0.2652
 7039SOL    HW132753   0.447   1.816  17.421 -1.6910 -0.7611  0.9702
 7039SOL    HW232754   0.538   1.731  17.350 -0.3288  0.9469 -0.1814
 7040SOL     OW32755   1.375   3.674   3.836 -0.1259 -0.0437 -0.5389
 7040SOL    HW132756   1.395   3.667   3.743  1.8595  0.6096 -0.1607
 7040SOL    HW232757   1.466   3.671   3.866 -0.9621 -2.6601  1.7244
 7041SOL     OW32758   0.745   1.321   2.489 -0.1307 -0.0452  0.3002
 7041SOL    HW132759   0.735   1.306   2.583 -0.5952  0.8265  0.3867
 7041SOL    HW232760   0.656   1.348   2.467 -0.2676  0.3233  1.2890
 7042SOL     OW32761   1.059   3.730   7.440 -0.5291  0.2499  0.6557
 7042SOL    HW132762   1.014   3.683   7.510 -0.6765  0.7293  0.8807
 7042SOL    HW232763   0.983   3.751   7.384 -0.8251 -1.0686  0.5482
 7043SOL     OW32764   4.333   0.046   6.367 -0.1033  0.0484  0.7050
 7043SOL    HW132765   4.320   0.074   6.458 -4.4840 -0.3885  0.2052
 7043SOL    HW232766   4.403   4.718   6.383 -0.2344  0.0296  1.2193
 7044SOL     OW32767   3.198   4.058   7.830  0.4265 -0.0638 -0.2465
 7044SOL    HW132768   3.117   4.029   7.787 -0.4388  2.6826 -0.4235
 7044SOL    HW232769   3.215   4.141   7.785 -0.7195  0.9423  1.2017
 7045SOL     OW32770   0.505   3.239   2.620  0.0356 -0.3723  0.7440
 7045SOL    HW132771   0.474   3.288   2.544 -2.1960 -0.0155  1.9108
 7045SOL    HW232772   0.439   3.172   2.637 -0.5897  0.6772  2.4461
 7046SOL     OW32773   3.002   4.197  16.174  0.1885  0.1569 -0.5259
 7046SOL    HW132774   2.965   4.152  16.097 -2.8716 -1.2356  1.7674
 7046SOL    HW232775   2.993   4.290  16.157 -1.5641  0.4901  2.4522
 7047SOL     OW32776   3.850   0.307   4.494  0.2420  0.1327  0.0015
 7047SOL    HW132777   3.821   0.329   4.405  1.0002 -1.5865 -0.6564
 7047SOL    HW232778   3.943   0.295   4.477  0.3746  0.7686  0.2563
 7048SOL     OW32779   0.167   1.067   1.500 -0.5067  0.2857 -0.2682
 7048SOL    HW132780   0.261   1.058   1.513 -0.5607 -1.7804 -1.2665
 7048SOL    HW232781   0.149   0.987   1.450 -0.5658  0.3095 -0.2857
 7049SOL     OW32782   0.958   3.029  14.068  0.3964  0.1189 -0.8287
 7049SOL    HW132783   0.925   3.018  13.979 -0.8819 -0.5504 -0.2772
 7049SOL    HW232784   0.870   3.044  14.102  0.4752 -0.9743 -0.1439
 7050SOL     OW32785   2.375   4.733  10.757  0.3495 -0.4098 -0.4284
 7050SOL    HW132786   2.394   4.660  10.816  1.3856  0.3199  0.1633
 7050SOL    HW232787   2.455   0.047  10.778 -1.3613  1.5289  1.5401
 7051SOL     OW32788   2.259   3.342  10.390 -0.0615  0.6843  0.5915
 7051SOL    HW132789   2.244   3.311  10.301 -0.7704  1.4725  0.4346
 7051SOL    HW232790   2.290   3.427  10.359  1.2221  0.4035  1.1108
 7052SOL     OW32791   3.215   2.056  10.824 -0.0235 -0.6327  0.5636
 7052SOL    HW132792   3.289   2.011  10.866  0.9077 -0.3653 -0.7936
 7052SOL    HW232793   3.185   2.114  10.894 -1.6806 -2.0179  0.9886
 7053SOL     OW32794   3.359   1.472   5.624 -0.6888 -0.6914  0.1194
 7053SOL    HW132795   3.420   1.413   5.669 -0.2604 -0.1488  0.2373
 7053SOL    HW232796   3.375   1.452   5.531 -0.0020  1.6921 -0.2706
 7054SOL     OW32797   3.764   3.661   7.938  0.0300 -0.3566  0.2696
 7054SOL    HW132798   3.708   3.681   7.863  1.2340 -1.2623 -0.8656
 7054SOL    HW232799   3.691   3.627   7.989 -0.4052  0.0786 -0.0597
 7055SOL     OW32800   2.032   0.685   9.182  0.2145 -0.8213 -0.0746
 7055SOL    HW132801   1.940   0.665   9.201  0.4287 -2.2777 -0.5340
 7055SOL    HW232802   2.074   0.711   9.264 -0.4218 -1.7843  0.5480
 7056SOL     OW32803   1.683   0.773   2.968  0.6104 -0.5328 -0.2167
 7056SOL    HW132804   1.725   0.754   2.884  1.4035 -2.3020  0.5895
 7056SOL    HW232805   1.757   0.798   3.024  0.1070  0.1618  0.1421
 7057SOL     OW32806   1.039   2.032   3.688 -0.2930  0.0691 -0.1191
 7057SOL    HW132807   1.131   2.016   3.712 -0.5249 -1.0252  0.0199
 7057SOL    HW232808   1.008   1.943   3.703 -0.0930 -0.1053 -0.7355
 7058SOL     OW32809   0.239   3.789   7.960 -0.0716  0.3209 -0.3899
 7058SOL    HW132810   0.246   3.696   7.981 -0.3373  0.2071 -0.8292
 7058SOL    HW232811   0.159   3.790   7.908 -1.3796 -2.8309  1.5462
 7059SOL     OW32812   2.886   1.697   2.975 -0.8171  0.5680 -0.2742
 7059SOL    HW132813   2.976   1.665   2.979 -0.6101  1.2750  0.6707
 7059SOL    HW232814   2.891   1.751   2.895  0.8160  2.2225  0.9548
 7060SOL     OW32815   1.542   3.157   1.758 -0.5244 -0.3492  0.2256
 7060SOL    HW132816   1.550   3.117   1.672 -2.9671 -0.9710  0.2743
 7060SOL    HW232817   1.538   3.249   1.733 -0.3211 -0.0813  1.1462
 7061SOL     OW32818   2.537   2.092   6.226  0.5424 -0.0546  0.4621
 7061SOL    HW132819   2.554   2.001   6.201 -1.3084 -0.7173  1.6815
 7061SOL    HW232820   2.618   2.113   6.273  0.6191  0.3319  0.1589
 7062SOL     OW32821   0.441   1.658  11.554  0.1332  0.3903 -0.0186
 7062SOL    HW132822   0.447   1.588  11.489 -1.0627 -0.6329  0.9587
 7062SOL    HW232823   0.494   1.631  11.628  0.2630 -0.1380 -0.3082
 7063SOL     OW32824   4.299   1.246  15.565  0.0541  0.1205  0.9846
 7063SOL    HW132825   4.239   1.171  15.567  0.3762 -0.1383  1.1578
 7063SOL    HW232826   4.366   1.200  15.514 -0.6053 -0.7437  0.8942
 7064SOL     OW32827   1.597   1.854   8.442  1.1182 -0.1171 -0.4326
 7064SOL    HW132828   1.650   1.865   8.363  2.6012 -0.3902  0.5209
 7064SOL    HW232829   1.533   1.784   8.427  1.5857 -0.7836  0.6855
 7065SOL     OW32830   0.208   4.486   5.571 -0.1725  0.2394  0.0630
 7065SOL    HW132831   0.118   4.507   5.597  0.1076  0.6273  0.7293
 7065SOL    HW232832   0.187   4.410   5.517  1.1773 -0.5000  0.5904
 7066SOL     OW32833   1.228   4.385   8.696  0.6955 -0.5548 -0.2603
 7066SOL    HW132834   1.214   4.305   8.746  1.4934  1.0794  2.5988
 7066SOL    HW232835   1.288   4.445   8.740  1.3476 -0.4380 -1.2838
 7067SOL     OW32836   2.644   0.511   4.922  0.1690 -0.3811  0.6647
 7067SOL    HW132837   2.550   0.515   4.940  0.4976 -0.0709  2.2836
 7067SOL    HW232838   2.643   0.416   4.935 -0.3333 -0.2539  1.5659
 7068SOL     OW32839   3.478   3.460  16.055  0.0095  0.1622 -0.1298
 7068SOL    HW132840   3.445   3.442  16.143 -0.2025  1.7523  0.1147
 7068SOL    HW232841   3.510   3.550  16.052 -0.1668  0.2021 -0.9574
 7069SOL     OW32842   1.290   1.623  15.781 -0.2387  0.3570  0.1050
 7069SOL    HW132843   1.358   1.681  15.815  2.8526 -2.2870 -1.6806
 7069SOL    HW232844   1.272   1.572  15.860 -0.9681 -0.3612 -0.5306
 7070SOL     OW32845   4.514   0.321   9.969  0.3749 -0.1179 -0.1769
 7070SOL    HW132846   4.497   0.239  10.016  0.1289 -0.6238 -1.1330
 7070SOL    HW232847   4.609   0.316   9.952  0.7629  1.5113  1.5816
 7071SOL     OW32848   0.061   0.272   3.745 -0.3633  0.6377 -0.2728
 7071SOL    HW132849   0.114   0.303   3.819  0.6826 -1.8939  0.0251
 7071SOL    HW232850   0.068   0.181   3.774  2.1044  0.5975 -0.9843
 7072SOL     OW32851   0.999   1.239   4.334  0.6065 -0.1678  0.0252
 7072SOL    HW132852   1.011   1.334   4.330  0.1861  0.0657  4.0122
 7072SOL    HW232853   1.001   1.222   4.428 -2.0088  1.6853  0.4234
 7073SOL     OW32854   2.300   3.619   2.928  0.2329  0.2612  0.4545
 7073SOL    HW132855   2.273   3.583   3.012  2.4109  1.2569  1.5952
 7073SOL    HW232856   2.311   3.530   2.897 -1.8768  0.2639 -0.2332
 7074SOL     OW32857   4.363   0.971   6.529 -0.2903 -0.2150  0.1107
 7074SOL    HW132858   4.434   0.968   6.465 -0.4015 -0.1538 -0.0144
 7074SOL    HW232859   4.308   1.040   6.493 -1.6998 -0.7825  1.1744
 7075SOL     OW32860   2.602   4.434   4.330 -0.1260  0.0880  0.5268
 7075SOL    HW132861   2.605   4.340   4.351  1.2062  0.0953  0.3979
 7075SOL    HW232862   2.522   4.440   4.278 -0.5004 -1.2142  0.9587
 7076SOL     OW32863   2.448   1.472   5.369 -0.2422  0.2397 -0.0870
 7076SOL    HW132864   2.362   1.513   5.380 -0.6860 -0.8616  0.5792
 7076SOL    HW232865   2.442   1.442   5.278  1.8546 -0.7419  0.0800
 7077SOL     OW32866   2.434   1.991  11.316  0.0232 -0.2287  0.5870
 7077SOL    HW132867   2.367   1.932  11.282 -0.9192  1.5905 -0.7249
 7077SOL    HW232868   2.444   2.054  11.245  0.3033 -2.8012 -1.6477
 7078SOL     OW32869   0.378   3.142   4.177 -0.3751  0.4703 -0.2086
 7078SOL    HW132870   0.363   3.210   4.112 -0.3900 -3.0787 -3.9128
 7078SOL    HW232871   0.436   3.080   4.132 -0.0085  0.8592 -0.2703
 7079SOL     OW32872   1.626   0.073   7.703 -0.1100  0.2279  0.4688
 7079SOL    HW132873   1.569   0.013   7.752  0.6398  0.3415  1.4983
 7079SOL    HW232874   1.700   0.017   7.677  0.3107  0.5904  0.8939
 7080SOL     OW32875   2.288   2.176   5.875 -0.7183  0.1797  0.4528
 7080SOL    HW132876   2.202   2.135   5.878 -0.6629  0.0333  0.0341
 7080SOL    HW232877   2.331   2.174   5.960  0.1481 -0.9738 -0.0180
 7081SOL     OW32878   4.712   1.162   6.106  0.0413 -0.1365  0.5379
 7081SOL    HW132879   0.040   1.195   6.043  1.1400 -0.1629  1.6379
 7081SOL    HW232880   0.007   1.072   6.114  1.1088  0.0316 -1.6739
 7082SOL     OW32881   0.333   2.595   7.403 -0.2462  0.2473  0.2513
 7082SOL    HW132882   0.375   2.512   7.381  1.5405  0.9995  0.8509
 7082SOL    HW232883   0.328   2.635   7.316  0.3038  0.6478  0.4022
 7083SOL     OW32884   0.675   2.494  12.420 -0.2488 -0.5124 -0.2414
 7083SOL    HW132885   0.646   2.561  12.482 -1.2565 -2.5832  1.5475
 7083SOL    HW232886   0.597   2.496  12.364 -0.9104 -3.1129  0.5664
 7084SOL     OW32887   2.028   3.745   8.864  0.0085  0.2805  0.6447
 7084SOL    HW132888   2.076   3.740   8.947  0.1590 -1.0725  0.4885
 7084SOL    HW232889   2.093   3.791   8.810 -1.4914  0.9634 -0.5743
 7085SOL     OW32890   1.514   2.197   0.668  0.2088 -0.3732  0.9264
 7085SOL    HW132891   1.483   2.107   0.682 -0.4782 -0.1584  0.7923
 7085SOL    HW232892   1.485   2.246   0.746 -1.1366  1.3540 -0.6541
 7086SOL     OW32893   2.717   3.178   0.502  0.5217  0.1120  0.0169
 7086SOL    HW132894   2.764   3.192   0.420  0.0543  1.9336  0.0678
 7086SOL    HW232895   2.692   3.264   0.536  0.2701 -1.4140  3.6920
 7087SOL     OW32896   2.701   1.195   7.609  0.1911 -0.2558  0.3395
 7087SOL    HW132897   2.784   1.207   7.655 -0.1409  1.4671  0.4621
 7087SOL    HW232898   2.731   1.152   7.529 -1.7936  1.1409 -1.1509
 7088SOL     OW32899   1.747   0.600   7.249 -0.4089 -0.1577 -0.2746
 7088SOL    HW132900   1.833   0.559   7.262 -0.6649 -0.3364  0.8602
 7088SOL    HW232901   1.755   0.688   7.287  1.5899 -0.1519 -0.6854
 7089SOL     OW32902   2.727   0.662   8.663 -0.0705 -0.0079  0.0268
 7089SOL    HW132903   2.723   0.710   8.745  0.9989 -0.1325  0.1515
 7089SOL    HW232904   2.807   0.697   8.624 -0.3474  0.2369 -0.3279
 7090SOL     OW32905   4.198   1.544  15.034  0.4000  0.3491  0.3769
 7090SOL    HW132906   4.155   1.623  15.000 -0.1601 -0.4323 -0.7192
 7090SOL    HW232907   4.188   1.478  14.966 -1.0972  0.9422  0.0268
 7091SOL     OW32908   1.836   2.681   3.701  0.0396  0.1363 -0.2014
 7091SOL    HW132909   1.775   2.706   3.632 -0.9840 -0.8010  0.3759
 7091SOL    HW232910   1.803   2.718   3.783 -0.9498 -0.7023 -0.2277
 7092SOL     OW32911   2.393   2.314  11.607 -1.0122 -0.2720  0.1961
 7092SOL    HW132912   2.405   2.317  11.702 -0.6958  1.3936  0.1013
 7092SOL    HW232913   2.311   2.363  11.607  0.2426  1.8407  0.1706
 7093SOL     OW32914   3.832   3.170  12.567  0.6919 -0.4820 -0.2442
 7093SOL    HW132915   3.923   3.140  12.561  1.0206  0.3435  0.6912
 7093SOL    HW232916   3.814   3.231  12.495  0.2775 -1.3708 -0.8927
 7094SOL     OW32917   4.466   0.332   6.393  0.1800 -0.1931 -0.2150
 7094SOL    HW132918   4.446   0.283   6.473 -0.9564  0.2039 -0.2696
 7094SOL    HW232919   4.517   0.407   6.423 -0.7917  0.5261 -0.3717
 7095SOL     OW32920   1.335   2.894   7.308 -0.0157 -0.0933  0.2374
 7095SOL    HW132921   1.274   2.879   7.380 -0.6824 -1.9667 -0.7039
 7095SOL    HW232922   1.311   2.819   7.253  1.0594  2.5189 -3.8072
 7096SOL     OW32923   4.519   3.652   3.500 -0.3015 -0.4252 -0.4785
 7096SOL    HW132924   4.592   3.714   3.506  0.4906 -1.3476 -0.6527
 7096SOL    HW232925   4.448   3.706   3.465 -1.2022  0.5549  2.8299
 7097SOL     OW32926   1.987   0.091   7.776 -0.1814  1.1648 -0.7133
 7097SOL    HW132927   1.930   0.037   7.721 -0.0294 -0.2548  0.5295
 7097SOL    HW232928   1.992   0.162   7.711  0.6281  0.9942 -0.8392
 7098SOL     OW32929   3.915   0.662   5.811  0.2464  0.0857 -0.0773
 7098SOL    HW132930   3.960   0.583   5.841  0.6484  0.7675  1.1148
 7098SOL    HW232931   3.954   0.671   5.724  0.4462  0.8818  0.0883
 7099SOL     OW32932   0.030   0.451   3.357  0.3088  0.5351  0.7716
 7099SOL    HW132933   0.079   0.504   3.294 -3.4889  0.8442 -1.9065
 7099SOL    HW232934   4.701   0.416   3.295 -0.9216  0.7184  1.9554
 7100SOL     OW32935   2.935   3.605   1.512  0.7085  0.0841 -0.2104
 7100SOL    HW132936   2.931   3.675   1.447 -0.6095 -1.5851 -1.9262
 7100SOL    HW232937   2.938   3.652   1.595  1.0368 -1.6834  0.7565
 7101SOL     OW32938   4.634   2.616  13.612  0.4085 -0.4454  0.0723
 7101SOL    HW132939   4.575   2.665  13.555  1.6404 -0.9752 -1.6394
 7101SOL    HW232940   4.717   2.664  13.616  0.7569 -0.9112 -1.7817
 7102SOL     OW32941   2.356   1.546   4.945 -0.3703  0.5216 -0.1671
 7102SOL    HW132942   2.316   1.557   4.859  1.8351  0.2759 -1.2236
 7102SOL    HW232943   2.438   1.594   4.930  0.1896 -0.3110  0.2111
 7103SOL     OW32944   1.752   2.414  11.847  0.7362  0.5814 -0.0389
 7103SOL    HW132945   1.825   2.353  11.851 -0.2151 -0.6424 -0.9424
 7103SOL    HW232946   1.712   2.387  11.764  1.6771  1.9247 -0.9244
 7104SOL     OW32947   3.185   1.924   1.492 -0.0811 -0.0895 -0.1698
 7104SOL    HW132948   3.220   1.856   1.435  1.3827 -0.6383  1.3799
 7104SOL    HW232949   3.267   1.971   1.510 -0.5112  1.5984 -2.6130
 7105SOL     OW32950   0.525   4.509   4.744  0.8202 -0.7512  0.2931
 7105SOL    HW132951   0.616   4.526   4.768  0.1477 -0.3845  2.5979
 7105SOL    HW232952   0.541   4.498   4.651 -1.6916 -0.6564 -0.1462
 7106SOL     OW32953   0.426   3.856   7.433  0.1837 -0.5451 -0.5935
 7106SOL    HW132954   0.485   3.786   7.406  1.4719  0.3004  0.0919
 7106SOL    HW232955   0.476   3.893   7.505  0.6008  0.2494 -1.2975
 7107SOL     OW32956   2.858   0.493  17.725  0.2479 -0.2223 -0.6592
 7107SOL    HW132957   2.930   0.539  17.682  0.8114  0.3616  0.9201
 7107SOL    HW232958   2.839   0.417  17.669 -1.0949  0.1847 -0.7528
 7108SOL     OW32959   3.083   3.664   3.857  0.3112  0.2094  0.0887
 7108SOL    HW132960   3.033   3.596   3.811 -0.0917  0.2031  0.5303
 7108SOL    HW232961   3.158   3.670   3.798  1.2520 -2.2773  1.0125
 7109SOL     OW32962   0.445   0.828   2.240 -0.0055  0.5200 -0.2012
 7109SOL    HW132963   0.532   0.811   2.275  0.4649  0.7234 -1.2843
 7109SOL    HW232964   0.442   0.769   2.165 -2.6182 -0.0844  0.3705
 7110SOL     OW32965   1.406   1.475   6.745 -0.1288 -0.0759 -0.4245
 7110SOL    HW132966   1.441   1.468   6.833 -1.1033  2.7268  0.1949
 7110SOL    HW232967   1.312   1.483   6.763 -0.5341 -0.0570 -2.5491
 7111SOL     OW32968   2.292   4.029   1.802  0.7207  0.0430 -0.6633
 7111SOL    HW132969   2.284   4.109   1.749  1.1219 -0.0189 -0.8169
 7111SOL    HW232970   2.205   4.027   1.842  1.4940 -0.4384  0.9780
 7112SOL     OW32971   0.997   2.299   3.657 -1.0544  0.1669 -0.1768
 7112SOL    HW132972   0.999   2.205   3.676  1.4723  0.0880 -0.8089
 7112SOL    HW232973   1.068   2.333   3.712 -1.3836  0.8389 -0.1557
 7113SOL     OW32974   3.399   3.700   9.138  0.3540  0.2819  0.6288
 7113SOL    HW132975   3.415   3.771   9.200 -0.9987  0.6763  0.5122
 7113SOL    HW232976   3.492   3.688   9.115  0.4634  1.7357  0.2873
 7114SOL     OW32977   2.081   1.236  17.422  0.2515  0.2827 -0.4267
 7114SOL    HW132978   2.172   1.266  17.415  0.4447 -0.6560 -2.0022
 7114SOL    HW232979   2.071   1.193  17.337 -1.5558 -0.0148 -0.0647
 7115SOL     OW32980   0.246   3.146  12.086  0.9353  0.7512 -0.0852
 7115SOL    HW132981   0.153   3.125  12.098  1.1122  0.5195  0.9114
 7115SOL    HW232982   0.243   3.181  11.998  1.5409 -1.0078 -0.8024
 7116SOL     OW32983   3.919   0.476   3.336  0.4293  0.1241 -0.2621
 7116SOL    HW132984   3.907   0.493   3.243  1.4996  1.7005 -0.1152
 7116SOL    HW232985   3.929   0.381   3.343  0.9096  0.2491  0.8044
 7117SOL     OW32986   4.461   1.039   4.171 -0.2233 -0.6530 -0.7596
 7117SOL    HW132987   4.377   1.014   4.132  0.4607 -2.3728 -1.1663
 7117SOL    HW232988   4.508   0.957   4.156  0.5471 -0.7134  1.9526
 7118SOL     OW32989   1.668   2.796  10.670 -0.6270 -0.2205 -0.1172
 7118SOL    HW132990   1.603   2.751  10.616  0.5469 -2.2015  0.1198
 7118SOL    HW232991   1.688   2.876  10.621  0.0464  0.2622  0.9597
 7119SOL     OW32992   0.617   3.304   9.141  0.8005  0.6404 -0.0832
 7119SOL    HW132993   0.705   3.340   9.157  1.2491 -0.3464 -0.3208
 7119SOL    HW232994   0.646   3.212   9.141  0.5647  0.5670  0.9173
 7120SOL     OW32995   2.006   4.014  15.545 -0.2862  0.3497  0.2277
 7120SOL    HW132996   2.032   4.046  15.632 -2.0010 -1.5393  1.4281
 7120SOL    HW232997   1.915   4.044  15.539  0.0846  1.7828  1.7205
 7121SOL     OW32998   3.363   1.886   2.497 -0.1279 -0.1264  0.6820
 7121SOL    HW132999   3.326   1.808   2.540 -0.7090  0.0320  0.4660
 7121SOL    HW233000   3.385   1.835   2.419  0.7449  1.7482 -0.2762
 7122SOL     OW33001   0.600   0.757   6.639 -0.6807 -0.0563  0.4291
 7122SOL    HW133002   0.556   0.837   6.667 -0.8167  0.6207 -1.7315
 7122SOL    HW233003   0.546   0.692   6.683 -0.3940  0.0857  0.9895
 7123SOL     OW33004   4.104   3.703  15.775  0.4066  0.1549  0.3588
 7123SOL    HW133005   4.017   3.726  15.741  0.7235  0.3938 -0.2836
 7123SOL    HW233006   4.144   3.663  15.698  0.8290  2.8620 -0.8413
 7124SOL     OW33007   2.037   0.174  15.304 -0.2196 -0.1905 -0.8998
 7124SOL    HW133008   2.074   0.091  15.272  0.5408 -0.2372  0.1154
 7124SOL    HW233009   2.007   0.151  15.391  0.2839  1.0710 -0.3992
 7125SOL     OW33010   4.514   4.597   7.825  0.2048 -0.3930 -0.2144
 7125SOL    HW133011   4.584   4.609   7.762  1.9080  0.8225  1.9041
 7125SOL    HW233012   4.518   4.504   7.849 -0.9358 -0.8146 -1.7050
 7126SOL     OW33013   0.378   4.069  12.132 -0.1082  0.1091 -0.0821
 7126SOL    HW133014   0.325   3.993  12.157  1.0995 -1.1621 -1.3887
 7126SOL    HW233015   0.316   4.141  12.118  0.9773  1.1209  0.3539
 7127SOL     OW33016   3.764   1.541  16.485 -0.3347 -0.6213  0.5219
 7127SOL    HW133017   3.692   1.568  16.542 -1.1430 -0.4600 -0.5628
 7127SOL    HW233018   3.779   1.452  16.515  2.5649 -0.4556 -0.4434
 7128SOL     OW33019   3.553   4.041   5.828  0.2935 -0.0851 -0.5042
 7128SOL    HW133020   3.553   4.057   5.922 -2.7420 -0.1336 -0.4892
 7128SOL    HW233021   3.588   3.953   5.814  0.7430 -0.2497  1.6096
 7129SOL     OW33022   0.150   0.549   0.826  0.0256  0.3263 -0.0101
 7129SOL    HW133023   0.166   0.570   0.734  1.0210 -0.7140 -0.0662
 7129SOL    HW233024   0.119   0.632   0.862  1.0558  1.2726 -1.2889
 7130SOL     OW33025   4.422   0.155   2.487  0.7711  0.4787 -0.1886
 7130SOL    HW133026   4.373   0.080   2.455  0.8248  0.2002  0.3801
 7130SOL    HW233027   4.365   0.184   2.558 -0.8266 -2.0473 -0.4657
 7131SOL     OW33028   1.873   0.980   1.315 -0.2053  0.5664 -0.0538
 7131SOL    HW133029   1.854   0.916   1.247 -1.7520  0.5711  0.3570
 7131SOL    HW233030   1.858   1.054   1.256  1.4694  0.9081 -0.0408
 7132SOL     OW33031   4.505   2.187   5.463 -0.2963 -0.2067 -0.4069
 7132SOL    HW133032   4.530   2.267   5.417 -0.7939  0.2693  0.1489
 7132SOL    HW233033   4.480   2.234   5.543 -1.0308 -0.3802 -0.5318
 7133SOL     OW33034   1.613   2.753   3.018  0.1723 -0.1353  0.0733
 7133SOL    HW133035   1.668   2.798   3.082 -1.6023 -0.2933  1.6983
 7133SOL    HW233036   1.606   2.825   2.956  2.6311 -0.5275 -0.6534
 7134SOL     OW33037   0.233   2.234   5.667 -0.3868 -0.3383  0.9665
 7134SOL    HW133038   0.243   2.295   5.594 -1.6144 -1.3688 -0.0734
 7134SOL    HW233039   0.138   2.222   5.671  0.0240 -3.8900 -0.4538
 7135SOL     OW33040   4.723   2.343   1.711 -0.0442 -0.1961 -0.4014
 7135SOL    HW133041   4.735   2.436   1.695  0.7295  0.0450  1.7069
 7135SOL    HW233042   4.630   2.349   1.735  0.0243  0.8436 -0.4192
 7136SOL     OW33043   2.448   2.638  13.071  0.2347 -0.0439  0.4498
 7136SOL    HW133044   2.505   2.585  13.015 -2.3763 -1.9356 -0.4268
 7136SOL    HW233045   2.453   2.720  13.022  0.4253 -0.1683  0.2601
 7137SOL     OW33046   1.124   4.161  12.275 -0.2349  0.0931  0.1851
 7137SOL    HW133047   1.204   4.109  12.277 -0.7947 -0.7040  2.2809
 7137SOL    HW233048   1.107   4.158  12.369  0.3368  2.0523  0.3619
 7138SOL     OW33049   1.619   0.757   4.619 -0.0024  0.0650  0.3875
 7138SOL    HW133050   1.654   0.744   4.530 -1.5183  0.8329 -0.3199
 7138SOL    HW233051   1.601   0.851   4.612  3.8602  0.7689 -0.4630
 7139SOL     OW33052   2.013   3.141   1.991  0.3912 -0.1754 -0.5190
 7139SOL    HW133053   2.012   3.056   2.037  0.7728  0.6145  0.9369
 7139SOL    HW233054   1.921   3.147   1.965  0.9812  1.3270 -2.2102
 7140SOL     OW33055   0.376   3.409   5.489  0.4979  0.4954 -0.6234
 7140SOL    HW133056   0.420   3.339   5.440 -0.3689 -1.9649  2.0929
 7140SOL    HW233057   0.355   3.473   5.421  0.7301 -0.7598 -1.8630
 7141SOL     OW33058   0.012   3.680   7.838  0.2585 -0.8171  0.5813
 7141SOL    HW133059   4.680   3.655   7.774 -0.1913  1.8519  0.0129
 7141SOL    HW233060   4.702   3.757   7.871  1.2051  1.1386 -2.6979
 7142SOL     OW33061   4.150   2.044  13.928  0.1291 -0.3773  0.4145
 7142SOL    HW133062   4.108   2.083  14.005 -1.9938 -1.4979 -0.2009
 7142SOL    HW233063   4.210   2.111  13.893  1.2797 -0.6763  1.7994
 7143SOL     OW33064   3.692   0.990   7.957 -0.4186  0.4981 -0.4727
 7143SOL    HW133065   3.787   1.000   7.960 -0.2155 -1.7642  0.7868
 7143SOL    HW233066   3.683   0.953   7.870 -0.1194 -0.3919 -0.1206
 7144SOL     OW33067   3.893   2.326   7.729  0.9115 -0.3403  0.1165
 7144SOL    HW133068   3.834   2.374   7.788 -0.4731 -0.0833 -1.4911
 7144SOL    HW233069   3.981   2.357   7.750  1.6463 -1.2913 -1.6207
 7145SOL     OW33070   1.806   0.538   2.821 -0.4724  0.1631 -0.3434
 7145SOL    HW133071   1.742   0.467   2.828  1.4975 -1.5418  0.3680
 7145SOL    HW233072   1.860   0.498   2.753 -0.1066 -0.0633  0.0808
 7146SOL     OW33073   1.813   2.481  10.673 -0.0721 -0.0612  0.4890
 7146SOL    HW133074   1.803   2.574  10.651  0.0429  0.0851  1.0482
 7146SOL    HW233075   1.802   2.483  10.768  0.1317 -3.0901  0.5644
 7147SOL     OW33076   2.430   2.123   6.812 -0.1689  0.2495  0.2494
 7147SOL    HW133077   2.367   2.155   6.877 -1.2544  0.0767 -0.7216
 7147SOL    HW233078   2.468   2.046   6.856  0.7357  0.4957 -0.0967
 7148SOL     OW33079   3.670   1.136   1.788  0.1185 -0.0067 -0.0946
 7148SOL    HW133080   3.668   1.217   1.839  3.2588  1.4511 -2.2985
 7148SOL    HW233081   3.732   1.162   1.720  0.8752 -1.5706 -0.0017
 7149SOL     OW33082   3.534   1.558   0.344 -0.3792  0.3828 -0.6394
 7149SOL    HW133083   3.608   1.617   0.361 -1.0320  0.7315  0.9344
 7149SOL    HW233084   3.496   1.593   0.263  0.6711 -1.1154 -1.7710
 7150SOL     OW33085   0.330   0.023   3.439 -0.2711 -0.2785 -0.1019
 7150SOL    HW133086   0.314   4.724   3.352  2.7929  1.6491 -1.4273
 7150SOL    HW233087   0.279   0.104   3.434  0.0755  0.0654  1.8689
 7151SOL     OW33088   2.570   3.452   3.272  0.2105  0.2577  0.0134
 7151SOL    HW133089   2.609   3.364   3.273  1.2978  0.7569  0.8634
 7151SOL    HW233090   2.639   3.503   3.229  1.4313 -0.9954  0.4848
 7152SOL     OW33091   2.062   2.854   7.757 -0.1370  0.7269  0.2992
 7152SOL    HW133092   2.093   2.814   7.676  0.9651  0.8339  0.6734
 7152SOL    HW233093   2.133   2.918   7.768  1.8054 -1.5366  0.8269
 7153SOL     OW33094   3.596   3.745   3.135 -0.0269  0.2134 -0.2223
 7153SOL    HW133095   3.516   3.701   3.161 -0.3898 -0.5070 -2.5141
 7153SOL    HW233096   3.613   3.720   3.044  1.0100 -0.3992  0.1348
 7154SOL     OW33097   4.469   1.971  12.860 -0.5871 -0.1222 -0.3897
 7154SOL    HW133098   4.535   1.902  12.867 -1.5672 -0.9931  0.3974
 7154SOL    HW233099   4.392   1.922  12.889 -0.7007 -0.3128 -1.0150
 7155SOL     OW33100   1.584   4.531  12.083  0.0285  0.4028  0.5779
 7155SOL    HW133101   1.504   4.539  12.031  0.4084  2.5838  0.3223
 7155SOL    HW233102   1.547   4.487  12.159 -0.6493  1.0508  0.6216
 7156SOL     OW33103   0.439   2.323   3.171 -0.4204  0.2100  0.0565
 7156SOL    HW133104   0.521   2.372   3.168 -0.1819 -0.2339 -0.8787
 7156SOL    HW233105   0.395   2.344   3.089 -0.3126  0.1285 -0.0221
 7157SOL     OW33106   0.211   0.854   3.226 -0.0970 -0.0493 -0.4962
 7157SOL    HW133107   0.204   0.941   3.186  1.2830 -0.4521 -1.5943
 7157SOL    HW233108   0.253   0.882   3.308  0.0487  0.2822 -0.6871
 7158SOL     OW33109   0.168   3.575   2.073 -0.5791 -0.6608 -0.0176
 7158SOL    HW133110   0.078   3.595   2.047 -0.7792 -1.4841  0.0288
 7158SOL    HW233111   0.193   3.522   1.997  0.0538 -0.6513  0.1832
 7159SOL     OW33112   4.197   1.758  10.884 -0.1361 -0.1702  0.2211
 7159SOL    HW133113   4.266   1.824  10.881  0.2661 -0.6585 -1.2921
 7159SOL    HW233114   4.118   1.811  10.883 -0.2454 -0.3262  0.4909
 7160SOL     OW33115   0.874   1.802   7.417 -0.0234 -0.1591 -0.0881
 7160SOL    HW133116   0.885   1.895   7.398  1.2449 -0.7523 -2.2940
 7160SOL    HW233117   0.878   1.786   7.511 -1.8370  0.8096  0.1543
 7161SOL     OW33118   3.145   0.061   8.688  0.8916 -0.4512  0.5580
 7161SOL    HW133119   3.054   0.076   8.714  0.7338  0.3070 -0.4271
 7161SOL    HW233120   3.130   4.714   8.643 -0.9337 -0.8837  1.9600
 7162SOL     OW33121   2.908   1.943   5.528 -0.4329  0.5678 -0.2658
 7162SOL    HW133122   3.002   1.939   5.546 -0.5285  1.2796  0.3688
 7162SOL    HW233123   2.888   1.861   5.484 -0.5873  0.2775  0.3421
 7163SOL     OW33124   2.953   1.397   3.187  0.3096 -0.1610  0.3565
 7163SOL    HW133125   3.017   1.462   3.160 -0.7720  0.2898 -1.1061
 7163SOL    HW233126   2.994   1.361   3.266  0.6627 -1.3903 -0.3782
 7164SOL     OW33127   4.474   3.310   3.238  0.1842 -0.0620  0.2101
 7164SOL    HW133128   4.439   3.374   3.177 -0.6685 -0.9711 -0.2542
 7164SOL    HW233129   4.410   3.299   3.308  0.2719  1.0049  0.4534
 7165SOL     OW33130   3.989   3.812   1.726 -0.1465 -0.1261  0.2381
 7165SOL    HW133131   3.971   3.840   1.636 -0.5891  2.4444  1.1251
 7165SOL    HW233132   4.071   3.766   1.710 -0.1588  0.2167 -0.8079
 7166SOL     OW33133   3.836   2.474   8.191 -0.2112  0.3352  0.3484
 7166SOL    HW133134   3.803   2.386   8.212  0.3090 -0.1353 -0.8009
 7166SOL    HW233135   3.829   2.513   8.279  1.6784  1.1193  0.1585
 7167SOL     OW33136   3.770   3.999  12.832 -0.1076  0.0723 -0.0915
 7167SOL    HW133137   3.688   4.046  12.849 -0.0164  0.8405 -1.7710
 7167SOL    HW233138   3.760   3.912  12.869 -3.1128 -0.4678 -2.2477
 7168SOL     OW33139   3.777   2.767  16.316 -0.3698 -0.3659 -0.3693
 7168SOL    HW133140   3.814   2.679  16.323 -1.0368 -0.5923  0.2710
 7168SOL    HW233141   3.808   2.799  16.231 -0.8673 -1.0482 -0.8176
 7169SOL     OW33142   0.955   1.564   2.890 -0.1918 -0.1591 -0.3508
 7169SOL    HW133143   0.984   1.481   2.853 -1.3126  0.1570 -1.9355
 7169SOL    HW233144   0.970   1.540   2.981 -0.4581 -1.1407 -0.5695
 7170SOL     OW33145   3.727   0.682   7.632 -0.1193  0.5001 -0.8794
 7170SOL    HW133146   3.682   0.729   7.561 -2.3395  0.4217  0.4642
 7170SOL    HW233147   3.649   0.645   7.674  1.0479  1.2098  1.8815
 7171SOL     OW33148   2.607   0.726  17.478 -0.0234  0.6246  0.0694
 7171SOL    HW133149   2.623   0.689  17.564 -0.8932 -1.0260 -0.4754
 7171SOL    HW233150   2.537   0.788  17.497 -0.1654  0.8765 -1.2610
 7172SOL     OW33151   2.217   1.526   8.127  0.2216  0.3655  0.5837
 7172SOL    HW133152   2.251   1.498   8.213 -2.6494 -0.3921  1.4708
 7172SOL    HW233153   2.157   1.455   8.103 -0.7647  1.8674 -1.3363
 7173SOL     OW33154   3.203   3.960  14.398  0.3923  0.0078 -0.1666
 7173SOL    HW133155   3.161   3.940  14.315 -1.6727 -1.2232  1.1718
 7173SOL    HW233156   3.290   3.992  14.374  0.1698 -0.9264 -2.1930
 7174SOL     OW33157   3.937   1.379  11.770  0.0310  0.0492  0.0768
 7174SOL    HW133158   3.963   1.287  11.762  0.0108  0.0140  0.4255
 7174SOL    HW233159   3.955   1.404  11.680  1.5031  0.4260  0.4740
 7175SOL     OW33160   1.765   2.127  14.880  0.6236 -0.8286  0.1641
 7175SOL    HW133161   1.819   2.124  14.801 -0.2950  1.1613 -0.5471
 7175SOL    HW233162   1.779   2.036  14.908  3.0805 -1.0967 -1.9087
 7176SOL     OW33163   2.326   1.691   5.674  0.2497 -0.6219  0.2047
 7176SOL    HW133164   2.294   1.610   5.715 -2.1148 -0.4427 -1.3024
 7176SOL    HW233165   2.263   1.740   5.726  0.2758 -1.2664  0.8438
 7177SOL     OW33166   3.688   0.984   2.273 -0.1226  0.2195  0.6929
 7177SOL    HW133167   3.647   1.070   2.287 -0.8069 -0.1107  0.7473
 7177SOL    HW233168   3.706   0.954   2.362 -0.7336  0.8168  1.0213
 7178SOL     OW33169   4.333   0.036  10.670  0.3913 -0.1868 -0.4709
 7178SOL    HW133170   4.425   0.062  10.677  0.4295 -0.8316  1.2206
 7178SOL    HW233171   4.306   0.111  10.616 -0.3518 -0.9166 -1.1068
 7179SOL     OW33172   1.456   0.290   9.062 -0.5015 -0.1712 -0.2220
 7179SOL    HW133173   1.378   0.346   9.072  1.3724  1.9841  2.2315
 7179SOL    HW233174   1.436   0.257   8.975  0.3563  2.2842 -1.3533
 7180SOL     OW33175   3.088   4.452   7.852  0.0766 -0.5877 -0.1591
 7180SOL    HW133176   3.164   4.418   7.805 -1.2357 -2.3155 -1.0196
 7180SOL    HW233177   3.021   4.398   7.811 -0.8774  1.1406 -0.8904
 7181SOL     OW33178   0.472   1.845   4.869  0.3490 -0.0747 -0.2736
 7181SOL    HW133179   0.424   1.775   4.913  0.9627 -0.8369 -0.8354
 7181SOL    HW233180   0.475   1.818   4.777 -4.9548  0.3071 -0.5943
 7182SOL     OW33181   4.164   0.982   1.076  0.3258  0.0654 -0.1376
 7182SOL    HW133182   4.138   0.969   1.167  1.8308  1.5965  0.5136
 7182SOL    HW233183   4.104   0.931   1.022  2.4837 -1.4449 -1.1033
 7183SOL     OW33184   1.755   2.000   7.100 -0.5477  0.2412  0.1770
 7183SOL    HW133185   1.663   2.006   7.076 -0.7447  2.1671  1.4271
 7183SOL    HW233186   1.753   1.982   7.194  1.1964 -2.7742 -0.3766
 7184SOL     OW33187   0.328   0.545  16.589  0.2306 -0.2999 -0.4193
 7184SOL    HW133188   0.288   0.460  16.608  2.8988 -1.8609 -1.7498
 7184SOL    HW233189   0.337   0.528  16.496 -1.2059 -1.7402 -0.2797
 7185SOL     OW33190   0.485   4.378   3.687  0.1085 -0.0413 -0.0819
 7185SOL    HW133191   0.403   4.331   3.701  0.7953 -0.8418  1.2182
 7185SOL    HW233192   0.464   4.470   3.674 -0.0434  0.0864  1.0310
 7186SOL     OW33193   1.097   2.627  15.932 -0.3112 -0.1741 -0.8893
 7186SOL    HW133194   1.044   2.553  15.962  0.3603 -0.4191 -0.3285
 7186SOL    HW233195   1.162   2.630  16.002  0.2838  1.3892 -1.4988
 7187SOL     OW33196   3.459   4.565   2.948  0.4738 -0.3948 -0.2256
 7187SOL    HW133197   3.441   4.487   2.895 -1.5222 -0.0887  0.0011
 7187SOL    HW233198   3.552   4.548   2.965  0.5318  1.9489  1.7553
 7188SOL     OW33199   3.900   3.013   8.641  0.4977 -0.4730  0.7125
 7188SOL    HW133200   3.877   3.096   8.683 -1.8082 -0.2213 -1.0472
 7188SOL    HW233201   3.993   3.023   8.621  0.2093  2.5077  0.7567
 7189SOL     OW33202   1.000   0.737   4.664  0.0857 -0.5807  0.3773
 7189SOL    HW133203   1.059   0.676   4.708  0.5679  0.3544  1.0521
 7189SOL    HW233204   1.060   0.812   4.658  0.9738 -1.5375 -2.1532
 7190SOL     OW33205   4.025   3.531   4.086 -0.9677  0.0583  0.0663
 7190SOL    HW133206   3.970   3.456   4.108 -1.4208  1.1716  2.8000
 7190SOL    HW233207   4.103   3.491   4.048 -0.1448  0.9921  0.7609
 7191SOL     OW33208   0.332   4.496   8.785 -0.5164 -0.0587 -0.2202
 7191SOL    HW133209   0.337   4.555   8.861 -3.3134 -2.0632  1.5188
 7191SOL    HW233210   0.258   4.441   8.810 -0.3604  0.5087  1.5164
 7192SOL     OW33211   3.303   2.505   5.388 -0.3997 -0.3243 -0.4096
 7192SOL    HW133212   3.337   2.519   5.300  0.0188  0.7848 -0.0630
 7192SOL    HW233213   3.209   2.487   5.376  0.0234 -2.2746 -0.8330
 7193SOL     OW33214   4.559   1.516   3.684 -0.8960 -0.0304 -0.0547
 7193SOL    HW133215   4.482   1.471   3.719  0.0590 -1.3048  0.4013
 7193SOL    HW233216   4.630   1.452   3.693 -0.9975  0.0799  1.5008
 7194SOL     OW33217   3.468   3.133   9.482 -0.5763  0.7965 -0.3540
 7194SOL    HW133218   3.383   3.133   9.438 -0.6457  1.5397 -0.2292
 7194SOL    HW233219   3.508   3.189   9.415  2.2176 -1.3564 -0.5046
 7195SOL     OW33220   1.291   3.156  12.637 -0.1567  0.5161 -0.2734
 7195SOL    HW133221   1.260   3.067  12.653 -0.6744  0.7464 -0.0139
 7195SOL    HW233222   1.247   3.186  12.558 -0.7665  0.2264 -0.0420
 7196SOL     OW33223   1.328   3.453   0.567  0.4503 -1.0228 -0.2891
 7196SOL    HW133224   1.411   3.411   0.592  0.4194 -0.3032  0.9959
 7196SOL    HW233225   1.272   3.437   0.644  0.0649  0.1936 -0.3227
 7197SOL     OW33226   2.158   3.774   7.452  0.3851  0.3792  0.3211
 7197SOL    HW133227   2.130   3.817   7.532  1.8566 -2.4668  2.3470
 7197SOL    HW233228   2.187   3.694   7.495 -0.4409 -0.5868 -0.9111
 7198SOL     OW33229   2.516   1.374   1.931  0.2905  0.1050  0.1895
 7198SOL    HW133230   2.452   1.339   1.994  1.6457  0.1288  1.5922
 7198SOL    HW233231   2.467   1.386   1.850 -0.0866 -1.0693  0.2464
 7199SOL     OW33232   1.528   0.572   1.480  0.5082 -0.0494 -0.6560
 7199SOL    HW133233   1.525   0.651   1.533 -0.0175 -0.6059  0.1323
 7199SOL    HW233234   1.544   0.511   1.552  1.8187 -0.2627 -1.1234
 7200SOL     OW33235   0.668   0.906   7.408  0.3478 -0.1627 -0.3147
 7200SOL    HW133236   0.596   0.857   7.448  1.0583 -0.1750  0.9462
 7200SOL    HW233237   0.611   0.948   7.344  3.7458 -0.1026 -3.2505
 7201SOL     OW33238   2.371   3.208   8.879  0.2641 -0.1280 -0.1184
 7201SOL    HW133239   2.301   3.143   8.875  0.3992 -0.2495 -0.5210
 7201SOL    HW233240   2.350   3.272   8.811 -0.1121 -1.7815 -1.5526
 7202SOL     OW33241   3.191   3.829   1.410  0.3015 -0.0696 -0.1195
 7202SOL    HW133242   3.131   3.816   1.335  0.0686  2.0785 -0.2880
 7202SOL    HW233243   3.264   3.874   1.368 -1.0158  0.6732 -1.6117
 7203SOL     OW33244   0.323   2.034   4.478 -0.3505 -0.0507 -0.1803
 7203SOL    HW133245   0.264   2.006   4.408 -2.3624  1.2940  0.9503
 7203SOL    HW233246   0.404   2.031   4.428 -0.5485  2.0807 -0.6208
 7204SOL     OW33247   3.218   1.321  16.452 -0.0020 -0.1775 -0.1240
 7204SOL    HW133248   3.158   1.396  16.452 -0.3984 -0.4878 -2.1890
 7204SOL    HW233249   3.293   1.363  16.410 -0.5256  1.1166  0.2514
 7205SOL     OW33250   1.751   2.594   8.459 -0.7365  0.3971 -0.3586
 7205SOL    HW133251   1.733   2.614   8.367  0.8485  1.9840 -0.3163
 7205SOL    HW233252   1.823   2.532   8.459 -1.6463 -0.6599 -0.0118
 7206SOL     OW33253   2.130   0.244  12.711  0.4841 -0.3946 -0.2676
 7206SOL    HW133254   2.122   0.151  12.733 -1.1761  0.4463  2.6735
 7206SOL    HW233255   2.049   0.249  12.660  0.3811  2.7327  0.2026
 7207SOL     OW33256   1.402   3.600   8.992  0.0003  0.0803 -0.9865
 7207SOL    HW133257   1.381   3.647   8.912 -2.7036  1.0875  0.3295
 7207SOL    HW233258   1.484   3.645   9.012  0.3751 -0.0142 -2.3457
 7208SOL     OW33259   2.198   3.829  15.087  0.0263 -0.5103 -0.2640
 7208SOL    HW133260   2.116   3.876  15.072  0.1554 -0.6080 -1.2930
 7208SOL    HW233261   2.222   3.863  15.173 -0.8486  1.6277 -0.8584
 7209SOL     OW33262   0.733   2.267   4.409 -0.0612  0.2664  0.7420
 7209SOL    HW133263   0.755   2.288   4.500 -0.9033  0.4286  0.9044
 7209SOL    HW233264   0.792   2.327   4.363  2.1559 -1.8888  0.7583
 7210SOL     OW33265   4.167   1.904   9.974 -0.4939 -0.0033  0.2426
 7210SOL    HW133266   4.228   1.978   9.969 -0.0452 -0.3370  0.8520
 7210SOL    HW233267   4.223   1.828   9.983  0.8738  1.2051  1.9794
 7211SOL     OW33268   2.778   0.240  17.585 -0.2771  0.2686 -0.5309
 7211SOL    HW133269   2.718   0.304  17.547  0.6883  1.6471  0.2641
 7211SOL    HW233270   2.728   0.158  17.581  0.2469 -0.0834  0.1611
 7212SOL     OW33271   1.541   3.232   2.789 -0.7425 -0.0990  0.3775
 7212SOL    HW133272   1.510   3.314   2.751 -3.4462 -1.2263  0.1221
 7212SOL    HW233273   1.456   3.191   2.806 -1.0174  1.2073  2.1655
 7213SOL     OW33274   3.274   2.532   1.337 -0.0236  0.6986  0.4459
 7213SOL    HW133275   3.260   2.441   1.364  1.0797  0.4492  0.1786
 7213SOL    HW233276   3.198   2.548   1.280 -1.1007 -0.0452  1.6773
 7214SOL     OW33277   2.199   2.187  10.847  0.2949  0.5796  0.0343
 7214SOL    HW133278   2.290   2.202  10.819 -0.1064  1.3773 -0.8484
 7214SOL    HW233279   2.163   2.273  10.825  0.2845  1.0566  1.9482
 7215SOL     OW33280   0.216   3.414  15.194 -0.0720  0.5347 -0.6080
 7215SOL    HW133281   0.213   3.476  15.121 -0.7727  1.1328 -0.0578
 7215SOL    HW233282   0.209   3.480  15.262 -1.5796  0.6500 -0.8837
 7216SOL     OW33283   4.180   0.753   5.921 -0.1464  0.2900 -0.0809
 7216SOL    HW133284   4.270   0.722   5.927  0.6586  2.4662 -1.2145
 7216SOL    HW233285   4.204   0.824   5.862 -0.3974 -0.2902 -0.8728
 7217SOL     OW33286   4.118   1.966   7.026  0.7921  0.0497 -0.3770
 7217SOL    HW133287   4.180   2.037   7.011 -0.5822  1.4917  0.7818
 7217SOL    HW233288   4.159   1.903   6.967  0.7703  0.4610 -0.8331
 7218SOL     OW33289   2.165   4.054  11.142 -0.2769 -0.8622  0.2652
 7218SOL    HW133290   2.205   3.991  11.202 -0.5675 -1.3972 -0.0892
 7218SOL    HW233291   2.073   4.065  11.167 -0.6228  0.5594 -1.6312
 7219SOL     OW33292   4.476   3.007   5.348  0.2210  0.0420 -0.0815
 7219SOL    HW133293   4.528   3.088   5.354 -1.3299  0.8787  2.0137
 7219SOL    HW233294   4.493   2.967   5.433  0.8259 -2.5683 -1.4332
 7220SOL     OW33295   3.528   0.791  10.747 -0.1944 -0.2143 -0.1452
 7220SOL    HW133296   3.522   0.881  10.713  0.4133  0.7680  2.3248
 7220SOL    HW233297   3.578   0.811  10.826  0.0748 -0.8303 -0.1598
 7221SOL     OW33298   0.557   1.158   1.812  0.4424 -0.3666 -0.7249
 7221SOL    HW133299   0.573   1.117   1.897 -0.8939 -0.5597 -0.5619
 7221SOL    HW233300   0.593   1.246   1.823 -2.2519  0.2829  2.7605
 7222SOL     OW33301   4.692   1.601  15.799  0.1690 -0.1462 -0.1108
 7222SOL    HW133302   4.730   1.686  15.823 -1.5702  0.5137  0.3348
 7222SOL    HW233303   4.719   1.601  15.707  0.8102  1.3572  0.0722
 7223SOL     OW33304   1.520   0.746   8.579  0.0267 -0.0474  0.4191
 7223SOL    HW133305   1.556   0.753   8.491  2.9320  0.5445  1.6524
 7223SOL    HW233306   1.429   0.732   8.553 -0.4661  0.6026  1.7607
 7224SOL     OW33307   1.846   2.205   3.283  0.3954 -0.1339 -0.3280
 7224SOL    HW133308   1.924   2.222   3.230  0.3367  0.5911 -0.1838
 7224SOL    HW233309   1.786   2.271   3.248  0.4859 -0.2810 -0.7557
 7225SOL     OW33310   1.415   0.747   0.306  0.2231  0.0968  0.4548
 7225SOL    HW133311   1.329   0.730   0.267  0.8241  0.6482 -1.1155
 7225SOL    HW233312   1.455   0.660   0.304 -0.4571 -0.2542  1.8781
 7226SOL     OW33313   4.249   3.661   1.746  0.0526  0.1484 -0.1282
 7226SOL    HW133314   4.327   3.621   1.785  0.0880 -1.2302 -1.5808
 7226SOL    HW233315   4.213   3.590   1.692 -2.4201  1.9606 -0.8533
 7227SOL     OW33316   3.951   2.006   2.208  0.2458  0.3691  0.8923
 7227SOL    HW133317   3.865   2.022   2.246  0.7784  0.0017  2.2396
 7227SOL    HW233318   3.954   2.075   2.141  0.1552 -0.4606  0.0217
 7228SOL     OW33319   4.258   2.055   7.325  0.6005 -0.2683 -0.2469
 7228SOL    HW133320   4.255   2.020   7.236 -1.3685  0.1627 -0.3554
 7228SOL    HW233321   4.303   1.981   7.366 -0.5915 -1.4401 -1.0530
 7229SOL     OW33322   0.578   0.448   4.820  0.2521 -0.2154  0.6647
 7229SOL    HW133323   0.626   0.444   4.737  1.3601  1.0706  1.2337
 7229SOL    HW233324   0.649   0.426   4.881  1.9396  0.1651 -1.1541
 7230SOL     OW33325   1.250   2.009   3.100 -0.6768  0.1690 -0.1512
 7230SOL    HW133326   1.161   1.976   3.089 -1.0003  0.6661  1.0527
 7230SOL    HW233327   1.243   2.055   3.183  0.2907  0.2004 -0.0848
 7231SOL     OW33328   2.654   2.915   3.113 -0.5203 -0.0189  0.1366
 7231SOL    HW133329   2.647   2.954   3.026  2.1012  0.7019  0.2302
 7231SOL    HW233330   2.583   2.964   3.154 -1.1684 -1.2922  0.5202
 7232SOL     OW33331   3.625   2.423   1.312  0.5102 -0.6770  0.2599
 7232SOL    HW133332   3.536   2.399   1.284  0.5394 -0.0907 -0.3430
 7232SOL    HW233333   3.606   2.454   1.401  0.2013  1.5192 -0.5606
 7233SOL     OW33334   1.830   1.740   2.926 -0.8984 -0.4216 -0.0189
 7233SOL    HW133335   1.766   1.675   2.899 -0.2711 -0.0964 -2.3174
 7233SOL    HW233336   1.799   1.749   3.016 -0.9254  0.2660 -0.0956
 7234SOL     OW33337   2.454   0.983   9.751 -0.3844  0.0353 -0.2642
 7234SOL    HW133338   2.525   1.047   9.753  1.8221 -2.3990 -0.7623
 7234SOL    HW233339   2.407   1.011   9.672 -1.7987  0.3269  0.6653
 7235SOL     OW33340   0.419   2.268   2.663 -0.6064 -0.9858 -0.0101
 7235SOL    HW133341   0.497   2.293   2.613 -1.7950 -0.2376 -1.5030
 7235SOL    HW233342   0.354   2.318   2.613  0.4806  0.8340  0.3798
 7236SOL     OW33343   3.949   4.103   5.879  0.0572 -0.3670  0.0109
 7236SOL    HW133344   3.948   4.137   5.969  1.7911 -0.8327  0.2171
 7236SOL    HW233345   3.890   4.154   5.824  0.6153  0.1174 -0.1387
 7237SOL     OW33346   2.900   2.458  15.333  0.0600 -0.1375 -0.0364
 7237SOL    HW133347   2.894   2.489  15.424 -2.2055  1.2601 -0.6654
 7237SOL    HW233348   2.808   2.440  15.313  0.0874  0.3073 -0.5747
 7238SOL     OW33349   0.717   1.751   3.581  0.6589  0.0195  0.4212
 7238SOL    HW133350   0.796   1.705   3.552  0.9388 -1.5154  3.5740
 7238SOL    HW233351   0.705   1.788   3.494 -1.4985 -0.6301  0.4386
 7239SOL     OW33352   1.165   4.171   8.837 -0.3195  0.5977  0.3278
 7239SOL    HW133353   1.227   4.109   8.873 -1.9671 -0.8132  0.7098
 7239SOL    HW233354   1.095   4.123   8.793 -0.6684 -0.1427  1.7233
 7240SOL     OW33355   0.838   2.336  15.897  0.2980  0.5362  0.5118
 7240SOL    HW133356   0.781   2.412  15.911 -1.8527 -1.0513  0.4563
 7240SOL    HW233357   0.826   2.333  15.802 -0.9705 -1.1968  0.7286
 7241SOL     OW33358   0.259   4.070   2.508  0.3260  0.3045  0.1544
 7241SOL    HW133359   0.212   3.995   2.544 -2.3784  1.0582 -1.8628
 7241SOL    HW233360   0.196   4.119   2.456 -0.3454  0.9397  1.5781
 7242SOL     OW33361   4.360   1.832  13.672  0.0729 -0.5635  0.4128
 7242SOL    HW133362   4.303   1.792  13.606  2.1920 -1.5115 -0.8469
 7242SOL    HW233363   4.385   1.911  13.623 -0.8391 -1.0473 -0.8288
 7243SOL     OW33364   2.590   2.008  14.419 -0.0934 -0.1065  0.1379
 7243SOL    HW133365   2.626   2.068  14.354 -0.0777 -1.7229 -1.3459
 7243SOL    HW233366   2.622   1.924  14.386  1.7262  1.4759 -2.1246
 7244SOL     OW33367   3.825   0.877   4.939  0.3959  0.6287  0.6517
 7244SOL    HW133368   3.905   0.923   4.915 -0.2589  1.6965  0.5425
 7244SOL    HW233369   3.819   0.880   5.034  2.6610  1.5925  0.7629
 7245SOL     OW33370   2.440   1.314   2.963 -0.1825 -0.1620 -0.0111
 7245SOL    HW133371   2.408   1.399   2.933  0.1616 -0.4521 -1.2102
 7245SOL    HW233372   2.502   1.290   2.894  0.4895 -0.0955  0.5658
 7246SOL     OW33373   2.175   0.902   8.098 -0.3860 -0.2500 -0.0097
 7246SOL    HW133374   2.208   0.877   8.185 -0.3212 -2.2298 -0.6144
 7246SOL    HW233375   2.087   0.923   8.127 -0.1635 -1.2982  1.4540
 7247SOL     OW33376   4.294   4.618   5.044 -0.0284  0.8330  0.2513
 7247SOL    HW133377   4.321   4.709   5.058 -1.9331  1.4721 -0.2903
 7247SOL    HW233378   4.378   4.581   5.071 -1.0010 -0.8186  1.0460
 7248SOL     OW33379   2.705   4.384  13.487  0.4707  0.2011 -0.1440
 7248SOL    HW133380   2.628   4.368  13.542  0.8111  0.9077  0.5400
 7248SOL    HW233381   2.778   4.405  13.545  0.9544  1.1148 -1.0900
 7249SOL     OW33382   3.758   1.167   7.309  0.3118  0.2610  0.2148
 7249SOL    HW133383   3.817   1.092   7.305  0.4468  0.2293  2.3133
 7249SOL    HW233384   3.672   1.126   7.306  1.0715 -1.2997 -0.1116
 7250SOL     OW33385   1.030   1.819   2.871  0.3230 -0.4142  0.0903
 7250SOL    HW133386   0.979   1.740   2.890 -0.7905  0.3294  0.1765
 7250SOL    HW233387   1.015   1.875   2.947  2.2747 -0.3161  0.4023
 7251SOL     OW33388   3.664   3.496  12.566 -0.1532  0.1086 -0.0923
 7251SOL    HW133389   3.725   3.461  12.500  0.0054 -2.0425  1.1760
 7251SOL    HW233390   3.597   3.529  12.507 -0.5345 -1.2469 -0.4089
 7252SOL     OW33391   0.823   0.937   2.148  0.7647  0.1071  0.0006
 7252SOL    HW133392   0.805   1.028   2.126 -2.2825  0.2687  3.2647
 7252SOL    HW233393   0.754   0.898   2.094  2.7495 -1.8213 -1.1825
 7253SOL     OW33394   3.787   1.201   6.482  1.0957  0.3807 -0.5525
 7253SOL    HW133395   3.882   1.201   6.499  1.1367  1.3885 -0.7812
 7253SOL    HW233396   3.775   1.295   6.498  1.3570 -0.0585  2.3311
 7254SOL     OW33397   2.412   2.349   8.713  0.1237  0.0587 -0.5764
 7254SOL    HW133398   2.440   2.278   8.655 -0.4336 -0.9193  0.3526
 7254SOL    HW233399   2.461   2.337   8.794 -1.0591  1.7168  0.3958
 7255SOL     OW33400   1.996   2.655   3.174 -0.1672  0.1073 -0.0863
 7255SOL    HW133401   1.953   2.737   3.199  1.1814  1.0059 -0.6767
 7255SOL    HW233402   1.965   2.657   3.084 -3.4296  0.4182  1.0631
 7256SOL     OW33403   3.221   2.295   4.230  0.7181 -0.0692 -0.3713
 7256SOL    HW133404   3.209   2.206   4.263  1.5190  0.0978  0.3609
 7256SOL    HW233405   3.265   2.284   4.145  1.5242  0.9864 -0.0889
 7257SOL     OW33406   4.393   3.594   5.603 -0.1056  0.1309  0.2292
 7257SOL    HW133407   4.313   3.585   5.552 -1.0458  0.9877  1.5337
 7257SOL    HW233408   4.356   3.616   5.689  1.8700 -0.1847  1.1595
 7258SOL     OW33409   2.263   2.529  10.547  0.5672  0.0439  0.0831
 7258SOL    HW133410   2.302   2.497  10.628  0.5831 -0.7393 -0.2339
 7258SOL    HW233411   2.242   2.622  10.555 -1.7203 -0.8429  3.9858
 7259SOL     OW33412   2.737   1.746   0.887  0.6015  0.2325 -0.0273
 7259SOL    HW133413   2.701   1.738   0.799 -2.7834  1.1281  1.2914
 7259SOL    HW233414   2.680   1.680   0.928  0.4450 -0.0637 -0.7220
 7260SOL     OW33415   3.009   1.031  10.359  0.2881  0.8331  0.6678
 7260SOL    HW133416   3.088   1.025  10.305  0.5072  2.4888  0.8007
 7260SOL    HW233417   2.956   1.090  10.305 -2.2209 -0.9137  1.2665
 7261SOL     OW33418   2.356   3.344   3.084  0.1294  0.4545 -0.4758
 7261SOL    HW133419   2.360   3.318   3.177 -1.8443  0.2095 -0.4587
 7261SOL    HW233420   2.447   3.365   3.067  0.0245  1.5651  0.3530
 7262SOL     OW33421   1.777   1.283   4.575  0.0094  0.0810  0.8064
 7262SOL    HW133422   1.859   1.288   4.527 -0.6819 -2.7496 -0.6731
 7262SOL    HW233423   1.811   1.335   4.648 -0.6797 -0.1729  1.3086
 7263SOL     OW33424   3.585   1.376  16.105 -0.0937 -0.1949  0.5860
 7263SOL    HW133425   3.655   1.407  16.047 -0.9353  0.5012 -0.0446
 7263SOL    HW233426   3.628   1.329  16.177 -0.3059  0.9141  1.4336
 7264SOL     OW33427   4.697   1.696   5.537  0.3154 -0.1237 -0.9916
 7264SOL    HW133428   4.705   1.698   5.441 -0.1076 -0.7047 -1.0443
 7264SOL    HW233429   4.603   1.710   5.549  0.2352 -0.4614 -1.2330
 7265SOL     OW33430   0.891   0.472   5.554  0.2907  0.0184  0.6271
 7265SOL    HW133431   0.837   0.522   5.493 -1.1080 -1.5263  0.6130
 7265SOL    HW233432   0.850   0.498   5.636 -2.9485 -0.2199 -0.9339
 7266SOL     OW33433   0.635   2.066  12.553 -0.3651  0.2820 -0.4762
 7266SOL    HW133434   0.670   2.119  12.624  0.4088  1.4165 -1.7147
 7266SOL    HW233435   0.694   1.990  12.554 -1.0580 -0.2135  1.5494
 7267SOL     OW33436   2.378   1.478  15.396  0.2866 -0.2292  0.3100
 7267SOL    HW133437   2.446   1.410  15.400  0.0662 -0.5021 -0.6919
 7267SOL    HW233438   2.334   1.443  15.473 -0.7421  0.3979  0.0076
 7268SOL     OW33439   1.255   4.538  11.490  0.1388  0.1201  0.0151
 7268SOL    HW133440   1.238   4.453  11.532 -0.0448  0.5427  0.8054
 7268SOL    HW233441   1.194   4.525  11.418 -0.1009  0.2626  0.1926
 7269SOL     OW33442   2.511   2.322   6.045 -1.2000  0.3271 -0.0106
 7269SOL    HW133443   2.580   2.281   5.992  1.2271  2.3894  1.5686
 7269SOL    HW233444   2.501   2.276   6.128 -0.0679  1.3095  0.6511
 7270SOL     OW33445   2.775   3.583   2.586  0.1231 -0.0142 -0.2737
 7270SOL    HW133446   2.742   3.601   2.674  3.3494  0.5186  0.8153
 7270SOL    HW233447   2.724   3.510   2.549 -0.6154 -0.0999  0.8938
 7271SOL     OW33448   2.404   0.821   0.781  0.1650  0.2355 -0.1723
 7271SOL    HW133449   2.367   0.741   0.743  0.5017 -0.5616  1.2010
 7271SOL    HW233450   2.496   0.815   0.753  0.1279  1.1380 -0.5091
 7272SOL     OW33451   1.080   3.065   1.193 -0.2002  0.3844 -0.4805
 7272SOL    HW133452   0.994   3.032   1.167 -0.8950 -0.7803  3.4071
 7272SOL    HW233453   1.070   3.112   1.276 -1.4180 -3.3210  1.4438
 7273SOL     OW33454   2.606   4.484  12.822 -0.5639  0.3885 -0.3126
 7273SOL    HW133455   2.617   4.555  12.885  0.5287  0.1357 -0.2212
 7273SOL    HW233456   2.512   4.468  12.837 -0.0584 -1.1704  1.1327
 7274SOL     OW33457   2.826   2.873   1.407  0.5146 -0.1190  0.0943
 7274SOL    HW133458   2.839   2.784   1.440 -0.1546 -0.7583 -1.3696
 7274SOL    HW233459   2.897   2.926   1.441 -1.1032  1.2829  1.3140
 7275SOL     OW33460   2.228   1.478   6.184  0.4020 -0.0436  0.2887
 7275SOL    HW133461   2.201   1.484   6.276  0.5884 -3.2659  0.5622
 7275SOL    HW233462   2.173   1.408   6.151 -0.6311  0.4610  0.9473
 7276SOL     OW33463   4.162   3.611  15.031  0.0675 -0.3423 -0.1731
 7276SOL    HW133464   4.144   3.657  14.949 -1.3701  0.3660  0.5379
 7276SOL    HW233465   4.244   3.654  15.054  0.7752 -2.4502  1.1545
 7277SOL     OW33466   1.611   1.888   4.569 -0.3252 -0.4364  0.4023
 7277SOL    HW133467   1.687   1.934   4.533 -0.6458 -0.8618 -0.8243
 7277SOL    HW233468   1.626   1.800   4.532  0.0664 -0.0410 -0.3872
 7278SOL     OW33469   2.266   0.880   7.471 -0.2874  0.4104 -0.2676
 7278SOL    HW133470   2.347   0.908   7.427 -0.1808  1.3674  0.5370
 7278SOL    HW233471   2.244   0.963   7.514  2.5693  1.5219 -0.9237
 7279SOL     OW33472   0.149   4.137   9.417 -0.0931  0.0278  0.0943
 7279SOL    HW133473   0.208   4.180   9.356 -0.6759 -0.1647 -0.6127
 7279SOL    HW233474   0.183   4.156   9.504 -0.8279  0.6643  0.2419
 7280SOL     OW33475   0.249   3.881  15.617 -0.4181 -0.1505 -0.0018
 7280SOL    HW133476   0.244   3.900  15.523  0.0252 -0.5263 -0.1076
 7280SOL    HW233477   0.345   3.888  15.615 -0.2948 -2.2836 -1.9974
 7281SOL     OW33478   1.775   4.441   2.288 -0.4869  0.2673  0.1043
 7281SOL    HW133479   1.803   4.492   2.365 -0.4481 -0.2281  0.4167
 7281SOL    HW233480   1.824   4.361   2.304  0.6687  0.7549 -0.9534
 7282SOL     OW33481   3.066   4.481   1.162 -0.7335 -0.2935  0.2258
 7282SOL    HW133482   3.067   4.388   1.139  1.2780  0.0232 -0.9678
 7282SOL    HW233483   3.137   4.479   1.226  0.1261  1.1133 -0.6749
 7283SOL     OW33484   3.807   3.349  16.695  0.3339 -0.2636 -0.0330
 7283SOL    HW133485   3.883   3.404  16.718  1.1552 -0.7381 -1.5729
 7283SOL    HW233486   3.753   3.419  16.658  3.0884  2.1835  0.5251
 7284SOL     OW33487   0.031   0.111   4.762 -0.5444  0.3001  0.1540
 7284SOL    HW133488   0.004   0.050   4.831  1.9400 -1.5165 -0.4980
 7284SOL    HW233489   0.121   0.085   4.744 -0.6651 -0.5432  0.7639
 7285SOL     OW33490   3.617   0.489  15.004  0.4586  0.0099 -0.0451
 7285SOL    HW133491   3.563   0.525  15.074 -0.3353 -0.6912 -0.2962
 7285SOL    HW233492   3.577   0.543  14.937 -0.3506 -0.2011  0.2687
 7286SOL     OW33493   0.012   1.992   7.489  0.0365 -0.4163  0.6167
 7286SOL    HW133494   0.086   1.964   7.544  1.0477 -1.1769 -1.1248
 7286SOL    HW233495   0.042   2.011   7.400 -0.1056 -2.0258  0.2148
 7287SOL     OW33496   1.495   3.487  13.778  0.1102  0.7822  0.0793
 7287SOL    HW133497   1.446   3.486  13.860  1.0319  1.9973  0.6431
 7287SOL    HW233498   1.571   3.443  13.816 -0.3240 -1.5220 -1.7248
 7288SOL     OW33499   1.496   1.448   8.092  0.4496  0.0720 -0.5402
 7288SOL    HW133500   1.418   1.470   8.042  1.5923  2.9495 -1.0553
 7288SOL    HW233501   1.538   1.534   8.091  0.4597  0.0695 -0.3174
 7289SOL     OW33502   2.036   1.730   2.740  0.7538 -0.2822 -0.1474
 7289SOL    HW133503   1.969   1.752   2.804 -0.8087  0.4050 -2.0406
 7289SOL    HW233504   2.000   1.643   2.721 -1.0119  0.3361  0.3661
 7290SOL     OW33505   3.734   1.203  11.921  0.2341 -0.4382 -0.5912
 7290SOL    HW133506   3.701   1.284  11.881  1.2665 -0.8016 -2.1660
 7290SOL    HW233507   3.708   1.210  12.013  0.7070  2.6297 -0.6923
 7291SOL     OW33508   0.299   3.151   6.577  0.5877  0.3858 -0.5425
 7291SOL    HW133509   0.316   3.244   6.562  1.2782  0.5783  1.4430
 7291SOL    HW233510   0.387   3.113   6.577  0.0201 -0.9116  2.8067
 7292SOL     OW33511   4.256   0.225  10.488 -0.5509  0.3935 -0.6564
 7292SOL    HW133512   4.166   0.239  10.515 -0.2110  0.7660  0.2819
 7292SOL    HW233513   4.282   0.290  10.422  0.9228  0.0662 -0.4134
 7293SOL     OW33514   3.877   2.173   3.968 -0.5585 -0.2368 -0.2615
 7293SOL    HW133515   3.824   2.108   4.014 -2.1035  0.1087 -1.5358
 7293SOL    HW233516   3.908   2.237   4.032  1.4510  2.7130 -4.1736
 7294SOL     OW33517   3.596   2.529   9.632 -0.4229 -0.6897 -0.1180
 7294SOL    HW133518   3.513   2.577   9.632 -0.2505 -0.3857 -0.6649
 7294SOL    HW233519   3.593   2.463   9.563 -0.5795 -0.3897 -0.3985
 7295SOL     OW33520   3.062   2.191   6.564  0.1741  0.3025 -0.1019
 7295SOL    HW133521   3.002   2.206   6.637  2.1090 -0.4263  1.6504
 7295SOL    HW233522   3.042   2.270   6.513 -0.6079 -0.0677 -0.3680
 7296SOL     OW33523   2.070   0.269  16.482  0.5040 -0.5667  0.1453
 7296SOL    HW133524   1.984   0.233  16.462 -0.4877  0.6975  2.0736
 7296SOL    HW233525   2.115   0.198  16.529  1.7361  0.9649  1.3085
 7297SOL     OW33526   1.430   1.384   8.357  0.1924  0.2689  0.5823
 7297SOL    HW133527   1.427   1.298   8.400  1.1492  0.1748  0.4558
 7297SOL    HW233528   1.426   1.365   8.264 -0.7255 -4.4492  1.5575
 7298SOL     OW33529   3.657   2.228   4.361 -0.0475  0.2179 -0.9682
 7298SOL    HW133530   3.748   2.202   4.353  0.6904  2.6328 -0.2504
 7298SOL    HW233531   3.617   2.142   4.376  0.2444  0.0739 -1.0246
 7299SOL     OW33532   0.844   1.314   5.735  0.0814  0.2668 -0.5400
 7299SOL    HW133533   0.750   1.299   5.740  0.7375 -3.7649  0.3794
 7299SOL    HW233534   0.877   1.263   5.660  0.0790  1.1590 -1.1497
 7300SOL     OW33535   1.644   1.519  16.113 -0.3089 -0.1906 -0.3016
 7300SOL    HW133536   1.597   1.440  16.088 -3.5874  2.2782 -1.8768
 7300SOL    HW233537   1.711   1.511  16.044  0.4657  1.2580  0.2830
 7301SOL     OW33538   0.020   4.037   5.468 -0.1007  0.6544 -0.2408
 7301SOL    HW133539   4.676   4.091   5.476 -0.4964  0.2861 -1.5233
 7301SOL    HW233540   4.735   3.978   5.540  0.5597  1.4323  0.5752
 7302SOL     OW33541   1.114   0.946   8.127 -0.3548 -0.1013  0.4851
 7302SOL    HW133542   1.206   0.930   8.147 -0.9310 -2.1417  1.5261
 7302SOL    HW233543   1.073   0.861   8.110  0.1112  0.0914 -1.5904
 7303SOL     OW33544   0.247   4.219   1.137  0.3218  0.6642  0.1103
 7303SOL    HW133545   0.262   4.128   1.165 -1.5460 -0.0233 -1.0817
 7303SOL    HW233546   0.216   4.202   1.048 -0.6652  1.6149  0.2676
 7304SOL     OW33547   0.909   3.365   4.457 -0.4706 -0.3793 -0.2597
 7304SOL    HW133548   0.874   3.397   4.374  1.6758  0.6591 -0.7453
 7304SOL    HW233549   0.886   3.273   4.447  1.3799 -1.3038  4.3161
 7305SOL     OW33550   2.808   0.828   7.949 -0.2771  0.0456 -0.4244
 7305SOL    HW133551   2.882   0.796   7.897 -0.1297 -0.6317  0.2110
 7305SOL    HW233552   2.779   0.894   7.885  2.2418  2.1458  0.6349
 7306SOL     OW33553   0.506   3.226   6.015 -0.3495  0.0995 -0.3748
 7306SOL    HW133554   0.460   3.294   5.966 -1.2213 -0.0316  0.2749
 7306SOL    HW233555   0.549   3.284   6.077 -0.0187  1.4752 -1.8927
 7307SOL     OW33556   0.298   1.192  15.700 -0.0730  0.5765  0.1341
 7307SOL    HW133557   0.268   1.203  15.609 -0.5676  2.4888  0.5261
 7307SOL    HW233558   0.223   1.237  15.739 -0.6854 -3.4601  3.5365
 7308SOL     OW33559   1.321   4.331   6.409  0.4316  0.0576 -0.1695
 7308SOL    HW133560   1.367   4.248   6.394  0.7487 -0.2485  2.5397
 7308SOL    HW233561   1.280   4.300   6.490  1.4001 -2.1009 -0.4980
 7309SOL     OW33562   2.352   3.227   7.226 -0.7445  0.0359  0.1817
 7309SOL    HW133563   2.330   3.251   7.136 -0.1461  0.3716  0.1268
 7309SOL    HW233564   2.275   3.256   7.276 -0.1090 -2.0896  2.3580
 7310SOL     OW33565   3.776   4.529   7.328  0.3404  0.5675  0.2294
 7310SOL    HW133566   3.707   4.588   7.296 -0.7219  0.8498  3.0418
 7310SOL    HW233567   3.852   4.586   7.337  1.7451 -1.1658 -0.6692
 7311SOL     OW33568   3.850   1.690   5.444 -0.0028  0.5310  0.6275
 7311SOL    HW133569   3.889   1.776   5.428 -0.7472  0.8113  0.3737
 7311SOL    HW233570   3.762   1.708   5.412  0.9270 -0.1946 -2.3691
 7312SOL     OW33571   0.908   4.326  12.176  0.1977  0.6639 -0.3226
 7312SOL    HW133572   0.999   4.313  12.204  0.0040 -1.2306 -0.5958
 7312SOL    HW233573   0.886   4.241  12.138  2.2970  0.2454 -0.6103
 7313SOL     OW33574   0.910   3.727   7.074  0.5296 -0.2058 -0.2059
 7313SOL    HW133575   0.878   3.746   7.163 -1.3390  3.2753 -1.6372
 7313SOL    HW233576   0.921   3.812   7.031 -0.8903 -0.8577 -1.8579
 7314SOL     OW33577   1.339   0.870   3.043 -0.1009  0.0373  0.0942
 7314SOL    HW133578   1.406   0.870   3.111  0.1909 -1.4778 -0.1979
 7314SOL    HW233579   1.385   0.935   2.989 -0.2379 -0.9245 -1.1635
 7315SOL     OW33580   3.748   2.769   3.209 -0.0296  0.0786 -0.7099
 7315SOL    HW133581   3.796   2.726   3.280  1.0487  0.4581 -1.2087
 7315SOL    HW233582   3.759   2.860   3.235 -1.7580 -0.1269  0.7316
 7316SOL     OW33583   3.261   3.404   5.829 -0.6987 -0.1873 -0.2247
 7316SOL    HW133584   3.190   3.423   5.891 -1.3978 -2.4118 -0.3338
 7316SOL    HW233585   3.212   3.377   5.752 -0.0051 -2.1542  0.0230
 7317SOL     OW33586   4.612   3.709   8.800  0.1253 -0.0254 -0.0708
 7317SOL    HW133587   4.577   3.627   8.766 -0.3763  0.0603  0.2374
 7317SOL    HW233588   4.577   3.692   8.888  0.7480  2.7092  0.7069
 7318SOL     OW33589   1.645   1.420   8.650  0.4889  0.7844 -0.0964
 7318SOL    HW133590   1.661   1.402   8.558 -0.4803 -0.7770  0.0475
 7318SOL    HW233591   1.718   1.480   8.665  2.2212 -1.3106 -0.2880
 7319SOL     OW33592   2.365   0.841  11.546 -0.2726  0.2474  0.0959
 7319SOL    HW133593   2.434   0.796  11.497  0.7555  0.4306  1.3809
 7319SOL    HW233594   2.375   0.800  11.632  1.0969  1.8433  0.6999
 7320SOL     OW33595   2.205   4.299   3.475  0.1387 -0.1656 -0.3015
 7320SOL    HW133596   2.124   4.323   3.520 -0.2088 -2.2110  0.1267
 7320SOL    HW233597   2.272   4.345   3.527 -0.6904 -0.2303  0.8329
 7321SOL     OW33598   0.067   3.376   7.323  0.5565  0.2720 -0.1148
 7321SOL    HW133599   4.710   3.356   7.310  1.2014 -1.4296 -2.1219
 7321SOL    HW233600   0.114   3.311   7.270 -1.8082 -0.6813 -1.0155
 7322SOL     OW33601   2.278   0.870   5.241  0.2925 -0.7622 -0.2376
 7322SOL    HW133602   2.266   0.900   5.151  1.6042 -1.3406 -0.6046
 7322SOL    HW233603   2.209   0.808   5.265 -1.1613  1.1705  0.5012
 7323SOL     OW33604   1.570   3.508   5.981  0.0972 -0.1100  0.0803
 7323SOL    HW133605   1.658   3.488   6.016 -1.3424 -3.0241  2.0504
 7323SOL    HW233606   1.532   3.426   5.950  0.5561  0.4239 -1.8731
 7324SOL     OW33607   1.254   4.101  10.337 -0.1370  0.0768  0.2641
 7324SOL    HW133608   1.264   4.021  10.390  0.5925  0.2207  0.3504
 7324SOL    HW233609   1.192   4.154  10.387 -0.4745  0.0019 -0.0787
 7325SOL     OW33610   4.473   0.359   7.825 -0.6920 -0.1205  0.4541
 7325SOL    HW133611   4.491   0.307   7.903 -1.4589  0.8514  1.2818
 7325SOL    HW233612   4.561   0.398   7.818 -1.1762  0.8361 -0.3349
 7326SOL     OW33613   0.880   0.598  11.733 -0.0517 -0.2263  0.6721
 7326SOL    HW133614   0.889   0.693  11.723  3.9922 -0.7166 -0.3940
 7326SOL    HW233615   0.818   0.571  11.666 -1.9658 -1.1425  2.8032
 7327SOL     OW33616   0.361   0.917   6.434  0.5680  0.3535 -0.3576
 7327SOL    HW133617   0.342   0.824   6.420 -0.4286  0.4548  0.3344
 7327SOL    HW233618   0.426   0.936   6.366 -0.0942 -0.5997 -1.2691
 7328SOL     OW33619   3.298   0.010   6.185 -0.2195  0.0848 -0.0651
 7328SOL    HW133620   3.287   0.048   6.098  0.6974  0.2880 -0.0978
 7328SOL    HW233621   3.303   4.651   6.173 -0.0356 -0.2715  2.8052
 7329SOL     OW33622   0.024   0.288   4.946  0.1107  0.1447  0.1973
 7329SOL    HW133623   0.023   0.241   4.863 -0.2179  1.1184 -0.3563
 7329SOL    HW233624   0.118   0.282   4.964  0.1984  1.8254  0.3258
 7330SOL     OW33625   2.878   4.493   6.983  0.6971  0.5946  0.4568
 7330SOL    HW133626   2.905   4.402   6.991 -0.0271  0.4359  1.0202
 7330SOL    HW233627   2.930   4.524   6.909  1.7088 -1.1602  0.4226
 7331SOL     OW33628   2.963   0.846  14.247 -0.3585  0.2623 -0.0189
 7331SOL    HW133629   2.911   0.792  14.188 -1.1524  0.2945  0.6547
 7331SOL    HW233630   2.953   0.808  14.334 -0.3845  0.2624 -0.0220
 7332SOL     OW33631   2.311   2.113  12.378  0.3293 -0.6056  0.4988
 7332SOL    HW133632   2.397   2.103  12.417 -0.2213 -1.2054  1.5628
 7332SOL    HW233633   2.338   2.176  12.311 -0.4649 -1.0234 -0.2198
 7333SOL     OW33634   4.069   3.378   9.452  0.2129  0.2078 -0.0609
 7333SOL    HW133635   4.054   3.285   9.431  0.1086  0.3513 -0.6125
 7333SOL    HW233636   3.994   3.419   9.408 -1.2609 -0.9832  1.2998
 7334SOL     OW33637   3.815   1.118   0.176 -0.0075  1.2093  0.0960
 7334SOL    HW133638   3.767   1.199   0.192 -1.7159  0.1641  0.2529
 7334SOL    HW233639   3.742   1.060   0.153 -0.5850  1.0376  2.3097
 7335SOL     OW33640   0.486   3.720   7.805 -0.4274  0.4461 -0.3770
 7335SOL    HW133641   0.531   3.800   7.777 -2.5118  1.2143 -1.5639
 7335SOL    HW233642   0.398   3.734   7.771  0.1996  0.4214 -2.0301
 7336SOL     OW33643   2.920   2.570  16.617  0.2736  0.4086 -0.4535
 7336SOL    HW133644   2.948   2.652  16.578 -0.4865  0.3118 -1.2075
 7336SOL    HW233645   2.996   2.552  16.672  0.4224 -0.3785 -0.9085
 7337SOL     OW33646   0.692   2.397   6.599 -0.4975  0.0604  0.1311
 7337SOL    HW133647   0.665   2.425   6.511 -0.2095  1.3073  0.4286
 7337SOL    HW233648   0.755   2.330   6.573  0.2357  0.0796  1.8687
 7338SOL     OW33649   1.731   0.150   7.087  0.1594 -0.2287 -0.2521
 7338SOL    HW133650   1.642   0.180   7.102  0.6178  1.3083 -0.6765
 7338SOL    HW233651   1.760   0.223   7.033  1.9099 -0.3293  0.5341
 7339SOL     OW33652   4.172   2.357  11.312  0.2964 -0.0205 -0.8330
 7339SOL    HW133653   4.261   2.344  11.279 -0.1923 -0.5116 -1.9943
 7339SOL    HW233654   4.129   2.392  11.233  0.7846  0.0439 -1.0720
 7340SOL     OW33655   1.847   1.080  14.454 -0.9030  0.8307  0.0256
 7340SOL    HW133656   1.813   1.093  14.366 -1.7133 -0.5822  0.1379
 7340SOL    HW233657   1.771   1.046  14.501 -0.7893 -1.0951 -1.2151
 7341SOL     OW33658   4.297   2.149   6.987 -0.6357 -0.1844 -0.3502
 7341SOL    HW133659   4.365   2.092   7.020  0.5310  1.7945  0.6645
 7341SOL    HW233660   4.334   2.235   7.006  3.0247 -1.9686  0.4199
 7342SOL     OW33661   0.172   1.806  14.234  0.4433  0.2351  0.2069
 7342SOL    HW133662   0.182   1.899  14.253 -0.1409 -0.0683  1.9490
 7342SOL    HW233663   0.177   1.784  14.140  1.3585  1.0783  0.0667
 7343SOL     OW33664   3.107   0.655   4.691  0.1239 -0.0919  0.5736
 7343SOL    HW133665   3.181   0.623   4.742  0.6566  1.3039  0.6884
 7343SOL    HW233666   3.046   0.582   4.704 -0.2562  0.1955  0.4289
 7344SOL     OW33667   1.071   1.612   7.448 -0.3005  0.3582  0.3535
 7344SOL    HW133668   1.047   1.529   7.406 -0.0260  0.3159  0.2853
 7344SOL    HW233669   1.018   1.675   7.399  1.1987  0.4994 -1.0600
 7345SOL     OW33670   3.208   0.809  17.693  0.3464 -0.0441 -0.4638
 7345SOL    HW133671   3.266   0.792   0.027  0.5676 -1.8870 -1.0493
 7345SOL    HW233672   3.246   0.882  17.645 -2.2286 -0.1098 -2.5989
 7346SOL     OW33673   0.285   3.925   4.687 -0.6236  0.0572 -0.1414
 7346SOL    HW133674   0.190   3.922   4.702 -0.6388 -0.2215 -0.2948
 7346SOL    HW233675   0.307   3.951   4.776  1.2547 -3.9232  0.5521
 7347SOL     OW33676   1.903   1.724   6.684 -0.3114  0.2457  0.0645
 7347SOL    HW133677   1.908   1.643   6.735  3.7482 -1.1375 -2.5552
 7347SOL    HW233678   1.980   1.702   6.632 -0.9218 -1.4941 -0.0924
 7348SOL     OW33679   1.524   0.817   5.373  0.3526 -0.0473 -0.2230
 7348SOL    HW133680   1.579   0.896   5.372 -0.0570  0.2172 -1.7522
 7348SOL    HW233681   1.593   0.760   5.408  1.2388  0.7988 -0.5976
 7349SOL     OW33682   2.697   0.202   3.798  0.0509  0.2458  0.1159
 7349SOL    HW133683   2.792   0.214   3.790 -0.1183  0.3243 -1.8000
 7349SOL    HW233684   2.681   0.285   3.843 -0.0172 -0.4769  1.4058
 7350SOL     OW33685   2.619   0.715  11.440 -0.8285  0.4382 -0.3560
 7350SOL    HW133686   2.674   0.739  11.515 -0.0023 -1.4346 -0.3659
 7350SOL    HW233687   2.599   0.627  11.469  0.4943  0.8890  1.9435
 7351SOL     OW33688   3.088   3.722   7.489 -0.0626  0.6189  0.2255
 7351SOL    HW133689   3.016   3.720   7.426 -1.2010  2.8692  1.4611
 7351SOL    HW233690   3.120   3.811   7.475  0.3321  0.6510  1.3544
 7352SOL     OW33691   4.419   0.520   9.759  0.5465 -0.3864 -0.2208
 7352SOL    HW133692   4.328   0.502   9.736  0.7340 -0.6843 -0.7162
 7352SOL    HW233693   4.439   0.445   9.816 -3.0984 -0.4398  1.0238
 7353SOL     OW33694   1.074   0.188   8.142 -0.0611  0.0312  0.1096
 7353SOL    HW133695   0.998   0.138   8.112 -1.3712 -0.3774  4.1282
 7353SOL    HW233696   1.130   0.115   8.165  2.4911  1.8534 -0.3224
 7354SOL     OW33697   4.206   2.886  15.834 -0.0503  0.4257  0.0027
 7354SOL    HW133698   4.236   2.943  15.905 -0.2545 -2.3242  2.3025
 7354SOL    HW233699   4.152   2.946  15.783 -0.0153  0.7877  0.3849
 7355SOL     OW33700   4.045   4.071   7.438 -0.5973 -0.0046 -0.2882
 7355SOL    HW133701   3.977   4.137   7.444 -0.2816  0.3771 -1.0029
 7355SOL    HW233702   4.045   4.051   7.345  4.1577  0.5102 -0.4079
 7356SOL     OW33703   4.079   2.805  15.135 -0.2898  0.0140  0.3712
 7356SOL    HW133704   4.104   2.736  15.196 -1.1928 -0.8911 -0.2888
 7356SOL    HW233705   4.132   2.879  15.164  0.8538  0.0550 -1.8375
 7357SOL     OW33706   2.386   1.619   3.539 -0.3256 -0.1272 -0.0629
 7357SOL    HW133707   2.413   1.625   3.447  0.7642 -0.2795  0.2462
 7357SOL    HW233708   2.319   1.687   3.546  1.6607  1.7958  0.2264
 7358SOL     OW33709   3.947   0.073   3.829 -0.6939  0.5657  0.1260
 7358SOL    HW133710   4.027   0.103   3.874 -0.3828  0.5159 -0.3967
 7358SOL    HW233711   3.960   4.714   3.823  0.2014  0.5475  2.4673
 7359SOL     OW33712   3.221   1.321  10.137  0.3968 -0.8854 -0.1679
 7359SOL    HW133713   3.178   1.345  10.219  0.2001  0.5418 -0.6824
 7359SOL    HW233714   3.249   1.231  10.153 -1.0615 -1.3889 -0.5439
 7360SOL     OW33715   2.382   0.315   2.515  0.4233  0.0877 -0.1424
 7360SOL    HW133716   2.417   0.227   2.500  1.2204  0.0913  1.7274
 7360SOL    HW233717   2.288   0.297   2.519  0.4682 -0.3927 -1.0652
 7361SOL     OW33718   3.741   3.957   8.688 -0.0779 -0.6778 -0.0721
 7361SOL    HW133719   3.831   3.989   8.691 -0.8556  1.5685 -1.0026
 7361SOL    HW233720   3.709   4.030   8.635 -0.2680 -2.0276 -1.8349
 7362SOL     OW33721   2.356   1.165   0.556 -0.7314  0.0432  0.5361
 7362SOL    HW133722   2.369   1.260   0.563  0.8602  0.0447 -2.1330
 7362SOL    HW233723   2.327   1.158   0.465  0.2047  4.1041 -0.0600
 7363SOL     OW33724   4.134   3.096   7.711 -0.1019  0.4496 -0.6255
 7363SOL    HW133725   4.054   3.057   7.678 -0.1530  1.2164 -1.4106
 7363SOL    HW233726   4.096   3.178   7.742  0.3702 -0.3355  2.0123
 7364SOL     OW33727   1.016   0.080   3.002  0.1660  0.5474 -1.0546
 7364SOL    HW133728   1.087   0.067   2.939 -1.8477 -3.3945 -2.5222
 7364SOL    HW233729   1.073   0.104   3.075 -2.8853  0.2320  1.4156
 7365SOL     OW33730   4.312   2.085   2.946  0.0294  0.4129 -0.0371
 7365SOL    HW133731   4.333   2.001   2.987 -1.1288  0.8050  1.3692
 7365SOL    HW233732   4.363   2.143   3.002 -0.9113  0.4079  0.8283
 7366SOL     OW33733   0.267   2.263   4.232 -0.4605  0.1488 -0.4766
 7366SOL    HW133734   0.297   2.352   4.252  0.4088 -0.3711  0.4991
 7366SOL    HW233735   0.208   2.249   4.306 -0.0617 -0.2412 -0.2349
 7367SOL     OW33736   1.527   3.294  15.914 -0.6207 -0.2541  0.2562
 7367SOL    HW133737   1.528   3.377  15.866  1.3626  0.0129  0.7809
 7367SOL    HW233738   1.584   3.233  15.867 -0.4420  0.5712 -0.6133
 7368SOL     OW33739   1.494   0.886   5.753 -0.7901  0.6486 -0.1242
 7368SOL    HW133740   1.498   0.899   5.848 -1.0059  2.9288 -0.4212
 7368SOL    HW233741   1.466   0.972   5.723 -0.5629  1.1832  1.2209
 7369SOL     OW33742   3.706   3.163   1.404 -0.1781  0.3621 -0.3040
 7369SOL    HW133743   3.645   3.107   1.452 -0.5176  1.1903  0.2332
 7369SOL    HW233744   3.760   3.095   1.365 -0.6013 -1.4317  2.2324
 7370SOL     OW33745   1.980   0.198   3.650  0.7387 -0.1828 -0.2427
 7370SOL    HW133746   2.053   0.253   3.677  2.2650 -1.7299 -1.1472
 7370SOL    HW233747   2.024   0.150   3.579  2.9773  0.1094  0.9449
 7371SOL     OW33748   1.252   2.286   2.387  0.4099  0.5126  0.2152
 7371SOL    HW133749   1.168   2.326   2.364  0.7136  0.8927 -0.2340
 7371SOL    HW233750   1.316   2.331   2.330 -1.0533 -0.0491 -1.8800
 7372SOL     OW33751   2.255   0.652   6.659 -0.2676  0.4786 -0.4506
 7372SOL    HW133752   2.310   0.646   6.737  0.0749 -0.1016 -0.7389
 7372SOL    HW233753   2.242   0.558   6.643 -3.6714  0.6609  1.3276
 7373SOL     OW33754   2.561   1.578  12.373 -0.2389 -0.7727 -0.1419
 7373SOL    HW133755   2.646   1.601  12.411 -0.9937  1.3188  0.2489
 7373SOL    HW233756   2.548   1.489  12.406  0.0712 -1.0451 -0.7532
 7374SOL     OW33757   0.578   1.205   5.242  0.1796  0.3995  0.2148
 7374SOL    HW133758   0.634   1.237   5.172  0.8859  1.4202  1.2522
 7374SOL    HW233759   0.635   1.225   5.316  1.3262 -3.4588  0.3490
 7375SOL     OW33760   3.346   2.980   9.802 -0.6688 -0.4126  0.2851
 7375SOL    HW133761   3.268   3.005   9.753 -0.2317 -0.5388 -0.4890
 7375SOL    HW233762   3.315   2.940   9.883 -0.1939  1.1151  1.2189
 7376SOL     OW33763   2.293   2.746   2.110  0.1446 -0.1537 -0.2628
 7376SOL    HW133764   2.271   2.685   2.181  0.6146  0.3025  0.2735
 7376SOL    HW233765   2.231   2.724   2.040 -0.8943  1.0339  0.2925
 7377SOL     OW33766   0.145   1.012   3.591  0.0354 -0.2458  0.7166
 7377SOL    HW133767   0.229   0.967   3.581  0.7793  1.2355  0.2939
 7377SOL    HW233768   0.120   1.045   3.505  3.5416  0.2987 -0.0947
 7378SOL     OW33769   1.593   3.972   8.081 -0.3057 -0.9135  0.1276
 7378SOL    HW133770   1.632   3.889   8.054 -0.6876 -0.7068 -1.0437
 7378SOL    HW233771   1.535   3.946   8.153 -0.0384  0.6523  0.9064
 7379SOL     OW33772   3.907   2.829   2.840 -0.2455 -0.2034  0.6492
 7379SOL    HW133773   3.818   2.839   2.873  0.1702  1.1054  1.3963
 7379SOL    HW233774   3.902   2.866   2.752  0.3671 -1.2768  0.1641
 7380SOL     OW33775   2.877   0.217   8.963 -0.3606  0.0346 -0.2361
 7380SOL    HW133776   2.833   0.208   9.048  2.4304 -0.4258  1.1461
 7380SOL    HW233777   2.890   0.312   8.963  1.7599 -0.2561  0.4068
 7381SOL     OW33778   1.690   4.218   1.630  0.2639 -0.0384 -0.4620
 7381SOL    HW133779   1.698   4.268   1.711 -0.6293  0.2886 -0.5825
 7381SOL    HW233780   1.614   4.258   1.590  0.1316 -0.6555 -0.8329
 7382SOL     OW33781   3.322   0.525   3.551 -0.2037 -0.5718 -0.2381
 7382SOL    HW133782   3.362   0.469   3.618  0.9430 -2.4578 -2.4780
 7382SOL    HW233783   3.269   0.584   3.603 -0.0214 -0.1268 -0.5566
 7383SOL     OW33784   2.525   2.584   7.132 -0.2467 -0.7931 -0.3761
 7383SOL    HW133785   2.565   2.607   7.048 -2.8409  0.4438 -1.2544
 7383SOL    HW233786   2.453   2.647   7.137  0.5517  0.0727  0.4204
 7384SOL     OW33787   1.453   0.388   2.614  0.4731  0.1047 -0.1545
 7384SOL    HW133788   1.455   0.484   2.616 -0.1626  0.1852 -3.1824
 7384SOL    HW233789   1.519   0.367   2.548  1.3932  0.8791  0.5068
 7385SOL     OW33790   1.675   0.106   3.207  0.1233  0.2490  0.5890
 7385SOL    HW133791   1.593   0.113   3.159 -0.5655  0.7167  1.8371
 7385SOL    HW233792   1.705   0.196   3.217  1.4826 -0.2513  1.0644
 7386SOL     OW33793   3.494   1.950  15.433 -0.6821  0.4486 -0.0564
 7386SOL    HW133794   3.577   1.993  15.455 -1.2804  1.9178 -0.7119
 7386SOL    HW233795   3.530   1.897  15.361  1.5354  2.8614 -0.7123
 7387SOL     OW33796   2.702   0.274  12.269  0.2082 -0.6805  0.0350
 7387SOL    HW133797   2.786   0.306  12.302  0.3982 -0.8160 -0.3174
 7387SOL    HW233798   2.647   0.330  12.324 -0.9861 -1.7035 -0.1222
 7388SOL     OW33799   2.063   2.114   4.286 -0.0617  0.0646 -0.8070
 7388SOL    HW133800   2.100   2.042   4.235 -0.4719 -1.0078  0.4233
 7388SOL    HW233801   2.135   2.177   4.278 -1.6445  1.9930  0.3245
 7389SOL     OW33802   2.719   3.646   2.147  0.0473  0.8528  0.2433
 7389SOL    HW133803   2.801   3.633   2.196  0.0734  0.7842  0.1822
 7389SOL    HW233804   2.730   3.566   2.095 -1.9139  1.5493 -1.2257
 7390SOL     OW33805   3.291   1.667   7.635  0.3812  0.1388 -0.0334
 7390SOL    HW133806   3.317   1.669   7.543 -0.3853 -2.0670 -0.2910
 7390SOL    HW233807   3.375   1.680   7.678  0.5842  0.7056 -0.6081
 7391SOL     OW33808   2.248   0.876   6.250 -0.2564 -1.0157 -0.0252
 7391SOL    HW133809   2.174   0.818   6.231 -0.5763 -0.6593  0.1152
 7391SOL    HW233810   2.239   0.892   6.344  2.0943 -1.0574  0.2114
 7392SOL     OW33811   3.714   2.569   2.769  0.5750  0.3931  0.2912
 7392SOL    HW133812   3.680   2.658   2.780 -2.0999 -0.5936 -0.0475
 7392SOL    HW233813   3.746   2.553   2.858  0.6803  1.5335  0.4521
 7393SOL     OW33814   0.983   4.346   3.177 -0.4899 -0.0406  0.1142
 7393SOL    HW133815   0.925   4.422   3.186 -0.1808  0.0664  1.1683
 7393SOL    HW233816   1.068   4.386   3.158 -1.2403  0.1882 -2.7777
 7394SOL     OW33817   2.718   1.859   0.295 -0.0226 -0.0137 -0.1409
 7394SOL    HW133818   2.692   1.905   0.216  0.8628 -0.5798 -0.7658
 7394SOL    HW233819   2.810   1.881   0.311 -0.7107  0.5682  3.1189
 7395SOL     OW33820   2.187   3.884  15.392 -0.2611  0.5909 -0.3989
 7395SOL    HW133821   2.239   3.810  15.421 -0.5767 -0.8604 -3.4809
 7395SOL    HW233822   2.118   3.902  15.456  0.6205 -0.1335  0.7433
 7396SOL     OW33823   0.093   2.321  16.042 -0.4232  0.1572 -0.1623
 7396SOL    HW133824   0.004   2.310  16.076  0.4523 -0.0293  2.0627
 7396SOL    HW233825   0.137   2.374  16.108 -2.3950 -0.9212  2.0248
 7397SOL     OW33826   3.249   4.590  14.825 -0.0797 -0.7505 -0.4097
 7397SOL    HW133827   3.248   4.527  14.753 -0.6340 -1.8058  0.5167
 7397SOL    HW233828   3.310   4.655  14.790 -1.7766  1.5311  0.8895
 7398SOL     OW33829   0.384   4.709   2.266 -0.2160 -0.1361 -0.1228
 7398SOL    HW133830   0.398   4.651   2.191 -3.4605  1.1655 -1.7311
 7398SOL    HW233831   0.315   4.665   2.315 -0.1313  2.2649  2.1125
 7399SOL     OW33832   3.206   0.375   4.119 -0.7553 -0.0434 -0.7553
 7399SOL    HW133833   3.243   0.463   4.128  0.6946 -0.6094 -1.1150
 7399SOL    HW233834   3.286   0.325   4.100 -0.7221 -0.4873  0.5473
 7400SOL     OW33835   4.124   0.705   4.151 -0.1028 -0.0935 -0.5029
 7400SOL    HW133836   4.080   0.778   4.195  2.6530 -0.5219  2.9885
 7400SOL    HW233837   4.101   0.631   4.208  0.4173 -0.1653 -0.3884
 7401SOL     OW33838   2.397   4.126   4.803  0.4611  0.7243  0.2672
 7401SOL    HW133839   2.309   4.091   4.814  1.5272 -1.4035  2.0646
 7401SOL    HW233840   2.395   4.219   4.824 -0.9666  0.2672  2.1698
 7402SOL     OW33841   1.080   0.751   7.064 -0.2414  0.0177  0.1241
 7402SOL    HW133842   1.033   0.777   7.144  1.2620 -0.1009  1.0530
 7402SOL    HW233843   1.139   0.692   7.112  0.0277  0.0116 -0.2164
 7403SOL     OW33844   0.603   3.960   7.622  0.2444  0.0844 -0.2484
 7403SOL    HW133845   0.544   4.034   7.632 -1.3312 -1.4148  1.6669
 7403SOL    HW233846   0.687   4.005   7.624 -0.3718  1.1708  1.2486
 7404SOL     OW33847   3.073   2.971   2.326 -0.2301 -0.8510 -0.2580
 7404SOL    HW133848   3.103   2.901   2.383  1.3642  1.6333  1.9328
 7404SOL    HW233849   3.087   3.047   2.383 -0.0033 -2.7586  2.2162
 7405SOL     OW33850   4.259   4.546   4.353 -0.4310  0.2866 -0.2386
 7405SOL    HW133851   4.289   4.629   4.315  0.8089 -1.7492 -3.7277
 7405SOL    HW233852   4.247   4.576   4.444 -1.1530  1.1495 -0.6169
 7406SOL     OW33853   0.832   4.701   9.713 -0.5070 -0.3053 -0.2195
 7406SOL    HW133854   0.812   4.628   9.655 -0.9642 -0.5499  0.2451
 7406SOL    HW233855   0.760   4.706   9.776 -0.7389 -2.5785 -0.3295
 7407SOL     OW33856   1.766   2.311   6.293  0.2353  0.2336  0.5176
 7407SOL    HW133857   1.755   2.306   6.198  1.5996  0.5604  0.3411
 7407SOL    HW233858   1.861   2.314   6.304  0.3086  0.8820 -0.2783
 7408SOL     OW33859   1.163   2.155   7.468  0.0778  0.2714  0.4409
 7408SOL    HW133860   1.152   2.250   7.461 -1.2746  0.1865  1.4124
 7408SOL    HW233861   1.240   2.144   7.412  0.0226 -2.1683  0.8569
 7409SOL     OW33862   1.868   0.400   5.983  0.2432 -0.1180  0.1026
 7409SOL    HW133863   1.833   0.407   6.072  2.0871  2.2460  0.6470
 7409SOL    HW233864   1.833   0.481   5.947  1.2331 -0.6254 -2.0079
 7410SOL     OW33865   1.308   3.948   4.478  0.6252  0.6132 -0.2048
 7410SOL    HW133866   1.216   3.923   4.468  0.9457 -0.5288 -0.3026
 7410SOL    HW233867   1.320   3.928   4.571  0.0112 -0.8370 -0.4346
 7411SOL     OW33868   1.813   2.945   8.146  1.1944  0.1178 -0.5395
 7411SOL    HW133869   1.834   2.998   8.222  0.0597 -0.5990  0.2809
 7411SOL    HW233870   1.751   2.997   8.095  1.7330  0.9771 -0.3203
 7412SOL     OW33871   1.325   1.317   2.016  0.2551 -0.2598  0.1889
 7412SOL    HW133872   1.292   1.378   2.081 -0.9931 -0.7576  0.0472
 7412SOL    HW233873   1.294   1.234   2.052 -0.4006 -0.1930 -0.2047
 7413SOL     OW33874   3.421   2.337  13.343 -0.0181 -0.3236  0.2951
 7413SOL    HW133875   3.506   2.376  13.362  0.6368 -1.0364 -1.2143
 7413SOL    HW233876   3.421   2.365  13.251  3.6386  3.5355  1.4653
 7414SOL     OW33877   2.269   4.481   6.562  0.3733 -0.0891 -0.6538
 7414SOL    HW133878   2.277   4.541   6.636  0.1579 -0.7656 -0.0831
 7414SOL    HW233879   2.249   4.549   6.498 -1.3564 -0.1812 -0.1975
 7415SOL     OW33880   2.476   1.848   6.543 -0.1365 -0.5430  0.3837
 7415SOL    HW133881   2.514   1.760   6.539  2.1674  0.4973 -0.6452
 7415SOL    HW233882   2.551   1.892   6.582 -1.1760  0.4893  1.1953
 7416SOL     OW33883   1.468   3.989   3.324 -0.1185 -0.2966 -0.3239
 7416SOL    HW133884   1.424   4.074   3.318 -2.4589 -1.3166  2.2344
 7416SOL    HW233885   1.387   3.938   3.325 -0.6382  0.5157 -1.5124
 7417SOL     OW33886   1.020   1.338  11.399  0.1965  0.0057  0.2772
 7417SOL    HW133887   0.944   1.367  11.348  1.2348  0.5945 -0.9341
 7417SOL    HW233888   0.978   1.346  11.484  1.6371  3.4300  0.6396
 7418SOL     OW33889   0.358   1.605  13.141 -0.7710  0.2342  0.2304
 7418SOL    HW133890   0.280   1.561  13.106 -0.5378  2.3805 -2.9764
 7418SOL    HW233891   0.387   1.542  13.207  0.1363 -1.8923 -2.2442
 7419SOL     OW33892   1.613   2.961  12.228  0.5439  0.1016  0.3594
 7419SOL    HW133893   1.537   2.938  12.175 -0.3987 -0.8662  2.1270
 7419SOL    HW233894   1.604   3.055  12.212 -0.4228  0.0668  0.6940
 7420SOL     OW33895   3.575   0.274   8.668  0.1132 -0.4928  0.4323
 7420SOL    HW133896   3.523   0.197   8.690 -1.1279  0.7058  1.7282
 7420SOL    HW233897   3.647   0.274   8.731 -0.6938  0.9893  1.3578
 7421SOL     OW33898   0.016   1.751   3.032 -0.2539  0.5432 -0.2211
 7421SOL    HW133899   0.104   1.786   3.020 -0.1490  0.8793  1.5079
 7421SOL    HW233900   0.029   1.656   3.032 -1.8933  0.3236 -1.5772
 7422SOL     OW33901   3.902   3.831   5.813 -0.1743  0.0099 -0.1231
 7422SOL    HW133902   3.899   3.921   5.846  0.0729  0.0748 -0.2763
 7422SOL    HW233903   3.966   3.830   5.742 -0.0158 -1.6585  0.0501
 7423SOL     OW33904   1.302   4.289   4.179  0.3529  0.0896  0.1609
 7423SOL    HW133905   1.338   4.201   4.184  0.9952  0.3281 -0.3102
 7423SOL    HW233906   1.311   4.319   4.269 -1.0744 -0.0976  0.3722
 7424SOL     OW33907   3.346   1.373   0.491 -0.0302 -0.0955 -0.3207
 7424SOL    HW133908   3.394   1.434   0.435  0.7040  0.3657  0.8357
 7424SOL    HW233909   3.399   1.386   0.569 -0.0147  2.7271 -0.7789
 7425SOL     OW33910   1.109   0.625   5.637  0.2661 -0.2367 -0.1952
 7425SOL    HW133911   1.025   0.578   5.639  1.4322 -2.2201  1.8527
 7425SOL    HW233912   1.131   0.628   5.544 -0.3324  0.4895 -0.3116
 7426SOL     OW33913   2.572   0.402  17.514  0.5253  0.0874 -0.4441
 7426SOL    HW133914   2.478   0.421  17.512  0.2864 -0.8465  2.2516
 7426SOL    HW233915   2.605   0.471  17.457 -0.9300  0.1917 -1.1630
 7427SOL     OW33916   3.280   2.525   6.831  0.7601 -0.5092  0.1311
 7427SOL    HW133917   3.365   2.550   6.868 -0.0230 -0.1901  1.6860
 7427SOL    HW233918   3.323   2.503   6.748  1.5350 -2.5663  1.0815
 7428SOL     OW33919   0.389   4.075   6.884  0.2536 -0.3997 -0.0732
 7428SOL    HW133920   0.371   4.169   6.892  1.3905 -0.1657 -0.2199
 7428SOL    HW233921   0.301   4.053   6.913  0.5173 -1.9899 -0.4929
 7429SOL     OW33922   1.726   3.841  17.672 -0.1549 -0.0670  0.1424
 7429SOL    HW133923   1.697   3.896   0.005  1.6317  1.5769 -0.3854
 7429SOL    HW233924   1.741   3.756  17.714 -1.2083 -0.9398 -1.2731
 7430SOL     OW33925   1.212   4.155   0.456 -0.5481  0.0750  0.4154
 7430SOL    HW133926   1.233   4.076   0.406 -0.3863 -0.6503  1.6168
 7430SOL    HW233927   1.215   4.123   0.546 -0.3404 -1.8013 -0.2587
 7431SOL     OW33928   2.462   1.249  13.730  0.6327  0.3918 -0.3858
 7431SOL    HW133929   2.374   1.284  13.747  1.0434  1.8585 -1.3279
 7431SOL    HW233930   2.469   1.180  13.796 -0.9665 -0.4797 -1.1008
 7432SOL     OW33931   0.675   2.791   7.550  0.1624  0.2533  0.3785
 7432SOL    HW133932   0.692   2.709   7.504 -0.8943 -1.0898  2.3889
 7432SOL    HW233933   0.701   2.770   7.640  2.3355  3.6720  0.5519
 7433SOL     OW33934   0.413   2.037  14.520  0.1606  0.5728  0.0542
 7433SOL    HW133935   0.449   2.115  14.562  1.2638 -0.2866  0.7300
 7433SOL    HW233936   0.443   1.959  14.568 -1.9698  0.2202  0.8254
 7434SOL     OW33937   2.224   2.101  17.290 -0.0153 -1.0663 -0.3283
 7434SOL    HW133938   2.312   2.069  17.309  0.1076 -0.4593  0.1583
 7434SOL    HW233939   2.212   2.097  17.196  0.9424  1.5198 -0.5679
 7435SOL     OW33940   4.441   1.081   3.684  0.2484 -0.4698 -0.5972
 7435SOL    HW133941   4.347   1.067   3.669  0.5022 -1.2622 -1.4398
 7435SOL    HW233942   4.461   1.008   3.742 -1.3695 -0.4249  0.0086
 7436SOL     OW33943   1.790   2.240   7.851  0.7568  0.0777  0.7203
 7436SOL    HW133944   1.710   2.195   7.875 -0.3288  1.1591 -0.8499
 7436SOL    HW233945   1.809   2.288   7.932 -1.5976  0.1776  1.2154
 7437SOL     OW33946   3.232   3.401  16.342  0.3155  0.2864 -0.2746
 7437SOL    HW133947   3.167   3.396  16.412  0.9406 -1.0389  0.2208
 7437SOL    HW233948   3.310   3.367  16.388  0.2428  0.4815 -0.0096
 7438SOL     OW33949   0.734   3.294  14.012  0.5039 -0.1936 -0.2753
 7438SOL    HW133950   0.734   3.199  14.023  2.8094 -0.6130 -3.8077
 7438SOL    HW233951   0.758   3.313  13.921  1.4393 -0.8776 -0.1703
 7439SOL     OW33952   0.357   1.490   3.316 -0.3843 -0.9519  0.4523
 7439SOL    HW133953   0.293   1.532   3.374  0.3153 -2.1993  2.1267
 7439SOL    HW233954   0.440   1.503   3.362  0.0221 -0.0624 -0.5295
 7440SOL     OW33955   0.426   1.636   3.851  0.2478 -0.1620  0.4017
 7440SOL    HW133956   0.511   1.679   3.852  0.9105 -1.4850  0.8765
 7440SOL    HW233957   0.413   1.609   3.943 -0.6799  1.1553  0.6579
 7441SOL     OW33958   2.502   3.361  15.958 -0.0934  0.0436  0.2312
 7441SOL    HW133959   2.568   3.342  16.024  1.2542  2.5893 -0.3688
 7441SOL    HW233960   2.546   3.335  15.876 -0.2801  1.2243 -0.2457
 7442SOL     OW33961   2.034   1.566  10.140 -0.2984 -0.1466 -0.4372
 7442SOL    HW133962   2.030   1.661  10.128  1.6925  0.3504  2.9237
 7442SOL    HW233963   1.945   1.546  10.167  0.0251  0.3599  0.9577
 7443SOL     OW33964   0.716   1.358   4.941 -0.0971 -0.1137  0.5007
 7443SOL    HW133965   0.793   1.302   4.951  0.0728  0.3002  1.5613
 7443SOL    HW233966   0.646   1.294   4.928 -0.5922  1.0505 -2.5235
 7444SOL     OW33967   0.612   2.676   9.120 -0.7112 -0.4025  0.4036
 7444SOL    HW133968   0.546   2.654   9.054  3.0917 -0.1634 -3.4787
 7444SOL    HW233969   0.682   2.717   9.068  0.7070 -1.6891  1.3076
 7445SOL     OW33970   0.707   1.739  17.273  0.6530  0.2684  0.6912
 7445SOL    HW133971   0.741   1.660  17.314 -0.9813 -1.0298 -0.4562
 7445SOL    HW233972   0.774   1.804  17.296 -1.6849  3.1943 -0.6721
 7446SOL     OW33973   1.299   0.341   7.611 -0.6513 -0.0986 -0.2721
 7446SOL    HW133974   1.323   0.331   7.519 -1.9853  1.4038 -0.8065
 7446SOL    HW233975   1.211   0.302   7.613 -0.0010 -1.4690  1.5810
 7447SOL     OW33976   1.541   0.426   5.025  0.1361  0.1735  0.1124
 7447SOL    HW133977   1.603   0.432   4.952  0.8527 -0.0644  0.7048
 7447SOL    HW233978   1.464   0.470   4.987  0.7688  0.1011 -1.2479
 7448SOL     OW33979   4.253   1.716  11.344  0.2086  0.0536 -0.4042
 7448SOL    HW133980   4.344   1.746  11.350 -0.4011  1.4455  2.1633
 7448SOL    HW233981   4.209   1.797  11.370 -2.4974 -1.3742 -0.5745
 7449SOL     OW33982   3.048   3.876   0.077  0.7088  0.0779 -0.0457
 7449SOL    HW133983   3.017   3.799   0.124  2.5290  1.2375  3.0507
 7449SOL    HW233984   3.143   3.863   0.071  0.8303  1.0406 -0.1991
 7450SOL     OW33985   1.477   0.248   7.041  0.6342 -0.5434  0.0145
 7450SOL    HW133986   1.499   0.337   7.069  2.4016 -0.2560 -2.3778
 7450SOL    HW233987   1.433   0.259   6.957 -0.8830 -0.4763  0.8015
 7451SOL     OW33988   3.214   1.173   2.737  0.5328 -0.1344 -0.0770
 7451SOL    HW133989   3.124   1.174   2.768  0.3213 -1.5331 -0.6980
 7451SOL    HW233990   3.234   1.263   2.710 -1.2146  0.2048 -0.1824
 7452SOL     OW33991   2.099   1.852   7.396 -0.2223  0.2049 -0.4317
 7452SOL    HW133992   2.007   1.860   7.373  0.2260  0.6161 -2.0996
 7452SOL    HW233993   2.106   1.919   7.464 -1.2405 -0.5130  0.3677
 7453SOL     OW33994   3.348   2.263  16.915  0.3821 -0.1353  0.5161
 7453SOL    HW133995   3.405   2.325  16.960 -0.7301  0.5443  1.0085
 7453SOL    HW233996   3.403   2.216  16.852 -1.2590  0.2672 -1.2102
 7454SOL     OW33997   1.914   3.489   6.627 -0.5176  0.2032 -0.0442
 7454SOL    HW133998   1.969   3.429   6.575 -1.1285  0.5079 -1.0365
 7454SOL    HW233999   1.903   3.441   6.709 -0.1168  0.6425  0.2674
 7455SOL     OW34000   3.164   4.129   1.843  0.4129  0.3843  0.0505
 7455SOL    HW134001   3.143   4.041   1.812  2.5657 -0.0442 -0.2052
 7455SOL    HW234002   3.129   4.183   1.772  0.6528 -0.1250 -0.4608
 7456SOL     OW34003   4.496   3.585  17.422 -0.4641  0.2568  0.6952
 7456SOL    HW134004   4.543   3.669  17.418  0.7393 -0.4704 -0.2810
 7456SOL    HW234005   4.412   3.614  17.386 -0.4825 -2.2026 -1.2079
 7457SOL     OW34006   0.289   2.463   8.459  0.5281  0.4164 -0.2962
 7457SOL    HW134007   0.211   2.464   8.404 -0.6456  2.0408  1.4013
 7457SOL    HW234008   0.282   2.372   8.488  2.6727  0.1934 -0.5099
 7458SOL     OW34009   0.569   0.138   4.613  0.2197  0.2932  1.0138
 7458SOL    HW134010   0.640   0.160   4.673  0.3041  0.9763  0.6612
 7458SOL    HW234011   0.500   0.167   4.672  0.2957  2.1860  0.1658
 7459SOL     OW34012   0.025   0.391   7.209 -0.5463 -0.3154 -0.1711
 7459SOL    HW134013   4.714   0.307   7.215  0.8349 -0.9293  1.8054
 7459SOL    HW234014   0.076   0.385   7.290  0.7269  1.7434 -0.8489
 7460SOL     OW34015   0.375   4.018   1.289  0.2083  0.2655 -0.1368
 7460SOL    HW134016   0.294   4.000   1.336  1.2978 -0.0777  1.5974
 7460SOL    HW234017   0.440   3.962   1.332 -0.5001  0.6370  1.3966
 7461SOL     OW34018   3.734   3.894  15.905 -0.0497 -0.1491  0.5330
 7461SOL    HW134019   3.650   3.935  15.927  0.5775  1.9561 -1.0122
 7461SOL    HW234020   3.779   3.896  15.990  1.3564  0.3724 -0.2372
 7462SOL     OW34021   2.110   1.422   8.509 -0.7598  0.0497  0.2415
 7462SOL    HW134022   2.123   1.517   8.511 -1.8107  0.1941  0.2733
 7462SOL    HW234023   2.083   1.412   8.601  2.0829  1.1335  1.1951
 7463SOL     OW34024   4.100   1.160   6.699  0.2402  0.4312 -0.3830
 7463SOL    HW134025   4.060   1.074   6.714  1.4785  0.2437  1.9436
 7463SOL    HW234026   4.106   1.160   6.604 -1.6842 -3.2452 -0.4962
 7464SOL     OW34027   0.996   3.577   6.432 -0.3877 -0.0528  0.3945
 7464SOL    HW134028   1.000   3.623   6.515  0.3576  1.2145 -0.3418
 7464SOL    HW234029   1.029   3.489   6.451 -1.7457 -0.0628  2.6651
 7465SOL     OW34030   4.454   1.533   5.663  0.0494 -0.1175 -0.0776
 7465SOL    HW134031   4.379   1.570   5.617  1.6273  3.1829 -0.0074
 7465SOL    HW234032   4.410   1.468   5.718  0.8635 -1.3341 -0.8704
 7466SOL     OW34033   3.890   0.946   6.666  0.5059  0.1649 -0.3564
 7466SOL    HW134034   3.824   1.016   6.670 -1.1016 -1.3961  0.1431
 7466SOL    HW234035   3.882   0.918   6.575  3.5891 -0.9017 -0.2905
 7467SOL     OW34036   3.074   0.758  15.577 -0.4823  0.2874 -0.0893
 7467SOL    HW134037   3.069   0.846  15.539  0.8439 -0.0363 -0.9952
 7467SOL    HW234038   3.031   0.769  15.662  0.7924  2.6222  0.2588
 7468SOL     OW34039   4.717   3.305   8.620 -0.0577  0.0567  0.3867
 7468SOL    HW134040   4.653   3.240   8.591  1.0540 -0.8599 -0.0016
 7468SOL    HW234041   4.673   3.384   8.588 -0.0145 -0.1745 -0.2343
 7469SOL     OW34042   4.580   1.305  17.374  0.1955 -0.2718  0.0260
 7469SOL    HW134043   4.615   1.217  17.361 -0.9945 -0.9421  1.4627
 7469SOL    HW234044   4.663   1.352  17.386  0.3803 -0.6768  0.3355
 7470SOL     OW34045   4.249   0.118   7.597  0.2251  0.3787 -0.1272
 7470SOL    HW134046   4.187   0.190   7.609  0.1407  0.2090  0.4505
 7470SOL    HW234047   4.280   0.090   7.683  1.5949 -1.2389 -1.1329
 7471SOL     OW34048   1.381   4.456  16.564 -0.5228  0.0643  0.2406
 7471SOL    HW134049   1.309   4.422  16.511  1.3267 -0.1367 -2.1690
 7471SOL    HW234050   1.341   4.457  16.651  1.6223  0.2208  1.2346
 7472SOL     OW34051   2.242   3.064  10.831  0.1088 -0.0479  0.5016
 7472SOL    HW134052   2.217   3.088  10.742 -3.4573  1.0919  1.7924
 7472SOL    HW234053   2.246   3.151  10.870  0.5480 -0.4407  1.3185
 7473SOL     OW34054   4.593   2.575   6.760 -0.2952 -0.6520 -0.6836
 7473SOL    HW134055   4.660   2.538   6.702  1.1396 -1.6019  1.6058
 7473SOL    HW234056   4.635   2.650   6.802 -1.9664  1.3036 -2.5124
 7474SOL     OW34057   4.616   2.433  15.194 -0.3670  0.0563  0.1192
 7474SOL    HW134058   4.560   2.366  15.232 -0.9563 -0.2714 -1.3477
 7474SOL    HW234059   4.618   2.397  15.106 -1.6779 -1.1107  0.5788
 7475SOL     OW34060   2.115   2.825  17.612  0.3012  0.1569 -0.0939
 7475SOL    HW134061   2.076   2.750  17.568  2.2097 -1.3382  0.8100
 7475SOL    HW234062   2.053   2.887  17.573  1.1554  0.5016 -0.9032
 7476SOL     OW34063   2.208   4.578   0.615  0.1363  0.0843  0.0538
 7476SOL    HW134064   2.200   4.542   0.703 -2.0464  1.2221  0.3171
 7476SOL    HW234065   2.167   4.662   0.634  0.4167  0.4701 -1.0266
 7477SOL     OW34066   0.067   3.120   0.713  0.1735  0.7155  0.4786
 7477SOL    HW134067   4.728   3.142   0.769 -0.8238 -1.5164  0.0543
 7477SOL    HW234068   0.026   3.056   0.655 -0.2545 -0.5643  2.1803
 7478SOL     OW34069   3.452   1.420   3.625 -0.0089  0.7412 -0.7120
 7478SOL    HW134070   3.438   1.346   3.565  0.5276  0.6908 -0.7775
 7478SOL    HW234071   3.366   1.457   3.609  0.7693  2.5472 -0.6967
 7479SOL     OW34072   3.028   3.551   8.683  0.4618  0.3679  0.4335
 7479SOL    HW134073   2.964   3.483   8.664  1.0141  0.4870 -1.8224
 7479SOL    HW234074   3.048   3.570   8.592 -3.3724  1.7516 -0.1540
 7480SOL     OW34075   1.827   2.159   9.471 -0.4192 -0.8328 -0.3971
 7480SOL    HW134076   1.920   2.167   9.494 -0.5896  0.0495 -0.0296
 7480SOL    HW234077   1.829   2.208   9.389 -0.0286 -2.0076 -1.0879
 7481SOL     OW34078   2.570   4.672   8.582 -0.4024  0.5312  0.3450
 7481SOL    HW134079   2.495   4.644   8.529  0.5343 -0.4543 -0.4689
 7481SOL    HW234080   2.521   4.706   8.657 -0.4726  0.1143  0.4874
 7482SOL     OW34081   1.362   2.320   8.612 -0.1952 -0.2231  0.5742
 7482SOL    HW134082   1.407   2.236   8.600  0.2033  0.3259 -1.6889
 7482SOL    HW234083   1.420   2.371   8.556 -0.2854  1.0389  1.6316
 7483SOL     OW34084   3.442   1.178  17.617 -0.5055 -0.3440 -0.1605
 7483SOL    HW134085   3.416   1.254  17.668 -1.3968 -0.2509 -0.7577
 7483SOL    HW234086   3.533   1.163  17.643 -0.7478  0.1952  1.0066
 7484SOL     OW34087   1.544   3.987   5.702 -0.2210  0.2737 -0.3323
 7484SOL    HW134088   1.571   3.988   5.793 -4.8579 -1.9234  1.0334
 7484SOL    HW234089   1.474   3.923   5.710  0.8534 -0.8875 -0.1913
 7485SOL     OW34090   4.683   4.681   2.097 -0.0024  0.2110 -0.6659
 7485SOL    HW134091   4.628   0.018   2.128 -1.4279 -1.8925  1.7252
 7485SOL    HW234092   4.621   4.636   2.039  0.2010  0.5402 -1.1323
 7486SOL     OW34093   4.032   1.695   7.486  0.4858 -0.2160 -0.3355
 7486SOL    HW134094   4.025   1.790   7.494  0.7091 -0.3774  1.8441
 7486SOL    HW234095   4.123   1.689   7.456 -0.0434 -1.6402 -1.6374
 7487SOL     OW34096   3.708   2.641  14.877 -0.0199 -0.1718 -0.4578
 7487SOL    HW134097   3.704   2.735  14.894  1.1880  0.4207 -3.5529
 7487SOL    HW234098   3.794   2.615  14.909  0.2036  1.4358  0.2303
 7488SOL     OW34099   3.785   2.570   4.263  0.5305 -0.4432  0.0470
 7488SOL    HW134100   3.699   2.581   4.221  0.3901  0.1309  0.4779
 7488SOL    HW234101   3.769   2.550   4.355  1.6444 -0.4877  0.2272
 7489SOL     OW34102   0.815   1.823  16.424  0.3024  0.0995  0.3872
 7489SOL    HW134103   0.903   1.847  16.394  0.4831  2.2498  2.6127
 7489SOL    HW234104   0.772   1.888  16.368  0.9250  2.1253  2.2684
 7490SOL     OW34105   0.243   1.226  17.422  0.6786  0.3790  0.0922
 7490SOL    HW134106   0.211   1.291  17.485  0.1528  1.4761 -1.3033
 7490SOL    HW234107   0.281   1.279  17.352 -0.4360  0.8817 -0.1305
 7491SOL     OW34108   4.720   2.708  17.727  0.3988 -0.2813  0.3611
 7491SOL    HW134109   0.030   2.692   0.069 -1.2694 -1.0021  1.1524
 7491SOL    HW234110   0.060   2.735  17.675 -0.5538 -1.2319 -1.5181
 7492SOL     OW34111   2.342   1.885  11.639 -0.2347  0.4156  0.4254
 7492SOL    HW134112   2.267   1.835  11.607  1.4994 -0.7838 -1.7449
 7492SOL    HW234113   2.391   1.922  11.566 -0.2569 -0.3903  0.0018
 7493SOL     OW34114   3.347   3.644   4.704 -0.5491 -0.6132  0.3258
 7493SOL    HW134115   3.398   3.715   4.666 -0.3728 -0.1409  1.4419
 7493SOL    HW234116   3.286   3.700   4.752 -1.0450 -0.1126 -0.8981
 7494SOL     OW34117   2.374   1.719  15.042  0.4992 -0.7304 -0.6437
 7494SOL    HW134118   2.402   1.636  15.002 -1.4299 -1.1123 -1.2140
 7494SOL    HW234119   2.312   1.690  15.109 -1.3651  1.9463 -1.2544
 7495SOL     OW34120   3.083   3.502   8.401  0.2409 -0.5108  0.2522
 7495SOL    HW134121   3.166   3.548   8.388 -0.0530  0.3352  1.3395
 7495SOL    HW234122   3.102   3.421   8.354  2.0473 -0.1980  0.4668
 7496SOL     OW34123   1.179   2.645   1.019 -0.0092 -0.1930 -0.0818
 7496SOL    HW134124   1.088   2.652   1.047  0.2399 -3.0166  1.4044
 7496SOL    HW234125   1.173   2.586   0.943  0.3725  1.1023 -1.1296
 7497SOL     OW34126   3.191   4.261  13.214  0.4800  0.2426 -0.1474
 7497SOL    HW134127   3.239   4.221  13.286  1.1376 -1.7094 -1.6439
 7497SOL    HW234128   3.122   4.306  13.262  0.9253  1.2971 -0.5082
 7498SOL     OW34129   4.658   1.928   8.157 -0.2091 -0.4688  0.4247
 7498SOL    HW134130   4.658   1.833   8.165  3.8197 -0.4920 -0.1010
 7498SOL    HW234131   4.690   1.953   8.244 -1.1681 -1.3103  1.0270
 7499SOL     OW34132   4.017   4.391   1.582 -0.1400 -0.1070  0.0862
 7499SOL    HW134133   4.018   4.295   1.588  0.2903 -0.1025  0.0705
 7499SOL    HW234134   3.993   4.403   1.490 -0.2833 -0.8423  0.0315
 7500SOL     OW34135   0.180   2.679   2.487  0.3537 -0.8399  0.1002
 7500SOL    HW134136   0.185   2.677   2.392  0.7031 -1.2058  0.1253
 7500SOL    HW234137   0.269   2.648   2.502  0.2086 -1.5649 -0.5459
 7501SOL     OW34138   3.950   2.388   4.138 -0.4567  0.5277 -0.2023
 7501SOL    HW134139   3.882   2.451   4.162 -0.6222  0.3107 -0.1039
 7501SOL    HW234140   3.953   2.343   4.223  1.4020  0.1167 -0.4770
 7502SOL     OW34141   0.851   3.295   8.518  0.3565  0.0769  0.2075
 7502SOL    HW134142   0.855   3.390   8.513  0.5575  0.0351 -0.5267
 7502SOL    HW234143   0.837   3.280   8.611 -2.6392  0.8758 -0.1309
 7503SOL     OW34144   1.192   2.851   4.435  0.0824  0.7306  0.1106
 7503SOL    HW134145   1.245   2.787   4.482 -0.7616  0.4115  0.6284
 7503SOL    HW234146   1.165   2.911   4.505  0.3254 -0.1662  0.9652
 7504SOL     OW34147   0.800   1.497  17.400 -0.1871  0.3470  0.0215
 7504SOL    HW134148   0.764   1.414  17.432 -0.9968  0.6256 -0.1738
 7504SOL    HW234149   0.816   1.475  17.308 -2.4089  2.5154 -0.8945
 7505SOL     OW34150   1.844   3.341  16.014 -0.1751  0.2288  1.1140
 7505SOL    HW134151   1.932   3.303  16.015  1.1540  3.2666 -1.8626
 7505SOL    HW234152   1.809   3.303  15.934 -1.4351  1.2161  1.1993
 7506SOL     OW34153   1.301   0.765   7.946  0.3029  0.0340 -0.5092
 7506SOL    HW134154   1.306   0.749   7.851 -1.5531  1.0338 -0.7578
 7506SOL    HW234155   1.362   0.694   7.967 -0.3083 -0.3998 -0.2017
 7507SOL     OW34156   0.818   1.476  12.717 -0.1690  0.2197  0.3075
 7507SOL    HW134157   0.908   1.505  12.727 -0.4658  1.5444 -0.7336
 7507SOL    HW234158   0.769   1.552  12.684  2.4356  1.9263  0.4271
 7508SOL     OW34159   4.235   0.811   7.695 -0.3508 -0.2315 -0.2593
 7508SOL    HW134160   4.225   0.768   7.781 -0.3153 -0.5497 -0.4149
 7508SOL    HW234161   4.143   0.810   7.667 -0.4773  2.9852  0.0956
 7509SOL     OW34162   1.200   4.702   4.328 -0.6411 -0.0986 -0.0526
 7509SOL    HW134163   1.152   0.028   4.383  1.3065 -0.5478  2.1458
 7509SOL    HW234164   1.251   4.677   4.404 -0.1463 -0.5166 -0.5223
 7510SOL     OW34165   3.581   0.246  10.113  0.3700  0.1598  0.2374
 7510SOL    HW134166   3.517   0.267  10.045  2.7706 -0.2790 -2.1598
 7510SOL    HW234167   3.567   0.321  10.171 -2.7535 -0.8786  0.8136
 7511SOL     OW34168   2.586   3.021  16.153  0.0338  0.8799  0.6417
 7511SOL    HW134169   2.592   3.111  16.123 -1.4224  0.6188 -0.4394
 7511SOL    HW234170   2.521   2.987  16.092  1.5457 -0.1468 -0.3872
 7512SOL     OW34171   1.465   2.259   7.015 -0.6328 -0.2299  0.4115
 7512SOL    HW134172   1.511   2.270   7.099 -0.0567  1.6877 -0.1468
 7512SOL    HW234173   1.539   2.246   6.955 -0.0941  0.3875  0.9435
 7513SOL     OW34174   4.615   3.140  11.762  0.0669 -0.8013  0.3532
 7513SOL    HW134175   4.546   3.074  11.766 -0.4964 -0.0244  3.4773
 7513SOL    HW234176   4.695   3.088  11.761  0.7679  0.2776 -0.3894
 7514SOL     OW34177   4.518   1.191   0.177  0.1256 -0.0227 -0.1537
 7514SOL    HW134178   4.446   1.138   0.142 -1.1507  0.6830  1.3618
 7514SOL    HW234179   4.509   1.263   0.115 -1.1650 -0.3240 -0.3151
 7515SOL     OW34180   2.634   1.090   0.615 -0.0354 -0.3673 -0.3224
 7515SOL    HW134181   2.552   1.057   0.651  0.5260 -2.4175 -0.8971
 7515SOL    HW234182   2.633   1.063   0.523 -3.3383  1.5205 -0.7973
 7516SOL     OW34183   4.202   2.612   6.884 -0.1224 -0.3913  0.7773
 7516SOL    HW134184   4.162   2.677   6.825 -2.6480 -2.9429 -0.3318
 7516SOL    HW234185   4.249   2.553   6.826 -0.8269 -1.0653  0.8824
 7517SOL     OW34186   3.072   4.263   9.397 -0.1050  0.5696 -0.4440
 7517SOL    HW134187   2.983   4.297   9.407 -0.6216  0.1088 -3.6133
 7517SOL    HW234188   3.054   4.170   9.414  2.0932  0.0082 -1.1607
 7518SOL     OW34189   0.519   0.246   3.363  0.5587  0.3062  0.0136
 7518SOL    HW134190   0.504   0.173   3.422 -1.0380  0.0295 -0.7270
 7518SOL    HW234191   0.461   0.308   3.407 -0.6798 -1.5353  0.9737
 7519SOL     OW34192   3.424   0.169   4.268  0.4220  0.3176  0.0648
 7519SOL    HW134193   3.407   0.092   4.213  1.4510  0.5284 -0.5564
 7519SOL    HW234194   3.384   0.131   4.347  0.6326 -0.0558 -0.0062
 7520SOL     OW34195   0.378   2.170  12.076 -0.0287  0.2077 -0.2001
 7520SOL    HW134196   0.297   2.147  12.123  1.3420 -1.3602  1.3940
 7520SOL    HW234197   0.442   2.110  12.113 -0.3905  0.8805  1.5290
 7521SOL     OW34198   2.022   0.171  14.070  0.1559 -0.2360  0.1645
 7521SOL    HW134199   2.060   0.256  14.090  0.8799 -1.0723  2.3053
 7521SOL    HW234200   2.021   0.145  14.162 -1.6356 -2.2611 -0.4189
 7522SOL     OW34201   1.380   4.546   6.900 -0.1529 -0.1084 -0.8195
 7522SOL    HW134202   1.385   4.486   6.974  3.3368  0.3223 -0.6670
 7522SOL    HW234203   1.400   4.633   6.934 -1.0813 -0.4313  0.5101
 7523SOL     OW34204   1.473   2.535   7.287  0.4287 -0.1091 -0.4216
 7523SOL    HW134205   1.433   2.606   7.236  2.2298  2.3604  1.6243
 7523SOL    HW234206   1.556   2.533   7.240  0.2209 -0.8439 -0.7656
 7524SOL     OW34207   0.382   0.530  15.970  0.5838  0.0256 -0.0025
 7524SOL    HW134208   0.295   0.563  15.950  1.0094  0.7169 -0.7350
 7524SOL    HW234209   0.370   0.456  16.029 -2.7228  1.0297  0.5520
 7525SOL     OW34210   0.363   1.423   9.660  0.1728 -0.6558 -0.3397
 7525SOL    HW134211   0.349   1.335   9.626  0.9354  0.2347 -2.9529
 7525SOL    HW234212   0.433   1.447   9.598  1.0058 -1.5120  0.2679
 7526SOL     OW34213   1.932   3.217   6.607  0.1566  0.2222 -0.5123
 7526SOL    HW134214   1.853   3.241   6.558  0.3896 -1.7820 -1.8542
 7526SOL    HW234215   1.891   3.153   6.666 -0.6727  0.7391 -0.5185
 7527SOL     OW34216   0.842   2.625   3.902 -0.2405  0.2205 -0.1213
 7527SOL    HW134217   0.908   2.649   3.836 -0.6287  0.4583 -0.4249
 7527SOL    HW234218   0.767   2.607   3.846 -0.9425 -0.2195  0.9722
 7528SOL     OW34219   0.515   0.991   4.208  0.2307 -0.0091 -0.0981
 7528SOL    HW134220   0.590   1.051   4.206 -1.0605  1.5096 -2.8382
 7528SOL    HW234221   0.523   0.957   4.297 -2.4391  1.9373  0.8948
 7529SOL     OW34222   2.996   3.788   3.290 -0.4842  0.2253  0.3776
 7529SOL    HW134223   3.033   3.701   3.278 -0.7456  0.4776 -2.2293
 7529SOL    HW234224   3.047   3.818   3.366  0.2654  0.8820 -0.3857
 7530SOL     OW34225   3.261   2.792  12.803  0.2419  0.0379 -0.3027
 7530SOL    HW134226   3.183   2.782  12.858 -0.7121  0.8064 -1.5020
 7530SOL    HW234227   3.235   2.750  12.721 -0.1760  1.6319 -0.9916
 7531SOL     OW34228   1.710   2.296   5.498 -0.2207 -0.0794  0.0315
 7531SOL    HW134229   1.775   2.322   5.564 -0.4881  0.9441 -0.1056
 7531SOL    HW234230   1.656   2.239   5.552  0.2271 -1.8505 -1.3982
 7532SOL     OW34231   2.533   2.697   5.734 -0.0469  0.0456  0.1545
 7532SOL    HW134232   2.474   2.661   5.668  2.1900 -0.4387 -1.6206
 7532SOL    HW234233   2.614   2.684   5.684 -1.1288  1.3583 -1.8971
 7533SOL     OW34234   3.987   3.605  10.790  0.8639  0.2282  0.4914
 7533SOL    HW134235   3.910   3.570  10.745  0.5533 -1.2161  2.1400
 7533SOL    HW234236   3.942   3.621  10.872 -0.3974  0.0842 -0.1820
 7534SOL     OW34237   1.043   3.157   2.084 -0.3721  0.0119 -0.0284
 7534SOL    HW134238   1.093   3.238   2.097 -0.2570 -0.5782  3.1851
 7534SOL    HW234239   1.006   3.147   2.171  0.8243 -0.6327  0.4018
 7535SOL     OW34240   4.258   0.135   8.049  0.2562  0.7909 -0.7756
 7535SOL    HW134241   4.226   0.203   7.990  0.4917 -0.0466 -1.8686
 7535SOL    HW234242   4.259   0.065   7.984 -3.5124  0.7508 -0.7591
 7536SOL     OW34243   2.174   2.856   5.459 -0.2536  0.3225 -0.3101
 7536SOL    HW134244   2.219   2.895   5.534  0.2976 -0.1202 -0.4073
 7536SOL    HW234245   2.105   2.920   5.442 -0.0004  0.7682  0.3273
 7537SOL     OW34246   2.944   0.981  17.507  0.1706 -0.1188 -0.1753
 7537SOL    HW134247   2.918   1.056  17.453  0.3045 -1.1994 -1.7685
 7537SOL    HW234248   3.037   1.005  17.510  0.8083 -3.1248  3.4840
 7538SOL     OW34249   4.159   3.088  13.745 -0.0893  0.5586 -0.0575
 7538SOL    HW134250   4.171   3.075  13.839  2.7059 -1.4004 -0.6925
 7538SOL    HW234251   4.146   3.182  13.741  0.3045  0.5508 -1.2368
 7539SOL     OW34252   3.902   1.532   4.946 -0.0795 -0.0723 -0.2424
 7539SOL    HW134253   3.996   1.513   4.936 -0.4002 -1.8074  0.1207
 7539SOL    HW234254   3.909   1.536   5.042 -0.5279 -0.9823 -0.1812
 7540SOL     OW34255   3.885   3.654  11.036  0.0217  0.1175 -0.2179
 7540SOL    HW134256   3.926   3.648  11.122 -1.5346  1.9306  0.6453
 7540SOL    HW234257   3.825   3.726  11.059  1.9343  2.0953 -1.4168
 7541SOL     OW34258   4.472   3.414   8.110  0.3636 -0.1519 -0.2173
 7541SOL    HW134259   4.397   3.364   8.077 -1.1209  1.5172  0.6555
 7541SOL    HW234260   4.537   3.345   8.094  0.6897  0.1670 -0.2679
 7542SOL     OW34261   0.991   3.136   1.527 -0.3666 -0.1350 -0.4706
 7542SOL    HW134262   1.078   3.098   1.519 -0.3615  0.0468 -1.2742
 7542SOL    HW234263   0.969   3.107   1.616 -2.0397  2.2725 -0.0818
 7543SOL     OW34264   1.732   3.572  11.242  0.4611 -0.2677 -0.5386
 7543SOL    HW134265   1.698   3.563  11.153  1.6899 -0.1892 -1.0152
 7543SOL    HW234266   1.809   3.627  11.229 -2.0238  3.7393  1.7483
 7544SOL     OW34267   0.038   4.242   6.954  0.7604  0.6009 -0.4344
 7544SOL    HW134268   4.709   4.295   6.907 -1.8647 -0.4366  1.9907
 7544SOL    HW234269   4.726   4.163   6.980 -1.1410  1.4899 -1.2078
 7545SOL     OW34270   3.569   0.746   7.398 -0.0934 -0.1550  0.1097
 7545SOL    HW134271   3.583   0.692   7.321 -0.7924 -0.0717 -0.0797
 7545SOL    HW234272   3.510   0.694   7.453  0.6361 -0.0769  0.9738
 7546SOL     OW34273   1.900   1.238  10.207  0.2168 -0.6293 -0.2164
 7546SOL    HW134274   1.854   1.155  10.223 -1.7243  0.5639  0.3612
 7546SOL    HW234275   1.964   1.214  10.140  0.7002 -0.0858  0.0534
 7547SOL     OW34276   1.494   4.520  17.682 -0.2592 -0.3278 -0.0429
 7547SOL    HW134277   1.548   4.526   0.020  1.4220 -1.5078 -1.1299
 7547SOL    HW234278   1.442   4.442  17.702  1.5988 -1.2494  1.1136
 7548SOL     OW34279   0.159   1.380  14.278 -0.3880 -0.3638  0.0287
 7548SOL    HW134280   0.146   1.310  14.342  2.1373 -0.0804  0.8533
 7548SOL    HW234281   0.144   1.455  14.336 -1.8905 -0.4805 -0.1940
 7549SOL     OW34282   3.926   4.476   4.184  0.1305 -0.5805 -0.3604
 7549SOL    HW134283   3.937   4.496   4.277  4.1864 -2.4539 -0.4656
 7549SOL    HW234284   4.013   4.486   4.148  0.1369 -0.5873 -0.3470
 7550SOL     OW34285   0.268   2.373   1.760  0.3795  0.0429 -0.5051
 7550SOL    HW134286   0.305   2.340   1.679 -2.0998 -0.3742 -1.4681
 7550SOL    HW234287   0.176   2.348   1.747  0.4007 -0.4312  0.2897
 7551SOL     OW34288   3.299   3.048   4.093 -0.3478 -0.2029 -0.0540
 7551SOL    HW134289   3.373   3.102   4.065 -2.1396  1.9929 -0.6116
 7551SOL    HW234290   3.259   3.101   4.163  1.9856 -0.0052  1.1071
 7552SOL     OW34291   3.937   0.139   1.474  0.0446  0.1542  0.2087
 7552SOL    HW134292   3.903   0.049   1.477 -0.8509  0.5305  1.2440
 7552SOL    HW234293   3.860   0.183   1.510 -0.6619 -0.1372 -0.9289
 7553SOL     OW34294   2.763   3.033   2.682 -0.3232  0.2223  0.1681
 7553SOL    HW134295   2.728   2.964   2.625 -1.0698  0.8057 -0.0865
 7553SOL    HW234296   2.815   3.091   2.627  0.1060  0.9022  1.2879
 7554SOL     OW34297   3.983   2.768   6.478 -0.2640  0.1327 -0.4132
 7554SOL    HW134298   3.993   2.844   6.421 -0.0332  0.2807 -0.1742
 7554SOL    HW234299   4.062   2.717   6.458  0.7686  1.9660 -1.0392
 7555SOL     OW34300   1.446   1.206   5.326 -0.3995  0.1160 -0.0044
 7555SOL    HW134301   1.448   1.186   5.232 -0.9488  1.5406 -0.3091
 7555SOL    HW234302   1.523   1.263   5.332 -1.1309  1.1157 -0.2060
 7556SOL     OW34303   3.096   1.588   3.770  0.0801 -0.1578  0.0592
 7556SOL    HW134304   3.128   1.528   3.703 -2.0833 -2.0017  0.6380
 7556SOL    HW234305   3.047   1.647   3.714  4.3395  2.1220 -1.2171
 7557SOL     OW34306   4.572   4.534   3.486 -0.3903 -0.8194 -0.6113
 7557SOL    HW134307   4.495   4.591   3.477  0.5282  0.3355 -1.1668
 7557SOL    HW234308   4.568   4.493   3.400 -1.9183  0.2148 -1.0294
 7558SOL     OW34309   3.145   3.065   1.129  0.0429 -0.0683 -0.0716
 7558SOL    HW134310   3.100   2.982   1.124 -0.4892  0.1486  1.2670
 7558SOL    HW234311   3.237   3.037   1.126 -0.4649 -1.5068 -1.8346
 7559SOL     OW34312   3.410   1.224   2.032  0.0496 -0.3097  0.0604
 7559SOL    HW134313   3.389   1.146   2.083 -1.6435 -0.5656 -1.0043
 7559SOL    HW234314   3.504   1.211   2.030 -0.0837 -0.9663 -1.6807
 7560SOL     OW34315   2.488   0.288   7.936 -0.1394 -0.1054 -0.1668
 7560SOL    HW134316   2.432   0.354   7.976 -0.5738 -0.6691  0.1459
 7560SOL    HW234317   2.577   0.324   7.938  0.0514 -0.5949  0.2618
 7561SOL     OW34318   2.583   4.092  15.758  0.4719  0.1214 -0.4368
 7561SOL    HW134319   2.611   4.183  15.761  2.8762 -0.5695 -1.5681
 7561SOL    HW234320   2.494   4.104  15.790  0.3838 -2.3605  0.2530
 7562SOL     OW34321   3.388   3.994   3.517 -0.1220 -0.1647  0.0493
 7562SOL    HW134322   3.402   3.903   3.491  0.2948 -0.2805  0.6742
 7562SOL    HW234323   3.427   4.002   3.604  0.8431 -2.1079 -0.2059
 7563SOL     OW34324   2.629   1.570   0.285 -0.0685 -0.1300  0.2735
 7563SOL    HW134325   2.693   1.620   0.236  0.2699  1.3272  2.2061
 7563SOL    HW234326   2.587   1.642   0.332  3.0066  0.2666  2.3802
 7564SOL     OW34327   3.764   4.541   8.931  0.3475 -0.1804 -0.0802
 7564SOL    HW134328   3.764   4.636   8.916  1.3303  0.2136  2.4726
 7564SOL    HW234329   3.856   4.517   8.941  1.1072  2.3827 -0.8493
 7565SOL     OW34330   3.348   0.941   2.797 -0.0683  0.0643 -0.0710
 7565SOL    HW134331   3.285   1.007   2.768  1.2654  1.3764 -0.0269
 7565SOL    HW234332   3.412   1.000   2.839  1.1931 -0.1549 -1.6919
 7566SOL     OW34333   0.029   2.580   3.973  0.0815 -0.2187 -0.4192
 7566SOL    HW134334   0.122   2.559   3.970  0.2277  0.4510 -0.7135
 7566SOL    HW234335   0.026   2.652   4.036  2.5340  0.1676 -0.7475
 7567SOL     OW34336   2.554   2.713   2.755 -0.0769 -0.0631 -0.1888
 7567SOL    HW134337   2.546   2.798   2.797  1.7810 -1.3392  2.7712
 7567SOL    HW234338   2.580   2.750   2.671 -0.1153  0.0010 -0.1723
 7568SOL     OW34339   3.914   3.563   9.312 -0.2567  0.3451 -0.4463
 7568SOL    HW134340   3.823   3.533   9.308 -0.2146  0.1025  0.4978
 7568SOL    HW234341   3.915   3.658   9.322 -1.0821  0.1966  1.0010
 7569SOL     OW34342   3.530   1.690   4.797 -0.1021  0.6781  0.3169
 7569SOL    HW134343   3.548   1.611   4.848  0.4003 -1.6531 -3.4863
 7569SOL    HW234344   3.620   1.708   4.770 -0.7805  1.0670 -1.6346
 7570SOL     OW34345   0.478   0.453   8.227 -0.2116 -0.1512 -0.4042
 7570SOL    HW134346   0.480   0.392   8.300  0.4682  0.2918 -0.0572
 7570SOL    HW234347   0.462   0.390   8.157  2.4210  0.1034 -1.2171
 7571SOL     OW34348   0.595   0.543  16.625 -0.5443 -0.3429 -0.1119
 7571SOL    HW134349   0.503   0.539  16.598 -0.2765  0.4709 -1.1449
 7571SOL    HW234350   0.605   0.638  16.631  3.2937 -0.6306 -1.8558
 7572SOL     OW34351   0.046   0.695   1.894  0.1544  0.5927 -0.0294
 7572SOL    HW134352   0.043   0.678   1.988 -1.2405 -1.0122 -0.3759
 7572SOL    HW234353   4.713   0.755   1.864  1.4188  0.8913 -2.2995
 7573SOL     OW34354   2.616   2.078  16.814  0.3012  0.1674 -0.5415
 7573SOL    HW134355   2.688   2.141  16.806  0.3793  0.1413 -0.0693
 7573SOL    HW234356   2.645   1.997  16.773 -0.9059 -0.4037 -0.2642
 7574SOL     OW34357   4.624   3.940   6.480  0.2168 -0.0696 -0.3764
 7574SOL    HW134358   4.582   3.903   6.403 -1.6037  0.7566  0.2146
 7574SOL    HW234359   4.628   3.866   6.541  2.5809 -0.4948 -1.0669
 7575SOL     OW34360   4.688   3.409  17.565  0.1514  0.6565 -0.2110
 7575SOL    HW134361   4.649   3.322  17.573  0.9715  0.3362  0.2677
 7575SOL    HW234362   4.613   3.445  17.516 -1.0445  0.1198  1.2323
 7576SOL     OW34363   4.278   3.355   7.400 -0.0388  0.3524 -0.2615
 7576SOL    HW134364   4.355   3.336   7.454  0.7975  0.8270 -1.2916
 7576SOL    HW234365   4.265   3.271   7.355 -0.1092  0.8754 -1.2075
 7577SOL     OW34366   4.429   0.119   4.940 -0.0430 -0.0488  0.3902
 7577SOL    HW134367   4.430   0.034   4.896 -2.1855  0.3788 -0.5030
 7577SOL    HW234368   4.432   0.165   4.856 -1.8216 -0.2580  0.2247
 7578SOL     OW34369   0.535   3.218   4.688 -0.5502  0.0070 -0.3432
 7578SOL    HW134370   0.579   3.137   4.712  1.5997  1.0078 -0.9723
 7578SOL    HW234371   0.487   3.179   4.615 -3.2476  1.6221  0.5509
 7579SOL     OW34372   2.263   4.277   1.646 -0.3886 -0.8297  0.2617
 7579SOL    HW134373   2.250   4.371   1.640 -1.3769 -0.8728  1.7701
 7579SOL    HW234374   2.290   4.252   1.558 -0.3157 -1.7898  0.5497
 7580SOL     OW34375   2.043   0.421   0.360  0.7740  0.3545 -0.4648
 7580SOL    HW134376   2.033   0.453   0.270 -0.0989  0.5546 -0.2901
 7580SOL    HW234377   2.088   0.340   0.337  1.5721  0.6808 -0.0815
 7581SOL     OW34378   3.400   3.921   6.844  0.0500 -0.1897 -0.2080
 7581SOL    HW134379   3.399   3.971   6.762 -0.8586  0.3924  0.1522
 7581SOL    HW234380   3.345   3.846   6.820  3.0786 -1.8505 -1.9133
 7582SOL     OW34381   3.241   4.117   2.857  0.2184 -0.4586 -0.6784
 7582SOL    HW134382   3.283   4.132   2.942 -2.9283 -0.2645  0.8563
 7582SOL    HW234383   3.276   4.034   2.824 -1.2538 -0.7802 -1.4680
 7583SOL     OW34384   3.447   1.166   2.359 -0.1488 -0.1427 -0.1781
 7583SOL    HW134385   3.434   1.226   2.432  0.4002 -0.5749  0.2687
 7583SOL    HW234386   3.362   1.169   2.314  0.9205 -0.5036 -2.2498
 7584SOL     OW34387   0.837   2.331  15.628  0.0457 -0.2269 -0.1754
 7584SOL    HW134388   0.751   2.344  15.588  0.1049  0.5908 -0.0226
 7584SOL    HW234389   0.881   2.273  15.566  1.1316 -2.7437  2.9700
 7585SOL     OW34390   3.532   1.562   3.270  0.0040 -0.3849 -0.2668
 7585SOL    HW134391   3.548   1.505   3.345 -0.9233 -2.1405 -1.4216
 7585SOL    HW234392   3.479   1.629   3.313  1.4962  0.6361 -0.0091
 7586SOL     OW34393   0.072   2.796   2.778  0.0173  0.3497  0.0260
 7586SOL    HW134394   0.011   2.855   2.733  0.7206 -0.1690 -1.6189
 7586SOL    HW234395   0.100   2.732   2.713  0.4593 -0.5634  1.1139
 7587SOL     OW34396   1.025   3.908   4.591 -0.2873 -0.1520  0.3355
 7587SOL    HW134397   0.990   3.834   4.541  1.4710  0.6133 -2.0433
 7587SOL    HW234398   0.935   3.931   4.614 -0.4317 -3.1027  2.7295
 7588SOL     OW34399   0.938   3.781  16.345  0.0049  0.1842 -0.1615
 7588SOL    HW134400   1.028   3.793  16.315  0.1476 -1.7038 -0.4585
 7588SOL    HW234401   0.933   3.864  16.393  0.5032 -0.4363  0.9555
 7589SOL     OW34402   1.359   4.117   6.569 -0.3033  0.1897  0.3475
 7589SOL    HW134403   1.430   4.079   6.620 -1.3339 -1.3508  0.6487
 7589SOL    HW234404   1.304   4.039   6.559 -0.2865  0.1236  0.7854
 7590SOL     OW34405   0.810   3.367   9.527  0.0687  0.3018 -0.0050
 7590SOL    HW134406   0.796   3.441   9.468 -2.1857  0.1128  0.2909
 7590SOL    HW234407   0.830   3.291   9.473 -2.7663 -1.0883  0.8538
 7591SOL     OW34408   4.451   4.554   1.878  0.1980 -0.3385  0.0216
 7591SOL    HW134409   4.468   4.595   1.793 -0.8444  1.5777  0.7393
 7591SOL    HW234410   4.359   4.578   1.893  0.1098  0.0268 -1.0598
 7592SOL     OW34411   3.200   0.409  13.609 -0.3948 -0.0940 -0.4944
 7592SOL    HW134412   3.108   0.397  13.586 -0.4037 -0.7115 -0.1386
 7592SOL    HW234413   3.203   0.407  13.705 -0.4868  3.1485 -0.4120
 7593SOL     OW34414   0.546   0.775  15.731  0.6128 -0.0959 -0.1554
 7593SOL    HW134415   0.563   0.794  15.638 -1.1664  0.2596 -0.4154
 7593SOL    HW234416   0.517   0.861  15.763  2.1933  0.4084 -0.0923
 7594SOL     OW34417   4.455   3.975  14.763 -0.1524  0.5648 -0.0129
 7594SOL    HW134418   4.511   4.048  14.735  1.7210 -1.4981 -1.5806
 7594SOL    HW234419   4.439   3.993  14.856  0.0206 -3.6879  0.8228
 7595SOL     OW34420   1.754   3.036   4.128 -0.1245  0.1133  0.8010
 7595SOL    HW134421   1.744   3.057   4.035  2.7575  1.3031  0.7768
 7595SOL    HW234422   1.715   3.113   4.169 -1.8599 -0.2178 -0.1904
 7596SOL     OW34423   3.241   2.528   4.616  0.0718  0.0376  0.0970
 7596SOL    HW134424   3.204   2.523   4.528  2.7277 -1.1366 -0.9428
 7596SOL    HW234425   3.192   2.599   4.657 -0.2511  0.2276 -0.6135
 7597SOL     OW34426   3.741   1.241   5.128  0.4632 -0.4645 -0.0596
 7597SOL    HW134427   3.739   1.329   5.166  1.7170 -0.7741  0.7379
 7597SOL    HW234428   3.647   1.230   5.114 -0.0930  1.8215  1.9901
 7598SOL     OW34429   2.117   1.116  14.788  0.0920 -0.0264 -0.2466
 7598SOL    HW134430   2.189   1.070  14.831 -1.8634 -1.2180  1.7882
 7598SOL    HW234431   2.112   1.073  14.703  1.1378 -1.5112  0.4632
 7599SOL     OW34432   0.624   2.938   4.579  0.0965  0.3033  0.3878
 7599SOL    HW134433   0.531   2.924   4.565  0.4093 -1.4435  0.0830
 7599SOL    HW234434   0.647   2.846   4.567  1.4943  0.7213 -0.1069
 7600SOL     OW34435   1.671   0.491   6.748 -0.7823  0.1027 -0.1480
 7600SOL    HW134436   1.642   0.426   6.683 -2.4962  0.5490  0.1667
 7600SOL    HW234437   1.603   0.558   6.740  1.2386  2.1561  0.1778
 7601SOL     OW34438   0.576   1.573  11.768 -0.1468  0.0502  0.0344
 7601SOL    HW134439   0.626   1.492  11.773 -1.2005 -0.7178 -1.8890
 7601SOL    HW234440   0.628   1.635  11.820 -0.5527  1.0003 -0.6754
 7602SOL     OW34441   2.260   1.135   8.028 -0.5351  0.8903  0.2149
 7602SOL    HW134442   2.196   1.188   8.075 -0.3653  0.2328  1.1751
 7602SOL    HW234443   2.247   1.050   8.069 -0.6550 -0.7102 -3.0970
 7603SOL     OW34444   2.099   1.078   0.640 -0.1574 -0.4514  0.1228
 7603SOL    HW134445   2.090   1.070   0.735 -0.0607  2.8605  0.3935
 7603SOL    HW234446   2.194   1.088   0.635  0.0135 -1.9244  0.4381
 7604SOL     OW34447   3.134   0.547   8.013  0.7113  0.1742 -0.3135
 7604SOL    HW134448   3.143   0.574   8.105  1.5303 -0.4858 -0.1944
 7604SOL    HW234449   3.224   0.516   8.002  0.7110  0.4641 -1.1261
 7605SOL     OW34450   3.535   2.756   1.269 -0.1259 -0.5657 -0.5784
 7605SOL    HW134451   3.514   2.718   1.354 -0.0434  1.6984  0.4586
 7605SOL    HW234452   3.629   2.737   1.263 -0.4863 -1.6662 -2.8854
 7606SOL     OW34453   1.050   3.342   5.124 -0.1909 -0.2351  0.0181
 7606SOL    HW134454   1.000   3.342   5.042 -2.4004  1.8119  1.3472
 7606SOL    HW234455   1.002   3.277   5.176  1.0807 -1.3185 -0.1542
 7607SOL     OW34456   1.615   4.611   7.241  0.8142  0.0912 -0.0928
 7607SOL    HW134457   1.582   4.521   7.246 -2.4683  1.3290  0.5620
 7607SOL    HW234458   1.585   4.657   7.162 -5.0122  1.2053  2.7993
 7608SOL     OW34459   2.423   1.566   4.480 -0.5289  0.2644  0.7705
 7608SOL    HW134460   2.350   1.515   4.514 -0.2994  0.8109  2.0793
 7608SOL    HW234461   2.393   1.596   4.394 -0.4160 -2.1462 -0.1152
 7609SOL     OW34462   0.027   4.334   7.439 -0.4727 -0.5512 -0.2021
 7609SOL    HW134463   0.093   4.290   7.492  0.5648  0.7089 -0.4223
 7609SOL    HW234464   4.707   4.257   7.427  0.0693 -0.8072 -1.0739
 7610SOL     OW34465   2.865   3.422   6.752 -0.3005  0.2142 -0.7520
 7610SOL    HW134466   2.950   3.467   6.756 -0.7668  1.0122  0.2044
 7610SOL    HW234467   2.897   3.340   6.714  0.6752  0.6345 -0.8422
 7611SOL     OW34468   2.951   1.433   5.017 -0.2841 -0.6139 -0.5980
 7611SOL    HW134469   2.914   1.519   4.997  1.4495 -0.2327 -2.1473
 7611SOL    HW234470   2.937   1.419   5.111 -0.1033  1.8088 -0.1884
 7612SOL     OW34471   1.847   2.502   8.008  0.3563 -0.0574 -0.7763
 7612SOL    HW134472   1.830   2.502   8.102  2.7558  2.1983 -0.3720
 7612SOL    HW234473   1.830   2.593   7.984  0.6368  0.0703 -0.4854
 7613SOL     OW34474   3.502   1.305  13.571 -0.6997  0.2312 -0.6852
 7613SOL    HW134475   3.420   1.345  13.546 -0.2794  0.5785 -1.4799
 7613SOL    HW234476   3.474   1.237  13.633 -2.3143  0.0013 -1.6829
 7614SOL     OW34477   1.939   3.939   7.875  0.2748  0.1467  0.1792
 7614SOL    HW134478   1.855   3.910   7.840 -0.3215  0.6600  1.1672
 7614SOL    HW234479   1.939   3.879   7.949 -0.2622  0.6752  0.6154
 7615SOL     OW34480   2.453   1.126   4.775 -0.1617  0.3669  0.1541
 7615SOL    HW134481   2.448   1.076   4.693  1.9890 -1.2752  0.9976
 7615SOL    HW234482   2.362   1.154   4.771 -0.7106 -1.4309  0.3825
 7616SOL     OW34483   1.076   2.168   5.353  0.2678  0.1227  0.4112
 7616SOL    HW134484   1.089   2.130   5.266  1.5719  1.0087  0.2211
 7616SOL    HW234485   0.981   2.181   5.356  0.3739  0.2588  2.9714
 7617SOL     OW34486   0.925   1.893   5.287 -0.0047  0.3758  0.5654
 7617SOL    HW134487   0.868   1.869   5.214  0.7221 -0.5518  0.3101
 7617SOL    HW234488   1.012   1.859   5.266 -0.0846  2.0676 -2.5046
 7618SOL     OW34489   1.293   1.138  15.661  0.0121 -0.6689  0.0006
 7618SOL    HW134490   1.325   1.149  15.750  0.7160 -0.8372 -0.2251
 7618SOL    HW234491   1.272   1.225  15.629  1.6346  0.3198  1.6278
 7619SOL     OW34492   0.581   0.772   8.215  0.2640 -0.3118  0.5471
 7619SOL    HW134493   0.587   0.683   8.182 -3.1378 -0.2715 -0.2372
 7619SOL    HW234494   0.615   0.825   8.143  0.6313 -0.8818  0.3004
 7620SOL     OW34495   2.911   4.021   2.237 -0.2695 -0.0169 -0.7391
 7620SOL    HW134496   3.002   3.994   2.224 -0.1427 -0.3277  0.7673
 7620SOL    HW234497   2.898   4.052   2.148  0.3896 -0.3066 -0.9328
 7621SOL     OW34498   2.073   2.567   8.634 -0.3014 -0.3563  0.1802
 7621SOL    HW134499   2.092   2.660   8.622  0.0060 -0.6331 -1.4142
 7621SOL    HW234500   2.104   2.556   8.723 -0.9583  0.0306  0.4650
 7622SOL     OW34501   1.738   0.606   2.531  0.6373 -0.1187 -0.0296
 7622SOL    HW134502   1.784   0.625   2.613  0.5249  1.1031 -0.2586
 7622SOL    HW234503   1.698   0.685   2.496 -0.1277 -0.6804 -0.4256
 7623SOL     OW34504   3.370   2.849   6.044 -0.3380 -0.1446  0.4189
 7623SOL    HW134505   3.441   2.785   6.048  0.6482  0.7497 -2.5780
 7623SOL    HW234506   3.356   2.832   5.951 -0.6878 -0.1483  0.4724
 7624SOL     OW34507   2.405   0.419  11.812 -0.4696  0.5850  0.0748
 7624SOL    HW134508   2.475   0.376  11.861 -0.9634  0.1497  0.4123
 7624SOL    HW234509   2.329   0.362  11.824 -0.7469  1.0108  0.3542
 7625SOL     OW34510   2.776   3.416  16.752 -0.4163  0.7416 -0.0702
 7625SOL    HW134511   2.683   3.396  16.738 -0.4930  0.3143  1.0706
 7625SOL    HW234512   2.820   3.331  16.754 -1.0257  0.4299  0.2028
 7626SOL     OW34513   1.806   3.229  15.486 -0.4637 -0.7608 -0.1796
 7626SOL    HW134514   1.857   3.148  15.495  0.2759 -0.1678  0.8528
 7626SOL    HW234515   1.832   3.244  15.395 -0.0060  0.7323  0.2106
 7627SOL     OW34516   4.359   3.890   4.203 -0.4214 -0.1876  0.2915
 7627SOL    HW134517   4.372   3.817   4.263 -4.5755  0.3108  1.7701
 7627SOL    HW234518   4.276   3.913   4.243 -0.6179  1.7310 -1.2341
 7628SOL     OW34519   1.340   0.199   5.576 -0.0190 -0.2556  0.3698
 7628SOL    HW134520   1.246   0.215   5.581  0.1729  1.3072 -1.1396
 7628SOL    HW234521   1.343   0.113   5.619  1.3164 -0.5505 -0.3140
 7629SOL     OW34522   4.423   1.391  10.257  0.5626  0.0931  0.2961
 7629SOL    HW134523   4.434   1.359  10.347  3.6554 -0.9532 -0.4508
 7629SOL    HW234524   4.336   1.429  10.265  0.2866 -0.3916 -0.5279
 7630SOL     OW34525   4.464   1.120   2.749 -0.5705  0.1529 -0.6993
 7630SOL    HW134526   4.477   1.215   2.741  0.7140  0.1220  1.1108
 7630SOL    HW234527   4.515   1.092   2.673  0.0277  1.3655 -0.7477
 7631SOL     OW34528   1.525   1.843   5.413 -0.2803 -0.5672  0.0568
 7631SOL    HW134529   1.546   1.750   5.427  0.7710 -0.3332  0.0598
 7631SOL    HW234530   1.515   1.852   5.319  0.3300  0.1816  0.0647
 7632SOL     OW34531   3.308   0.977   9.296  0.0474  0.6354  0.6570
 7632SOL    HW134532   3.328   1.037   9.367  2.1257 -0.6296  1.1479
 7632SOL    HW234533   3.275   0.901   9.345 -1.1315  0.1509 -0.8719
 7633SOL     OW34534   2.805   3.809  11.175 -0.1361 -0.1165 -0.0673
 7633SOL    HW134535   2.840   3.782  11.090 -0.2440  2.8335 -1.0576
 7633SOL    HW234536   2.726   3.755  11.179  0.5751 -1.0935  0.9412
 7634SOL     OW34537   2.783   3.162  14.859 -0.3423 -0.3863  0.2171
 7634SOL    HW134538   2.812   3.078  14.822 -1.1036  0.1541 -1.5595
 7634SOL    HW234539   2.691   3.141  14.877 -0.4625 -0.9902 -1.1303
 7635SOL     OW34540   0.803   4.493   2.707 -0.3792 -0.2717 -0.1438
 7635SOL    HW134541   0.758   4.470   2.788  0.3410 -2.2076 -0.2857
 7635SOL    HW234542   0.810   4.587   2.719  2.2612 -0.3054 -1.3376
 7636SOL     OW34543   2.232   2.766   6.843  0.0811 -0.1593  0.3300
 7636SOL    HW134544   2.266   2.712   6.772 -0.6977  0.2580 -0.3690
 7636SOL    HW234545   2.137   2.754   6.843  0.4188 -2.7470  0.8915
 7637SOL     OW34546   3.805   1.918   4.950 -0.1803 -0.0290 -0.0426
 7637SOL    HW134547   3.717   1.917   4.988  0.4210  1.8050  1.3398
 7637SOL    HW234548   3.845   1.968   5.020 -0.9131 -1.3427  1.3169
 7638SOL     OW34549   0.284   2.705   5.677  0.0399  0.4257  0.2631
 7638SOL    HW134550   0.217   2.639   5.698  1.6592 -1.0345  0.8886
 7638SOL    HW234551   0.264   2.728   5.587 -1.1881 -1.6418 -0.0154
 7639SOL     OW34552   3.114   4.588   9.822  0.1548  0.3465  0.3353
 7639SOL    HW134553   3.105   4.561   9.730  3.2964 -1.1453  0.4629
 7639SOL    HW234554   3.153   4.673   9.801  0.4963 -0.1036 -0.8592
 7640SOL     OW34555   1.736   1.178   2.294 -0.5052 -0.0057 -0.1579
 7640SOL    HW134556   1.672   1.167   2.364 -1.3822  0.6154 -0.8555
 7640SOL    HW234557   1.808   1.123   2.322 -0.1066  0.5265 -0.1445
 7641SOL     OW34558   3.175   2.144   4.673  0.2874 -0.1164 -1.0806
 7641SOL    HW134559   3.193   2.165   4.765 -0.2118 -1.5148 -0.6693
 7641SOL    HW234560   3.088   2.177   4.650 -0.3121 -0.1391  1.1729
 7642SOL     OW34561   1.939   4.412   8.659 -0.6988 -0.4586 -0.1488
 7642SOL    HW134562   1.925   4.453   8.745  0.2406  0.7714 -0.5803
 7642SOL    HW234563   1.952   4.488   8.602  2.0362  0.8174  2.1577
 7643SOL     OW34564   0.312   0.168   7.471  0.5351  0.1084  0.4717
 7643SOL    HW134565   0.308   0.073   7.470 -2.1088  0.2309  0.0308
 7643SOL    HW234566   0.221   0.194   7.482  0.4934 -0.1652  0.7712
 7644SOL     OW34567   2.949   1.556  13.749 -0.3252 -0.2011  0.6724
 7644SOL    HW134568   2.989   1.469  13.752 -1.5413 -0.7377  1.6409
 7644SOL    HW234569   2.863   1.524  13.722 -0.0927 -1.1698  1.0681
 7645SOL     OW34570   2.120   1.853   5.782 -0.1843 -0.7371  0.7839
 7645SOL    HW134571   2.027   1.875   5.788 -0.6945 -2.1557 -1.9753
 7645SOL    HW234572   2.151   1.858   5.873 -1.0472  0.4965  1.0093
 7646SOL     OW34573   2.246   1.101   6.739 -0.2519  0.1747 -0.1547
 7646SOL    HW134574   2.291   1.018   6.720 -0.6430  0.4757 -2.2976
 7646SOL    HW234575   2.203   1.078   6.821  1.6917 -0.3314  0.7323
 7647SOL     OW34576   3.564   2.651   4.089 -0.5500  0.2555 -0.2532
 7647SOL    HW134577   3.477   2.691   4.088 -2.0826 -3.0022 -0.4411
 7647SOL    HW234578   3.618   2.726   4.068  1.0108 -0.4980  1.0550
 7648SOL     OW34579   2.628   2.930  14.626 -0.3170  0.8848 -0.6044
 7648SOL    HW134580   2.575   2.860  14.663  0.9879  0.2533  0.1047
 7648SOL    HW234581   2.710   2.934  14.676  0.3728 -2.4594 -1.4627
 7649SOL     OW34582   2.077   1.216   5.404 -0.3300 -0.1409  0.5184
 7649SOL    HW134583   1.999   1.254   5.445 -0.5880  0.3849 -0.4614
 7649SOL    HW234584   2.133   1.193   5.479  0.4556  0.7175  0.2029
 7650SOL     OW34585   2.387   1.856   9.792 -0.2235  0.8047  0.4601
 7650SOL    HW134586   2.435   1.792   9.844 -0.4819 -0.1398 -0.4629
 7650SOL    HW234587   2.328   1.900   9.854 -0.9456 -1.2919  1.2666
 7651SOL     OW34588   3.712   1.576   0.652  0.4588  0.1342 -0.3271
 7651SOL    HW134589   3.736   1.564   0.744 -1.5463  0.5802  0.2598
 7651SOL    HW234590   3.631   1.526   0.646  1.9894 -2.3307 -0.1966
 7652SOL     OW34591   0.787   1.402  16.515  0.2691 -0.5079  0.3778
 7652SOL    HW134592   0.772   1.310  16.532  0.6421 -0.8067 -0.9121
 7652SOL    HW234593   0.741   1.417  16.433 -2.7082  1.2682  2.3675
 7653SOL     OW34594   1.750   0.143  11.568 -0.6535  0.5915  0.6500
 7653SOL    HW134595   1.826   0.143  11.510 -0.7980  0.7478  0.4598
 7653SOL    HW234596   1.686   0.110  11.506  0.5327 -1.0056  0.2985
 7654SOL     OW34597   2.990   4.461   7.472  0.0526 -0.3289  0.2527
 7654SOL    HW134598   2.977   4.423   7.559  1.0804  0.4184  0.7295
 7654SOL    HW234599   2.946   4.400   7.413 -1.5872  1.0441  0.0527
 7655SOL     OW34600   1.073   0.895   6.126  0.0461 -0.0499  0.2253
 7655SOL    HW134601   1.106   0.861   6.209  0.1135  1.0952  0.6744
 7655SOL    HW234602   1.155   0.940   6.108 -0.5408  1.5541  1.4586
 7656SOL     OW34603   2.933   0.767  12.234  0.1976  0.0502  0.2306
 7656SOL    HW134604   2.990   0.782  12.158 -0.3329  0.8247 -0.0147
 7656SOL    HW234605   2.995   0.789  12.303 -0.3090  1.1082  0.3601
 7657SOL     OW34606   0.267   0.686   6.376 -0.2820 -0.1981 -0.7784
 7657SOL    HW134607   0.299   0.600   6.406 -0.6442 -0.5162 -1.3101
 7657SOL    HW234608   0.186   0.665   6.331 -0.4635 -2.6006  0.6494
 7658SOL     OW34609   2.257   0.388   4.190 -0.0169  0.5947  0.0370
 7658SOL    HW134610   2.191   0.423   4.130 -1.3522 -0.1015  1.1037
 7658SOL    HW234611   2.238   0.294   4.187  1.5905  0.3309 -1.8037
 7659SOL     OW34612   1.542   4.229   5.582 -0.2391 -0.0337  0.0404
 7659SOL    HW134613   1.457   4.201   5.548  0.8059 -0.9837 -1.7949
 7659SOL    HW234614   1.563   4.151   5.633 -0.1998 -0.3860 -0.5170
 7660SOL     OW34615   0.715   0.015  10.330  0.5563 -0.0459  0.0784
 7660SOL    HW134616   0.685   0.004  10.420 -0.3203  3.2777  0.1671
 7660SOL    HW234617   0.663   4.675  10.303 -1.8490  1.2620  1.0306
 7661SOL     OW34618   0.901   2.080   9.072 -0.7408  0.3149 -0.9038
 7661SOL    HW134619   0.983   2.122   9.098 -2.5398  2.4925  1.2637
 7661SOL    HW234620   0.864   2.066   9.159  0.7346 -1.0295 -0.4775
 7662SOL     OW34621   0.388   3.226  15.091  0.0077  0.2272  0.3289
 7662SOL    HW134622   0.328   3.300  15.093 -4.1973 -3.1106 -0.0234
 7662SOL    HW234623   0.413   3.218  15.183 -1.3089 -0.4625  0.6242
 7663SOL     OW34624   0.806   0.915  10.486 -0.0778 -0.1560  0.0102
 7663SOL    HW134625   0.853   0.891  10.565 -1.3814  2.3351  1.5479
 7663SOL    HW234626   0.807   0.827  10.449  1.0317 -0.3979  0.6342
 7664SOL     OW34627   1.552   1.733  15.763  0.2069 -0.5438 -0.4859
 7664SOL    HW134628   1.497   1.754  15.688  0.7363 -0.0268 -0.7247
 7664SOL    HW234629   1.583   1.643  15.753  0.5430 -0.1611 -2.7888
 7665SOL     OW34630   0.855   3.016   4.749  0.2071 -0.0561  0.7600
 7665SOL    HW134631   0.788   3.003   4.682 -0.4566 -0.0406  1.4301
 7665SOL    HW234632   0.901   2.932   4.754 -1.2502 -0.9187 -0.3353
 7666SOL     OW34633   1.680   1.358  14.167  0.2961 -0.0996  0.3196
 7666SOL    HW134634   1.667   1.287  14.229  1.1518 -0.9197 -0.4267
 7666SOL    HW234635   1.628   1.426  14.209  0.2541  0.8871 -1.2973
 7667SOL     OW34636   2.620   2.229   9.188  0.5712 -0.2843 -0.3306
 7667SOL    HW134637   2.696   2.269   9.230 -0.2066  0.0711  0.7302
 7667SOL    HW234638   2.562   2.209   9.262  1.2890  1.2976  0.6685
 7668SOL     OW34639   1.391   1.190  17.032  0.1000  0.0205 -0.0631
 7668SOL    HW134640   1.390   1.122  16.964 -2.8358 -0.1309  0.1209
 7668SOL    HW234641   1.413   1.131  17.104 -0.4714  0.3616  0.3949
 7669SOL     OW34642   4.043   2.237   2.523  0.4806  0.7919 -0.6530
 7669SOL    HW134643   4.095   2.209   2.599  1.0655  1.6021 -0.7542
 7669SOL    HW234644   3.958   2.231   2.566  1.6110  0.1609  1.5094
 7670SOL     OW34645   3.842   3.269   0.742 -0.1014 -0.2085 -0.6868
 7670SOL    HW134646   3.922   3.288   0.792 -0.7102 -0.1335  0.2578
 7670SOL    HW234647   3.811   3.193   0.792  1.7358 -0.3569  0.2476
 7671SOL     OW34648   1.174   0.742  12.785 -0.0157 -0.1009 -0.6285
 7671SOL    HW134649   1.095   0.792  12.806 -0.3719  0.4552 -3.2246
 7671SOL    HW234650   1.242   0.804  12.810 -1.3379  0.5126  1.4794
 7672SOL     OW34651   1.108   2.362  15.294  0.0038  0.6212 -0.0683
 7672SOL    HW134652   1.161   2.442  15.292  0.0810  0.5351 -1.4941
 7672SOL    HW234653   1.114   2.344  15.388 -2.4920 -0.2126 -0.0618
 7673SOL     OW34654   0.804   0.747   5.071 -0.0081  0.2162 -0.1416
 7673SOL    HW134655   0.714   0.722   5.093  0.5141 -2.3295 -0.8823
 7673SOL    HW234656   0.784   0.808   5.001 -1.7030 -0.8776 -0.6290
 7674SOL     OW34657   0.486   2.977  10.542 -0.1823 -0.0273 -0.3362
 7674SOL    HW134658   0.477   2.985  10.447  2.0490  2.1044 -0.3601
 7674SOL    HW234659   0.400   2.936  10.551 -0.1686  0.1357  0.4678
 7675SOL     OW34660   2.053   3.133  14.078 -0.1262  0.1581  0.1702
 7675SOL    HW134661   2.147   3.144  14.092  0.2151 -1.5064 -0.7714
 7675SOL    HW234662   2.040   3.038  14.076 -3.1359  0.5193  2.4001
 7676SOL     OW34663   3.298   0.430   2.749 -0.5626  0.2643 -0.4401
 7676SOL    HW134664   3.290   0.525   2.747  1.5481  0.4635  0.3635
 7676SOL    HW234665   3.386   0.423   2.712 -0.6769  0.6419 -0.7856
 7677SOL     OW34666   3.333   4.290  16.811  0.1924 -0.4158  0.0853
 7677SOL    HW134667   3.375   4.255  16.732  0.7355 -1.5741  0.8894
 7677SOL    HW234668   3.342   4.378  16.775 -0.1848  0.2559  1.6462
 7678SOL     OW34669   2.638   4.211   4.625  0.1284 -0.2100 -0.6722
 7678SOL    HW134670   2.601   4.268   4.693  1.0922 -0.4634  0.0579
 7678SOL    HW234671   2.651   4.135   4.682 -0.1134  0.6861  0.5889
 7679SOL     OW34672   4.392   0.334  12.723 -0.2418  0.4438 -0.3588
 7679SOL    HW134673   4.368   0.268  12.789  0.1808  1.3442  0.7066
 7679SOL    HW234674   4.392   0.411  12.780 -0.0671  1.2634 -1.4751
 7680SOL     OW34675   1.816   2.082   4.777  0.4568  0.3706  0.5968
 7680SOL    HW134676   1.774   2.135   4.845  1.5965  1.7551  0.2347
 7680SOL    HW234677   1.754   2.011   4.762  1.9865 -0.8774  0.1795
 7681SOL     OW34678   2.175   1.420   0.078  0.1212  0.2736 -0.4356
 7681SOL    HW134679   2.253   1.397   0.028  0.7644  0.7557  0.3497
 7681SOL    HW234680   2.168   1.348   0.141 -0.9547  1.5773  0.9441
 7682SOL     OW34681   3.714   1.007  16.738  0.5071 -0.0276  0.0366
 7682SOL    HW134682   3.694   0.919  16.770 -0.9295 -0.3180 -1.6780
 7682SOL    HW234683   3.681   1.063  16.808 -1.5866  0.8258 -1.6528
 7683SOL     OW34684   0.557   2.033   7.503 -0.1263  0.0691 -0.5098
 7683SOL    HW134685   0.479   1.987   7.471  0.6548 -2.1113  0.6828
 7683SOL    HW234686   0.624   1.991   7.449  0.5367 -1.5073  1.5084
 7684SOL     OW34687   1.539   0.246  17.458  0.3299 -0.0146  0.2384
 7684SOL    HW134688   1.547   0.325  17.511 -0.3072  0.1130  0.1447
 7684SOL    HW234689   1.514   0.189  17.531  1.1941 -0.7333 -0.0198
 7685SOL     OW34690   4.276   1.670   4.808 -0.3906  0.8318  0.4422
 7685SOL    HW134691   4.232   1.609   4.867  2.1181 -0.5527  0.8643
 7685SOL    HW234692   4.230   1.750   4.834  1.4057  1.3346  2.0412
 7686SOL     OW34693   0.055   3.394   6.621  0.7492  0.0200  0.7285
 7686SOL    HW134694   0.125   3.456   6.602  1.3892 -1.2459 -1.0216
 7686SOL    HW234695   0.037   3.426   6.710 -1.1645 -0.2497  0.4539
 7687SOL     OW34696   2.896   3.778   8.315 -0.2131  0.1766 -0.2117
 7687SOL    HW134697   2.845   3.713   8.364  1.2339 -0.9569 -0.2008
 7687SOL    HW234698   2.987   3.758   8.335  0.6477  2.1473 -2.3069
 7688SOL     OW34699   3.978   4.172   2.574  0.2286  0.1135  0.2413
 7688SOL    HW134700   3.933   4.091   2.600  2.0250 -0.2970  2.0084
 7688SOL    HW234701   3.981   4.214   2.660  1.4511 -0.9387  0.7126
 7689SOL     OW34702   2.520   3.070  14.016  0.5180  0.7270 -0.7202
 7689SOL    HW134703   2.556   2.992  14.057 -0.8288  0.4129 -0.1485
 7689SOL    HW234704   2.477   3.031  13.939 -0.6797  1.0642 -0.2101
 7690SOL     OW34705   1.945   2.687   7.346 -0.4353  0.9066  0.0117
 7690SOL    HW134706   1.964   2.662   7.436  2.4014  0.1177 -0.8053
 7690SOL    HW234707   2.008   2.631   7.301 -1.8003 -0.8382  0.2629
 7691SOL     OW34708   1.823   3.145   8.349 -0.1013 -0.3088  0.2520
 7691SOL    HW134709   1.860   3.132   8.436  1.1632 -1.9536 -0.5313
 7691SOL    HW234710   1.754   3.209   8.365  0.2336  0.5695 -1.8414
 7692SOL     OW34711   0.533   3.268  11.049  0.7355 -0.0357  0.1392
 7692SOL    HW134712   0.609   3.324  11.032 -0.3227  0.6081 -2.3571
 7692SOL    HW234713   0.489   3.267  10.965  1.6047  0.7621 -0.3218
 7693SOL     OW34714   3.307   3.348  14.178 -0.2006 -0.1215 -0.7641
 7693SOL    HW134715   3.258   3.372  14.099  0.8047  1.0910 -1.0153
 7693SOL    HW234716   3.392   3.313  14.151  0.8697 -1.5619  4.3987
 7694SOL     OW34717   3.056   0.346   4.778  0.2844 -0.0482  0.3821
 7694SOL    HW134718   3.048   0.304   4.693  0.8143  0.6833 -0.0344
 7694SOL    HW234719   3.110   0.285   4.829  2.0376 -0.6195 -2.1502
 7695SOL     OW34720   4.121   1.035   4.897 -0.0543 -0.0070 -0.3200
 7695SOL    HW134721   4.064   1.084   4.837  0.0264 -0.2179 -0.5690
 7695SOL    HW234722   4.100   1.076   4.981  0.6330 -0.3455  0.0105
 7696SOL     OW34723   4.140   0.762   7.947  0.4190  0.4580 -0.6040
 7696SOL    HW134724   4.070   0.717   7.900  2.2837 -0.1204 -2.8438
 7696SOL    HW234725   4.159   0.681   7.995 -3.6453 -1.9686 -3.0830
 7697SOL     OW34726   1.153   0.619   6.720 -0.1500 -0.6474  0.3743
 7697SOL    HW134727   1.091   0.616   6.647  1.2532  0.6318 -0.8674
 7697SOL    HW234728   1.156   0.712   6.743 -2.4903 -0.8892  1.7393
 7698SOL     OW34729   0.427   1.380  17.737 -0.5740  0.3137  0.2355
 7698SOL    HW134730   0.415   1.443  17.666  0.3365 -0.0531 -0.2414
 7698SOL    HW234731   0.509   1.415   0.032 -0.4052 -0.3210  0.4727
 7699SOL     OW34732   2.798   2.918   5.537  0.2059  0.5301 -0.2426
 7699SOL    HW134733   2.737   2.962   5.596 -0.3433 -0.1362 -0.3186
 7699SOL    HW234734   2.833   2.848   5.592 -0.7294  0.7252  0.5964
 7700SOL     OW34735   0.438   2.111   1.826 -0.0616  0.1230  0.3751
 7700SOL    HW134736   0.466   2.094   1.916 -1.7706 -0.4779  0.7876
 7700SOL    HW234737   0.461   2.203   1.813 -0.9569  0.0524 -1.6592
 7701SOL     OW34738   3.378   2.945   1.132 -0.4809 -0.5867  0.4803
 7701SOL    HW134739   3.448   3.009   1.118  0.4149 -1.5126  0.7470
 7701SOL    HW234740   3.424   2.879   1.184 -1.0321 -0.2003  1.4530
 7702SOL     OW34741   2.549   3.991  12.357  0.0274  0.0724 -0.1547
 7702SOL    HW134742   2.595   4.068  12.390 -1.2531 -0.0744  1.9603
 7702SOL    HW234743   2.568   3.997  12.263  0.7838  0.9549  0.0540
 7703SOL     OW34744   1.839   0.229   4.327  0.5405 -0.1365 -0.2661
 7703SOL    HW134745   1.836   0.142   4.287  1.1856  0.3994 -1.4701
 7703SOL    HW234746   1.846   0.197   4.417 -2.1220  1.2418  0.4210
 7704SOL     OW34747   3.080   3.839   9.197  0.3144  0.8491  0.1600
 7704SOL    HW134748   3.031   3.770   9.152  0.5535  0.7958 -0.0202
 7704SOL    HW234749   3.041   3.911   9.147 -0.4194 -0.5240 -1.2546
 7705SOL     OW34750   0.070   0.099   6.394  0.2881  0.3727  0.5771
 7705SOL    HW134751   0.017   0.148   6.456 -2.5842  0.2430 -1.7934
 7705SOL    HW234752   0.097   0.040   6.464 -2.1122  0.4739  1.5603
 7706SOL     OW34753   1.641   2.542   2.437 -0.4022 -0.2504  0.3608
 7706SOL    HW134754   1.587   2.524   2.360  0.6441  0.6220 -0.5656
 7706SOL    HW234755   1.700   2.466   2.436 -1.6567 -1.2283  1.2899
 7707SOL     OW34756   4.338   0.347  16.200 -0.2619  0.5650  0.6908
 7707SOL    HW134757   4.390   0.335  16.120 -1.0638 -2.7212  0.6504
 7707SOL    HW234758   4.405   0.326  16.265  0.0833  1.6926  0.6998
 7708SOL     OW34759   2.158   3.760   9.135 -0.6123  0.3275  0.1231
 7708SOL    HW134760   2.177   3.854   9.142  1.8979 -0.2001  0.4074
 7708SOL    HW234761   2.235   3.717   9.173 -1.9353 -1.8676  0.3329
 7709SOL     OW34762   2.953   0.652   9.249 -0.0093  0.2609 -0.1191
 7709SOL    HW134763   2.909   0.570   9.272  0.1634 -0.4282 -2.1949
 7709SOL    HW234764   2.979   0.686   9.334  1.7904 -0.1588 -0.4977
 7710SOL     OW34765   1.648   4.443  11.487 -0.0381  0.2324  0.6473
 7710SOL    HW134766   1.619   4.477  11.402 -0.6109 -2.5221 -0.2578
 7710SOL    HW234767   1.741   4.427  11.473 -0.0188 -1.1610  2.5167
 7711SOL     OW34768   4.447   2.124  14.045  0.2564  0.2642  0.6391
 7711SOL    HW134769   4.393   2.198  14.016  0.8937  0.6372  0.3965
 7711SOL    HW234770   4.451   2.074  13.963 -1.8795 -0.0116  0.6908
 7712SOL     OW34771   0.985   4.450   1.290  0.7617 -0.2621 -0.3732
 7712SOL    HW134772   0.955   4.475   1.377  1.9094  0.2550 -0.1263
 7712SOL    HW234773   0.911   4.399   1.257  1.7989 -1.1900 -1.2595
 7713SOL     OW34774   3.851   0.651   6.097 -0.5497 -0.3604  0.0800
 7713SOL    HW134775   3.871   0.661   6.003 -1.7419  0.6007 -0.0725
 7713SOL    HW234776   3.790   0.723   6.113  0.6369  0.5925  0.3560
 7714SOL     OW34777   1.992   3.358   2.573  0.1470  0.4597  0.5128
 7714SOL    HW134778   1.938   3.325   2.645 -1.5062  0.2653 -0.7988
 7714SOL    HW234779   2.071   3.305   2.583  0.3926  1.0959  1.9113
 7715SOL     OW34780   0.701   2.086   3.872 -0.6949 -0.7045  0.1921
 7715SOL    HW134781   0.763   2.017   3.896  0.2487 -0.3923 -1.3498
 7715SOL    HW234782   0.666   2.058   3.788 -2.7183  2.1691  0.1030
 7716SOL     OW34783   3.880   3.322   5.263 -0.0862 -0.2826 -0.0488
 7716SOL    HW134784   3.932   3.262   5.210 -0.4089 -2.0297  1.6154
 7716SOL    HW234785   3.794   3.313   5.223 -0.2206  1.1930 -0.1134
 7717SOL     OW34786   4.193   4.722   3.218 -0.3215  0.3468 -0.1407
 7717SOL    HW134787   4.127   0.055   3.231 -2.4927 -1.6699 -0.4950
 7717SOL    HW234788   4.202   4.686   3.306 -0.8046  0.1148 -0.1864
 7718SOL     OW34789   3.671   1.938  13.674 -0.6763 -0.0287  0.1986
 7718SOL    HW134790   3.587   1.915  13.714 -1.3291 -1.3725 -1.9842
 7718SOL    HW234791   3.648   1.985  13.594  1.2628 -0.0350 -0.3610
 7719SOL     OW34792   2.726   2.483   9.738  0.2417 -0.0103 -0.0146
 7719SOL    HW134793   2.786   2.520   9.803  1.0866  0.3158 -0.9861
 7719SOL    HW234794   2.668   2.438   9.800 -1.5002  1.7123 -0.3932
 7720SOL     OW34795   2.233   1.916  16.833  0.4797 -0.1528 -0.1420
 7720SOL    HW134796   2.221   1.871  16.750  1.2452  0.6444 -0.6852
 7720SOL    HW234797   2.321   1.886  16.855  0.4358 -0.5644 -0.5480
 7721SOL     OW34798   0.171   2.233   5.152  0.1139 -0.7263  0.3467
 7721SOL    HW134799   0.229   2.186   5.092 -0.4219  0.6564 -1.2686
 7721SOL    HW234800   0.123   2.158   5.186  0.3892 -0.8134  0.5355
 7722SOL     OW34801   3.339   1.661   9.790  0.2108  0.3039 -0.4076
 7722SOL    HW134802   3.294   1.737   9.753  2.2082  2.0241  0.6944
 7722SOL    HW234803   3.375   1.695   9.872  0.3251 -1.0062  0.0823
 7723SOL     OW34804   1.148   4.582   4.079  0.1292 -0.5261  0.1884
 7723SOL    HW134805   1.095   4.649   4.038  0.4536  0.2099  0.9771
 7723SOL    HW234806   1.164   4.625   4.163  0.5401 -3.1121  1.4342
 7724SOL     OW34807   4.728   0.439   5.596 -0.3837  0.0173 -0.0078
 7724SOL    HW134808   4.708   0.505   5.663 -0.2383  0.9837 -0.9087
 7724SOL    HW234809   0.017   0.359   5.642 -0.4869  0.1721  0.3178
 7725SOL     OW34810   0.020   1.285   6.649 -0.1966  0.3768  0.0182
 7725SOL    HW134811   4.729   1.343   6.720  2.6901 -0.9643  2.1671
 7725SOL    HW234812   0.052   1.353   6.589 -0.6597  0.9662  0.4373
 7726SOL     OW34813   1.415   0.422   0.015 -0.0168  0.3477 -0.1799
 7726SOL    HW134814   1.351   0.430  17.685  0.0691 -0.1123 -0.3081
 7726SOL    HW234815   1.372   0.447   0.097 -0.9757  4.6481 -1.9705
 7727SOL     OW34816   0.666   2.580   3.676  0.3998 -0.2282  0.5739
 7727SOL    HW134817   0.581   2.587   3.632 -1.0649 -2.2550  3.1085
 7727SOL    HW234818   0.703   2.501   3.637 -4.0854 -1.6496 -0.7748
 7728SOL     OW34819   2.344   1.312  17.414 -0.1868 -0.1475 -0.0384
 7728SOL    HW134820   2.350   1.354  17.500  4.8894  0.4172 -0.6363
 7728SOL    HW234821   2.379   1.225  17.433  2.6008  1.1226  0.7204
 7729SOL     OW34822   0.580   2.055  17.716 -0.0170  0.1404 -0.3879
 7729SOL    HW134823   0.640   1.999   0.024  1.9854  2.2805 -0.4139
 7729SOL    HW234824   0.600   2.022  17.628 -0.0603 -2.0888  0.4228
 7730SOL     OW34825   2.412   1.017  13.869  0.7340  0.0121  0.6003
 7730SOL    HW134826   2.380   1.049  13.954 -1.3943 -0.1243 -0.1566
 7730SOL    HW234827   2.435   0.924  13.873  0.0478 -0.2987 -3.0343
 7731SOL     OW34828   0.568   1.237   5.654 -0.2107  0.7050 -0.4260
 7731SOL    HW134829   0.480   1.274   5.654 -0.2646  0.5776 -0.5009
 7731SOL    HW234830   0.569   1.220   5.748  0.6595 -2.8750 -1.0761
 7732SOL     OW34831   4.201   4.310  10.418  0.2865 -0.1714 -0.5862
 7732SOL    HW134832   4.118   4.338  10.457 -1.3328 -1.4067 -3.0545
 7732SOL    HW234833   4.216   4.232  10.471  0.3016 -1.0928 -1.9197
 7733SOL     OW34834   0.504   2.848   1.581 -0.6307  0.3923  0.0322
 7733SOL    HW134835   0.570   2.826   1.647 -0.5423  2.2727  0.5502
 7733SOL    HW234836   0.526   2.937   1.555  0.1954  0.1217 -0.1775
 7734SOL     OW34837   0.684   1.190  16.102  1.1666 -0.0246 -0.5221
 7734SOL    HW134838   0.775   1.171  16.122  1.2736  1.0314 -0.0193
 7734SOL    HW234839   0.681   1.175  16.007  0.3124  0.7788 -0.6342
 7735SOL     OW34840   1.360   3.509   1.196  0.1049 -0.2426 -0.8604
 7735SOL    HW134841   1.277   3.470   1.170  0.6855 -1.6977 -0.4945
 7735SOL    HW234842   1.430   3.454   1.161  0.4361 -0.3880  0.0470
 7736SOL     OW34843   3.065   3.809   2.612  0.2843 -0.5159  0.4655
 7736SOL    HW134844   2.971   3.819   2.598  0.6911  1.2644 -0.9715
 7736SOL    HW234845   3.100   3.797   2.523  2.0472  3.4880  0.6269
 7737SOL     OW34846   3.521   1.335   6.761 -0.2109 -0.1089 -0.3240
 7737SOL    HW134847   3.454   1.353   6.695  2.3434  0.5095 -2.7459
 7737SOL    HW234848   3.582   1.285   6.707 -1.2665 -0.4875 -1.1545
 7738SOL     OW34849   0.751   3.718  13.702 -0.0642  0.0782 -0.0507
 7738SOL    HW134850   0.672   3.738  13.751 -1.1576 -2.0867 -0.9227
 7738SOL    HW234851   0.815   3.779  13.739  1.1733 -1.8964  1.0611
 7739SOL     OW34852   3.224   1.466   2.870  0.0576  0.3265  0.1903
 7739SOL    HW134853   3.262   1.552   2.888 -0.8759  1.3781 -2.9376
 7739SOL    HW234854   3.228   1.416   2.952  1.0189 -0.3742 -0.2873
 7740SOL     OW34855   1.933   3.891   1.142  0.7831  0.0997  0.1704
 7740SOL    HW134856   1.995   3.883   1.215  1.8144 -0.7124 -0.8011
 7740SOL    HW234857   1.879   3.814   1.159 -0.1631  0.4343 -1.3490
 7741SOL     OW34858   0.331   1.524   7.920  0.7643  0.2622 -0.3256
 7741SOL    HW134859   0.280   1.473   7.858 -0.2233 -0.7425  1.3077
 7741SOL    HW234860   0.343   1.459   7.989  0.9975  1.2017  0.5196
 7742SOL     OW34861   0.288   4.680   7.776 -0.0850  0.6185  0.2309
 7742SOL    HW134862   0.276   4.665   7.870  0.7428 -1.2688  0.0275
 7742SOL    HW234863   0.339   0.026   7.775 -2.0042  1.8407  0.3480
 7743SOL     OW34864   3.368   4.338   5.270 -1.2304 -0.4636  0.0303
 7743SOL    HW134865   3.297   4.322   5.333  0.6495  3.9621  3.2462
 7743SOL    HW234866   3.414   4.254   5.267  2.5619  1.5833  0.9791
 7744SOL     OW34867   4.380   2.291   9.701 -0.1012  0.6595  0.5086
 7744SOL    HW134868   4.296   2.314   9.664 -0.6220 -0.1758  1.1659
 7744SOL    HW234869   4.396   2.201   9.672  0.7582  1.3149 -1.0575
 7745SOL     OW34870   3.400   2.799   2.612  0.0557  0.3269  0.0906
 7745SOL    HW134871   3.420   2.710   2.583  2.7373  0.2394  2.3101
 7745SOL    HW234872   3.482   2.844   2.595  0.3311  0.7390  2.6151
 7746SOL     OW34873   0.886   0.253   5.933 -0.5046 -0.8337 -0.0307
 7746SOL    HW134874   0.911   0.205   6.012  1.7913 -1.0514 -0.8991
 7746SOL    HW234875   0.964   0.249   5.877  2.0024 -1.3352  3.5128
 7747SOL     OW34876   1.752   0.814   7.613  0.9320  0.2708 -0.1531
 7747SOL    HW134877   1.712   0.892   7.652  3.3954 -0.2287  3.3356
 7747SOL    HW234878   1.685   0.750   7.637  0.9571 -0.1402 -1.2094
 7748SOL     OW34879   1.690   1.665   7.728  0.6064  0.0700  0.1083
 7748SOL    HW134880   1.681   1.584   7.779  0.3477  2.3423  3.7383
 7748SOL    HW234881   1.760   1.632   7.673  1.2313  1.0564  0.3152
 7749SOL     OW34882   1.673   4.406   6.919  0.3976 -0.9553 -0.1472
 7749SOL    HW134883   1.632   4.392   6.833  1.6700 -0.0433 -0.9041
 7749SOL    HW234884   1.682   4.501   6.924 -1.3592 -0.8948  1.6351
 7750SOL     OW34885   4.232   1.657  15.314 -0.1441 -0.0257 -0.1901
 7750SOL    HW134886   4.160   1.716  15.294 -0.6896 -0.2366  1.1107
 7750SOL    HW234887   4.269   1.663  15.226 -0.0189  0.3653 -0.1097
 7751SOL     OW34888   4.031   0.091   4.157 -0.0560 -0.1478  0.0858
 7751SOL    HW134889   4.037   0.002   4.123 -3.4920 -0.9236  1.4564
 7751SOL    HW234890   4.069   0.146   4.088  0.7707  1.0340  1.4871
 7752SOL     OW34891   2.672   2.087   2.794 -0.1729  0.1201 -0.5159
 7752SOL    HW134892   2.708   2.002   2.821 -1.0612 -0.2858 -0.5846
 7752SOL    HW234893   2.629   2.064   2.712  2.1323 -1.1116 -1.3734
 7753SOL     OW34894   0.577   4.231   4.919 -0.4735  0.0280 -0.3722
 7753SOL    HW134895   0.575   4.136   4.926  0.6821 -0.0876 -1.6101
 7753SOL    HW234896   0.654   4.224   4.862 -0.4228 -3.1208  0.1330
 7754SOL     OW34897   1.104   3.431   1.138 -0.1425 -0.4647  0.0469
 7754SOL    HW134898   1.058   3.507   1.101  0.7233  0.4983  0.9475
 7754SOL    HW234899   1.110   3.367   1.067  0.3295 -0.6353  0.2430
 7755SOL     OW34900   4.541   3.423   6.546  0.4943  0.6889 -0.2110
 7755SOL    HW134901   4.615   3.375   6.584  0.1998  0.6094  0.2547
 7755SOL    HW234902   4.560   3.425   6.452  0.7026 -1.1399 -0.2031
 7756SOL     OW34903   0.485   4.464   7.351  0.0735 -0.1702 -0.6811
 7756SOL    HW134904   0.480   4.391   7.290  4.6197  0.9215 -2.4048
 7756SOL    HW234905   0.574   4.501   7.344 -0.2467  0.7834  0.2088
 7757SOL     OW34906   4.552   2.941   2.696  0.1058  0.1059 -0.3599
 7757SOL    HW134907   4.497   3.019   2.704 -0.8745 -0.6187 -0.1063
 7757SOL    HW234908   4.506   2.881   2.754  0.0721  0.2665 -0.2208
 7758SOL     OW34909   2.144   1.363   7.481 -0.3032  0.0340  0.2171
 7758SOL    HW134910   2.182   1.447   7.454 -1.0177  0.1990 -0.2665
 7758SOL    HW234911   2.093   1.339   7.404 -0.9089 -0.4320  0.7663
 7759SOL     OW34912   0.571   3.079   6.497 -0.6088 -0.2896  0.2572
 7759SOL    HW134913   0.610   3.159   6.532 -2.5842 -0.4787  2.8705
 7759SOL    HW234914   0.631   3.070   6.423 -0.7780  1.0346 -0.0392
 7760SOL     OW34915   1.124   2.541   8.323  0.0478 -0.2760  0.0872
 7760SOL    HW134916   1.156   2.457   8.356  2.6744  0.4997 -0.4359
 7760SOL    HW234917   1.208   2.584   8.308  0.6746 -1.9235 -1.1152
 7761SOL     OW34918   2.664   3.877   0.704  0.1375 -0.6805  0.5743
 7761SOL    HW134919   2.628   3.950   0.753 -0.4977  0.1844 -1.1990
 7761SOL    HW234920   2.647   3.913   0.617  1.2688 -1.8493 -0.1320
 7762SOL     OW34921   1.853   4.054  10.269 -0.0716 -0.4776  0.2839
 7762SOL    HW134922   1.892   3.969  10.290 -1.7046 -1.1272  0.6985
 7762SOL    HW234923   1.920   4.109  10.309  0.8835 -0.4579 -1.3233
 7763SOL     OW34924   0.018   2.443  15.451  0.0204  0.4086  0.2504
 7763SOL    HW134925   0.006   2.426  15.357  0.7252 -0.9191  0.3962
 7763SOL    HW234926   4.700   2.513  15.487  0.0864  1.0684 -0.9269
 7764SOL     OW34927   4.012   1.948  10.976 -0.5571  0.5732  0.2274
 7764SOL    HW134928   4.010   2.001  10.896  1.4547  0.4109  0.0773
 7764SOL    HW234929   3.928   1.973  11.016 -1.8211  1.5433 -3.0448
 7765SOL     OW34930   2.932   4.089  12.778 -0.1366  0.2331 -0.4134
 7765SOL    HW134931   2.838   4.078  12.768  0.0492 -1.8328  0.0742
 7765SOL    HW234932   2.932   4.182  12.801 -1.1819  0.1168  0.0372
 7766SOL     OW34933   0.455   4.349   8.607 -0.1663 -0.1096  0.1279
 7766SOL    HW134934   0.424   4.412   8.671  0.6444  2.9707 -2.4716
 7766SOL    HW234935   0.514   4.299   8.662 -2.1521 -3.2674 -0.6284
 7767SOL     OW34936   1.316   1.413  14.293 -0.5751 -0.2368  0.9209
 7767SOL    HW134937   1.389   1.378  14.344  0.6742 -0.1262 -0.7758
 7767SOL    HW234938   1.350   1.469  14.223 -1.3383  0.5339  1.1728
 7768SOL     OW34939   4.151   4.412   7.299 -0.0351  0.2418 -0.2977
 7768SOL    HW134940   4.187   4.482   7.353 -2.1416  1.4789 -0.5350
 7768SOL    HW234941   4.085   4.464   7.254 -2.1678 -2.0165  0.1793
 7769SOL     OW34942   4.292   3.204   3.825 -0.2927  0.5689  0.6830
 7769SOL    HW134943   4.381   3.182   3.798 -1.0560 -1.0804 -0.4384
 7769SOL    HW234944   4.242   3.129   3.793 -2.5659  1.4763  2.0807
 7770SOL     OW34945   1.838   2.454   7.660 -0.4731  0.2309 -0.3826
 7770SOL    HW134946   1.850   2.402   7.740  1.9895  3.7989  1.5824
 7770SOL    HW234947   1.755   2.500   7.671 -0.6415 -0.2648  0.4718
 7771SOL     OW34948   4.106   0.334   7.539  0.6832  0.0292 -0.0255
 7771SOL    HW134949   4.158   0.388   7.480  0.0632  0.5548 -0.0916
 7771SOL    HW234950   4.022   0.373   7.516  1.3425  0.7608 -1.2409
 7772SOL     OW34951   2.818   0.939   0.769 -0.4623 -0.4754 -0.1673
 7772SOL    HW134952   2.790   0.884   0.841  1.9644  1.4131  2.1935
 7772SOL    HW234953   2.743   0.934   0.710 -1.5305 -1.5984  1.2961
 7773SOL     OW34954   1.753   1.915   6.228 -0.1039 -0.3237 -0.6163
 7773SOL    HW134955   1.758   1.863   6.309  1.9260 -0.1103 -0.6186
 7773SOL    HW234956   1.829   1.972   6.236  0.4805 -1.0783 -0.7579
 7774SOL     OW34957   4.321   0.495   2.060 -0.3466 -0.5551  0.1105
 7774SOL    HW134958   4.325   0.476   2.154  0.7517 -0.9970 -0.0239
 7774SOL    HW234959   4.227   0.494   2.043 -0.3672  2.7943 -0.0942
 7775SOL     OW34960   1.834   0.192   2.371 -0.4623 -0.2619 -0.4693
 7775SOL    HW134961   1.873   0.178   2.458  0.0523  0.5357 -0.5679
 7775SOL    HW234962   1.895   0.137   2.322  0.5076 -2.1213  2.8027
 7776SOL     OW34963   4.498   0.770   7.694  0.1706 -0.0155  0.4642
 7776SOL    HW134964   4.403   0.778   7.691  0.2790  0.8605 -0.8563
 7776SOL    HW234965   4.497   0.762   7.598  0.0305 -4.2028  0.8241
 7777SOL     OW34966   4.313   2.988  13.526  0.1931 -0.0761  0.1462
 7777SOL    HW134967   4.290   3.002  13.618 -2.4200 -2.6471 -0.1242
 7777SOL    HW234968   4.227   3.009  13.489  1.0704  0.1880 -1.7556
 7778SOL     OW34969   0.674   0.360   3.853  0.1592 -0.5278  0.2799
 7778SOL    HW134970   0.729   0.426   3.894 -0.3175  0.0069  0.0574
 7778SOL    HW234971   0.735   0.350   3.780  1.4752  2.0992  1.0340
 7779SOL     OW34972   2.107   2.722   5.245 -0.0274  0.8653 -0.1481
 7779SOL    HW134973   2.058   2.783   5.190  1.1941  1.3304 -0.7280
 7779SOL    HW234974   2.139   2.783   5.312 -0.2959 -0.2214  0.9716
 7780SOL     OW34975   0.942   3.547   8.307  0.5093  0.6232  0.3724
 7780SOL    HW134976   0.924   3.488   8.234 -0.0953 -0.8225  1.6860
 7780SOL    HW234977   1.004   3.605   8.261 -1.2927  1.2108 -1.3290
 7781SOL     OW34978   4.613   3.040   4.224  0.0517  0.0167 -0.2563
 7781SOL    HW134979   4.523   3.035   4.191  0.0392 -0.2294 -0.1855
 7781SOL    HW234980   4.650   3.090   4.151 -1.6031  0.9383 -0.4719
 7782SOL     OW34981   4.074   2.117  11.254 -0.2702 -0.0095 -0.2029
 7782SOL    HW134982   4.079   2.212  11.269  0.2872 -0.0229 -0.3050
 7782SOL    HW234983   4.100   2.119  11.162  3.2722 -0.6721  0.8030
 7783SOL     OW34984   3.531   3.689   2.124 -0.4457 -0.1466  0.4236
 7783SOL    HW134985   3.452   3.720   2.167  0.6078  0.5910  1.8233
 7783SOL    HW234986   3.596   3.689   2.195 -2.3350  2.6957  2.1335
 7784SOL     OW34987   4.631   0.294   8.324 -0.0073 -0.1317  0.0740
 7784SOL    HW134988   4.578   0.339   8.389 -0.2134  0.2299 -0.3436
 7784SOL    HW234989   4.613   0.202   8.348  1.2502 -1.0380 -2.4561
 7785SOL     OW34990   0.197   4.234  12.777 -0.2328  0.3479  0.2472
 7785SOL    HW134991   0.283   4.246  12.736  0.6929 -1.5049  1.6942
 7785SOL    HW234992   0.174   4.148  12.741 -0.8879  0.0882  1.2897
 7786SOL     OW34993   1.139   4.436   3.562 -0.6625 -0.3364  0.1469
 7786SOL    HW134994   1.171   4.360   3.513  0.1266 -0.3815  0.7452
 7786SOL    HW234995   1.096   4.477   3.487  0.6767  0.0018 -0.4347
 7787SOL     OW34996   2.414   0.353   3.749  0.2368  0.1912 -0.0615
 7787SOL    HW134997   2.406   0.268   3.791  0.7853 -1.0926 -2.5839
 7787SOL    HW234998   2.494   0.390   3.787 -0.6963  1.3755  0.7413
 7788SOL     OW34999   3.678   1.695   3.553 -0.2351  0.1288  0.2807
 7788SOL    HW135000   3.701   1.617   3.604  1.2435  0.4011  0.0339
 7788SOL    HW235001   3.741   1.760   3.583  0.0319 -0.3049  0.6703
 7789SOL     OW35002   2.383   4.002  10.045 -0.3007 -0.1941 -0.6815
 7789SOL    HW135003   2.341   4.041   9.968  0.8536 -0.4704 -1.4371
 7789SOL    HW235004   2.307   3.964  10.089  0.4492  0.3900  1.1063
 7790SOL     OW35005   0.826   4.008   1.800 -0.3306 -0.0603 -0.4463
 7790SOL    HW135006   0.773   4.042   1.728 -1.5318  0.8212  0.8785
 7790SOL    HW235007   0.798   4.063   1.873  0.8395  1.3180 -1.0387
 7791SOL     OW35008   2.422   1.075  13.053  0.5537  0.9270  0.1138
 7791SOL    HW135009   2.443   1.156  13.006  0.6262 -0.9278 -3.0254
 7791SOL    HW235010   2.330   1.052  13.037  0.9386 -1.3113  1.1745
 7792SOL     OW35011   4.456   2.362   1.796  0.3308  0.4719  0.0122
 7792SOL    HW135012   4.434   2.447   1.758 -2.0151  0.4052  1.2121
 7792SOL    HW235013   4.449   2.389   1.888  0.9300 -3.2513  1.1720
 7793SOL     OW35014   4.260   2.079   0.253  0.4307 -0.2575 -0.0741
 7793SOL    HW135015   4.252   2.036   0.339  3.9857 -2.0530 -0.6617
 7793SOL    HW235016   4.180   2.131   0.248  0.4605 -0.0828  1.1274
 7794SOL     OW35017   1.626   3.542   4.504 -0.0639  0.6985  0.0078
 7794SOL    HW135018   1.697   3.521   4.444 -0.1230 -1.4063  0.6890
 7794SOL    HW235019   1.618   3.637   4.495  0.7747  0.9431  1.9481
 7795SOL     OW35020   0.965   3.042   4.198  0.4175  0.1240 -0.0171
 7795SOL    HW135021   0.910   3.068   4.272  0.6587  1.1331 -0.2027
 7795SOL    HW235022   0.947   3.104   4.127  0.2990 -0.6090 -0.6300
 7796SOL     OW35023   1.138   2.257  14.126 -0.2771  0.2265  0.2499
 7796SOL    HW135024   1.189   2.327  14.085 -0.6242  1.0214  1.1783
 7796SOL    HW235025   1.055   2.302  14.143  1.1566  2.6638  0.7502
 7797SOL     OW35026   1.795   2.821  13.405  0.2485 -0.3519 -0.3300
 7797SOL    HW135027   1.723   2.852  13.460 -0.2331  0.3280 -1.3441
 7797SOL    HW235028   1.763   2.768  13.332 -0.7396  2.2084 -1.7475
 7798SOL     OW35029   1.205   3.707   7.852 -0.2752  0.2198  0.0330
 7798SOL    HW135030   1.122   3.702   7.805  0.0925 -1.0597 -0.4790
 7798SOL    HW235031   1.249   3.782   7.811  1.5505 -0.6489  0.4213
 7799SOL     OW35032   2.106   0.728   4.490  0.2020  0.2126 -0.4202
 7799SOL    HW135033   2.164   0.692   4.557 -2.7496  0.0636  2.0227
 7799SOL    HW235034   2.048   0.655   4.469 -0.4407  0.0358  1.9727
 7800SOL     OW35035   2.403   3.739   1.412  0.1645  0.6231  0.9589
 7800SOL    HW135036   2.493   3.705   1.411 -0.0195  0.1064  2.0901
 7800SOL    HW235037   2.389   3.760   1.504  0.8865 -2.3510  1.7617
 7801SOL     OW35038   3.675   4.087   4.164  0.7268 -0.4174 -0.3127
 7801SOL    HW135039   3.683   4.102   4.259 -1.0432  0.3808 -0.2890
 7801SOL    HW235040   3.731   4.152   4.121  0.4856 -0.5007 -0.7484
 7802SOL     OW35041   3.369   2.934   6.722  0.1469 -0.3448  0.1805
 7802SOL    HW135042   3.453   2.980   6.719 -0.6419  1.0519 -0.5566
 7802SOL    HW235043   3.358   2.931   6.818  0.2838 -3.1660  0.0887
 7803SOL     OW35044   2.341   3.079   7.992 -0.0245 -0.8767 -0.2730
 7803SOL    HW135045   2.385   3.139   7.932  0.1678 -0.9711 -0.2276
 7803SOL    HW235046   2.401   3.005   7.983 -0.9745 -1.8287  1.2669
 7804SOL     OW35047   3.600   2.766   4.530  0.1415 -0.1075  0.0535
 7804SOL    HW135048   3.685   2.727   4.548 -0.2292 -0.7393  0.4585
 7804SOL    HW235049   3.546   2.704   4.480 -1.0776  0.7178  0.3560
 7805SOL     OW35050   2.643   4.314   6.899  0.4794  0.1633 -0.4257
 7805SOL    HW135051   2.643   4.362   6.981  3.5939 -1.7684  0.6956
 7805SOL    HW235052   2.549   4.294   6.893  0.5165 -0.6591  1.9795
 7806SOL     OW35053   3.323   4.462   8.748  0.7244 -0.4674 -0.5154
 7806SOL    HW135054   3.352   4.540   8.795  0.0605  0.4500 -1.6357
 7806SOL    HW235055   3.272   4.411   8.811  0.8851 -0.1124 -0.1037
 7807SOL     OW35056   3.461   1.149   2.934  0.4131 -0.4449  0.6761
 7807SOL    HW135057   3.404   1.171   3.007 -1.0622 -0.9727 -0.3213
 7807SOL    HW235058   3.540   1.195   2.964  0.8791  0.3152 -1.7073
 7808SOL     OW35059   2.848   0.789   7.623  0.0526  0.1180 -0.0814
 7808SOL    HW135060   2.900   0.708   7.621  0.7326  0.5770 -0.8719
 7808SOL    HW235061   2.912   0.855   7.596  0.9792 -0.2228  1.2342
 7809SOL     OW35062   1.654   1.251   6.340  0.5506 -0.1659  0.4112
 7809SOL    HW135063   1.676   1.344   6.332 -0.6454  0.0063 -0.9095
 7809SOL    HW235064   1.590   1.263   6.411  1.2192  0.8956  0.8426
 7810SOL     OW35065   0.119   0.246   7.971  0.4168  0.4393  0.1323
 7810SOL    HW135066   0.030   0.278   7.987 -0.0115 -0.8733  0.3240
 7810SOL    HW235067   0.116   0.151   7.982  1.4760  0.5313  1.2321
 7811SOL     OW35068   4.619   3.207   8.008  0.2029 -0.1435  0.2866
 7811SOL    HW135069   4.585   3.177   7.924  0.9944  0.7016 -0.3268
 7811SOL    HW235070   4.692   3.150   8.033  0.9656  0.3282 -0.8883
 7812SOL     OW35071   4.244   0.556   8.092 -0.0227 -0.2879 -0.0262
 7812SOL    HW135072   4.225   0.491   8.159 -0.3496 -1.9897 -1.7534
 7812SOL    HW235073   4.325   0.592   8.129 -0.2419 -0.1945  0.3591
 7813SOL     OW35074   2.176   4.426   5.236 -0.5239  1.9869 -0.0063
 7813SOL    HW135075   2.125   4.400   5.159 -0.4475 -0.4036  0.7521
 7813SOL    HW235076   2.206   4.339   5.262 -1.5724  2.0247  1.2734
 7814SOL     OW35077   3.567   4.096  13.436 -0.7319  0.4157  0.2085
 7814SOL    HW135078   3.572   4.038  13.360  1.2879  0.6321  0.1647
 7814SOL    HW235079   3.474   4.112  13.446 -1.2278 -2.1152 -0.3727
 7815SOL     OW35080   4.314   4.319  14.333 -0.2206 -0.2414 -0.4161
 7815SOL    HW135081   4.316   4.256  14.405 -1.0183  1.3095  0.9592
 7815SOL    HW235082   4.226   4.299  14.299  0.0822  0.1867 -1.4455
 7816SOL     OW35083   3.819   4.352   6.623 -0.2088  0.5335 -0.3748
 7816SOL    HW135084   3.824   4.400   6.706 -0.0594 -0.3728  0.1444
 7816SOL    HW235085   3.727   4.326   6.628  0.1496 -0.4403  1.4295
 7817SOL     OW35086   0.382   1.634   4.128 -0.3167 -0.3246  0.8089
 7817SOL    HW135087   0.324   1.623   4.203 -0.4617 -1.1213  0.5810
 7817SOL    HW235088   0.422   1.547   4.119  0.6166 -0.0355  2.0726
 7818SOL     OW35089   3.538   1.261  14.647  0.2593 -0.0813 -0.0457
 7818SOL    HW135090   3.623   1.304  14.659  0.1318 -0.3458  1.8835
 7818SOL    HW235091   3.569   1.186  14.598  0.8919 -1.4559  2.4372
 7819SOL     OW35092   4.314   2.226  14.879  0.6874 -0.6704 -0.1732
 7819SOL    HW135093   4.296   2.133  14.873 -0.3421 -0.5433  1.0760
 7819SOL    HW235094   4.251   2.272  14.824  2.1907 -1.2714 -2.4279
 7820SOL     OW35095   3.669   2.379   5.047 -0.0144 -0.2250 -0.8814
 7820SOL    HW135096   3.692   2.443   4.979  0.5950 -0.5957 -1.0282
 7820SOL    HW235097   3.708   2.418   5.125  1.0966  1.2835 -2.1906
 7821SOL     OW35098   1.306   3.230   5.202  0.0408  0.2210  0.2905
 7821SOL    HW135099   1.327   3.186   5.119  0.2826 -3.3013  2.2425
 7821SOL    HW235100   1.241   3.296   5.175  0.7903  0.5726 -0.6396
 7822SOL     OW35101   0.837   3.099  17.313 -0.3182  0.1564  0.2342
 7822SOL    HW135102   0.816   3.173  17.370  1.7959  0.7651  0.2117
 7822SOL    HW235103   0.859   3.158  17.241 -1.1769 -1.0827 -1.0597
 7823SOL     OW35104   0.576   3.872   1.407  0.0251 -0.7284 -0.4435
 7823SOL    HW135105   0.542   3.784   1.424  1.4116 -1.2004 -0.0875
 7823SOL    HW235106   0.618   3.905   1.487 -0.8022  2.5020 -1.3210
 7824SOL     OW35107   2.931   3.239   5.931  0.7005 -0.6172 -0.5238
 7824SOL    HW135108   2.953   3.332   5.919  0.5026 -0.6697 -1.3380
 7824SOL    HW235109   2.852   3.249   5.984  1.8958 -0.5626  1.2183
 7825SOL     OW35110   1.213   3.635   4.952 -0.3435 -0.4418 -0.7078
 7825SOL    HW135111   1.238   3.566   5.014 -2.0787 -2.0012 -1.7644
 7825SOL    HW235112   1.253   3.611   4.869  0.0180  0.8319 -0.9024
 7826SOL     OW35113   3.020   0.819   2.592 -0.2386  0.0366  0.1147
 7826SOL    HW135114   2.934   0.810   2.551 -0.7266  0.3357  1.0727
 7826SOL    HW235115   3.048   0.892   2.538 -3.7210  0.9154 -0.5143
 7827SOL     OW35116   1.563   4.031   6.739 -0.5651 -0.1975  0.1635
 7827SOL    HW135117   1.568   4.065   6.828 -0.3789 -0.2733  0.1832
 7827SOL    HW235118   1.651   4.048   6.705 -2.5686  2.8450 -3.5500
 7828SOL     OW35119   0.945   1.149   9.028 -0.0833 -0.1813  0.0912
 7828SOL    HW135120   1.035   1.158   8.994 -0.3540  0.6131 -0.4027
 7828SOL    HW235121   0.950   1.067   9.078 -1.5429 -0.5516 -0.3708
 7829SOL     OW35122   1.286   0.817   7.362 -0.0800  0.3239 -0.1434
 7829SOL    HW135123   1.245   0.732   7.347  1.0395 -0.0335 -1.1473
 7829SOL    HW235124   1.207   0.862   7.390  0.0461  0.7940 -0.5502
 7830SOL     OW35125   0.186   0.660   9.752  0.2248 -0.5432 -0.4092
 7830SOL    HW135126   0.173   0.727   9.685  1.6847  0.3452  0.2018
 7830SOL    HW235127   0.127   0.681   9.825 -0.0021 -2.3748 -0.0704
 7831SOL     OW35128   2.178   3.432  15.080  0.2332  0.0069  0.2424
 7831SOL    HW135129   2.183   3.360  15.143  1.6247 -1.7319 -1.8588
 7831SOL    HW235130   2.084   3.434  15.061  0.3140  2.5302  0.0204
 7832SOL     OW35131   0.270   3.131   3.625 -0.1967  0.0065  0.4157
 7832SOL    HW135132   0.323   3.146   3.546  2.0127  4.0020  2.6309
 7832SOL    HW235133   0.179   3.127   3.595  0.2111 -0.1353 -0.8326
 7833SOL     OW35134   2.999   1.156   9.361  0.0727 -0.4425 -0.0876
 7833SOL    HW135135   3.040   1.215   9.424  0.2747  0.4026 -1.0146
 7833SOL    HW235136   3.073   1.133   9.305  0.8380  0.6735  0.4613
 7834SOL     OW35137   1.451   3.171   8.264 -0.4093  0.1675 -0.2503
 7834SOL    HW135138   1.411   3.084   8.253 -0.3681  0.2549 -1.0670
 7834SOL    HW235139   1.489   3.158   8.351  2.9128 -0.6937 -1.8273
 7835SOL     OW35140   3.096   2.721   4.733 -0.0446 -0.6387  0.3764
 7835SOL    HW135141   3.115   2.805   4.776 -0.2141 -0.9174  0.9896
 7835SOL    HW235142   3.035   2.745   4.664  2.1339  0.7885 -1.0512
 7836SOL     OW35143   1.408   1.726   3.209 -0.1087  0.8572 -0.0890
 7836SOL    HW135144   1.356   1.773   3.274  0.5908  0.9309  0.4102
 7836SOL    HW235145   1.422   1.793   3.142  3.0652 -1.0980 -1.3895
 7837SOL     OW35146   1.262   1.931   3.865  0.4899  0.4291  0.4777
 7837SOL    HW135147   1.336   1.982   3.835 -2.2128  3.5665 -0.8726
 7837SOL    HW235148   1.309   1.895   3.940  1.6629  1.0902  0.0472
 7838SOL     OW35149   2.136   1.543  11.758  0.2115 -0.0861  0.6369
 7838SOL    HW135150   2.211   1.542  11.817  0.6822 -0.8774  0.0178
 7838SOL    HW235151   2.160   1.463  11.711  1.7556  0.0760  1.1549
 7839SOL     OW35152   1.507   4.574  13.674  0.1724  0.0232  0.3618
 7839SOL    HW135153   1.553   4.585  13.757  1.0767  1.6433 -0.3487
 7839SOL    HW235154   1.584   4.573  13.617  0.2959 -0.7511  0.5473
 7840SOL     OW35155   2.234   1.954  10.449 -0.2905 -0.2130 -0.1279
 7840SOL    HW135156   2.173   1.891  10.489  0.2829 -0.6180  0.1045
 7840SOL    HW235157   2.298   1.893  10.413  0.8030  0.3304  0.9132
 7841SOL     OW35158   3.281   0.514   1.675 -0.1034  0.1444  0.2567
 7841SOL    HW135159   3.191   0.511   1.708 -0.0799  1.1416  0.3937
 7841SOL    HW235160   3.308   0.601   1.703  1.6536 -0.9545  1.9646
 7842SOL     OW35161   2.028   2.633   5.576 -0.3899 -0.8011 -0.0631
 7842SOL    HW135162   2.101   2.695   5.573 -0.9216 -0.1598  0.3569
 7842SOL    HW235163   2.026   2.622   5.671  0.6709  0.0709  0.0596
 7843SOL     OW35164   4.212   3.744  14.751  0.2342  0.1662  0.5717
 7843SOL    HW135165   4.192   3.822  14.698 -0.3758 -0.7948 -0.6188
 7843SOL    HW235166   4.297   3.723  14.712  0.5941  0.1036  1.3871
 7844SOL     OW35167   4.333   3.062   8.304  0.2247  0.1325 -0.4913
 7844SOL    HW135168   4.383   3.002   8.360 -0.2291  0.1289 -0.0893
 7844SOL    HW235169   4.350   3.025   8.217  0.3401 -0.8972 -0.0316
 7845SOL     OW35170   3.293   2.912   6.984  0.1421  0.6652  0.2519
 7845SOL    HW135171   3.244   2.944   7.059 -0.7889 -1.3816  0.5218
 7845SOL    HW235172   3.334   2.833   7.020 -1.5370 -0.5096 -0.4372
 7846SOL     OW35173   2.069   3.206   8.038 -0.5276  0.5868  0.6307
 7846SOL    HW135174   2.013   3.207   7.960  2.5822 -0.2825 -1.6131
 7846SOL    HW235175   2.155   3.191   8.000 -1.2122  0.9324 -1.0428
 7847SOL     OW35176   1.020   1.177   7.988  0.2136 -0.4694  0.0004
 7847SOL    HW135177   1.047   1.266   8.011 -2.1816  0.1948  0.2298
 7847SOL    HW235178   1.061   1.126   8.058  0.0653 -0.3681  0.1623
 7848SOL     OW35179   1.737   4.581  13.018 -0.0425  0.0065 -0.3404
 7848SOL    HW135180   1.685   4.640  12.963 -0.2561 -0.0090 -0.1533
 7848SOL    HW235181   1.740   4.505  12.960  3.1732 -0.7953  0.8638
 7849SOL     OW35182   1.065   3.006  10.898  0.1045  0.0950 -0.1486
 7849SOL    HW135183   1.024   2.922  10.918  1.6825 -0.8880 -1.0496
 7849SOL    HW235184   1.018   3.032  10.819 -1.4491 -0.5847  0.5531
 7850SOL     OW35185   3.977   0.677   2.381  0.8667 -0.4972 -0.0780
 7850SOL    HW135186   4.008   0.726   2.457  2.5873  0.7295 -1.5548
 7850SOL    HW235187   3.919   0.620   2.431  0.7505 -0.8580 -0.6199
 7851SOL     OW35188   4.513   1.458   8.206 -0.5393 -0.1152  0.8032
 7851SOL    HW135189   4.431   1.450   8.158 -0.4094  2.1062  0.2235
 7851SOL    HW235190   4.518   1.550   8.233 -0.9675 -0.3389  1.6574
 7852SOL     OW35191   3.113   3.969   5.907  0.2716  0.1994 -0.0370
 7852SOL    HW135192   3.063   3.922   5.841  1.2808  0.9360 -1.3348
 7852SOL    HW235193   3.154   4.032   5.848 -0.1864  0.9381  0.4404
 7853SOL     OW35194   4.117   3.188   1.636  0.1199 -0.3577 -0.5004
 7853SOL    HW135195   4.156   3.121   1.692  2.8738  2.6521  1.2255
 7853SOL    HW235196   4.042   3.138   1.606 -1.1783  1.0242  0.4503
 7854SOL     OW35197   2.248   3.402   7.768  0.3177  0.3999 -0.6783
 7854SOL    HW135198   2.217   3.311   7.769  0.4893  0.3273 -1.9759
 7854SOL    HW235199   2.340   3.394   7.794 -0.7496  0.3033  3.0970
 7855SOL     OW35200   4.135   2.476  12.216 -0.2644  0.4937  0.0456
 7855SOL    HW135201   4.082   2.456  12.138 -1.7212  0.8141  0.9466
 7855SOL    HW235202   4.174   2.390  12.230  2.2157  0.9585 -4.0579
 7856SOL     OW35203   4.430   3.523   1.873  0.1891 -0.3650 -0.1907
 7856SOL    HW135204   4.480   3.520   1.955 -0.9428 -3.5561  0.3621
 7856SOL    HW235205   4.397   3.433   1.870 -0.1015 -0.2237 -1.1498
 7857SOL     OW35206   3.987   0.487   5.223 -1.0330 -0.0949 -0.1820
 7857SOL    HW135207   3.961   0.518   5.136  3.3638  1.5898 -0.8716
 7857SOL    HW235208   3.984   0.393   5.211  0.1609 -0.2349  0.6580
 7858SOL     OW35209   1.378   3.695   3.558 -0.1811 -0.2442 -0.2561
 7858SOL    HW135210   1.349   3.761   3.496 -0.2645 -1.2796 -1.3193
 7858SOL    HW235211   1.357   3.609   3.521 -0.7935  0.5613 -1.7769
 7859SOL     OW35212   3.952   2.477   0.664 -0.7335 -0.2086  0.0968
 7859SOL    HW135213   4.045   2.495   0.651 -0.3014 -2.5377 -0.0564
 7859SOL    HW235214   3.935   2.520   0.748  0.7683  0.0943  0.2357
 7860SOL     OW35215   0.128   0.593   1.662 -1.1935 -0.0027 -0.2893
 7860SOL    HW135216   0.102   0.622   1.749  3.6382  0.9035  0.8441
 7860SOL    HW235217   0.215   0.634   1.662 -0.4870 -1.4599  1.6099
 7861SOL     OW35218   3.626   0.937   0.084 -0.2760  0.9627  0.0410
 7861SOL    HW135219   3.671   0.885   0.151 -2.1655  1.6296  1.8161
 7861SOL    HW235220   3.610   0.873   0.015 -0.4716 -1.1959  2.0649
 7862SOL     OW35221   4.581   4.277  14.354  0.1154  0.1188 -0.2448
 7862SOL    HW135222   4.495   4.307  14.324 -1.3386 -3.2154  0.6349
 7862SOL    HW235223   4.599   4.356  14.406  1.2419 -0.4341  0.1925
 7863SOL     OW35224   2.987   1.296   7.262 -0.0481  0.3627  0.0977
 7863SOL    HW135225   2.931   1.362   7.301  1.1748  2.1363 -1.1130
 7863SOL    HW235226   3.077   1.330   7.263 -0.2363  0.8120  0.9864
 7864SOL     OW35227   0.153   3.223   5.391  0.3219  0.2488  0.2184
 7864SOL    HW135228   0.109   3.216   5.307 -0.8283  0.2202  0.8272
 7864SOL    HW235229   0.244   3.216   5.360  0.6524  3.1786  0.4924
 7865SOL     OW35230   1.209   2.177   3.350  0.1679 -0.2671  0.1473
 7865SOL    HW135231   1.283   2.215   3.303 -1.4810  0.3258 -1.9943
 7865SOL    HW235232   1.254   2.157   3.432 -1.5519 -0.0140  1.1579
 7866SOL     OW35233   3.835   2.352   3.228 -0.0656  0.2433  0.0814
 7866SOL    HW135234   3.870   2.387   3.309 -1.6612  0.1622  0.8184
 7866SOL    HW235235   3.776   2.282   3.259 -1.9258  2.3729  1.3540
 7867SOL     OW35236   1.336   3.670   2.403  0.0528  0.0927 -0.7437
 7867SOL    HW135237   1.302   3.727   2.472  0.5080  2.1504 -2.2111
 7867SOL    HW235238   1.294   3.712   2.328  0.4254 -1.0891 -1.6206
 7868SOL     OW35239   2.731   1.368   0.449  0.4368 -0.2481  0.1274
 7868SOL    HW135240   2.687   1.431   0.391  0.2285  0.8645  1.4836
 7868SOL    HW235241   2.799   1.421   0.491  0.7578  0.1841 -0.9432
 7869SOL     OW35242   4.408   3.573  12.201 -0.5977  0.4273 -0.8147
 7869SOL    HW135243   4.375   3.483  12.200 -1.0922  0.5456  3.6693
 7869SOL    HW235244   4.502   3.557  12.200 -0.7924 -0.8090  0.6789
 7870SOL     OW35245   1.150   0.365   1.317  0.2447 -0.9824 -0.3308
 7870SOL    HW135246   1.154   0.367   1.221  1.5878 -2.1064 -0.3019
 7870SOL    HW235247   1.191   0.281   1.337  1.5419 -0.1831  0.3365
 7871SOL     OW35248   0.692   3.973   3.437 -0.2318 -1.0362  0.1954
 7871SOL    HW135249   0.636   3.906   3.476 -1.4474 -1.4234 -2.2094
 7871SOL    HW235250   0.745   3.982   3.516  1.4768 -2.3759 -0.8091
 7872SOL     OW35251   2.194   0.119   8.596  0.8069  0.2853 -0.1408
 7872SOL    HW135252   2.107   0.137   8.559 -0.1302  1.6229  2.7402
 7872SOL    HW235253   2.238   0.197   8.560 -0.2438  0.4513 -1.0539
 7873SOL     OW35254   3.713   2.730   2.280  0.3340 -0.3472 -0.0504
 7873SOL    HW135255   3.787   2.749   2.221  0.6195 -0.6461  0.2100
 7873SOL    HW235256   3.725   2.636   2.295 -0.5448 -0.2721  1.0864
 7874SOL     OW35257   2.847   0.126  16.261 -0.4980 -0.1707  0.5471
 7874SOL    HW135258   2.920   0.077  16.223  0.7209  1.8772  0.2300
 7874SOL    HW235259   2.884   0.215  16.257  0.5514 -0.6658 -0.9012
 7875SOL     OW35260   2.903   2.993   6.214 -0.3612  0.2478  0.0304
 7875SOL    HW135261   2.851   3.038   6.147  0.2292 -0.9152 -1.2254
 7875SOL    HW235262   2.963   2.940   6.162  0.0498 -0.7751  1.5614
 7876SOL     OW35263   1.686   1.242   8.154  0.0368  0.8250 -0.1144
 7876SOL    HW135264   1.749   1.255   8.083  2.3878 -0.3241  1.7535
 7876SOL    HW235265   1.624   1.310   8.126 -1.0153 -0.5859 -1.2124
 7877SOL     OW35266   3.566   0.119   9.230 -0.3397  0.1775 -0.3429
 7877SOL    HW135267   3.478   0.153   9.214  0.5062  1.9642 -1.0661
 7877SOL    HW235268   3.606   0.203   9.250 -2.6789  1.2772 -0.3101
 7878SOL     OW35269   3.936   1.355   3.621 -0.0826  0.2072 -1.0709
 7878SOL    HW135270   3.850   1.349   3.661 -0.2475  0.5673 -1.3728
 7878SOL    HW235271   3.957   1.448   3.617 -2.2577  0.6727 -1.5256
 7879SOL     OW35272   2.720   1.266  16.953  0.1329  0.6186  0.2216
 7879SOL    HW135273   2.652   1.199  16.946  0.9271 -0.0891 -0.8863
 7879SOL    HW235274   2.669   1.346  16.961 -1.8455 -0.5353 -0.9331
 7880SOL     OW35275   4.227   1.392  14.814  0.1571 -0.9560 -0.0483
 7880SOL    HW135276   4.320   1.408  14.798 -0.1759  2.7315  1.7030
 7880SOL    HW235277   4.189   1.366  14.730 -1.2117  0.7564  0.0498
 7881SOL     OW35278   3.476   2.265  14.760  0.5175  0.0491 -0.7000
 7881SOL    HW135279   3.478   2.205  14.835  0.0086  0.2347 -0.5431
 7881SOL    HW235280   3.525   2.212  14.697  1.0402 -0.9843  0.5729
 7882SOL     OW35281   2.370   4.733   9.211 -0.0023  0.8920 -0.0658
 7882SOL    HW135282   2.411   4.647   9.209 -0.3623  0.6957  0.6282
 7882SOL    HW235283   2.302   4.711   9.275  1.7468  0.3271  1.5894
 7883SOL     OW35284   2.634   4.699   7.760  0.8368 -0.3436  0.0689
 7883SOL    HW135285   2.663   0.035   7.704  2.4954  0.1071  1.4816
 7883SOL    HW235286   2.540   4.708   7.770  0.8391 -0.9745  0.6801
 7884SOL     OW35287   2.398   0.519   5.014 -0.1849  0.3569  0.2266
 7884SOL    HW135288   2.382   0.429   4.988  0.7227  0.1833  0.2787
 7884SOL    HW235289   2.364   0.530   5.103  0.0489 -2.6650  0.6632
 7885SOL     OW35290   3.023   4.200   2.554 -0.3525  0.1827 -0.4759
 7885SOL    HW135291   3.079   4.262   2.601 -2.4617  0.0597  2.2188
 7885SOL    HW235292   2.965   4.157   2.617  1.1461 -0.4290  0.4983
 7886SOL     OW35293   2.933   1.196   2.228 -0.5371  0.2923  0.4496
 7886SOL    HW135294   2.977   1.278   2.250 -0.2250 -0.3369  2.1389
 7886SOL    HW235295   2.898   1.224   2.143  1.0002 -1.8983 -0.9088
 7887SOL     OW35296   3.835   3.355  12.366 -0.2066 -0.1893  0.7057
 7887SOL    HW135297   3.840   3.409  12.287  0.0193  1.1781  1.6506
 7887SOL    HW235298   3.921   3.319  12.345 -0.5275 -2.1339  2.7303
 7888SOL     OW35299   3.045   3.318   2.278  0.1841 -0.3864 -0.4213
 7888SOL    HW135300   3.112   3.339   2.213  0.2065 -2.7364 -1.1908
 7888SOL    HW235301   2.999   3.402   2.284  0.4269 -0.2890  0.0138
 7889SOL     OW35302   3.541   3.738   0.686 -0.2612 -0.3529 -0.1302
 7889SOL    HW135303   3.580   3.652   0.702 -0.1465 -0.3484 -0.4002
 7889SOL    HW235304   3.494   3.735   0.603  0.9987  0.9245 -0.8780
 7890SOL     OW35305   2.819   2.548   6.377 -0.5516  0.1064  0.7339
 7890SOL    HW135306   2.781   2.561   6.290 -0.2799  3.4522  1.1208
 7890SOL    HW235307   2.784   2.468   6.416 -1.9324  0.5364  0.3854
 7891SOL     OW35308   3.444   3.196   8.123  0.0896  0.7885  0.2065
 7891SOL    HW135309   3.472   3.202   8.032  0.5905  0.8333  0.3627
 7891SOL    HW235310   3.518   3.234   8.170 -1.1614  2.5691  0.7586
 7892SOL     OW35311   3.520   2.264   3.096  0.1571  0.0815 -0.2288
 7892SOL    HW135312   3.466   2.282   3.019 -1.1571 -0.3664  0.5849
 7892SOL    HW235313   3.576   2.195   3.061  0.7883  0.1313  0.6904
 7893SOL     OW35314   4.570   1.633   4.813  0.1565  0.0433  0.9101
 7893SOL    HW135315   4.475   1.639   4.820  0.0841 -0.9320  0.7804
 7893SOL    HW235316   4.578   1.561   4.750  0.5272 -1.3486  2.5429
 7894SOL     OW35317   0.027   2.602   1.616  0.0178 -0.5302 -0.6505
 7894SOL    HW135318   0.097   2.665   1.634 -0.3254  0.4491 -2.7582
 7894SOL    HW235319   4.692   2.655   1.578 -0.4426  0.1173  1.0841
 7895SOL     OW35320   2.400   3.529  10.274  0.2228  0.6563 -0.1282
 7895SOL    HW135321   2.363   3.553  10.189 -0.5671 -0.9167 -0.2345
 7895SOL    HW235322   2.494   3.535  10.258  0.1278  0.3836 -0.7885
 7896SOL     OW35323   1.221   1.412   7.185  0.0396  0.0313 -0.1004
 7896SOL    HW135324   1.149   1.409   7.248 -1.2363  2.1067 -1.4739
 7896SOL    HW235325   1.213   1.504   7.160  0.1973  0.4711  1.4435
 7897SOL     OW35326   0.792   4.397   9.138 -0.2248 -0.2547 -0.0962
 7897SOL    HW135327   0.763   4.306   9.135  1.5875 -0.8700  0.7745
 7897SOL    HW235328   0.884   4.371   9.128 -0.3496 -0.5750 -0.3896
 7898SOL     OW35329   4.208   4.537   8.461 -0.0476  0.4032 -0.1782
 7898SOL    HW135330   4.226   4.552   8.554  1.6076 -1.4016 -0.2185
 7898SOL    HW235331   4.115   4.561   8.461 -0.7589 -2.4479 -1.9328
 7899SOL     OW35332   0.472   3.432   2.423 -0.1176  0.6326  0.1036
 7899SOL    HW135333   0.398   3.431   2.363  1.5743 -0.1851 -1.9496
 7899SOL    HW235334   0.531   3.492   2.378  2.2170  0.0889  2.4181
 7900SOL     OW35335   0.981   0.280   7.710 -0.2818 -0.1797  0.1658
 7900SOL    HW135336   0.940   0.198   7.736  0.1514 -0.7200 -0.8770
 7900SOL    HW235337   0.914   0.325   7.658 -0.6788  0.5554  1.3055
 7901SOL     OW35338   4.711   2.617   5.397 -0.0879  0.1405 -0.1766
 7901SOL    HW135339   0.053   2.597   5.344  0.3688  1.2811  0.0459
 7901SOL    HW235340   4.670   2.681   5.340 -0.6887 -0.4350 -0.3783
 7902SOL     OW35341   2.545   1.995  15.975 -0.3021  0.2609 -0.1691
 7902SOL    HW135342   2.542   2.030  16.063  0.9351 -2.1473  0.8313
 7902SOL    HW235343   2.626   1.946  15.992  1.1840  2.3907 -1.0977
 7903SOL     OW35344   2.816   1.669   5.017 -0.1495  1.1944 -0.2910
 7903SOL    HW135345   2.867   1.733   5.067  0.1519  0.6307  0.1195
 7903SOL    HW235346   2.731   1.671   5.062  1.2683 -0.1798  2.3974
 7904SOL     OW35347   2.933   2.838   3.546 -0.2256 -0.1908  0.0429
 7904SOL    HW135348   2.907   2.881   3.465 -1.9874 -0.2703  0.5434
 7904SOL    HW235349   3.028   2.839   3.538 -0.1694  1.4553  0.9933
 7905SOL     OW35350   2.098   0.193   8.141 -0.2249  0.0323 -0.5713
 7905SOL    HW135351   2.123   0.272   8.094 -0.1655 -0.4236 -1.3041
 7905SOL    HW235352   2.188   0.160   8.147  0.6321  2.5022  0.2845
 7906SOL     OW35353   2.355   0.973   2.828 -0.3928 -0.9208 -0.3318
 7906SOL    HW135354   2.300   1.052   2.834  2.3828  1.0604 -1.0557
 7906SOL    HW235355   2.333   0.920   2.904  1.2483  0.5636  1.1671
 7907SOL     OW35356   3.317   0.174   7.983 -0.3211 -0.1021 -0.4737
 7907SOL    HW135357   3.243   0.148   8.038  0.9338 -1.5086  0.5436
 7907SOL    HW235358   3.284   0.166   7.893 -1.1558  0.2732 -0.2032
 7908SOL     OW35359   0.822   0.809   3.431 -0.3290 -0.4041  0.0440
 7908SOL    HW135360   0.854   0.887   3.387  1.8238  0.1147  2.5509
 7908SOL    HW235361   0.867   0.816   3.515  0.2937  1.8534 -0.4680
 7909SOL     OW35362   1.463   4.241   1.936 -0.1944  0.2026 -0.5942
 7909SOL    HW135363   1.544   4.191   1.948  0.4387  1.1974 -0.8080
 7909SOL    HW235364   1.485   4.299   1.863  0.7583  2.4524  1.4911
 7910SOL     OW35365   4.319   2.302   8.141  0.4041  0.2949  0.1493
 7910SOL    HW135366   4.307   2.285   8.048  2.1129  0.2555 -0.0718
 7910SOL    HW235367   4.269   2.234   8.185 -2.8863  2.3327 -0.4344
 7911SOL     OW35368   1.743   0.286   8.460 -0.3573 -0.3782 -0.1011
 7911SOL    HW135369   1.723   0.217   8.523 -0.0463 -0.5532 -0.1966
 7911SOL    HW235370   1.836   0.268   8.447 -0.0615  0.9376  0.2257
 7912SOL     OW35371   0.721   3.348   6.461 -0.5405  0.0764 -0.1192
 7912SOL    HW135372   0.767   3.323   6.541  0.2614  0.3439 -0.4996
 7912SOL    HW235373   0.700   3.439   6.479 -1.5059 -0.1353 -0.1301
 7913SOL     OW35374   3.688   2.888   7.122  0.4141 -0.4555 -0.9101
 7913SOL    HW135375   3.694   2.971   7.169 -0.8371 -1.3140  0.7438
 7913SOL    HW235376   3.763   2.843   7.160  1.6172  1.7870 -0.5884
 7914SOL     OW35377   4.432   4.318  10.277  0.3694 -0.1118 -0.1884
 7914SOL    HW135378   4.430   4.225  10.254  1.3428 -0.7833  2.4189
 7914SOL    HW235379   4.340   4.332  10.299  0.7452 -1.8875  2.4930
 7915SOL     OW35380   0.541   0.455   8.760 -0.1641 -0.8292  0.0160
 7915SOL    HW135381   0.563   0.544   8.787 -2.6462 -0.3016  0.2823
 7915SOL    HW235382   0.486   0.429   8.834  0.2080  1.7374  1.1833
 7916SOL     OW35383   2.894   1.555  17.145  0.7636  1.0245  0.6936
 7916SOL    HW135384   2.907   1.504  17.225  0.5695  0.6348  0.4792
 7916SOL    HW235385   2.974   1.539  17.096  0.8726 -1.4976  1.6792
 7917SOL     OW35386   4.363   0.149   6.642 -0.4982  0.5120  0.2368
 7917SOL    HW135387   4.400   0.221   6.693  0.4335 -0.5106  1.0187
 7917SOL    HW235388   4.403   0.078   6.693  0.8779  0.4587 -0.8920
 7918SOL     OW35389   2.224   3.926   3.638 -0.5081 -0.0650  0.1751
 7918SOL    HW135390   2.319   3.939   3.642 -0.5488  0.8445 -1.5882
 7918SOL    HW235391   2.193   4.010   3.603  0.1294  0.6025  1.2187
 7919SOL     OW35392   4.058   0.364  16.449  0.2894 -0.4076 -0.1256
 7919SOL    HW135393   4.004   0.412  16.386 -0.2805  0.0160  0.6766
 7919SOL    HW235394   4.127   0.428  16.464 -1.6209  1.2188  1.9216
 7920SOL     OW35395   0.098   2.743  12.816 -0.4522  0.1005 -0.0550
 7920SOL    HW135396   0.176   2.688  12.825 -1.4210 -1.2204  0.2098
 7920SOL    HW235397   0.040   2.678  12.776  0.9642 -0.7178 -0.8029
 7921SOL     OW35398   1.114   3.151   3.170 -0.0940  0.5065 -0.2404
 7921SOL    HW135399   1.133   3.076   3.226  0.7798  0.8666 -0.0591
 7921SOL    HW235400   1.021   3.133   3.159  0.0329  0.5586 -1.4521
 7922SOL     OW35401   0.655   3.994  12.686 -0.3061 -0.0883 -0.0398
 7922SOL    HW135402   0.699   3.919  12.727 -2.3766 -1.1892  0.1570
 7922SOL    HW235403   0.598   3.942  12.629 -2.0371  2.7514 -0.8962
 7923SOL     OW35404   2.404   2.600  15.068  0.3824 -0.1519  0.3485
 7923SOL    HW135405   2.460   2.569  14.997 -1.1026 -2.4080  0.1399
 7923SOL    HW235406   2.435   2.690  15.065  0.8030 -0.3304 -0.6309
 7924SOL     OW35407   1.634   3.027   7.372  0.3979 -0.1274 -0.6006
 7924SOL    HW135408   1.623   3.117   7.402 -3.3731 -1.2746  1.3976
 7924SOL    HW235409   1.542   3.000   7.368 -0.0076  0.9846  1.7381
 7925SOL     OW35410   2.753   3.238   9.259 -0.1257 -0.2411 -0.4023
 7925SOL    HW135411   2.775   3.331   9.255 -0.6582 -0.1181 -0.5405
 7925SOL    HW235412   2.668   3.250   9.216 -0.7006  0.0075  0.8002
 7926SOL     OW35413   4.078   1.056   0.277 -0.4970 -0.2759 -0.6017
 7926SOL    HW135414   4.062   1.090   0.364 -2.1724 -1.8923 -0.2635
 7926SOL    HW235415   3.989   1.056   0.241 -0.2008 -1.0712 -1.3688
 7927SOL     OW35416   0.842   2.176   9.683  0.8913  0.0013 -0.4306
 7927SOL    HW135417   0.823   2.270   9.673  1.6096  0.4661  2.3338
 7927SOL    HW235418   0.754   2.141   9.689  1.6729 -2.0706 -1.1454
 7928SOL     OW35419   4.095   2.266   5.239  1.3227 -0.8845 -0.0849
 7928SOL    HW135420   4.141   2.348   5.254  0.3227 -0.5758  1.2836
 7928SOL    HW235421   4.045   2.253   5.319  0.3260  0.1027 -0.5629
 7929SOL     OW35422   2.201   3.951   8.022 -0.3446  0.2533  0.4487
 7929SOL    HW135423   2.213   4.000   8.103  0.8715  4.0014 -2.0155
 7929SOL    HW235424   2.133   4.007   7.983 -0.6972 -0.1225  0.5167
 7930SOL     OW35425   0.277   1.528   6.951  0.0034 -0.5753  0.0805
 7930SOL    HW135426   0.289   1.623   6.953 -0.6105 -0.4959 -0.2245
 7930SOL    HW235427   0.359   1.505   6.906 -0.6705 -0.4909 -1.1947
 7931SOL     OW35428   2.682   4.413   8.663 -0.7121  0.1504 -0.5409
 7931SOL    HW135429   2.634   4.490   8.634  1.1412  0.1631 -3.5272
 7931SOL    HW235430   2.768   4.448   8.642 -0.4321  0.5813  1.2963
 7932SOL     OW35431   2.585   2.345   3.197  0.4989  0.0418  0.2906
 7932SOL    HW135432   2.519   2.383   3.139  0.1336  0.9816  1.3248
 7932SOL    HW235433   2.556   2.257   3.220  1.8768 -0.1610  1.2177
 7933SOL     OW35434   2.335   2.663   0.210 -0.3143 -0.1987  0.4250
 7933SOL    HW135435   2.378   2.653   0.295 -2.0283 -1.0103  1.2054
 7933SOL    HW235436   2.413   2.660   0.155 -0.4652 -0.4588  0.2247
 7934SOL     OW35437   4.349   0.943  14.178  0.9515 -0.4547  0.8582
 7934SOL    HW135438   4.264   0.974  14.147  1.2530 -3.4849 -2.9223
 7934SOL    HW235439   4.415   0.977  14.118  0.8960 -3.0885 -0.6771
 7935SOL     OW35440   1.386   1.597   6.278 -0.3108 -0.1323  0.5263
 7935SOL    HW135441   1.319   1.568   6.216  0.5395 -0.2344 -0.3615
 7935SOL    HW235442   1.470   1.588   6.232 -0.5919 -2.4822  0.4532
 7936SOL     OW35443   0.121   3.826   2.644 -0.4318  0.3619 -0.3957
 7936SOL    HW135444   0.090   3.775   2.569 -1.2732  0.8033 -0.3514
 7936SOL    HW235445   0.040   3.847   2.691 -1.4081 -1.6224 -1.1725
 7937SOL     OW35446   3.601   2.870  11.878  0.2691  0.2112 -0.5660
 7937SOL    HW135447   3.557   2.818  11.946  1.7431  1.0703  1.0511
 7937SOL    HW235448   3.525   2.878  11.821 -0.6104  0.8668  0.7105
 7938SOL     OW35449   2.720   2.376   4.659  0.5110  0.3204 -0.4594
 7938SOL    HW135450   2.752   2.374   4.749 -2.4801  0.5618  0.5909
 7938SOL    HW235451   2.697   2.469   4.649 -1.2195 -0.0048  0.5524
 7939SOL     OW35452   4.185   0.960   7.335 -0.0280 -0.3821 -0.3389
 7939SOL    HW135453   4.239   0.988   7.409 -0.8419  1.3993 -0.4094
 7939SOL    HW235454   4.246   0.919   7.274  1.5534 -0.7156  1.4561
 7940SOL     OW35455   1.134   4.603   5.205 -0.1862  0.8912 -0.0704
 7940SOL    HW135456   1.042   4.612   5.227 -0.2053 -0.4490  0.4275
 7940SOL    HW235457   1.148   4.698   5.207 -0.3052  0.9390 -1.8268
 7941SOL     OW35458   2.761   1.082   8.427 -0.0521  0.7825 -0.9045
 7941SOL    HW135459   2.840   1.063   8.479  0.0396  0.2493 -1.2388
 7941SOL    HW235460   2.765   1.012   8.361 -1.7038 -2.2015  2.1449
 7942SOL     OW35461   1.003   0.932   3.589  0.1837  0.3473 -0.6238
 7942SOL    HW135462   1.047   0.970   3.665 -0.8379 -1.8325  1.0732
 7942SOL    HW235463   1.077   0.901   3.537  1.1663  0.1236  0.9006
 7943SOL     OW35464   2.544   4.110   3.511 -0.1099 -0.1039  0.0535
 7943SOL    HW135465   2.473   4.091   3.450  1.2966  0.3331 -1.7273
 7943SOL    HW235466   2.564   4.204   3.504 -1.3051  0.0517 -1.1758
 7944SOL     OW35467   1.865   2.526   1.536  0.4205 -0.0988 -0.0241
 7944SOL    HW135468   1.789   2.540   1.593  2.2760  0.8947  2.2385
 7944SOL    HW235469   1.842   2.450   1.484 -0.9806  1.0788 -1.1209
 7945SOL     OW35470   3.901   2.207  11.923 -0.2183  0.0691  0.1637
 7945SOL    HW135471   3.996   2.194  11.912  0.3133  1.5875  2.8324
 7945SOL    HW235472   3.905   2.284  11.980  2.2102  1.5629 -2.0147
 7946SOL     OW35473   3.350   1.787   7.988 -0.0358  0.4093 -0.1492
 7946SOL    HW135474   3.404   1.766   7.912 -1.1988  0.0242 -0.8653
 7946SOL    HW235475   3.311   1.873   7.969 -0.3039  0.4593  0.6252
 7947SOL     OW35476   2.265   3.440   5.562 -0.2412  0.0811 -0.0282
 7947SOL    HW135477   2.315   3.384   5.503  1.5681  1.6311  0.0520
 7947SOL    HW235478   2.329   3.501   5.598 -0.4857  0.9760 -1.0911
 7948SOL     OW35479   2.334   3.855  15.918  0.5578  0.4486 -0.4005
 7948SOL    HW135480   2.245   3.847  15.952  0.8224 -0.0403  0.1610
 7948SOL    HW235481   2.382   3.855  16.000  1.2093 -1.5923 -0.7847
 7949SOL     OW35482   3.379   1.830  10.656 -0.1376  0.0099  0.3014
 7949SOL    HW135483   3.414   1.774  10.586  0.2555 -1.2018  1.4791
 7949SOL    HW235484   3.430   1.818  10.736 -0.7976 -0.0716  0.7086
 7950SOL     OW35485   3.253   4.341   3.425  0.3488 -0.0362 -0.6845
 7950SOL    HW135486   3.180   4.392   3.459 -0.7651 -2.3569  0.3819
 7950SOL    HW235487   3.246   4.354   3.331 -1.3371 -0.3975 -0.6064
 7951SOL     OW35488   2.817   3.804   7.919 -0.1705 -0.1820 -0.4336
 7951SOL    HW135489   2.854   3.877   7.969 -1.7613  1.9250 -2.3086
 7951SOL    HW235490   2.775   3.852   7.847 -0.5202 -1.2447 -0.9283
 7952SOL     OW35491   4.338   4.306  11.247 -0.1754  0.0712  0.1425
 7952SOL    HW135492   4.281   4.271  11.316 -0.6613  3.0730  1.2857
 7952SOL    HW235493   4.408   4.350  11.295  1.1398 -2.5843  0.6774
 7953SOL     OW35494   3.540   1.023   4.720  0.0074  0.3159 -0.1277
 7953SOL    HW135495   3.465   0.984   4.674  0.9581  0.4153 -1.7856
 7953SOL    HW235496   3.601   0.950   4.713 -1.0468 -0.6081  0.4278
 7954SOL     OW35497   2.909   0.905   8.196 -0.1384  0.2804 -0.4123
 7954SOL    HW135498   2.847   0.905   8.123 -1.1738 -5.2317  0.4794
 7954SOL    HW235499   2.915   0.811   8.213 -1.3391 -0.1423 -2.3248
 7955SOL     OW35500   0.051   1.153   2.852 -0.0029  0.2207 -0.2642
 7955SOL    HW135501   0.082   1.101   2.778  0.8698 -0.7545  0.7927
 7955SOL    HW235502   0.068   1.236   2.808  1.7157  0.4038  0.7474
 7956SOL     OW35503   1.957   0.636   7.751 -0.4671 -0.2282  0.4363
 7956SOL    HW135504   1.889   0.668   7.690 -1.0646 -0.2413  1.0943
 7956SOL    HW235505   2.016   0.709   7.767 -1.4359  0.6109  0.2254
 7957SOL     OW35506   4.691   0.298   6.606  0.5263 -0.5571 -0.2540
 7957SOL    HW135507   4.735   0.381   6.623 -0.0744  0.1263 -1.9822
 7957SOL    HW235508   4.615   0.308   6.663 -0.2617  1.1048 -1.6047
 7958SOL     OW35509   0.624   3.524   9.356 -0.1925  0.2310 -0.1441
 7958SOL    HW135510   0.605   3.492   9.268 -0.4642 -3.1071  1.1579
 7958SOL    HW235511   0.538   3.529   9.397  0.2387 -0.2681  0.8432
 7959SOL     OW35512   0.683   3.495   2.993 -0.4097 -0.0201  0.2233
 7959SOL    HW135513   0.608   3.532   3.038 -0.4953  1.8349 -1.4175
 7959SOL    HW235514   0.661   3.408   2.959 -0.1746 -0.3987  1.0537
 7960SOL     OW35515   1.172   0.440   8.156  0.4526  0.2595  0.3488
 7960SOL    HW135516   1.258   0.425   8.116 -0.5451  0.7382 -1.9574
 7960SOL    HW235517   1.139   0.354   8.131  0.0209  1.1712 -2.2485
 7961SOL     OW35518   4.672   3.825   5.929 -0.7353 -1.0908 -0.3775
 7961SOL    HW135519   0.019   3.777   5.932  0.7442  1.5500  1.3785
 7961SOL    HW235520   4.694   3.883   5.856  2.3236  0.2639  1.6173
 7962SOL     OW35521   3.397   1.703   5.112 -0.1850 -0.1757  0.1377
 7962SOL    HW135522   3.324   1.678   5.056 -0.2947 -0.0240  0.2147
 7962SOL    HW235523   3.453   1.740   5.044  0.7408 -1.1230  0.3788
 7963SOL     OW35524   3.373   1.107   9.787  0.0129  0.3581  0.1095
 7963SOL    HW135525   3.282   1.128   9.764 -0.8495 -2.3786  1.0385
 7963SOL    HW235526   3.369   1.048   9.862 -1.8801 -2.5142 -2.2249
 7964SOL     OW35527   3.692   0.251   1.528  0.9229  0.3845  0.3019
 7964SOL    HW135528   3.670   0.251   1.621  0.3982 -2.2807  0.1723
 7964SOL    HW235529   3.652   0.336   1.509 -0.4554  0.1083  1.9591
 7965SOL     OW35530   2.827   1.808   8.531  0.8124  0.3536  0.0779
 7965SOL    HW135531   2.785   1.868   8.593  1.9531  0.1921  1.0108
 7965SOL    HW235532   2.894   1.859   8.486  0.3022 -1.3399 -2.6360
 7966SOL     OW35533   1.373   2.205   8.085 -0.0481  0.6899 -0.1193
 7966SOL    HW135534   1.467   2.206   8.105  0.1897 -1.0880 -1.2121
 7966SOL    HW235535   1.335   2.229   8.170 -1.7703 -0.0953 -0.6898
 7967SOL     OW35536   1.261   3.918   0.358 -0.2178 -0.1098 -0.7356
 7967SOL    HW135537   1.319   3.901   0.283 -0.4661 -0.1292 -0.9209
 7967SOL    HW235538   1.300   3.863   0.427 -2.4489 -0.2196  0.4370
 7968SOL     OW35539   3.171   1.634   8.358 -0.6622 -0.2813  0.0214
 7968SOL    HW135540   3.155   1.577   8.282  0.6005 -0.5389 -0.0611
 7968SOL    HW235541   3.232   1.695   8.317  0.9743 -1.1873  1.1154
 7969SOL     OW35542   1.713   1.021   5.329 -0.0393 -0.3989 -0.3696
 7969SOL    HW135543   1.797   1.036   5.287  0.3600  0.8607  0.8906
 7969SOL    HW235544   1.684   1.111   5.346 -0.3658 -0.8124  1.2975
 7970SOL     OW35545   1.569   3.205   5.955 -0.2845  0.3297  0.0540
 7970SOL    HW135546   1.574   3.154   6.036  2.6389 -3.0013 -2.1904
 7970SOL    HW235547   1.610   3.156   5.884  2.8682  0.6458  1.6661
 7971SOL     OW35548   4.056   3.436   3.372 -0.0756  0.1694 -0.1854
 7971SOL    HW135549   3.991   3.443   3.441  0.2436  0.4476  0.0888
 7971SOL    HW235550   4.055   3.528   3.347  1.4585  0.6003  1.3463
 7972SOL     OW35551   4.284   3.263  12.472 -0.5373  0.1004 -0.6461
 7972SOL    HW135552   4.199   3.235  12.508  0.3800 -1.7108  0.0972
 7972SOL    HW235553   4.335   3.285  12.550 -1.7216 -0.7046  0.3665
 7973SOL     OW35554   2.891   1.381   6.095  0.2738 -0.0978 -0.0838
 7973SOL    HW135555   2.795   1.379   6.105  0.1951  1.2178 -0.5403
 7973SOL    HW235556   2.902   1.447   6.027 -0.4697  0.5806  0.4536
 7974SOL     OW35557   0.907   2.563   4.923  0.2179 -0.5715 -0.0567
 7974SOL    HW135558   0.845   2.508   4.972 -0.6004  0.1523 -0.2630
 7974SOL    HW235559   0.959   2.487   4.898 -1.2996 -1.0826 -1.6919
 7975SOL     OW35560   3.101   2.529   2.006  0.0895 -0.2275 -0.3457
 7975SOL    HW135561   3.124   2.438   2.026  0.3325  0.0362  0.5261
 7975SOL    HW235562   3.181   2.561   1.964  0.9668 -1.4249  0.3944
 7976SOL     OW35563   3.625   3.099   1.116 -0.6854  0.2328  0.5574
 7976SOL    HW135564   3.628   3.186   1.156  1.5311  0.7020 -0.6271
 7976SOL    HW235565   3.656   3.040   1.185 -1.3266  0.9174  1.4388
 7977SOL     OW35566   4.559   4.734   5.332  0.2854 -0.3582  0.1832
 7977SOL    HW135567   4.552   0.010   5.426  2.5054  1.3404  0.1421
 7977SOL    HW235568   4.578   0.088   5.303  0.4550 -0.3554  0.3053
 7978SOL     OW35569   0.402   3.878   0.071  0.5400  0.0998 -0.1167
 7978SOL    HW135570   0.370   3.802   0.121  0.4242  0.1735 -0.0786
 7978SOL    HW235571   0.325   3.884   0.016  0.3395 -1.3842 -0.0028
 7979SOL     OW35572   0.381   1.485  15.691 -0.1729  0.3396  0.0147
 7979SOL    HW135573   0.417   1.480  15.780  0.8128  2.0411 -0.3006
 7979SOL    HW235574   0.373   1.391  15.677 -0.1049 -0.3178  4.2626
 7980SOL     OW35575   0.247   2.838  10.583  0.2935 -0.1841  0.1705
 7980SOL    HW135576   0.225   2.910  10.643 -0.8223 -0.1213 -0.3053
 7980SOL    HW235577   0.174   2.777  10.579  2.5468 -2.9375  1.0430
 7981SOL     OW35578   4.063   2.901   1.153  0.4754 -0.1123  0.1173
 7981SOL    HW135579   4.066   2.851   1.071  0.5472 -2.7749  1.7647
 7981SOL    HW235580   4.156   2.920   1.166  0.0848  0.9210  1.3899
 7982SOL     OW35581   2.811   2.405   1.416 -0.4256 -0.0367 -0.7005
 7982SOL    HW135582   2.884   2.392   1.356  2.0668  1.1536  2.0336
 7982SOL    HW235583   2.832   2.495   1.444  1.1126 -0.0901 -1.6740
 7983SOL     OW35584   3.416   4.407   7.372 -0.1865 -0.2072 -0.4056
 7983SOL    HW135585   3.450   4.480   7.321  0.9993 -2.8579 -3.4043
 7983SOL    HW235586   3.436   4.436   7.461 -2.0869 -1.2850  0.3723
 7984SOL     OW35587   1.828   3.567  14.698 -0.3594 -0.2326  0.1977
 7984SOL    HW135588   1.855   3.587  14.609  1.6819 -0.1552  0.8340
 7984SOL    HW235589   1.847   3.474  14.709 -1.1476 -0.1987  1.9481
 7985SOL     OW35590   2.680   1.765  13.785  0.1876 -0.0507 -0.6355
 7985SOL    HW135591   2.685   1.771  13.690  1.0606  0.5384 -0.5489
 7985SOL    HW235592   2.660   1.857  13.802  1.0241 -0.6281  3.5294
 7986SOL     OW35593   2.215   3.065   7.532  0.2672 -0.3557 -0.3534
 7986SOL    HW135594   2.236   2.987   7.481  4.2247  0.3309  0.2116
 7986SOL    HW235595   2.302   3.103   7.519  0.5902 -0.8108  0.4618
 7987SOL     OW35596   1.878   3.351   4.787 -0.4271  0.1504  0.1841
 7987SOL    HW135597   1.887   3.440   4.755  1.6366  1.2602  3.8069
 7987SOL    HW235598   1.967   3.320   4.771 -0.1726 -0.1224  2.1688
 7988SOL     OW35599   1.461   0.776   6.993 -0.0237 -0.0745  0.1218
 7988SOL    HW135600   1.467   0.812   7.081  0.3185  0.1340  0.0133
 7988SOL    HW235601   1.492   0.847   6.936 -1.9118  0.0854 -0.7131
 7989SOL     OW35602   4.178   1.138  15.289  0.7802  0.1675 -0.1616
 7989SOL    HW135603   4.157   1.231  15.281 -0.4343 -0.1131 -0.2576
 7989SOL    HW235604   4.254   1.142  15.347 -0.7860 -0.9821  1.9597
 7990SOL     OW35605   1.319   3.957   1.195  0.2221  0.6668  0.8015
 7990SOL    HW135606   1.412   3.958   1.219  0.1901  1.2969  0.8921
 7990SOL    HW235607   1.274   4.003   1.266 -0.8552 -1.1152  1.2848
 7991SOL     OW35608   0.735   4.375  16.562 -0.4600 -0.0826  0.1700
 7991SOL    HW135609   0.689   4.367  16.478  1.9861  0.4291 -1.2088
 7991SOL    HW235610   0.823   4.381  16.525 -0.2838  2.5936  1.0082
 7992SOL     OW35611   1.368   2.080  11.993  0.4503  0.0476 -0.1132
 7992SOL    HW135612   1.455   2.099  12.030 -0.7256  2.9968  1.0543
 7992SOL    HW235613   1.383   1.988  11.971 -1.1944 -0.8718  2.6692
 7993SOL     OW35614   3.426   4.335   2.800 -0.1572  0.2008  0.1773
 7993SOL    HW135615   3.502   4.306   2.749  1.1613 -0.1335  2.3205
 7993SOL    HW235616   3.366   4.261   2.812 -0.0416 -0.2277 -1.9802
 7994SOL     OW35617   2.041   3.122  12.692  0.2317 -0.0574 -0.2146
 7994SOL    HW135618   2.072   3.210  12.671 -1.3228  0.5175 -0.0306
 7994SOL    HW235619   2.127   3.079  12.690  0.3200  0.1185 -0.2430
 7995SOL     OW35620   4.129   1.009  15.536 -0.4733 -0.5058 -0.4191
 7995SOL    HW135621   4.102   1.039  15.449 -0.8024 -1.3916 -0.6232
 7995SOL    HW235622   4.130   0.914  15.535 -0.8697 -0.5057 -1.9992
 7996SOL     OW35623   4.380   3.804  16.809 -0.1193 -0.2839  0.0804
 7996SOL    HW135624   4.347   3.715  16.792  0.7285 -0.7931  1.0971
 7996SOL    HW235625   4.329   3.823  16.887  0.7785  0.7277  0.4143
 7997SOL     OW35626   2.933   1.016  12.902 -0.0148  0.0896  0.4213
 7997SOL    HW135627   2.896   1.012  12.991 -0.3576 -0.5002  0.2512
 7997SOL    HW235628   3.004   0.952  12.904 -1.8640 -1.9641  0.8849
 7998SOL     OW35629   4.594   3.652   1.143 -0.5730 -0.3626  0.5819
 7998SOL    HW135630   4.640   3.734   1.125  0.1652 -1.1533 -1.1779
 7998SOL    HW235631   4.633   3.594   1.077 -3.1001 -0.0884 -1.1593
 7999SOL     OW35632   2.979   2.570   9.010  0.2140  0.1604  0.5283
 7999SOL    HW135633   2.901   2.518   8.991  1.3426 -1.0410 -0.7910
 7999SOL    HW235634   3.051   2.518   8.973  0.6976  1.9982 -1.0982
 8000SOL     OW35635   1.478   4.110   0.639  0.0711  0.0668 -0.0010
 8000SOL    HW135636   1.389   4.076   0.627  1.0595 -2.4677 -0.2034
 8000SOL    HW235637   1.473   4.147   0.728  2.7067  0.3345  0.0500
 8001SOL     OW35638   2.866   4.474   6.369 -0.6751  0.3697  0.2674
 8001SOL    HW135639   2.895   4.416   6.298  1.5771  1.1413  0.5598
 8001SOL    HW235640   2.924   4.449   6.441  0.0262 -0.5518 -0.6243
 8002SOL     OW35641   1.488   1.977   2.760 -0.3107 -0.3667  0.2494
 8002SOL    HW135642   1.473   2.063   2.721  0.0516  0.3213  1.5993
 8002SOL    HW235643   1.408   1.937   2.726 -0.8921  1.1662 -0.1757
 8003SOL     OW35644   2.466   3.298   2.008  0.1946  0.8271  0.3805
 8003SOL    HW135645   2.450   3.215   1.964  0.9533  1.2393 -0.6688
 8003SOL    HW235646   2.377   3.334   2.001 -0.0249  0.1418 -0.3640
 8004SOL     OW35647   3.579   3.016   4.422 -0.0982 -0.6144 -0.3115
 8004SOL    HW135648   3.578   2.939   4.479  0.4340 -1.8545 -1.9849
 8004SOL    HW235649   3.487   3.017   4.396 -0.1310 -2.6385 -0.2643
 8005SOL     OW35650   0.184   4.272   5.391  0.7537  0.4980  0.2394
 8005SOL    HW135651   0.124   4.199   5.410 -0.8987  1.3952 -1.4951
 8005SOL    HW235652   0.257   4.268   5.453  1.9751 -0.9210 -1.3071
 8006SOL     OW35653   0.437   3.183   5.302 -0.4381 -0.4759  0.0609
 8006SOL    HW135654   0.457   3.183   5.209 -1.5076 -2.2993 -0.1845
 8006SOL    HW235655   0.510   3.128   5.331 -0.9128 -2.1180 -1.8249
 8007SOL     OW35656   4.121   1.802   2.701  0.0222 -0.0089  0.1698
 8007SOL    HW135657   4.027   1.799   2.720 -0.0824 -0.3100 -0.3816
 8007SOL    HW235658   4.139   1.895   2.713  1.1515 -0.6116  3.2330
 8008SOL     OW35659   1.276   4.202   5.343 -0.3063 -0.2782 -0.1791
 8008SOL    HW135660   1.287   4.160   5.428 -1.4359  0.5479  0.3759
 8008SOL    HW235661   1.186   4.172   5.332 -0.3716 -0.2006  0.1203
 8009SOL     OW35662   2.940   2.830   5.051  0.4919 -0.4871  0.6888
 8009SOL    HW135663   2.948   2.857   5.142 -1.0554  1.7355  0.1644
 8009SOL    HW235664   2.940   2.916   5.009  0.7461 -0.8072  0.0423
 8010SOL     OW35665   0.975   2.674   3.677  0.2009 -0.3334  0.1866
 8010SOL    HW135666   1.071   2.668   3.682  0.2062  1.4072  1.9732
 8010SOL    HW235667   0.959   2.626   3.596  1.2865  0.6439 -0.6059
 8011SOL     OW35668   0.028   2.575   5.683  0.1244  0.4601  0.0565
 8011SOL    HW135669   0.023   2.564   5.588 -0.6933 -2.6213  0.4347
 8011SOL    HW235670   4.707   2.651   5.697 -0.8606  0.0534 -1.7013
 8012SOL     OW35671   2.108   3.159  11.670 -0.1215 -0.0360 -0.6980
 8012SOL    HW135672   2.148   3.111  11.743 -0.5536  0.3792 -0.1883
 8012SOL    HW235673   2.140   3.248  11.682  0.1738 -0.0855 -1.1324
 8013SOL     OW35674   1.989   3.645  12.410 -0.3012  0.3191  0.3279
 8013SOL    HW135675   1.928   3.616  12.343  0.1086 -1.6256  0.7923
 8013SOL    HW235676   2.077   3.622  12.380 -1.0347  0.6411 -2.0819
 8014SOL     OW35677   2.125   3.467   0.321  0.2539 -0.3829  0.4440
 8014SOL    HW135678   2.194   3.513   0.369 -1.8839  2.2829  0.9642
 8014SOL    HW235679   2.167   3.409   0.258 -0.1943 -2.3228  1.9076
 8015SOL     OW35680   3.602   3.062   6.804  0.8354 -0.0549  0.3980
 8015SOL    HW135681   3.690   3.046   6.769 -0.5899 -2.1822 -2.1496
 8015SOL    HW235682   3.611   3.120   6.880  1.5641  0.1262  0.1741
 8016SOL     OW35683   3.673   3.295  12.737 -0.3874 -0.2541  0.4005
 8016SOL    HW135684   3.669   3.372  12.680 -1.7736 -1.7288 -1.4957
 8016SOL    HW235685   3.716   3.236  12.675  0.8148  1.8951 -0.7630
 8017SOL     OW35686   1.377   3.383   6.430 -0.2417  0.5465 -0.1840
 8017SOL    HW135687   1.323   3.448   6.386 -2.7397 -0.3207  1.6016
 8017SOL    HW235688   1.429   3.351   6.356  0.4215  1.9684 -0.3330
 8018SOL     OW35689   1.861   2.362   5.733  0.6091  0.1792 -0.2874
 8018SOL    HW135690   1.850   2.297   5.803 -1.0207  0.9308  0.1560
 8018SOL    HW235691   1.903   2.433   5.781  0.6837  0.5160 -0.8583
 8019SOL     OW35692   0.889   4.506   5.574  0.5825 -0.2459  0.1500
 8019SOL    HW135693   0.901   4.441   5.643 -0.6475 -0.1175  0.4932
 8019SOL    HW235694   0.963   4.489   5.517 -1.4617 -4.1358 -1.2956
 8020SOL     OW35695   0.714   3.220   8.141  0.1268 -0.1112  0.0957
 8020SOL    HW135696   0.774   3.290   8.117 -0.6449  0.5730  0.1528
 8020SOL    HW235697   0.656   3.219   8.065 -1.4172  0.4919  1.2694
 8021SOL     OW35698   1.269   3.774   7.053  0.2708 -0.2432 -0.4919
 8021SOL    HW135699   1.318   3.850   7.086  0.3167 -0.2168 -0.6214
 8021SOL    HW235700   1.235   3.820   6.976 -1.6041 -0.0204  0.4632
 8022SOL     OW35701   2.733   1.482  10.277  0.7023 -0.2175 -1.0569
 8022SOL    HW135702   2.700   1.561  10.234 -1.0819 -1.8994 -2.7976
 8022SOL    HW235703   2.650   1.442  10.303  0.2024  1.1080 -0.6160
 8023SOL     OW35704   3.775   3.358  15.966  0.2385  0.0452  0.4190
 8023SOL    HW135705   3.754   3.307  16.044 -1.2593 -0.0829 -0.0766
 8023SOL    HW235706   3.706   3.422  15.954 -0.6749 -0.8773  0.7767
 8024SOL     OW35707   1.075   2.147  14.566  0.1423  0.0570 -0.0662
 8024SOL    HW135708   1.015   2.091  14.616 -1.2099  1.9534  0.4284
 8024SOL    HW235709   1.159   2.117  14.601 -0.1641  1.4055  1.7783
 8025SOL     OW35710   0.118   2.163   2.563  0.5323 -0.2158  0.3347
 8025SOL    HW135711   0.047   2.171   2.500 -0.3808 -1.1203  1.2284
 8025SOL    HW235712   0.131   2.256   2.582  0.2620  0.0012 -0.5535
 8026SOL     OW35713   3.699   1.934   1.592  0.5447  0.1567 -0.0094
 8026SOL    HW135714   3.793   1.927   1.611  0.8079  1.1206 -0.9442
 8026SOL    HW235715   3.666   1.875   1.661 -1.0730  0.9828 -0.0818
 8027SOL     OW35716   0.530   4.509   4.193  0.9374  0.0391 -0.5712
 8027SOL    HW135717   0.473   4.433   4.202 -1.4601  2.0633  1.1638
 8027SOL    HW235718   0.486   4.556   4.123 -0.9604  0.1358  0.7141
 8028SOL     OW35719   2.988   2.950   5.305 -0.0759 -0.0354 -0.1849
 8028SOL    HW135720   2.919   2.968   5.368 -1.2628 -0.8902 -1.2490
 8028SOL    HW235721   3.053   2.908   5.362 -1.5676 -2.5230 -0.3468
 8029SOL     OW35722   3.879   1.731   6.533 -0.1666  0.3833 -0.2357
 8029SOL    HW135723   3.831   1.650   6.515 -0.4264  0.6709 -0.8443
 8029SOL    HW235724   3.818   1.774   6.593  0.1167 -1.2200  1.1889
 8030SOL     OW35725   2.568   1.688  13.219  0.5565 -0.4827  0.5773
 8030SOL    HW135726   2.651   1.708  13.261  1.0316 -1.6394  0.2040
 8030SOL    HW235727   2.566   1.593  13.227 -1.8787 -0.6039 -1.2251
 8031SOL     OW35728   4.693   4.355   9.605  0.2776 -0.8705 -0.3446
 8031SOL    HW135729   4.605   4.389   9.622  0.6211 -0.1505  0.0420
 8031SOL    HW235730   4.730   4.417   9.541 -1.6846  1.2790  0.5868
 8032SOL     OW35731   4.048   0.544   5.606  0.5031  0.2275 -0.1696
 8032SOL    HW135732   4.116   0.479   5.623  0.0884 -0.1890 -0.1025
 8032SOL    HW235733   4.070   0.580   5.520  0.2787  0.8398  0.0279
 8033SOL     OW35734   2.887   3.213   5.654  0.2839 -0.2532 -0.1054
 8033SOL    HW135735   2.921   3.215   5.743 -1.3179  2.4727  0.4271
 8033SOL    HW235736   2.967   3.170   5.623  2.1048  2.3420  1.0442
 8034SOL     OW35737   0.044   1.479  11.036 -0.3230  0.1671 -0.7162
 8034SOL    HW135738   0.001   1.517  11.112 -1.2670  0.5749 -1.4553
 8034SOL    HW235739   4.704   1.428  11.005 -1.0019  0.5915  0.2313
 8035SOL     OW35740   3.520   0.616   9.481  0.2966 -0.6458  0.0016
 8035SOL    HW135741   3.469   0.618   9.561  0.3595  1.1707 -0.0036
 8035SOL    HW235742   3.573   0.696   9.491 -1.9899  1.1075 -1.8610
 8036SOL     OW35743   3.725   0.904   6.049 -0.0455 -0.2741  0.0495
 8036SOL    HW135744   3.647   0.916   5.995 -0.0626  0.0473  0.1473
 8036SOL    HW235745   3.689   0.927   6.135 -1.4411 -1.1909 -0.2869
 8037SOL     OW35746   1.843   1.259   7.940 -0.5196  0.5100  0.1516
 8037SOL    HW135747   1.913   1.266   7.875  0.2544 -1.0158  0.7998
 8037SOL    HW235748   1.780   1.327   7.917 -0.4078 -0.0389 -1.7518
 8038SOL     OW35749   0.661   0.480   9.582 -0.0632 -0.0285  0.0439
 8038SOL    HW135750   0.687   0.391   9.560  2.3580  1.1774 -1.9971
 8038SOL    HW235751   0.632   0.469   9.672 -0.6997  0.8677 -0.0528
 8039SOL     OW35752   0.190   0.192   4.422  0.2788 -0.2980  0.0147
 8039SOL    HW135753   0.260   0.132   4.449  0.6100 -0.2277 -0.6822
 8039SOL    HW235754   0.118   0.132   4.401  2.0083 -1.6368 -2.2574
 8040SOL     OW35755   3.302   2.592   2.296 -0.2280 -0.2347 -0.3749
 8040SOL    HW135756   3.351   2.638   2.228  2.0855  0.4457  1.7703
 8040SOL    HW235757   3.355   2.512   2.297 -1.3156 -0.9589 -0.0597
 8041SOL     OW35758   1.765   3.266   1.316  0.5284 -0.7992  0.0391
 8041SOL    HW135759   1.852   3.237   1.346  0.4931 -0.9793 -0.0290
 8041SOL    HW235760   1.790   3.318   1.239  0.6329  1.7622  1.8127
 8042SOL     OW35761   1.925   2.557  15.820  0.4957 -0.3106  0.2034
 8042SOL    HW135762   1.951   2.465  15.825  1.8163 -0.0288 -1.3030
 8042SOL    HW235763   1.871   2.560  15.741 -0.4853  1.1433  0.9240
 8043SOL     OW35764   3.817   4.566   2.777  0.3176  0.1137  0.3318
 8043SOL    HW135765   3.750   4.631   2.758 -1.7177 -2.2608 -0.5987
 8043SOL    HW235766   3.771   4.493   2.737 -2.6423  1.5889  1.0352
 8044SOL     OW35767   0.518   4.114   2.525 -0.0190  0.3202 -0.2835
 8044SOL    HW135768   0.536   4.133   2.617 -1.1133 -0.7342  0.1472
 8044SOL    HW235769   0.424   4.097   2.525  0.0907 -0.2872 -1.4748
 8045SOL     OW35770   0.283   0.130   0.914  0.2650 -0.7222 -0.9609
 8045SOL    HW135771   0.189   0.149   0.915  0.3752  0.0166 -3.1290
 8045SOL    HW235772   0.315   0.199   0.856  1.0813  1.8067  2.5391
 8046SOL     OW35773   0.065   3.508   4.181 -0.4890  0.5902  0.0045
 8046SOL    HW135774   0.028   3.456   4.110  0.6916 -0.2756  0.0325
 8046SOL    HW235775   0.008   3.477   4.252 -2.2080  1.3825 -1.0325
 8047SOL     OW35776   3.051   3.297   8.916 -0.1874  0.0731  0.2745
 8047SOL    HW135777   3.043   3.391   8.931  1.1474  0.0117  1.3566
 8047SOL    HW235778   3.012   3.287   8.829 -0.1193 -0.6750  0.3312
 8048SOL     OW35779   3.630   3.760   5.595 -0.2144 -1.0111 -0.2589
 8048SOL    HW135780   3.610   3.764   5.688 -1.3535 -1.0863 -0.5034
 8048SOL    HW235781   3.656   3.669   5.580  0.3665 -1.2413  2.2246
 8049SOL     OW35782   0.613   3.973  17.684  0.0159 -0.2382 -0.3359
 8049SOL    HW135783   0.604   4.067  17.704  1.3889 -0.3268  0.7313
 8049SOL    HW235784   0.549   3.940   0.006  0.8035 -1.4081 -0.1557
 8050SOL     OW35785   4.725   0.104   9.551  0.3458  0.1882 -0.4327
 8050SOL    HW135786   4.641   0.126   9.593  0.0636 -0.7016 -0.5228
 8050SOL    HW235787   0.039   0.181   9.578  0.3594 -0.9780  2.8839
 8051SOL     OW35788   2.476   1.815   2.692  0.5112 -0.4935 -0.0965
 8051SOL    HW135789   2.539   1.809   2.620 -1.5173  0.4838 -1.9587
 8051SOL    HW235790   2.393   1.813   2.644  0.5901 -1.6284 -0.1940
 8052SOL     OW35791   0.257   0.830   0.287 -0.2837  0.4280  0.0615
 8052SOL    HW135792   0.271   0.902   0.348 -0.7418 -0.1310  0.8318
 8052SOL    HW235793   0.339   0.838   0.239 -0.9160 -3.2796 -1.6181
 8053SOL     OW35794   4.055   2.829   4.440  0.4832  0.0783  0.7540
 8053SOL    HW135795   4.074   2.770   4.513  1.7111  1.5960  1.6353
 8053SOL    HW235796   4.047   2.907   4.494 -0.2016  0.9692 -0.6374
 8054SOL     OW35797   0.020   3.878   0.785 -0.4797  0.2202  0.0810
 8054SOL    HW135798   0.040   3.970   0.799  2.4835 -0.4406  0.4116
 8054SOL    HW235799   0.065   3.843   0.862  1.3898 -2.6243 -2.2740
 8055SOL     OW35800   2.428   1.787   7.303 -0.4218 -0.0227  0.0839
 8055SOL    HW135801   2.511   1.760   7.343  0.0012 -0.1623 -0.8915
 8055SOL    HW235802   2.408   1.857   7.366 -0.9999  0.0556 -0.1837
 8056SOL     OW35803   3.060   2.996   3.193  0.0235  0.4444 -0.0763
 8056SOL    HW135804   3.026   2.959   3.112 -2.7518 -0.4858  1.5260
 8056SOL    HW235805   3.081   3.083   3.159 -3.7733  2.0445  1.6508
 8057SOL     OW35806   4.353   4.037  15.356 -0.0116 -0.0166 -0.0635
 8057SOL    HW135807   4.283   4.096  15.382 -2.5450 -3.0072 -0.1905
 8057SOL    HW235808   4.427   4.098  15.354 -1.7308  2.0758 -0.3569
 8058SOL     OW35809   3.265   0.480   5.448 -0.1279  0.1579 -0.3160
 8058SOL    HW135810   3.259   0.386   5.467 -0.3827  1.0675  4.0050
 8058SOL    HW235811   3.179   0.500   5.410 -0.4275 -0.7331 -0.1161
 8059SOL     OW35812   4.565   1.864  14.175 -0.3175 -0.2507  0.1393
 8059SOL    HW135813   4.506   1.791  14.154 -1.4490  1.1991 -1.7068
 8059SOL    HW235814   4.549   1.929  14.107  0.3744  2.7502  2.8296
 8060SOL     OW35815   1.424   2.717   7.090 -0.8891 -0.1477  0.0964
 8060SOL    HW135816   1.468   2.656   7.031  1.0170  0.7602  0.6129
 8060SOL    HW235817   1.401   2.779   7.021  2.2602  1.2533  0.3388
 8061SOL     OW35818   3.529   4.103   4.506 -0.5553  0.0583 -0.2473
 8061SOL    HW135819   3.498   4.188   4.538  1.2906  0.7520 -0.3019
 8061SOL    HW235820   3.610   4.139   4.469  0.1313 -2.8764 -1.6157
 8062SOL     OW35821   2.239   3.820   2.752  0.6075 -0.2506 -0.2387
 8062SOL    HW135822   2.223   3.735   2.794 -0.6954  0.3345  0.4393
 8062SOL    HW235823   2.328   3.801   2.723  0.9879 -0.3247  0.9558
 8063SOL     OW35824   0.161   0.243   3.496 -0.0025 -0.3074  0.4735
 8063SOL    HW135825   0.133   0.259   3.586  0.1233 -1.4795  0.7197
 8063SOL    HW235826   0.120   0.318   3.453 -2.5730 -1.8925  0.1663
 8064SOL     OW35827   0.813   3.800   7.369 -0.4011 -0.2964  0.4601
 8064SOL    HW135828   0.726   3.776   7.398 -0.1494 -2.4534 -0.5587
 8064SOL    HW235829   0.811   3.896   7.360 -0.0177 -0.1852  1.5360
 8065SOL     OW35830   4.566   1.065   1.519 -0.2124  0.2076  0.5099
 8065SOL    HW135831   4.585   0.978   1.485  1.8250  1.2736 -1.0445
 8065SOL    HW235832   4.634   1.084   1.583  1.0275  0.7632 -0.9839
 8066SOL     OW35833   4.501   2.612  12.196 -0.1138 -0.1383  0.2932
 8066SOL    HW135834   4.508   2.598  12.101 -1.6406  0.8128  0.0383
 8066SOL    HW235835   4.564   2.550  12.232  0.4680 -0.7269 -1.7137
 8067SOL     OW35836   3.093   0.000   3.623  0.5310 -0.6031 -0.4047
 8067SOL    HW135837   3.139   4.689   3.693 -0.1298 -0.2892  0.2348
 8067SOL    HW235838   3.042   0.061   3.677 -0.4395 -0.2499 -1.7258
 8068SOL     OW35839   4.169   3.368   4.504 -0.2010 -0.8735 -0.3722
 8068SOL    HW135840   4.133   3.435   4.446  0.4055 -0.3684 -0.1660
 8068SOL    HW235841   4.143   3.407   4.587 -0.4873  0.5611 -1.1228
 8069SOL     OW35842   0.389   4.487   8.396  0.2968 -0.2008 -0.0302
 8069SOL    HW135843   0.412   4.444   8.314  2.5012  1.9001 -0.5154
 8069SOL    HW235844   0.422   4.430   8.465 -1.7042  0.3801  1.4307
 8070SOL     OW35845   1.841   0.899   8.574 -0.1472 -0.1721  0.0327
 8070SOL    HW135846   1.802   0.932   8.494 -0.6018  1.6060  0.9919
 8070SOL    HW235847   1.877   0.975   8.619  1.9434 -0.7512 -0.7009
 8071SOL     OW35848   3.325   2.268   1.381  0.3182 -0.0951  0.0025
 8071SOL    HW135849   3.324   2.225   1.295  1.8986  1.9594 -1.0365
 8071SOL    HW235850   3.381   2.220   1.441  1.3573  0.4794 -0.4976
 8072SOL     OW35851   1.193   3.293   4.796  0.6059  0.3272  0.0359
 8072SOL    HW135852   1.148   3.350   4.735  1.5528  0.9265 -0.0964
 8072SOL    HW235853   1.265   3.346   4.830  1.5720 -0.8469 -0.1592
 8073SOL     OW35854   1.116   0.923   7.823  0.7491  0.0907 -0.6492
 8073SOL    HW135855   1.056   0.983   7.867 -0.8693 -0.1763 -2.4651
 8073SOL    HW235856   1.161   0.880   7.896  1.5460  2.1750  0.0889
 8074SOL     OW35857   3.479   3.569   2.393  0.0542  0.3137  0.2337
 8074SOL    HW135858   3.570   3.586   2.420  0.3078  1.7566 -1.5350
 8074SOL    HW235859   3.496   3.508   2.321  0.6622  0.3203  0.3693
 8075SOL     OW35860   1.467   2.142   2.148 -0.2948 -0.3452 -0.0106
 8075SOL    HW135861   1.508   2.066   2.107  2.3265  0.9352  0.2088
 8075SOL    HW235862   1.376   2.117   2.131  0.0744 -0.8460 -1.2349
 8076SOL     OW35863   4.053   0.281   2.268  0.0895 -0.3170 -0.3124
 8076SOL    HW135864   4.107   0.292   2.346 -0.0909  1.9352 -0.4909
 8076SOL    HW235865   4.103   0.216   2.218  0.6639 -0.2417  0.1632
 8077SOL     OW35866   1.808   0.764   5.963  0.0832  0.4668  0.3219
 8077SOL    HW135867   1.789   0.721   6.046  0.6981 -1.0656 -0.3294
 8077SOL    HW235868   1.731   0.814   5.934  1.3295  1.1263 -1.8578
 8078SOL     OW35869   3.924   2.577   1.998 -0.5049 -0.2106 -0.2146
 8078SOL    HW135870   4.013   2.541   1.999 -1.4380 -2.5200 -1.1904
 8078SOL    HW235871   3.921   2.657   2.052  0.4300 -0.1807 -0.2113
 8079SOL     OW35872   0.623   3.468   0.147 -0.2367  0.6818 -0.6682
 8079SOL    HW135873   0.544   3.425   0.116 -0.8363  1.8145 -0.6892
 8079SOL    HW235874   0.598   3.558   0.127 -1.6580  0.2985 -0.6155
 8080SOL     OW35875   3.197   2.243  13.985  0.1950 -0.0798 -0.0387
 8080SOL    HW135876   3.220   2.162  13.940 -1.3201  0.3142 -1.4837
 8080SOL    HW235877   3.203   2.306  13.913  1.7044 -0.9406 -0.6702
 8081SOL     OW35878   4.287   1.205   7.954 -0.4854 -0.1041 -0.1631
 8081SOL    HW135879   4.241   1.202   7.870  1.0810  0.4773 -1.0353
 8081SOL    HW235880   4.322   1.116   7.958 -1.0398 -0.4030 -1.8952
 8082SOL     OW35881   1.357   3.536  13.109  0.2873  0.5752 -0.2259
 8082SOL    HW135882   1.310   3.593  13.170 -1.2512  0.0249 -0.8870
 8082SOL    HW235883   1.445   3.569  13.125  0.2486  0.0905  0.9927
 8083SOL     OW35884   4.584   0.822   0.956 -0.0634  0.1426 -0.5739
 8083SOL    HW135885   4.641   0.774   1.017 -1.3381 -0.6019  0.0373
 8083SOL    HW235886   4.652   0.848   0.893 -0.5603 -0.0696 -1.1899
 8084SOL     OW35887   2.040   4.353   2.199 -0.0756 -0.1751 -0.2616
 8084SOL    HW135888   2.025   4.260   2.220 -2.0484  0.1307 -0.3268
 8084SOL    HW235889   2.123   4.359   2.246 -0.1964  0.6172 -0.1475
 8085SOL     OW35890   0.719   4.002   4.248 -0.4337  0.0154  0.1707
 8085SOL    HW135891   0.643   4.018   4.191 -0.7248  1.8273  1.0513
 8085SOL    HW235892   0.726   3.908   4.231  1.7063  0.2523 -0.1778
 8086SOL     OW35893   3.826   3.234   0.458 -0.4998 -0.3985  0.7164
 8086SOL    HW135894   3.781   3.154   0.484  2.0460 -1.1803  2.6244
 8086SOL    HW235895   3.862   3.261   0.542 -4.0677  0.9151  1.8231
 8087SOL     OW35896   4.660   4.511   5.602 -0.3273  0.2901 -0.1568
 8087SOL    HW135897   4.633   4.603   5.612  1.3182  0.9155 -1.4560
 8087SOL    HW235898   4.581   4.458   5.611  0.3911 -0.7733 -0.1046
 8088SOL     OW35899   2.777   4.727   4.924  0.2381  0.5736 -0.2394
 8088SOL    HW135900   2.686   4.716   4.950  0.2749 -0.0084 -0.3695
 8088SOL    HW235901   2.830   4.715   5.002  1.3920  0.7777 -0.9868
 8089SOL     OW35902   0.334   0.299   1.183 -0.2313  0.5288  0.2624
 8089SOL    HW135903   0.242   0.306   1.208 -0.0678  1.4799  0.5897
 8089SOL    HW235904   0.388   0.291   1.263  0.4111 -0.3860 -0.2555
 8090SOL     OW35905   0.454   0.502  11.218  0.6355  0.2999  0.2333
 8090SOL    HW135906   0.545   0.487  11.195 -0.2767 -0.8556 -2.6160
 8090SOL    HW235907   0.410   0.419  11.236  0.7202  0.0048 -0.9618
 8091SOL     OW35908   4.012   3.802   4.146  0.5377  0.4384 -0.0222
 8091SOL    HW135909   4.028   3.710   4.124  1.1216  0.4499  0.3482
 8091SOL    HW235910   4.035   3.845   4.064  0.5569 -1.6335 -1.1094
 8092SOL     OW35911   4.525   3.690   5.343  0.0068  0.2554 -0.0318
 8092SOL    HW135912   4.504   3.596   5.343 -1.1463  0.5181 -1.3655
 8092SOL    HW235913   4.553   3.714   5.432 -0.6147 -1.0900  0.5367
 8093SOL     OW35914   1.938   0.561   0.162 -0.2390 -0.2213  0.3788
 8093SOL    HW135915   1.912   0.540   0.073  2.5724  0.9663 -0.7269
 8093SOL    HW235916   1.999   0.632   0.143 -1.8157  0.6486 -1.3421
 8094SOL     OW35917   1.499   1.937   3.030 -0.8874  0.0022  0.9554
 8094SOL    HW135918   1.485   1.931   2.936  0.1800 -1.4586  0.8819
 8094SOL    HW235919   1.421   1.985   3.056 -1.0360 -0.0334  0.5741
 8095SOL     OW35920   3.911   1.697  11.040 -0.1390  0.4424 -0.5161
 8095SOL    HW135921   3.953   1.781  11.020 -0.7737  1.3743  1.9596
 8095SOL    HW235922   3.894   1.711  11.133  0.5678 -0.5482 -0.2341
 8096SOL     OW35923   1.034   0.398  11.312 -0.0393  0.0989  0.0907
 8096SOL    HW135924   1.095   0.464  11.346  0.9049 -0.9811  0.4767
 8096SOL    HW235925   1.080   0.373  11.232  0.0046 -3.5937  1.2660
 8097SOL     OW35926   4.175   1.394  15.262 -0.0686  0.3087  0.1472
 8097SOL    HW135927   4.198   1.440  15.182  0.2099 -0.2531 -0.0917
 8097SOL    HW235928   4.117   1.460  15.301 -0.6790  0.8068 -1.6048
 8098SOL     OW35929   2.959   4.507   2.782 -0.0307 -0.2358 -0.5896
 8098SOL    HW135930   3.021   4.470   2.719  0.0430  0.9690 -1.2265
 8098SOL    HW235931   3.013   4.534   2.856 -1.4346 -2.1427  1.1390
 8099SOL     OW35932   0.073   3.547  10.208  0.6810  0.2074  0.5609
 8099SOL    HW135933   0.154   3.504  10.180 -0.9390 -1.2233 -1.9702
 8099SOL    HW235934   0.107   3.592  10.286  2.7543 -1.5806  0.7127
 8100SOL     OW35935   4.673   1.464   4.198  0.4635  0.2808  0.1722
 8100SOL    HW135936   4.656   1.437   4.107 -1.9881 -1.3993  1.1220
 8100SOL    HW235937   4.625   1.391   4.237 -0.6476  1.4865  1.0427
 8101SOL     OW35938   4.037   0.842   5.159 -1.0791  0.1529 -0.0094
 8101SOL    HW135939   4.059   0.788   5.234  0.6617  0.4877 -0.2736
 8101SOL    HW235940   4.014   0.925   5.200 -2.3356 -0.1332 -0.1313
 8102SOL     OW35941   3.227   0.751   9.425 -0.4166  0.2242 -0.1737
 8102SOL    HW135942   3.210   0.708   9.509 -2.2532 -0.2338 -0.7792
 8102SOL    HW235943   3.269   0.678   9.379 -1.1114 -1.3575  1.6925
 8103SOL     OW35944   0.318   2.950   1.821  0.0263 -0.3100  0.2999
 8103SOL    HW135945   0.402   2.996   1.820  0.4263 -1.0345  0.1361
 8103SOL    HW235946   0.306   2.915   1.909 -1.6342 -0.6625 -0.0581
 8104SOL     OW35947   1.329   4.090  15.487 -0.1361 -0.5304  0.3224
 8104SOL    HW135948   1.337   3.995  15.494  0.4250 -0.4576  0.6767
 8104SOL    HW235949   1.250   4.096  15.433  1.6512 -2.5054 -2.4948
 8105SOL     OW35950   0.421   1.408  15.951 -0.4076 -0.3939  0.1105
 8105SOL    HW135951   0.462   1.414  16.037 -2.5044  2.5910  0.8857
 8105SOL    HW235952   0.339   1.454  15.969 -1.5039 -2.3915  0.2894
 8106SOL     OW35953   4.184   2.626  17.181  1.0080 -0.0328 -0.1577
 8106SOL    HW135954   4.175   2.639  17.275  1.9559  0.9225 -0.2017
 8106SOL    HW235955   4.273   2.591  17.183  0.5828 -1.1563 -0.8007
 8107SOL     OW35956   1.871   0.912   7.157  0.1327 -0.2172 -0.0702
 8107SOL    HW135957   1.902   0.878   7.242  1.1243  2.1234  0.5041
 8107SOL    HW235958   1.913   0.859   7.089 -2.0653 -2.0348  0.0113
 8108SOL     OW35959   2.526   1.407   4.081 -0.2440 -0.3567  0.5946
 8108SOL    HW135960   2.557   1.351   4.009 -2.3169  3.4990 -3.3292
 8108SOL    HW235961   2.447   1.358   4.105 -0.4068 -1.0633 -1.3658
 8109SOL     OW35962   2.065   4.162   6.842  0.4130 -0.2950 -0.3670
 8109SOL    HW135963   2.000   4.224   6.874 -0.5982 -1.8975  0.7013
 8109SOL    HW235964   2.021   4.124   6.766 -1.0365 -2.4809  1.5760
 8110SOL     OW35965   0.465   0.117   6.292 -0.1841 -0.2355  0.1582
 8110SOL    HW135966   0.453   0.113   6.387 -4.1357 -0.2581 -0.3353
 8110SOL    HW235967   0.527   0.189   6.276 -0.3804 -0.3336 -1.0602
 8111SOL     OW35968   4.687   1.704   5.254 -0.8879 -0.5711 -0.5277
 8111SOL    HW135969   4.680   1.644   5.179  2.2786 -1.4543 -0.1261
 8111SOL    HW235970   4.725   1.777   5.205 -0.1930 -0.4708  0.1651
 8112SOL     OW35971   2.340   0.519  13.565 -1.3686  0.2039 -0.4806
 8112SOL    HW135972   2.290   0.442  13.595 -1.7281  0.3253 -0.7750
 8112SOL    HW235973   2.374   0.478  13.485 -2.7544 -1.3426 -0.2920
 8113SOL     OW35974   3.178   4.394  10.385 -0.1467  0.5029 -0.5604
 8113SOL    HW135975   3.183   4.440  10.469 -0.8390  0.0344 -0.2626
 8113SOL    HW235976   3.111   4.326  10.393  0.4610  0.1222  1.3987
 8114SOL     OW35977   3.673   3.476   5.581 -0.3390  0.5936 -0.3134
 8114SOL    HW135978   3.660   3.396   5.530 -1.2366  0.4085  0.2113
 8114SOL    HW235979   3.766   3.473   5.604 -0.3886 -1.0233 -0.2576
 8115SOL     OW35980   2.021   1.447   8.869  0.6851 -0.0644  0.6392
 8115SOL    HW135981   1.939   1.398   8.866  1.0458 -0.6053 -0.1861
 8115SOL    HW235982   2.067   1.379   8.919  0.8146 -1.7592 -1.8320
 8116SOL     OW35983   1.758   2.465  15.527 -0.4476 -0.1324 -0.4449
 8116SOL    HW135984   1.688   2.480  15.590  0.1975 -1.2749  0.5408
 8116SOL    HW235985   1.708   2.490  15.449  0.5253 -0.5816 -1.2237
 8117SOL     OW35986   2.944   4.074   3.278  0.3632 -0.1078 -0.5245
 8117SOL    HW135987   2.902   3.988   3.277  1.9557 -0.8912 -2.1821
 8117SOL    HW235988   3.038   4.059   3.283  0.1524 -1.0675  0.5060
 8118SOL     OW35989   3.612   1.487  17.537  0.0914 -0.4749  0.3696
 8118SOL    HW135990   3.614   1.439  17.454  1.9388 -0.2287  0.2751
 8118SOL    HW235991   3.647   1.424  17.600 -0.3427 -0.7717  0.3078
 8119SOL     OW35992   0.662   0.257   0.206 -0.3547 -0.4852 -0.0621
 8119SOL    HW135993   0.702   0.285   0.288  2.9785 -2.1005 -1.1156
 8119SOL    HW235994   0.728   0.195   0.174  0.2507 -1.1414  2.5303
 8120SOL     OW35995   2.120   0.381   9.567 -0.0438  0.7309 -0.1476
 8120SOL    HW135996   2.181   0.436   9.616  2.6594 -2.7112  0.3867
 8120SOL    HW235997   2.132   0.393   9.473 -0.9612  3.3677  0.0720
 8121SOL     OW35998   2.396   0.157   1.420  0.6751 -0.6831 -0.6234
 8121SOL    HW135999   2.326   0.201   1.371 -1.4415 -2.3664  0.9111
 8121SOL    HW236000   2.436   0.114   1.344 -0.1042  1.8092 -2.4832
 8122SOL     OW36001   3.838   0.837   3.084  0.4754  0.2453  0.2481
 8122SOL    HW136002   3.839   0.869   3.175  1.5943  0.5656  0.1242
 8122SOL    HW236003   3.927   0.848   3.050  0.4606  1.5993  0.6668
 8123SOL     OW36004   1.015   2.041   5.810  0.5565  0.3778  0.1522
 8123SOL    HW136005   1.058   2.059   5.726  2.3456  1.3026  1.2474
 8123SOL    HW236006   1.018   2.131   5.842  0.5134  0.3754  0.1621
 8124SOL     OW36007   0.309   3.085  10.034 -0.0357  0.2098  0.3645
 8124SOL    HW136008   0.308   3.013   9.970  1.3558 -0.4688  1.1063
 8124SOL    HW236009   0.368   3.153  10.002 -0.6970  0.1926 -0.9206
 8125SOL     OW36010   2.957   1.678   9.804  0.2080  0.0475 -0.4409
 8125SOL    HW136011   2.998   1.761   9.825 -0.2800  0.4315 -1.0011
 8125SOL    HW236012   3.035   1.622   9.800  1.9413  2.3747  0.5907
 8126SOL     OW36013   4.230   3.073   2.898 -0.1578  0.2182 -0.2673
 8126SOL    HW136014   4.296   3.048   2.963 -0.0435  0.5826 -0.2403
 8126SOL    HW236015   4.283   3.066   2.819 -1.0924  2.5100 -1.0932
 8127SOL     OW36016   1.268   2.735  17.473  0.9174 -0.1617  0.2686
 8127SOL    HW136017   1.357   2.747  17.506  1.2694 -1.9826 -0.0695
 8127SOL    HW236018   1.221   2.812  17.507  1.3718  0.9691 -1.6832
 8128SOL     OW36019   0.641   0.618   9.097  0.0341 -0.0245 -0.3643
 8128SOL    HW136020   0.569   0.587   9.152  0.2104  2.3610  1.2407
 8128SOL    HW236021   0.598   0.662   9.023  4.0326  2.5913 -1.1582
 8129SOL     OW36022   3.240   4.321   9.169  0.2870 -0.2361 -0.3524
 8129SOL    HW136023   3.273   4.231   9.169 -0.1296 -0.3724 -3.0080
 8129SOL    HW236024   3.179   4.311   9.243  0.6857  2.9840  0.4065
 8130SOL     OW36025   1.825   2.022   3.600  0.2369  0.0200  0.2485
 8130SOL    HW136026   1.847   1.979   3.518 -0.9488 -0.9303  0.4252
 8130SOL    HW236027   1.859   2.110   3.583  2.2573 -1.1678 -1.8595
 8131SOL     OW36028   2.765   0.085  15.491  0.6295 -0.3427  0.0315
 8131SOL    HW136029   2.844   0.136  15.510 -0.8491  1.4857  1.1473
 8131SOL    HW236030   2.782   0.053  15.402 -1.0174 -0.0514 -0.3957
 8132SOL     OW36031   4.124   1.282  16.401  0.2641 -0.4455 -0.1600
 8132SOL    HW136032   4.114   1.210  16.339 -1.2203  1.2311 -1.8345
 8132SOL    HW236033   4.124   1.358  16.343 -1.5030  1.0528  1.7566
 8133SOL     OW36034   0.989   2.528   0.823  0.7632  0.3981 -0.1989
 8133SOL    HW136035   0.911   2.555   0.776  1.3768  0.8058 -0.9761
 8133SOL    HW236036   1.036   2.493   0.748 -0.0740 -0.3193 -0.3770
 8134SOL     OW36037   3.477   2.060  14.952 -0.3041 -0.0015 -0.0685
 8134SOL    HW136038   3.563   2.058  14.995 -1.0704 -1.1163  1.4275
 8134SOL    HW236039   3.468   1.983  14.896 -1.5536 -0.0990  0.2757
 8135SOL     OW36040   4.079   3.930   7.912  0.0381  0.1922 -0.0750
 8135SOL    HW136041   4.024   3.916   7.989  1.5888  1.6230  1.3086
 8135SOL    HW236042   4.034   3.884   7.841  0.1528 -0.3867  0.2244
 8136SOL     OW36043   1.127   3.418   7.464  0.1411  0.4572  0.4049
 8136SOL    HW136044   1.099   3.375   7.545  1.5850  0.1156  0.7285
 8136SOL    HW236045   1.041   3.429   7.423 -0.9753  1.7265  3.0578
 8137SOL     OW36046   0.506   3.665   6.366  0.2078  0.7916 -0.0943
 8137SOL    HW136047   0.601   3.662   6.356  0.2375 -0.3034  0.4267
 8137SOL    HW236048   0.489   3.733   6.431  0.2805  0.2271  0.5167
 8138SOL     OW36049   1.241   2.617   3.717  0.0805 -0.0694 -0.0179
 8138SOL    HW136050   1.316   2.657   3.762 -0.7471  0.0043  1.2904
 8138SOL    HW236051   1.223   2.539   3.769  0.2523  1.1878  1.9222
 8139SOL     OW36052   4.506   3.205   5.025  0.0785 -0.0655  0.2924
 8139SOL    HW136053   4.485   3.116   4.997 -0.1348 -0.0433  0.3859
 8139SOL    HW236054   4.422   3.244   5.002 -1.0530 -1.3155  2.3335
 8140SOL     OW36055   0.848   1.045   7.614  0.3946  0.1731 -0.4935
 8140SOL    HW136056   0.827   1.134   7.584  0.2026 -0.0053 -0.8862
 8140SOL    HW236057   0.787   0.995   7.560 -1.0914  1.8202 -0.3385
 8141SOL     OW36058   2.204   2.338  14.098 -0.4625 -0.6133 -0.2045
 8141SOL    HW136059   2.137   2.351  14.032  0.1417 -0.2537 -0.7511
 8141SOL    HW236060   2.220   2.244  14.091  1.7712 -0.2194 -0.3812
 8142SOL     OW36061   1.021   2.746   2.476  0.3412  0.1580  0.4124
 8142SOL    HW136062   1.049   2.837   2.472 -1.7111  0.8104  1.0380
 8142SOL    HW236063   1.101   2.696   2.491  1.0505  1.0233 -0.5270
 8143SOL     OW36064   3.296   2.500   7.689 -0.2273 -0.5369 -0.0225
 8143SOL    HW136065   3.272   2.471   7.776  3.3885 -1.5325  0.6406
 8143SOL    HW236066   3.289   2.409   7.661 -0.7152 -0.8896  1.2684
 8144SOL     OW36067   3.975   1.920   5.444 -0.3962 -0.4162  0.0999
 8144SOL    HW136068   3.975   1.951   5.534  0.6770 -0.9126  0.2688
 8144SOL    HW236069   4.068   1.924   5.423 -0.9995  3.0952 -2.1115
 8145SOL     OW36070   1.301   2.360  15.929  0.4337  0.6391  0.2939
 8145SOL    HW136071   1.214   2.359  15.969 -1.3913  2.7793 -3.5467
 8145SOL    HW236072   1.274   2.378  15.839 -1.2458  1.4880  0.9760
 8146SOL     OW36073   2.015   4.574   1.901  0.4867 -0.3157 -0.2350
 8146SOL    HW136074   1.937   4.564   1.955  0.8132 -0.6671  0.1750
 8146SOL    HW236075   2.024   4.669   1.906  0.3279 -0.1405 -4.0354
 8147SOL     OW36076   2.137   4.391  13.444  0.4481 -0.3413  0.2780
 8147SOL    HW136077   2.174   4.439  13.370  0.8876 -0.8542  0.1719
 8147SOL    HW236078   2.054   4.439  13.445  0.8422  0.4347 -3.1809
 8148SOL     OW36079   2.287   4.662   3.095  0.5499  0.2600 -0.3672
 8148SOL    HW136080   2.357   4.620   3.144  0.3579 -1.7059 -1.7976
 8148SOL    HW236081   2.332   0.011   3.085 -0.5327  0.9680  0.8291
 8149SOL     OW36082   0.557   3.751   3.541 -0.4563 -0.4104  0.0070
 8149SOL    HW136083   0.531   3.663   3.513  0.5082 -0.9892  0.9495
 8149SOL    HW236084   0.468   3.784   3.551  0.2664  2.4617 -3.2500
 8150SOL     OW36085   1.936   1.071   5.178 -0.5099  0.7036 -0.3059
 8150SOL    HW136086   2.017   1.086   5.228 -0.0050 -0.8785 -0.6638
 8150SOL    HW236087   1.935   1.153   5.128  2.5893  1.1239  0.2955
 8151SOL     OW36088   4.349   0.936   6.099  0.5552 -0.3696  1.1908
 8151SOL    HW136089   4.433   0.906   6.131  0.4003 -1.3028  0.7241
 8151SOL    HW236090   4.285   0.893   6.155  0.7451 -2.7633 -0.4357
 8152SOL     OW36091   0.617   3.518   1.555 -0.0712  0.0662  0.1113
 8152SOL    HW136092   0.554   3.538   1.485  1.7919  0.0753 -1.5692
 8152SOL    HW236093   0.700   3.536   1.511 -1.1007  0.8184 -1.5492
 8153SOL     OW36094   2.924   0.773   8.553 -0.3505  0.3433 -0.5745
 8153SOL    HW136095   2.944   0.863   8.529 -1.4383  0.9036  0.6317
 8153SOL    HW236096   3.009   0.732   8.538  0.1691  1.6549 -1.2487
 8154SOL     OW36097   0.134   3.171   7.151 -0.2377  0.8722 -0.4470
 8154SOL    HW136098   0.098   3.086   7.124  2.9590 -0.4913 -0.4204
 8154SOL    HW236099   0.206   3.175   7.088  0.7368  2.8679  0.8136
 8155SOL     OW36100   4.276   0.891   6.786  0.0701  0.3092  0.3809
 8155SOL    HW136101   4.270   0.942   6.705 -0.7675 -1.4813 -0.6605
 8155SOL    HW236102   4.370   0.894   6.806 -0.1017 -0.1950  1.2692
 8156SOL     OW36103   1.640   4.505  16.589 -0.5556 -0.0304  0.1750
 8156SOL    HW136104   1.551   4.472  16.576 -1.1728  1.2848  1.0333
 8156SOL    HW236105   1.636   4.527  16.682  3.1641  1.5244 -0.0496
 8157SOL     OW36106   3.151   4.029   5.528  0.3999 -0.5327 -0.5014
 8157SOL    HW136107   3.197   4.061   5.606  0.4862  0.3931 -0.9387
 8157SOL    HW236108   3.218   3.973   5.490  0.9064 -1.2903  1.5216
 8158SOL     OW36109   0.529   4.544  10.271  0.0092 -0.3837  0.0862
 8158SOL    HW136110   0.526   4.488  10.193  4.4007 -1.0838  0.3812
 8158SOL    HW236111   0.551   4.472  10.330  0.9705  0.6279  0.9564
 8159SOL     OW36112   1.653   0.493  15.812 -0.5120 -0.5455 -0.1872
 8159SOL    HW136113   1.633   0.421  15.753 -0.1270 -1.1955  0.4855
 8159SOL    HW236114   1.660   0.557  15.741 -0.3125  0.4119  0.6880
 8160SOL     OW36115   0.306   2.761   5.028 -0.1107  0.0271  0.0936
 8160SOL    HW136116   0.395   2.783   5.055  0.1594  1.1115 -1.7491
 8160SOL    HW236117   0.316   2.701   4.954  0.4585 -0.9838  0.9877
 8161SOL     OW36118   2.772   1.462  17.430 -0.0908  0.0331  0.2770
 8161SOL    HW136119   2.781   1.554  17.453  1.7493  0.3479 -1.6238
 8161SOL    HW236120   2.797   1.418  17.512 -1.3931  0.3255  0.8198
 8162SOL     OW36121   2.913   0.294   1.698  0.5975 -0.2578  0.2021
 8162SOL    HW136122   2.959   0.368   1.737  0.3140  0.9490 -1.7662
 8162SOL    HW236123   2.849   0.325   1.634  1.7426 -2.7025 -2.1226
 8163SOL     OW36124   1.706   3.436  16.418 -0.0121 -0.0607 -0.2591
 8163SOL    HW136125   1.657   3.469  16.342  1.3974 -0.5921 -1.3930
 8163SOL    HW236126   1.678   3.344  16.415 -0.4977  0.1178 -1.6079
 8164SOL     OW36127   3.058   0.978   6.427  0.2124 -1.4971 -0.2926
 8164SOL    HW136128   3.121   1.006   6.492  1.3246 -0.1901 -1.9211
 8164SOL    HW236129   3.118   0.982   6.352  3.6356  0.4540  2.6077
 8165SOL     OW36130   2.354   1.205   2.065 -0.0077 -0.6321 -0.2165
 8165SOL    HW136131   2.363   1.124   2.014  1.0062 -1.0844  0.6907
 8165SOL    HW236132   2.259   1.207   2.074 -0.1508 -1.4755 -1.3886
 8166SOL     OW36133   1.615   1.681  13.875 -0.2586  0.2896  0.1998
 8166SOL    HW136134   1.543   1.627  13.844 -0.3570  1.4793 -1.6453
 8166SOL    HW236135   1.677   1.611  13.895 -1.9550 -1.0652  0.6887
 8167SOL     OW36136   3.233   1.891  15.511  0.3171 -0.6560 -0.0311
 8167SOL    HW136137   3.323   1.901  15.481 -0.7321  2.1377 -2.3016
 8167SOL    HW236138   3.207   1.979  15.541  2.1011 -0.4630  0.9315
 8168SOL     OW36139   1.118   1.470   8.961  0.5838  0.1243 -0.0933
 8168SOL    HW136140   1.106   1.526   8.884  0.0560 -1.5443 -1.2359
 8168SOL    HW236141   1.110   1.378   8.936  1.6642 -0.1952  0.7733
 8169SOL     OW36142   2.159   2.065  17.034  0.3312  0.3966  0.4057
 8169SOL    HW136143   2.063   2.070  17.025  0.4935  1.8167 -0.4802
 8169SOL    HW236144   2.170   2.031  16.945 -1.2177 -0.4334  0.5318
 8170SOL     OW36145   0.656   1.534   1.688 -0.2589  0.4008 -0.4078
 8170SOL    HW136146   0.688   1.563   1.602 -0.2902 -2.4703 -1.3729
 8170SOL    HW236147   0.607   1.610   1.720 -0.5205 -0.0933  0.3758
 8171SOL     OW36148   4.191   1.495  11.827 -0.2648 -0.4779 -0.3078
 8171SOL    HW136149   4.183   1.539  11.911  0.6481  0.0194 -0.4751
 8171SOL    HW236150   4.102   1.459  11.828 -0.4675  0.1237  2.5076
 8172SOL     OW36151   2.101   1.263  13.689 -0.6517 -0.1016  0.1190
 8172SOL    HW136152   2.136   1.198  13.627 -1.7278 -1.6096  1.1003
 8172SOL    HW236153   2.039   1.319  13.643 -1.1391 -0.1737  0.7001
 8173SOL     OW36154   0.579   3.546  12.818  0.2975  0.6371  0.9449
 8173SOL    HW136155   0.517   3.475  12.799  0.3298 -0.0799  3.4337
 8173SOL    HW236156   0.652   3.501  12.862  1.3187  1.2184 -0.1580
 8174SOL     OW36157   0.770   1.640   1.967 -0.4331  0.1639  0.2097
 8174SOL    HW136158   0.687   1.646   1.919  0.2585  0.1972 -0.9989
 8174SOL    HW236159   0.753   1.699   2.041 -1.2134  0.2216 -0.0110
 8175SOL     OW36160   3.577   0.164   5.470  0.2305  0.1384 -0.1200
 8175SOL    HW136161   3.586   0.142   5.563  2.6337 -0.2919 -0.4373
 8175SOL    HW236162   3.571   0.259   5.469  0.6913  0.1737  0.5719
 8176SOL     OW36163   1.962   1.774   7.047 -0.0050 -0.2377 -0.5143
 8176SOL    HW136164   1.891   1.829   7.082  1.0394  2.3075 -2.3477
 8176SOL    HW236165   1.914   1.744   6.969  0.3080 -1.9911 -0.0112
 8177SOL     OW36166   3.295   0.095   3.283 -0.0627 -0.1828 -0.7913
 8177SOL    HW136167   3.289   0.166   3.219  0.2005 -1.4745 -2.2593
 8177SOL    HW236168   3.377   0.063   3.245  1.6858  2.2858  0.9629
 8178SOL     OW36169   4.552   4.413  11.380 -0.0038 -0.4289 -0.3021
 8178SOL    HW136170   4.561   4.466  11.301  1.5091 -0.2335 -0.0071
 8178SOL    HW236171   4.610   4.341  11.356 -0.3486 -0.0894 -2.1422
 8179SOL     OW36172   2.632   4.691   4.073 -0.4386 -0.0266  0.3287
 8179SOL    HW136173   2.722   4.659   4.083 -0.2338  0.7544  1.0386
 8179SOL    HW236174   2.621   4.723   4.163 -1.6043 -0.2143  0.2458
 8180SOL     OW36175   0.652   3.378  17.230  0.1362 -0.1585  0.4866
 8180SOL    HW136176   0.669   3.468  17.258  2.0495 -0.4014  0.1401
 8180SOL    HW236177   0.618   3.342  17.313 -1.0836 -0.2953 -0.0753
 8181SOL     OW36178   2.701   4.635   7.115 -0.0266 -0.0207  0.6332
 8181SOL    HW136179   2.762   4.585   7.060  0.5726 -0.3201  1.5723
 8181SOL    HW236180   2.678   4.563   7.174 -0.8089 -0.1213  0.2088
 8182SOL     OW36181   0.323   1.502   2.157  0.6236 -0.0447  0.0261
 8182SOL    HW136182   0.231   1.495   2.182  0.7117 -0.7466  0.1663
 8182SOL    HW236183   0.324   1.585   2.110 -1.7951  0.3079  0.6189
 8183SOL     OW36184   4.017   0.926   5.509  0.4766 -0.1230 -0.5826
 8183SOL    HW136185   4.030   0.845   5.460  1.7295  0.4937 -1.2626
 8183SOL    HW236186   4.085   0.986   5.477 -0.4946  0.8086 -0.9108
 8184SOL     OW36187   3.637   1.439   4.023 -0.5112  0.3725 -0.6741
 8184SOL    HW136188   3.623   1.457   4.116  2.7936 -0.6977  0.0110
 8184SOL    HW236189   3.727   1.471   4.019  0.4526 -2.2844 -0.3308
 8185SOL     OW36190   1.126   1.743   5.820 -0.3429  0.0666  0.1735
 8185SOL    HW136191   1.081   1.735   5.904  1.8225 -0.5230  1.2882
 8185SOL    HW236192   1.077   1.811   5.774 -2.5111 -1.8772 -0.3770
 8186SOL     OW36193   4.013   1.750  17.005 -0.2410  0.4963  0.2648
 8186SOL    HW136194   3.966   1.693  17.066 -0.9527  1.6823  0.8328
 8186SOL    HW236195   4.090   1.772  17.059  0.5748  0.4964 -0.9101
 8187SOL     OW36196   3.354   4.385   2.228 -0.6596  0.0169 -0.4213
 8187SOL    HW136197   3.346   4.331   2.306 -1.5630  0.8024  0.0349
 8187SOL    HW236198   3.366   4.467   2.277 -0.1501 -0.2680 -0.0684
 8188SOL     OW36199   1.418   1.169  15.898 -0.5840  0.5923  0.3889
 8188SOL    HW136200   1.490   1.106  15.890 -0.8121  0.4529 -0.6329
 8188SOL    HW236201   1.398   1.167  15.991  0.7570 -0.3390  0.6677
 8189SOL     OW36202   0.663   3.863   9.091 -0.3175  0.5360  0.4389
 8189SOL    HW136203   0.571   3.836   9.092  0.2783 -1.5764 -1.2805
 8189SOL    HW236204   0.696   3.827   9.173 -0.4081  0.7175  0.5541
 8190SOL     OW36205   2.814   3.692   1.840 -0.0279  0.6595  0.2425
 8190SOL    HW136206   2.778   3.733   1.918  2.6709 -1.5570  2.6159
 8190SOL    HW236207   2.777   3.750   1.773  2.4627 -2.1845 -3.6439
 8191SOL     OW36208   2.673   4.241   6.525  0.4532  0.2545 -0.4105
 8191SOL    HW136209   2.747   4.194   6.563 -0.8266  0.7227  2.6820
 8191SOL    HW236210   2.610   4.170   6.541  0.1646 -0.0696 -2.9436
 8192SOL     OW36211   0.680   4.164   8.739  0.4064  0.3877  0.2431
 8192SOL    HW136212   0.699   4.124   8.654  0.1839 -1.2053  0.9320
 8192SOL    HW236213   0.623   4.100   8.782 -0.3543  0.1967 -1.0575
 8193SOL     OW36214   2.769   2.374   2.045  0.0151 -0.1936 -1.2251
 8193SOL    HW136215   2.707   2.301   2.038 -1.1645  0.7842 -1.0045
 8193SOL    HW236216   2.854   2.330   2.040 -0.6981 -1.7509  0.4850
 8194SOL     OW36217   3.165   1.600   7.249  0.2198 -0.0669  0.3738
 8194SOL    HW136218   3.120   1.628   7.169  1.1697  0.0539 -0.1171
 8194SOL    HW236219   3.223   1.531   7.215  0.3859  0.3167 -0.1199
 8195SOL     OW36220   2.771   4.696   4.348  0.5685 -0.0253 -0.6743
 8195SOL    HW136221   2.827   4.619   4.337  0.2974 -0.3348  0.0819
 8195SOL    HW236222   2.705   4.676   4.414 -0.6197  2.2022 -1.1828
 8196SOL     OW36223   4.416   0.529  10.123  0.3464  0.2055  0.5583
 8196SOL    HW136224   4.414   0.470  10.198  0.7293 -0.1894  0.2586
 8196SOL    HW236225   4.442   0.458  10.064  0.2843 -0.2641  1.0925
 8197SOL     OW36226   1.465   1.015   6.838  0.0180 -0.3671  0.2960
 8197SOL    HW136227   1.409   1.065   6.778  1.7483  0.3401 -0.7154
 8197SOL    HW236228   1.521   1.081   6.879 -0.0761 -1.0459  1.4959
 8198SOL     OW36229   0.508   1.179   4.916 -0.4442 -0.6085  0.3610
 8198SOL    HW136230   0.451   1.208   4.846 -0.9664  0.7611  1.3466
 8198SOL    HW236231   0.455   1.193   4.994  0.5992 -1.3726  1.2139
 8199SOL     OW36232   4.373   2.990   7.995 -0.0190 -0.3407  0.1912
 8199SOL    HW136233   4.451   2.934   7.994  0.7514  0.7050  0.8075
 8199SOL    HW236234   4.304   2.927   7.977  0.6768 -0.5351 -1.7847
 8200SOL     OW36235   2.833   2.138   6.132 -0.4169  0.2140  0.2229
 8200SOL    HW136236   2.814   2.117   6.224  1.2463 -0.9001  0.3072
 8200SOL    HW236237   2.885   2.061   6.108  0.7944  1.0410  0.2229
 8201SOL     OW36238   3.755   1.093   3.684  0.1159  0.0611  0.3376
 8201SOL    HW136239   3.694   1.162   3.710  0.7307  0.4058  0.8532
 8201SOL    HW236240   3.692   1.040   3.635  1.8284 -0.9424 -0.7783
 8202SOL     OW36241   4.162   1.792  10.258 -0.8928 -0.2592 -0.5521
 8202SOL    HW136242   4.068   1.800  10.240 -0.5044  0.7173 -2.0921
 8202SOL    HW236243   4.184   1.885  10.262 -1.3206 -0.1423 -0.9736
 8203SOL     OW36244   4.321   2.659   7.523 -0.6977  0.1687 -0.2258
 8203SOL    HW136245   4.329   2.732   7.584 -1.3381 -0.1500  0.2464
 8203SOL    HW236246   4.387   2.600   7.559 -0.8155  0.9162  1.1970
 8204SOL     OW36247   4.644   4.097  12.824 -0.0987 -0.0693 -0.2598
 8204SOL    HW136248   4.699   4.051  12.887 -1.1265 -1.9388 -0.7235
 8204SOL    HW236249   4.567   4.042  12.810  0.0319 -0.3636  0.1713
 8205SOL     OW36250   2.843   3.125   7.403  0.7672  0.3721 -0.0379
 8205SOL    HW136251   2.748   3.136   7.404  0.6491 -0.6159 -0.8407
 8205SOL    HW236252   2.860   3.092   7.491  0.0648 -0.1237 -0.0875
 8206SOL     OW36253   0.243   0.273   2.925  0.6041 -0.4535  0.1084
 8206SOL    HW136254   0.273   0.352   2.880  0.0451  0.9366  2.1733
 8206SOL    HW236255   0.300   0.278   3.002 -0.2554 -0.0469  0.7218
 8207SOL     OW36256   1.406   4.538   8.797  0.2374 -0.1546  0.5051
 8207SOL    HW136257   1.422   4.614   8.740 -1.5543 -0.5672 -0.5691
 8207SOL    HW236258   1.486   4.488   8.782  1.4158  2.5187 -2.2906
 8208SOL     OW36259   2.373   2.775   7.590  0.4318  0.3763 -0.2440
 8208SOL    HW136260   2.357   2.787   7.496 -0.4378  0.9919 -0.0172
 8208SOL    HW236261   2.464   2.745   7.589 -0.4675 -2.3209 -1.0201
 8209SOL     OW36262   2.880   2.108   4.312  0.0020  1.0469  0.7590
 8209SOL    HW136263   2.921   2.164   4.378  0.6645  0.3834  0.9149
 8209SOL    HW236264   2.800   2.159   4.299 -0.5010  0.1454  0.3405
 8210SOL     OW36265   4.254   0.532   4.699  0.2258 -0.0968 -0.0540
 8210SOL    HW136266   4.191   0.470   4.735 -0.4479  0.6340  0.0238
 8210SOL    HW236267   4.286   0.594   4.765  0.4638  0.1262 -0.3809
 8211SOL     OW36268   0.393   3.384   6.234  0.1049 -0.2311  0.0165
 8211SOL    HW136269   0.354   3.391   6.321  0.9094 -2.6888  0.5750
 8211SOL    HW236270   0.464   3.448   6.245  2.2780 -2.1561 -2.8654
 8212SOL     OW36271   3.383   0.484   3.291  0.0759 -0.5037 -0.1986
 8212SOL    HW136272   3.345   0.506   3.376 -0.4803 -3.2290  0.2474
 8212SOL    HW236273   3.469   0.451   3.319  0.3301 -0.9133 -1.4916
 8213SOL     OW36274   3.280   1.378   5.979  0.9974  0.2011 -0.5191
 8213SOL    HW136275   3.362   1.365   5.930  0.8809  0.2743 -0.7317
 8213SOL    HW236276   3.220   1.356   5.907  1.3360  3.3994 -1.7675
 8214SOL     OW36277   3.483   0.561   9.229  0.3564 -0.6653  0.2900
 8214SOL    HW136278   3.483   0.553   9.325 -3.2202 -1.1536  0.2551
 8214SOL    HW236279   3.397   0.592   9.201  0.4307  0.8062  1.7086
 8215SOL     OW36280   0.441   3.888   3.014 -0.5837 -0.3679  0.0367
 8215SOL    HW136281   0.516   3.930   3.058 -1.6899  0.9039  0.7070
 8215SOL    HW236282   0.469   3.876   2.923  1.5898 -0.5354  0.7115
 8216SOL     OW36283   3.690   3.495  15.429  0.5214 -0.3465 -0.4963
 8216SOL    HW136284   3.609   3.476  15.478 -0.6424  0.6071 -2.0455
 8216SOL    HW236285   3.762   3.477  15.489  1.3238 -2.3729 -2.0766
 8217SOL     OW36286   4.303   1.627  12.346 -0.6227  0.5935 -0.1566
 8217SOL    HW136287   4.240   1.644  12.416  0.8049  1.3861  0.9406
 8217SOL    HW236288   4.371   1.581  12.396 -2.3574 -0.3975  1.2619
 8218SOL     OW36289   0.561   2.274   4.143 -0.4938  0.2603 -0.1660
 8218SOL    HW136290   0.630   2.320   4.096 -1.2810  2.0139  0.4034
 8218SOL    HW236291   0.500   2.342   4.172 -3.1899 -1.3037 -2.1170
 8219SOL     OW36292   3.227   0.711   8.791 -0.5624 -0.1357 -0.5382
 8219SOL    HW136293   3.284   0.787   8.803 -0.0376 -0.5740 -0.2568
 8219SOL    HW236294   3.299   0.650   8.806 -0.0700  0.7194  0.5968
 8220SOL     OW36295   3.505   1.235  15.630 -0.3289  0.0724 -0.2967
 8220SOL    HW136296   3.559   1.203  15.702 -1.0348 -0.2765  0.0832
 8220SOL    HW236297   3.533   1.326  15.640 -2.8431  0.8032  0.0673
 8221SOL     OW36298   1.192   0.967   8.693 -0.0266  0.4774  0.2806
 8221SOL    HW136299   1.239   0.924   8.621  0.7413  0.3533  0.8622
 8221SOL    HW236300   1.173   0.885   8.739 -3.1893  0.6505 -0.7185
 8222SOL     OW36301   0.962   0.578   2.561 -0.1817  0.0805  0.0054
 8222SOL    HW136302   0.953   0.648   2.626 -0.3209  0.0863 -0.0191
 8222SOL    HW236303   0.899   0.511   2.590  0.8567 -1.5545 -1.5349
 8223SOL     OW36304   3.954   4.203  12.106 -0.3047 -0.3721 -0.2998
 8223SOL    HW136305   3.931   4.248  12.025  0.0928 -0.6649 -0.5778
 8223SOL    HW236306   4.017   4.132  12.092  0.5101 -0.5430  4.2315
 8224SOL     OW36307   4.238   3.136   7.274 -0.2026  0.1765 -0.9661
 8224SOL    HW136308   4.286   3.053   7.282  1.8467  1.6654  2.1734
 8224SOL    HW236309   4.149   3.104   7.288  1.0196 -1.9522  1.8481
 8225SOL     OW36310   1.404   4.574   6.636 -0.2745 -0.1660 -0.5320
 8225SOL    HW136311   1.382   4.574   6.729  1.5981  2.7864 -0.1003
 8225SOL    HW236312   1.488   4.528   6.635 -1.0159 -1.4931 -2.0824
 8226SOL     OW36313   3.688   2.258  14.036 -0.2701  0.4472 -0.2805
 8226SOL    HW136314   3.628   2.263  13.962 -1.4469 -1.2906  0.5564
 8226SOL    HW236315   3.762   2.218  13.991 -1.0318 -1.7676  0.4124
 8227SOL     OW36316   4.234   2.679  11.126 -0.0213  0.0606  0.0895
 8227SOL    HW136317   4.178   2.602  11.122 -0.6431  0.4070  2.3216
 8227SOL    HW236318   4.279   2.672  11.210  0.5176 -2.9299 -0.4596
 8228SOL     OW36319   2.945   0.743  17.366  0.3384 -0.1452  0.3273
 8228SOL    HW136320   2.869   0.722  17.312  1.4793 -0.5542 -1.1276
 8228SOL    HW236321   2.899   0.809  17.418 -1.4415 -0.0004 -1.4352
 8229SOL     OW36322   3.309   3.238  16.973 -0.8082  0.3473  0.2661
 8229SOL    HW136323   3.292   3.162  16.918 -0.6882 -0.3311  1.1538
 8229SOL    HW236324   3.344   3.296  16.905 -3.4549  2.5859  0.8063
 8230SOL     OW36325   2.771   2.376  11.101 -0.5687  0.3995  0.1310
 8230SOL    HW136326   2.793   2.397  11.192 -0.7132 -0.1483  0.2897
 8230SOL    HW236327   2.751   2.465  11.072 -0.7686  1.1583  2.5356
 8231SOL     OW36328   2.163   0.941   1.317 -0.1227 -0.5395 -0.0832
 8231SOL    HW136329   2.173   0.925   1.411  1.0922  1.1575  0.0806
 8231SOL    HW236330   2.070   0.921   1.306 -0.2980 -0.9550  2.0229
 8232SOL     OW36331   1.778   1.559   6.415 -0.3724 -0.2020 -0.9867
 8232SOL    HW136332   1.869   1.588   6.424 -0.9521  1.8089 -1.5755
 8232SOL    HW236333   1.738   1.609   6.485  0.9153  0.1340 -0.4814
 8233SOL     OW36334   0.307   4.363   6.420  0.0589  0.3029 -0.5729
 8233SOL    HW136335   0.343   4.278   6.394  0.5436  1.6541 -4.3099
 8233SOL    HW236336   0.378   4.418   6.386  0.9656 -1.6878 -1.8961
 8234SOL     OW36337   4.403   2.624   5.703 -0.4614  0.4242 -0.4314
 8234SOL    HW136338   4.422   2.643   5.795  3.0009  0.2367 -1.0999
 8234SOL    HW236339   4.332   2.687   5.698 -0.5481  0.6809  3.6359
 8235SOL     OW36340   3.382   1.651   7.376  0.4647 -0.4876  0.8424
 8235SOL    HW136341   3.296   1.624   7.342 -0.6475  0.1501  3.2005
 8235SOL    HW236342   3.396   1.721   7.312  0.7911 -0.3794  1.0339
 8236SOL     OW36343   2.332   1.790   7.790 -0.5115 -0.4760  0.1109
 8236SOL    HW136344   2.394   1.861   7.771  0.1621 -1.8402 -2.6913
 8236SOL    HW236345   2.372   1.750   7.868 -0.4158 -2.2840 -0.8669
 8237SOL     OW36346   3.007   2.217   7.027 -0.1441 -0.3249 -0.5755
 8237SOL    HW136347   3.087   2.168   7.007 -1.5834 -1.1176 -4.3581
 8237SOL    HW236348   3.052   2.301   7.034  0.8363 -0.9482  0.6329
 8238SOL     OW36349   0.827   1.242   3.381 -0.1454 -0.1269  0.2305
 8238SOL    HW136350   0.819   1.216   3.473  1.2985 -2.0802 -0.1906
 8238SOL    HW236351   0.733   1.237   3.360  0.1838 -0.2792 -1.1789
 8239SOL     OW36352   2.050   2.450   2.072 -0.2538  0.4930 -0.2240
 8239SOL    HW136353   2.058   2.527   2.017  2.0069  0.7284  0.4334
 8239SOL    HW236354   2.016   2.381   2.015  2.2155  2.2194 -3.7324
 8240SOL     OW36355   3.105   0.094   2.922 -0.6309  0.8363  0.0779
 8240SOL    HW136356   3.133   0.156   2.989  0.7025  1.1547 -0.7697
 8240SOL    HW236357   3.117   0.133   2.835 -0.5407  0.1744 -0.2001
 8241SOL     OW36358   1.667   3.103   2.397 -0.0546 -0.2340 -0.6835
 8241SOL    HW136359   1.618   3.185   2.389  0.9368  0.1328 -2.9715
 8241SOL    HW236360   1.704   3.088   2.310  0.1543 -0.5246 -0.5427
 8242SOL     OW36361   2.670   3.380  14.760 -0.6391  0.0965  0.1247
 8242SOL    HW136362   2.701   3.447  14.820 -0.7575 -1.6180  2.1112
 8242SOL    HW236363   2.729   3.310  14.790  1.3791  1.5554 -0.4232
 8243SOL     OW36364   0.249   1.992   5.906 -0.2116 -1.0276 -0.3771
 8243SOL    HW136365   0.175   2.046   5.934  1.1228 -0.4451  1.9885
 8243SOL    HW236366   0.207   1.907   5.894 -1.4569 -0.2443 -1.6507
 8244SOL     OW36367   1.683   4.433   1.797 -0.1804  0.1794  0.1766
 8244SOL    HW136368   1.725   4.436   1.883  0.9519 -2.0816 -0.2857
 8244SOL    HW236369   1.692   4.526   1.778 -0.3016  0.5461  1.8714
 8245SOL     OW36370   0.411   1.099  17.608  0.1477  0.3170 -0.0202
 8245SOL    HW136371   0.362   1.129  17.532  0.8746 -1.0280 -1.0139
 8245SOL    HW236372   0.421   1.183  17.654 -0.6660 -0.6627  1.9508
 8246SOL     OW36373   1.037   2.402   0.574  0.1061  0.2139  0.2450
 8246SOL    HW136374   1.003   2.412   0.485 -0.5248  0.1051  0.4749
 8246SOL    HW236375   0.971   2.340   0.604 -1.4530  1.1636 -1.2195
 8247SOL     OW36376   0.997   0.090   9.916  0.2934  0.5410 -0.0946
 8247SOL    HW136377   0.972   0.019   9.976  1.0069  0.7321  0.4256
 8247SOL    HW236378   0.928   0.077   9.851 -0.3413  2.2917  0.2268
 8248SOL     OW36379   2.195   4.510   4.473 -0.2272  0.0929 -0.0918
 8248SOL    HW136380   2.193   4.435   4.413 -1.9796 -0.2005  0.3163
 8248SOL    HW236381   2.263   4.468   4.527 -0.5554 -0.7711 -0.3492
 8249SOL     OW36382   1.156   3.687  10.084 -0.2737  0.8301 -0.4415
 8249SOL    HW136383   1.096   3.756  10.056 -1.8369 -0.5489 -0.5170
 8249SOL    HW236384   1.220   3.700  10.015 -1.3797 -2.8785 -2.1974
 8250SOL     OW36385   4.333   1.782   2.484  0.0386 -0.2906 -0.1278
 8250SOL    HW136386   4.276   1.796   2.559  0.5799 -0.2753  0.2752
 8250SOL    HW236387   4.356   1.873   2.465 -2.1447  0.7806  2.4874
 8251SOL     OW36388   2.589   2.487  14.412 -0.6304  0.3017 -0.3019
 8251SOL    HW136389   2.536   2.502  14.490  1.1655  5.7870 -0.1140
 8251SOL    HW236390   2.511   2.463  14.363  0.7962 -2.5693 -1.1670
 8252SOL     OW36391   4.039   2.045   3.789  0.3915  0.1481  0.1647
 8252SOL    HW136392   4.008   2.102   3.860  0.8837 -0.1496  0.6153
 8252SOL    HW236393   4.113   2.005   3.834 -0.4105 -0.8628  0.5835
 8253SOL     OW36394   2.555   2.107   7.734  0.1334 -0.4023 -0.0422
 8253SOL    HW136395   2.610   2.151   7.670  2.5778 -1.8785  1.0723
 8253SOL    HW236396   2.609   2.091   7.811 -0.4502  2.5025  0.9719
 8254SOL     OW36397   4.365   1.893  12.591 -0.0843 -0.5500  0.2897
 8254SOL    HW136398   4.374   1.903  12.686  2.4510 -1.3155  0.1118
 8254SOL    HW236399   4.454   1.904  12.559 -1.1058  0.2941 -2.3017
 8255SOL     OW36400   0.266   3.516   2.928 -0.1309 -0.1603 -0.0363
 8255SOL    HW136401   0.220   3.433   2.936  0.3514 -0.5699 -1.5650
 8255SOL    HW236402   0.285   3.525   2.835 -0.3303  1.0617  0.0323
 8256SOL     OW36403   0.598   0.210   5.098 -0.5924  0.4362  0.6206
 8256SOL    HW136404   0.692   0.208   5.116 -0.8714 -3.7777  1.7805
 8256SOL    HW236405   0.578   0.119   5.076  0.8945  0.3618 -0.4356
 8257SOL     OW36406   0.115   1.405   7.151  0.0511  0.1892  0.2009
 8257SOL    HW136407   0.173   1.428   7.078  0.8444 -1.5930  0.2643
 8257SOL    HW236408   0.055   1.340   7.114  1.2402 -1.2197  0.7244
 8258SOL     OW36409   2.227   2.108   5.132  0.6379 -0.1200 -0.1792
 8258SOL    HW136410   2.193   2.192   5.099  0.5839 -0.1204 -0.1250
 8258SOL    HW236411   2.291   2.088   5.064  1.7602 -1.0594  1.1586
 8259SOL     OW36412   0.641   2.813   1.010  0.4155  0.4822  0.2277
 8259SOL    HW136413   0.617   2.727   1.045 -0.6018  0.3928 -0.6827
 8259SOL    HW236414   0.577   2.825   0.939 -2.4681 -0.4572  2.6772
 8260SOL     OW36415   3.057   2.144  10.479 -0.2642  0.1055  0.1807
 8260SOL    HW136416   3.065   2.076  10.546 -2.1015  0.4604  0.7667
 8260SOL    HW236417   3.147   2.174  10.469  0.8488 -3.4945 -0.5121
 8261SOL     OW36418   0.876   1.068  15.893  0.2821 -0.4873  0.0663
 8261SOL    HW136419   0.863   0.973  15.894  1.2597 -0.6035  1.2679
 8261SOL    HW236420   0.879   1.085  15.798 -0.2029  0.5670  0.2360
 8262SOL     OW36421   1.282   0.965   5.439 -0.0213 -0.0509 -0.5854
 8262SOL    HW136422   1.327   1.050   5.433  0.8704 -0.4279  0.6669
 8262SOL    HW236423   1.341   0.909   5.389  1.6301  1.5756 -0.4775
 8263SOL     OW36424   0.296   4.560   9.670 -0.8788 -0.0232  0.0625
 8263SOL    HW136425   0.304   4.578   9.763  2.5236 -1.3224  0.0187
 8263SOL    HW236426   0.319   4.648   9.641  0.0393 -0.7704 -1.5271
 8264SOL     OW36427   2.398   0.051   1.820 -0.2473  0.8555 -0.4954
 8264SOL    HW136428   2.420   0.125   1.765 -2.1839 -0.0247 -2.4773
 8264SOL    HW236429   2.324   0.087   1.870 -0.1024  0.1396  0.2512
 8265SOL     OW36430   2.008   2.753   4.018 -0.0411  0.5263 -0.5581
 8265SOL    HW136431   1.921   2.762   4.058 -0.0243 -0.4183 -0.3211
 8265SOL    HW236432   2.010   2.844   3.989  2.4389  0.9743  1.0145
 8266SOL     OW36433   2.797   3.535   4.610 -0.7529  0.2281  0.1409
 8266SOL    HW136434   2.733   3.520   4.540 -0.6592  1.1521 -0.1398
 8266SOL    HW236435   2.822   3.625   4.592 -2.0875  0.6873  0.5802
 8267SOL     OW36436   4.413   0.064  14.650  0.6533  0.1634  0.0098
 8267SOL    HW136437   4.392   4.708  14.633  0.7605  0.0103  0.6939
 8267SOL    HW236438   4.417   0.066  14.746  0.8591 -0.9455  0.0247
 8268SOL     OW36439   0.273   2.252   6.443 -0.2395 -0.0188 -0.2979
 8268SOL    HW136440   0.277   2.320   6.510 -0.7496 -0.4318  0.1479
 8268SOL    HW236441   0.310   2.292   6.364 -1.0311  1.9515  0.3276
 8269SOL     OW36442   0.836   0.159   4.181 -0.0305  0.0120  0.1130
 8269SOL    HW136443   0.855   0.097   4.110  2.5209  0.5630  0.3320
 8269SOL    HW236444   0.890   0.132   4.255 -0.5674 -0.5769  0.2865
 8270SOL     OW36445   2.220   1.630   5.278 -0.0642  0.2093 -0.2774
 8270SOL    HW136446   2.267   1.678   5.210  0.1595  0.2522 -0.0973
 8270SOL    HW236447   2.177   1.700   5.328 -0.3032 -1.1502  1.4139
 8271SOL     OW36448   1.361   1.027   7.697  0.3947 -0.0733 -0.3386
 8271SOL    HW136449   1.279   0.985   7.724  0.7168  0.1317  0.9480
 8271SOL    HW236450   1.355   1.024   7.601 -0.9540 -2.5116 -0.1924
 8272SOL     OW36451   0.111   3.108   1.200 -0.2803 -0.0742 -0.0399
 8272SOL    HW136452   0.119   3.024   1.246 -0.0385 -0.0430 -0.0298
 8272SOL    HW236453   0.149   3.160   1.270 -0.5879 -0.8274  0.6961
 8273SOL     OW36454   4.287   0.222   8.509 -0.5404 -0.3752  0.7452
 8273SOL    HW136455   4.279   0.162   8.435 -1.5683 -0.3797  0.8571
 8273SOL    HW236456   4.239   0.171   8.574 -1.0978  0.1068  0.7113
 8274SOL     OW36457   0.549   0.035  13.544 -0.3949 -0.3559  0.1831
 8274SOL    HW136458   0.643   0.037  13.563 -0.5015 -0.9659  0.7939
 8274SOL    HW236459   0.522   0.101  13.609 -2.3175  0.3571 -1.3472
 8275SOL     OW36460   3.209   2.955   4.858 -0.1372  0.0247 -0.0631
 8275SOL    HW136461   3.179   3.037   4.819  3.0323  1.0333 -0.3564
 8275SOL    HW236462   3.221   2.979   4.950  2.0598  1.0703 -0.6385
 8276SOL     OW36463   3.968   1.649   1.549 -0.0792  0.2767 -0.0564
 8276SOL    HW136464   4.011   1.564   1.544 -0.2044  0.0922  2.0525
 8276SOL    HW236465   3.941   1.656   1.641 -0.2230 -0.5998 -0.0284
 8277SOL     OW36466   1.752   1.599   6.962  0.1935  0.5874 -0.1452
 8277SOL    HW136467   1.691   1.612   7.034  0.5027 -0.6343  0.3468
 8277SOL    HW236468   1.714   1.641   6.886  0.2687  1.7262  0.4541
 8278SOL     OW36469   1.978   4.463  11.394 -0.1029  0.2946  0.1988
 8278SOL    HW136470   2.021   4.505  11.469  0.4161 -2.1465  1.2803
 8278SOL    HW236471   1.948   4.533  11.336 -0.7753 -1.0915 -1.1274
 8279SOL     OW36472   3.796   3.422  16.394 -0.1444  0.0898  0.1855
 8279SOL    HW136473   3.754   3.442  16.310 -0.2634 -1.4710 -0.1342
 8279SOL    HW236474   3.767   3.332  16.411 -1.6906  0.5897  0.1365
 8280SOL     OW36475   1.094   1.491   0.833  0.1211 -0.2714 -0.1805
 8280SOL    HW136476   1.126   1.436   0.904  1.1836  0.4620 -0.0900
 8280SOL    HW236477   1.171   1.548   0.831 -0.7443  0.8794 -1.4568
 8281SOL     OW36478   4.365   3.594   4.989  0.5489  0.1115 -0.5110
 8281SOL    HW136479   4.427   3.601   4.916  0.4828 -0.7334 -0.6493
 8281SOL    HW236480   4.329   3.682   4.997 -1.4173 -0.6579 -0.8056
 8282SOL     OW36481   2.426   4.111   9.403 -0.2082  0.1417  1.0049
 8282SOL    HW136482   2.512   4.094   9.366 -0.2846  2.0634 -0.0787
 8282SOL    HW236483   2.434   4.037   9.463 -0.6770 -1.4027 -0.8268
 8283SOL     OW36484   3.137   0.789   1.792  0.4656 -0.1738  0.2298
 8283SOL    HW136485   3.086   0.853   1.842  0.3388 -1.4593  1.7237
 8283SOL    HW236486   3.216   0.782   1.845  0.8153  3.0833  0.1840
 8284SOL     OW36487   2.082   4.153  10.361  0.4983  0.7572 -0.1227
 8284SOL    HW136488   2.167   4.138  10.318  0.2212  0.4831 -0.5726
 8284SOL    HW236489   2.102   4.236  10.404  0.0571  0.5628  0.4513
 8285SOL     OW36490   1.703   0.451  14.893 -0.4519 -0.7126 -0.2947
 8285SOL    HW136491   1.759   0.440  14.970 -0.1246  3.0042 -0.0244
 8285SOL    HW236492   1.763   0.510  14.846  0.9582 -1.7928  0.1538
 8286SOL     OW36493   1.492   2.725  11.464  0.1224 -0.2726 -0.2144
 8286SOL    HW136494   1.457   2.811  11.442 -0.7514 -0.4217  0.5735
 8286SOL    HW236495   1.575   2.723  11.417  0.3439  0.2742  0.1605
 8287SOL     OW36496   4.314   4.033   9.383 -0.0829  0.3423  0.3925
 8287SOL    HW136497   4.347   4.062   9.468  1.5155 -0.8599  0.1694
 8287SOL    HW236498   4.328   4.109   9.326  1.2355  0.3139  0.6735
 8288SOL     OW36499   0.897   2.077   7.503 -0.7301 -0.0800  0.0564
 8288SOL    HW136500   0.987   2.105   7.491 -0.8334  0.6518  0.9490
 8288SOL    HW236501   0.862   2.130   7.575  0.3741 -0.2795  0.7437
 8289SOL     OW36502   3.240   3.230   2.486  0.3883 -0.4293 -0.1276
 8289SOL    HW136503   3.324   3.208   2.446 -0.0451  0.8699 -1.7214
 8289SOL    HW236504   3.193   3.267   2.412 -0.0369 -0.6352  0.0354
 8290SOL     OW36505   1.700   4.675   6.923 -0.3880 -0.1054 -0.1385
 8290SOL    HW136506   1.724   0.017   6.974 -0.6704 -0.7878  1.0192
 8290SOL    HW236507   1.700   4.719   6.838  0.1261  0.2108  0.0280
 8291SOL     OW36508   1.541   3.934  12.057 -0.4809  0.6826  0.1648
 8291SOL    HW136509   1.504   4.014  12.020  0.5679  1.1506  0.1183
 8291SOL    HW236510   1.632   3.960  12.069  0.7010 -2.4995 -1.8925
 8292SOL     OW36511   3.366   1.730   3.605 -0.0986  0.0312  0.2329
 8292SOL    HW136512   3.369   1.822   3.632 -1.6740  0.1498  0.0214
 8292SOL    HW236513   3.461   1.727   3.602 -0.1009  0.9059 -0.3636
 8293SOL     OW36514   1.294   3.835  15.546 -0.3243 -0.0722 -0.0953
 8293SOL    HW136515   1.265   3.787  15.468 -0.1583  0.2583 -0.3591
 8293SOL    HW236516   1.258   3.785  15.620 -2.8894  0.8186 -0.7465
 8294SOL     OW36517   4.702   0.463  17.583 -0.0352 -0.3342 -0.1542
 8294SOL    HW136518   4.721   0.423  17.497  0.0251 -0.5802 -0.0262
 8294SOL    HW236519   0.000   0.550  17.565 -1.4322 -0.1675 -1.9875
 8295SOL     OW36520   2.652   0.713   0.745 -0.1349  0.6320 -0.2514
 8295SOL    HW136521   2.676   0.663   0.823  1.4108  1.0087 -0.4855
 8295SOL    HW236522   2.648   0.645   0.677  0.0184  0.2154  0.1565
 8296SOL     OW36523   1.062   2.746  16.575  0.1301 -0.1285  0.3294
 8296SOL    HW136524   1.047   2.741  16.481  0.1753  1.6255  0.2267
 8296SOL    HW236525   1.151   2.711  16.575  0.9725  1.9968  0.8166
 8297SOL     OW36526   3.412   3.139   7.298 -0.1122  0.4497 -0.5264
 8297SOL    HW136527   3.386   3.231   7.290  1.0502  1.0028  2.0831
 8297SOL    HW236528   3.481   3.134   7.232  1.0744 -1.5871  0.8866
 8298SOL     OW36529   0.859   0.699   8.307 -0.3461  0.4143  0.3933
 8298SOL    HW136530   0.862   0.767   8.375  0.5202  0.6104  0.1632
 8298SOL    HW236531   0.780   0.740   8.271 -1.1425  0.0086  1.6851
 8299SOL     OW36532   2.072   2.124   6.057 -0.2194  0.3954 -0.7239
 8299SOL    HW136533   2.067   2.121   6.153 -1.0062 -2.3813 -0.8668
 8299SOL    HW236534   2.151   2.071   6.052 -0.3866 -0.0355  1.0609
 8300SOL     OW36535   0.901   0.938   1.116 -0.2153  0.4739  0.0666
 8300SOL    HW136536   0.983   0.890   1.116 -1.7130 -2.0995 -0.7505
 8300SOL    HW236537   0.928   1.030   1.122 -2.8595  1.3518 -1.1064
 8301SOL     OW36538   2.201   2.936   3.647 -0.2359 -0.1521  1.3082
 8301SOL    HW136539   2.168   2.846   3.647  1.2943 -0.7149 -1.4989
 8301SOL    HW236540   2.288   2.916   3.680 -0.1053  0.0922  1.1125
 8302SOL     OW36541   4.402   2.047   2.485 -0.3490 -0.3855  0.2129
 8302SOL    HW136542   4.371   2.085   2.567  1.6292 -0.7765  1.1482
 8302SOL    HW236543   4.327   2.059   2.427 -0.0671  1.5775  0.2664
 8303SOL     OW36544   0.699   3.573  17.590 -0.3958 -0.2030  0.5245
 8303SOL    HW136545   0.675   3.609  17.675 -2.9219  3.1936 -1.5997
 8303SOL    HW236546   0.791   3.599  17.586 -0.5994  0.3535 -0.4821
 8304SOL     OW36547   0.396   0.631   5.749 -0.2157 -0.2240 -0.2707
 8304SOL    HW136548   0.406   0.714   5.702  1.6363 -0.0501  0.4276
 8304SOL    HW236549   0.315   0.654   5.794 -0.6731  0.1983 -1.3006
 8305SOL     OW36550   1.486   2.969   3.767  0.0218  0.1307  0.3243
 8305SOL    HW136551   1.454   2.944   3.854 -0.4282  0.2430  0.1864
 8305SOL    HW236552   1.411   3.017   3.734  0.1327 -0.4886 -0.8480
 8306SOL     OW36553   1.866   0.822  15.127 -0.8067  0.2985 -0.0233
 8306SOL    HW136554   1.961   0.825  15.118 -0.6924  1.2903  1.5336
 8306SOL    HW236555   1.839   0.751  15.069 -0.7415  1.0366 -0.9647
 8307SOL     OW36556   3.672   1.126  16.979  0.1455 -0.1869  0.3561
 8307SOL    HW136557   3.749   1.103  17.032  0.7480 -1.6846 -1.1746
 8307SOL    HW236558   3.622   1.171  17.047 -1.6802  0.7354 -1.6129
 8308SOL     OW36559   3.851   2.700   7.250 -0.1214 -0.4135 -0.2482
 8308SOL    HW136560   3.924   2.703   7.312  0.3447 -0.4981 -0.7945
 8308SOL    HW236561   3.900   2.657   7.180 -1.2458 -0.6643 -0.8642
 8309SOL     OW36562   1.719   4.384  10.263  0.2712  0.2108  0.4216
 8309SOL    HW136563   1.740   4.362  10.173  1.2508  1.7751  0.2755
 8309SOL    HW236564   1.636   4.337  10.276  0.1042 -0.0310 -1.5630
 8310SOL     OW36565   0.419   1.166  12.501  0.0509  0.8499  0.0301
 8310SOL    HW136566   0.458   1.183  12.587 -0.9483  1.1848  0.4104
 8310SOL    HW236567   0.429   1.249  12.456  1.0689 -0.3621 -1.9519
 8311SOL     OW36568   4.005   2.222   2.033 -0.4908 -0.1749  0.1936
 8311SOL    HW136569   4.032   2.297   2.086 -0.6422  0.4094 -0.5605
 8311SOL    HW236570   3.914   2.244   2.015  0.0659  0.7421 -1.5115
 8312SOL     OW36571   3.069   4.311   8.507 -0.3639  0.8021 -0.0921
 8312SOL    HW136572   3.047   4.310   8.414  0.0265 -3.5574 -0.1515
 8312SOL    HW236573   3.135   4.380   8.512 -1.1096  1.6088 -1.5856
 8313SOL     OW36574   0.936   2.643   1.162 -0.4548  0.3830 -0.2756
 8313SOL    HW136575   0.888   2.725   1.172  0.0107  0.5946  0.2573
 8313SOL    HW236576   0.870   2.574   1.171 -2.3797  2.1540 -0.9115
 8314SOL     OW36577   4.454   2.449  14.935  0.1326  0.3009 -0.0723
 8314SOL    HW136578   4.406   2.366  14.933 -0.2337  0.5458 -1.3258
 8314SOL    HW236579   4.471   2.457  14.841  0.6443  1.0229  0.0803
 8315SOL     OW36580   2.569   2.423   6.816  0.2314 -0.2245 -0.3093
 8315SOL    HW136581   2.621   2.503   6.823 -1.0671  0.6012 -0.0663
 8315SOL    HW236582   2.630   2.380   6.876  2.2081  2.7340 -0.2568
 8316SOL     OW36583   2.645   0.688   6.240  0.1855  0.5461 -0.1296
 8316SOL    HW136584   2.697   0.724   6.312 -0.0243  0.7891 -0.1005
 8316SOL    HW236585   2.560   0.687   6.284 -0.1765 -0.6573 -0.8594
 8317SOL     OW36586   4.502   0.681   0.342  0.2198  0.1323  0.0989
 8317SOL    HW136587   4.521   0.689   0.249  0.7768  0.9048  0.2769
 8317SOL    HW236588   4.414   0.717   0.344  0.6323  1.2961 -3.6002
 8318SOL     OW36589   4.620   4.191   2.789  0.4303 -0.3790  0.1357
 8318SOL    HW136590   4.585   4.239   2.864 -2.0367 -0.6415 -0.8494
 8318SOL    HW236591   4.703   4.238   2.775 -1.0196  1.3847 -2.4919
 8319SOL     OW36592   4.487   0.271  15.998  0.6521  0.0666  0.1980
 8319SOL    HW136593   4.509   0.181  16.022  1.0101 -0.3645 -1.6851
 8319SOL    HW236594   4.571   0.309  15.974  0.7078 -0.8168 -1.0252
 8320SOL     OW36595   3.048   1.422   2.348 -0.4765  0.3958  0.0093
 8320SOL    HW136596   3.051   1.429   2.443  3.6613 -0.7181 -0.0542
 8320SOL    HW236597   2.995   1.499   2.328 -1.4967 -0.8920 -2.2538
 8321SOL     OW36598   4.126   3.336  15.729  0.2369  0.0413 -0.0888
 8321SOL    HW136599   4.153   3.324  15.638 -0.5558  0.0192 -0.3261
 8321SOL    HW236600   4.190   3.401  15.758 -1.9794  2.3364 -0.2468
 8322SOL     OW36601   4.282   1.892   3.165  0.5334 -0.5564 -0.0955
 8322SOL    HW136602   4.274   1.797   3.154 -1.2790 -0.3656 -0.3696
 8322SOL    HW236603   4.354   1.902   3.227 -0.8665 -2.7424  1.8781
 8323SOL     OW36604   4.292   3.158   1.386  0.0182 -0.9005 -0.0825
 8323SOL    HW136605   4.322   3.216   1.456  1.7470 -1.7194 -0.1678
 8323SOL    HW236606   4.336   3.197   1.310 -1.1590  1.2335  0.3317
 8324SOL     OW36607   4.446   2.547   3.649 -0.1902 -0.0151 -0.2500
 8324SOL    HW136608   4.492   2.482   3.701 -0.0926  1.5582  1.6220
 8324SOL    HW236609   4.514   2.563   3.583 -0.4605  2.3084  0.0432
 8325SOL     OW36610   4.639   2.405   4.126  0.1220 -0.6048 -0.3405
 8325SOL    HW136611   4.657   2.446   4.042 -0.1008  0.6318  0.2187
 8325SOL    HW236612   4.550   2.435   4.148  0.8925 -0.1884  2.1706
 8326SOL     OW36613   4.234   0.454   3.966 -0.1042 -0.7387  0.7310
 8326SOL    HW136614   4.156   0.508   3.969 -1.4311 -2.6290  0.3849
 8326SOL    HW236615   4.305   0.513   3.940 -2.1915  1.5871  0.3570
 8327SOL     OW36616   2.454   4.082   0.259 -0.1180 -0.3428  0.0472
 8327SOL    HW136617   2.528   4.070   0.199  1.7746 -2.0592  2.7237
 8327SOL    HW236618   2.389   4.033   0.210  1.1843  0.7534 -2.7365
 8328SOL     OW36619   3.111   2.052   8.178 -0.1257 -0.7147  0.3174
 8328SOL    HW136620   3.169   2.094   8.115 -0.8837 -0.9589 -0.5411
 8328SOL    HW236621   3.060   1.991   8.126  0.1326  0.6491 -1.5104
 8329SOL     OW36622   1.241   2.533   3.190 -0.7909  0.0870 -0.9653
 8329SOL    HW136623   1.290   2.451   3.187 -0.1721  0.4569 -0.8905
 8329SOL    HW236624   1.151   2.509   3.213 -0.5191  0.2748  0.2698
 8330SOL     OW36625   0.350   2.901  12.785 -0.0741 -0.0780 -0.3645
 8330SOL    HW136626   0.334   2.873  12.875 -2.5423  2.6607  0.0515
 8330SOL    HW236627   0.262   2.879  12.755 -0.9983  1.6994  1.0753
 8331SOL     OW36628   0.055   1.023   0.438  0.4561 -0.5103 -0.0541
 8331SOL    HW136629   0.144   1.053   0.454  0.2183  0.0103  0.2942
 8331SOL    HW236630   0.072   0.929   0.436 -0.0769 -0.5856 -1.2605
 8332SOL     OW36631   3.800   2.903   3.736 -0.5745 -0.0458  0.3113
 8332SOL    HW136632   3.852   2.835   3.779  0.6450  0.1719 -0.8093
 8332SOL    HW236633   3.818   2.984   3.784  0.9238 -1.0219  1.4292
 8333SOL     OW36634   3.312   2.078   3.269  0.2508 -0.7034 -0.1674
 8333SOL    HW136635   3.221   2.048   3.278 -0.3004  0.9583 -0.2526
 8333SOL    HW236636   3.337   2.094   3.360 -0.1989  2.0723 -0.5363
 8334SOL     OW36637   4.254   2.206   6.479 -0.2368  0.0678 -0.4384
 8334SOL    HW136638   4.334   2.218   6.531 -1.3098 -2.5305  1.7706
 8334SOL    HW236639   4.196   2.166   6.543 -0.7318  1.5983  0.0511
 8335SOL     OW36640   0.218   1.645   2.728 -0.3009  0.2897  0.0275
 8335SOL    HW136641   0.266   1.650   2.645  1.5847 -1.4786  1.0237
 8335SOL    HW236642   0.285   1.672   2.790 -0.4858  0.5319  0.1229
 8336SOL     OW36643   4.329   2.860   1.221 -0.0426 -0.0483  0.7359
 8336SOL    HW136644   4.371   2.789   1.174 -1.4212 -1.3125  1.4029
 8336SOL    HW236645   4.405   2.905   1.258  0.6679 -0.3888 -0.3311
 8337SOL     OW36646   4.461   2.058   7.771  0.4921  0.2276  0.1753
 8337SOL    HW136647   4.385   2.103   7.733 -0.7923 -1.4824  0.7390
 8337SOL    HW236648   4.422   2.045   7.858  0.1375  1.2608  0.1730
 8338SOL     OW36649   4.724   0.764   6.656 -0.2900  0.1817 -0.2665
 8338SOL    HW136650   0.013   0.839   6.602  0.8688  1.1844  1.6449
 8338SOL    HW236651   0.033   0.790   6.737  0.2497 -1.8467  0.0944
 8339SOL     OW36652   3.395   3.605   7.048 -0.5095  0.1476 -0.6358
 8339SOL    HW136653   3.334   3.623   6.977 -1.9691  0.0736  0.6015
 8339SOL    HW236654   3.482   3.636   7.024  0.7506 -1.1282  2.3164
 8340SOL     OW36655   3.775   3.593   2.272 -0.1968  0.4907 -0.4884
 8340SOL    HW136656   3.801   3.685   2.284  0.3073  0.0932  1.4837
 8340SOL    HW236657   3.800   3.584   2.180  1.4476 -4.7868  0.4676
 8341SOL     OW36658   0.746   4.531   2.302 -1.0032 -0.5832  0.2718
 8341SOL    HW136659   0.656   4.520   2.334 -0.9774 -2.0597 -0.1664
 8341SOL    HW236660   0.735   4.487   2.218  3.0660 -2.0203  0.4923
 8342SOL     OW36661   3.547   3.152   0.214 -0.2129  0.2201  0.5036
 8342SOL    HW136662   3.601   3.162   0.136 -0.4033  1.7755  0.5716
 8342SOL    HW236663   3.477   3.094   0.185  0.2632  0.4389 -1.0506
 8343SOL     OW36664   2.082   3.600   5.455  0.4143  0.1880  0.4870
 8343SOL    HW136665   1.999   3.555   5.467 -0.7477  1.5942 -2.3292
 8343SOL    HW236666   2.146   3.544   5.499 -0.3175 -0.0092  1.2929
 8344SOL     OW36667   1.259   2.147   5.538  0.1322 -0.2677 -0.0183
 8344SOL    HW136668   1.196   2.184   5.477 -1.0154 -0.3271  1.1504
 8344SOL    HW236669   1.257   2.054   5.514 -2.5076  0.4417 -2.5598
 8345SOL     OW36670   4.560   2.957   2.433  0.1567 -0.4207 -0.2397
 8345SOL    HW136671   4.549   2.929   2.524  1.5714 -1.5735 -0.4271
 8345SOL    HW236672   4.600   3.043   2.439 -1.7254  0.5813 -1.9998
 8346SOL     OW36673   4.502   1.829   2.850  0.5337  0.3290 -0.2044
 8346SOL    HW136674   4.428   1.785   2.808  0.7961  0.7138 -1.0772
 8346SOL    HW236675   4.519   1.770   2.923  0.6411 -0.6926 -1.0481
 8347SOL     OW36676   3.763   3.981   6.257  0.4816  0.0683 -0.6692
 8347SOL    HW136677   3.708   3.924   6.204 -1.1157  0.7384  0.2453
 8347SOL    HW236678   3.715   3.987   6.340  0.8953  0.3080 -0.4491
 8348SOL     OW36679   4.281   0.943  14.670 -0.3017  0.3569 -0.0842
 8348SOL    HW136680   4.198   0.955  14.624 -0.3695 -0.1495 -0.0861
 8348SOL    HW236681   4.287   0.848  14.670  0.7362  0.4358 -1.0944
 8349SOL     OW36682   2.217   1.028   7.770 -0.3991 -0.1857  0.5165
 8349SOL    HW136683   2.205   1.066   7.857 -1.3485 -0.0053  0.3067
 8349SOL    HW236684   2.239   0.938   7.792  1.9543  0.0326 -0.8711
 8350SOL     OW36685   1.763   4.598   3.688 -0.0431 -0.1491 -0.0561
 8350SOL    HW136686   1.692   4.662   3.688  1.0050  1.0097 -0.1636
 8350SOL    HW236687   1.776   4.598   3.593  0.6285  1.0651  0.0402
 8351SOL     OW36688   2.959   4.655   5.106 -0.1965  0.2704 -0.3256
 8351SOL    HW136689   3.009   0.001   5.109  0.7355 -0.2359 -2.2626
 8351SOL    HW236690   3.012   4.610   5.171  0.0133  1.6223  0.4452
 8352SOL     OW36691   3.409   3.408   7.215 -0.3849  0.4806  0.3116
 8352SOL    HW136692   3.381   3.470   7.282  1.2516  2.5324 -0.8920
 8352SOL    HW236693   3.386   3.465   7.142 -0.8226 -1.4915 -1.0969
 8353SOL     OW36694   1.976   2.528   9.887 -0.5895 -0.2771 -0.8062
 8353SOL    HW136695   2.011   2.442   9.910  0.9354  0.3324 -0.8042
 8353SOL    HW236696   1.884   2.506   9.874 -1.4012  2.8636 -0.2643
 8354SOL     OW36697   4.424   2.803   8.269  1.0517 -0.1664  0.4380
 8354SOL    HW136698   4.381   2.750   8.336  1.7370 -0.5098  0.6055
 8354SOL    HW236699   4.412   2.746   8.193  2.2238  0.0436  0.0997
 8355SOL     OW36700   4.402   2.199  16.344 -0.4043  0.2572 -0.4683
 8355SOL    HW136701   4.388   2.204  16.438  0.4599  1.8373 -0.4117
 8355SOL    HW236702   4.312   2.176  16.319 -0.4473  0.2126 -0.2716
 8356SOL     OW36703   1.376   3.727   0.684  0.2280  0.6486 -0.1441
 8356SOL    HW136704   1.347   3.775   0.762 -1.1491 -2.0271  0.9970
 8356SOL    HW236705   1.334   3.641   0.689 -0.3617  0.8833 -1.1152
 8357SOL     OW36706   4.144   2.876  10.946 -0.0747 -0.3850  0.3788
 8357SOL    HW136707   4.144   2.795  10.997 -2.2548  0.6626  2.0582
 8357SOL    HW236708   4.163   2.842  10.859  3.9249  4.3925 -0.5857
 8358SOL     OW36709   1.436   2.848  13.667  0.7330 -0.6718  0.3739
 8358SOL    HW136710   1.490   2.871  13.591  0.4109  0.5285  0.5026
 8358SOL    HW236711   1.411   2.932  13.705  1.3014 -0.3048 -0.0732
 8359SOL     OW36712   2.546   0.354   5.796  0.4532 -0.6036 -0.1615
 8359SOL    HW136713   2.474   0.340   5.857  0.6950 -0.7944  0.0792
 8359SOL    HW236714   2.615   0.323   5.854 -0.5185  0.2175  1.4382
 8360SOL     OW36715   4.021   2.227   1.487  0.9097  0.5722 -0.4792
 8360SOL    HW136716   4.110   2.259   1.475  1.4266 -0.6408  0.0766
 8360SOL    HW236717   4.021   2.165   1.561 -0.9337 -1.1783 -1.9533
 8361SOL     OW36718   4.642   4.337   1.887  0.7446 -0.7063  0.2540
 8361SOL    HW136719   4.572   4.387   1.929 -0.7155 -0.9127 -1.9036
 8361SOL    HW236720   4.607   4.334   1.798 -0.8238 -1.6817  0.9170
 8362SOL     OW36721   0.377   3.651  10.136 -0.1750 -0.3452  0.0555
 8362SOL    HW136722   0.302   3.710  10.135  0.5703  0.6223  1.0971
 8362SOL    HW236723   0.353   3.603  10.057  0.1581 -0.4340  0.0085
 8363SOL     OW36724   3.236   3.028   6.221 -0.1038 -0.4549 -0.2737
 8363SOL    HW136725   3.302   3.015   6.153 -1.2578  1.0231 -1.6912
 8363SOL    HW236726   3.192   2.946   6.243  0.8851 -0.8098  0.4111
 8364SOL     OW36727   2.646   2.423   7.888  0.4277 -0.7436  0.7615
 8364SOL    HW136728   2.610   2.423   7.977  0.3556 -2.5856  0.7160
 8364SOL    HW236729   2.709   2.496   7.885  1.7744 -1.9495 -0.0335
 8365SOL     OW36730   3.185   3.064   1.798  0.1692  0.4295 -0.4017
 8365SOL    HW136731   3.162   3.055   1.891 -0.1186  1.4026 -0.3739
 8365SOL    HW236732   3.097   3.078   1.763  0.1291 -0.3926 -0.6383
 8366SOL     OW36733   2.775   3.787   4.851 -0.1375  0.1051 -0.0901
 8366SOL    HW136734   2.807   3.751   4.768 -1.5401 -0.8329 -0.2305
 8366SOL    HW236735   2.791   3.880   4.837 -1.1030  0.3554  0.4553
 8367SOL     OW36736   3.330   2.969  14.456 -0.4870  0.1634 -0.8145
 8367SOL    HW136737   3.378   2.891  14.484  0.3690  0.1224 -2.3875
 8367SOL    HW236738   3.292   2.934  14.376  0.4027 -0.4249 -0.9724
 8368SOL     OW36739   1.315   1.053  14.570 -0.3546  0.3867  0.7039
 8368SOL    HW136740   1.234   1.003  14.578 -0.5295  0.6391  0.5207
 8368SOL    HW236741   1.280   1.139  14.591  1.5009  0.5931  2.9592
 8369SOL     OW36742   4.472   2.259   3.085  0.7966  0.2420 -0.0083
 8369SOL    HW136743   4.517   2.175   3.081 -0.1798 -0.1949 -1.7399
 8369SOL    HW236744   4.453   2.255   3.178  0.2492  0.0379 -0.1288
 8370SOL     OW36745   0.830   0.352   1.334 -0.4428  0.1994  0.2206
 8370SOL    HW136746   0.921   0.378   1.318 -1.5102  2.1530 -2.4873
 8370SOL    HW236747   0.805   0.335   1.244  0.4790  1.7256 -0.3255
 8371SOL     OW36748   2.687   2.699   9.965  0.0934  0.2074 -0.0214
 8371SOL    HW136749   2.644   2.779   9.933 -3.4797 -1.4300  0.7143
 8371SOL    HW236750   2.613   2.656  10.008 -0.6100  1.1146 -0.3191
 8372SOL     OW36751   3.433   4.320  10.406 -0.0587  0.4501 -0.0709
 8372SOL    HW136752   3.342   4.322  10.376  0.2579 -0.2479 -1.0956
 8372SOL    HW236753   3.453   4.411  10.387  1.7849  0.3226  1.2860
 8373SOL     OW36754   1.341   3.524   5.188 -0.4106  0.2354 -0.0417
 8373SOL    HW136755   1.426   3.504   5.148 -0.2906  1.2569 -0.2947
 8373SOL    HW236756   1.361   3.609   5.226 -0.7537  1.3680 -2.4339
 8374SOL     OW36757   2.124   1.974   3.264  0.3524  0.3078 -0.1702
 8374SOL    HW136758   2.044   1.935   3.299 -0.2622  0.8680 -0.9518
 8374SOL    HW236759   2.134   1.925   3.183  0.4805  0.3327 -0.1699
 8375SOL     OW36760   2.864   3.714   7.327  0.4808 -0.0756 -0.0364
 8375SOL    HW136761   2.823   3.712   7.414  0.4118  0.5604 -0.0527
 8375SOL    HW236762   2.814   3.647   7.281  0.3179  0.3093 -0.4166
 8376SOL     OW36763   4.258   0.573  16.350  0.2292 -0.2829 -0.3406
 8376SOL    HW136764   4.287   0.517  16.279  2.7115  0.5276  0.0346
 8376SOL    HW236765   4.311   0.652  16.339  0.7423 -0.9924 -3.0149
 8377SOL     OW36766   2.652   4.031   4.852 -0.3072 -1.1275  0.1892
 8377SOL    HW136767   2.557   4.022   4.855 -0.3366 -0.4210  1.2903
 8377SOL    HW236768   2.671   4.057   4.942  0.5623  1.7806 -0.8474
 8378SOL     OW36769   4.613   1.349  16.616 -0.2313  0.4502 -0.0757
 8378SOL    HW136770   4.532   1.362  16.665  0.4600  0.9504  0.9217
 8378SOL    HW236771   4.672   1.410  16.659  0.3899 -0.6572  0.6596
 8379SOL     OW36772   3.719   4.169   6.029  0.1674 -0.0706 -0.0686
 8379SOL    HW136773   3.714   4.263   6.046  0.9805 -0.5386  2.6857
 8379SOL    HW236774   3.749   4.132   6.112 -0.4820 -1.7641 -0.5877
 8380SOL     OW36775   0.913   4.321   6.953 -0.3938  0.6397  0.0577
 8380SOL    HW136776   0.878   4.358   7.034 -0.7412 -1.0770  0.6942
 8380SOL    HW236777   0.833   4.331   6.902 -0.7539  0.4986  0.6018
 8381SOL     OW36778   0.680   2.410   3.331 -0.0332 -0.4378  0.8587
 8381SOL    HW136779   0.722   2.334   3.290  1.0629  0.3218  0.5701
 8381SOL    HW236780   0.707   2.396   3.422  0.5758  3.1015  1.2199
 8382SOL     OW36781   3.814   4.243   7.360  0.0362  0.5597  0.2852
 8382SOL    HW136782   3.802   4.334   7.334 -1.0653  0.6157  0.9740
 8382SOL    HW236783   3.743   4.200   7.312 -0.6085  2.8310 -0.7929
 8383SOL     OW36784   2.547   0.642  12.060  0.0900  0.5734  0.0942
 8383SOL    HW136785   2.566   0.687  12.143 -1.0980 -0.6951  1.0477
 8383SOL    HW236786   2.454   0.654  12.042 -0.2521  0.6863  1.8571
 8384SOL     OW36787   2.014   0.526  16.972  0.7748 -0.1966 -0.0618
 8384SOL    HW136788   1.959   0.491  16.902  1.7130 -0.2881 -0.7528
 8384SOL    HW236789   2.004   0.621  16.965  0.0758 -0.4091 -2.0858
 8385SOL     OW36790   0.829   4.323   5.308 -0.2431 -0.3407  0.0449
 8385SOL    HW136791   0.853   4.304   5.217 -1.0971  0.1511 -0.2833
 8385SOL    HW236792   0.818   4.417   5.294 -1.8360 -0.6677 -0.9085
 8386SOL     OW36793   2.858   3.994  11.652 -0.7180 -1.3574 -0.3151
 8386SOL    HW136794   2.868   3.974  11.559  0.8345  1.5547 -0.7518
 8386SOL    HW236795   2.769   4.028  11.643 -0.7987 -1.1529  1.2253
 8387SOL     OW36796   4.478   1.075  15.461  0.2608 -0.5184 -0.3863
 8387SOL    HW136797   4.563   1.045  15.427  0.4090  2.5931 -2.7918
 8387SOL    HW236798   4.439   0.992  15.488 -0.8119 -0.4353 -1.6728
 8388SOL     OW36799   3.124   1.955   3.439 -0.0740  0.2569  0.1766
 8388SOL    HW136800   3.071   2.027   3.406 -1.1765 -1.7146 -2.3124
 8388SOL    HW236801   3.063   1.907   3.496 -1.7520  0.2436 -1.6600
 8389SOL     OW36802   1.826   0.039  10.627  0.0743  0.4946 -0.3853
 8389SOL    HW136803   1.802   4.698  10.576  4.2144  0.4921 -2.3395
 8389SOL    HW236804   1.749   0.094  10.612 -1.1125 -1.0411  0.0764
 8390SOL     OW36805   1.754   1.869  17.602 -0.1534 -0.5712  0.4596
 8390SOL    HW136806   1.764   1.774  17.594  0.0051 -0.3460 -1.9754
 8390SOL    HW236807   1.665   1.875  17.569 -0.8933  0.1767  2.5815
 8391SOL     OW36808   3.523   2.223   0.706  0.4775 -0.2792  0.7731
 8391SOL    HW136809   3.613   2.241   0.677  1.4221 -0.7426  3.3756
 8391SOL    HW236810   3.524   2.128   0.700  1.2196 -0.4128  2.9639
 8392SOL     OW36811   4.609   4.131  14.600 -0.2228 -0.3288  0.1768
 8392SOL    HW136812   4.664   4.092  14.531  1.8634  1.0730  1.0569
 8392SOL    HW236813   4.566   4.199  14.548  0.5240 -3.1903 -4.1708
 8393SOL     OW36814   2.547   4.534   9.160 -0.2648  0.8279 -0.4273
 8393SOL    HW136815   2.559   4.482   9.080 -1.2620  1.7318 -1.1681
 8393SOL    HW236816   2.520   4.463   9.219 -2.7946 -0.1407 -2.7156
 8394SOL     OW36817   0.772   4.726   6.743  0.5815  0.3644  0.1167
 8394SOL    HW136818   0.763   4.690   6.655 -1.7556 -2.1482  1.3742
 8394SOL    HW236819   0.740   0.079   6.727  0.3067 -0.0000 -1.3551
 8395SOL     OW36820   0.463   3.199  11.315  0.1917  0.0559 -0.5236
 8395SOL    HW136821   0.372   3.223  11.336 -0.4477 -1.3238 -1.7122
 8395SOL    HW236822   0.476   3.220  11.223 -0.6771 -1.7964 -1.0696
 8396SOL     OW36823   1.725   3.419  13.409  0.1981  0.4151 -0.1867
 8396SOL    HW136824   1.751   3.367  13.485  0.5422  1.0285  0.1207
 8396SOL    HW236825   1.670   3.487  13.448 -0.9306 -0.2786 -0.5923
 8397SOL     OW36826   3.065   0.640  11.535 -0.1039  0.4762 -0.3183
 8397SOL    HW136827   3.124   0.606  11.602 -0.3184  0.2068 -0.2643
 8397SOL    HW236828   3.129   0.653  11.465  1.0258  0.6267  0.7492
 8398SOL     OW36829   1.582   4.726  13.219  0.2418 -0.8236  0.0289
 8398SOL    HW136830   1.629   4.649  13.186  2.4188  0.1209  0.9515
 8398SOL    HW236831   1.524   0.000  13.144  1.2183 -4.0678 -1.1554
 8399SOL     OW36832   2.092   2.170   9.430 -0.1086 -0.1362  0.3488
 8399SOL    HW136833   2.141   2.110   9.373 -1.0258  1.0438 -1.6549
 8399SOL    HW236834   2.156   2.209   9.489 -0.5056  0.3721  0.4396
 8400SOL     OW36835   1.524   3.207  16.454  0.5908  0.4013  0.5127
 8400SOL    HW136836   1.543   3.189  16.546  1.1934  1.1159  0.5302
 8400SOL    HW236837   1.453   3.146  16.437  0.5356  0.3995  0.7489
 8401SOL     OW36838   0.978   1.086   2.941 -0.1501  0.2118  0.6337
 8401SOL    HW136839   0.931   1.074   2.859  0.2445 -0.8595  0.5571
 8401SOL    HW236840   1.023   1.001   2.943 -2.3371 -0.9025  2.6357
 8402SOL     OW36841   4.046   3.462   7.295  0.0810 -0.0833  0.1531
 8402SOL    HW136842   4.047   3.426   7.206  1.0019 -0.5763  0.3564
 8402SOL    HW236843   4.110   3.410   7.344 -1.1398  0.5452  2.4088
 8403SOL     OW36844   0.351   1.655   9.835  0.6165  0.2758  0.0932
 8403SOL    HW136845   0.332   1.570   9.794  3.6929 -0.2895 -0.1391
 8403SOL    HW236846   0.422   1.683   9.778 -0.1463  0.9900 -0.5057
 8404SOL     OW36847   3.541   2.969   3.579 -0.9204  0.0609 -0.1690
 8404SOL    HW136848   3.472   2.957   3.644  0.4999 -0.8200  1.1743
 8404SOL    HW236849   3.610   2.979   3.644 -0.1792  0.7418 -1.0622
 8405SOL     OW36850   1.170   0.542  11.632 -0.0324  0.1353  0.1013
 8405SOL    HW136851   1.221   0.584  11.701 -0.0257 -2.6215  1.7723
 8405SOL    HW236852   1.087   0.536  11.679  0.4502  0.6065  1.0070
 8406SOL     OW36853   1.305   3.780   0.964 -0.0895 -0.0219  0.3619
 8406SOL    HW136854   1.313   3.701   1.017  1.7985 -0.7167 -0.9509
 8406SOL    HW236855   1.297   3.846   1.033  2.0772  1.7956 -1.1432
 8407SOL     OW36856   4.604   2.280  16.169 -0.1396 -0.0296 -0.3525
 8407SOL    HW136857   4.668   2.233  16.222  1.2687 -1.0193 -2.9445
 8407SOL    HW236858   4.528   2.276  16.228 -0.4798  1.2694 -0.7054
 8408SOL     OW36859   1.762   2.475   0.979  0.2010  0.1717 -0.0505
 8408SOL    HW136860   1.744   2.490   0.887 -1.6278  1.5930  0.5525
 8408SOL    HW236861   1.715   2.544   1.026 -0.8225  0.1442 -1.0269
 8409SOL     OW36862   0.251   1.943   6.415 -0.1953 -0.0704 -0.7573
 8409SOL    HW136863   0.299   1.888   6.476 -1.0509  1.3728  1.2240
 8409SOL    HW236864   0.288   2.030   6.428  0.6731 -0.6319  0.5282
 8410SOL     OW36865   0.890   2.142  13.912 -0.5288  0.8228  0.1042
 8410SOL    HW136866   0.854   2.151  13.824 -0.5818  0.3060  0.0737
 8410SOL    HW236867   0.824   2.174  13.974  0.4839  0.1002  1.5591
 8411SOL     OW36868   2.771   1.428   1.016 -0.1397 -0.4567 -0.1256
 8411SOL    HW136869   2.790   1.471   1.099 -1.7983 -1.2461  0.6527
 8411SOL    HW236870   2.690   1.465   0.981 -0.4837  0.4024  1.6041
 8412SOL     OW36871   1.412   1.156   5.775  0.2863 -0.3002  0.4715
 8412SOL    HW136872   1.444   1.231   5.826 -3.5733  1.2750  0.5680
 8412SOL    HW236873   1.353   1.209   5.721  1.0217 -0.0749 -0.1031
 8413SOL     OW36874   3.377   1.906   0.318  0.5933  0.4948  0.1673
 8413SOL    HW136875   3.373   1.826   0.266 -3.4905 -0.0172  1.2431
 8413SOL    HW236876   3.471   1.922   0.307  0.6203 -0.0539 -0.3742
 8414SOL     OW36877   2.724   3.688   4.111 -0.5935 -0.0513  0.0841
 8414SOL    HW136878   2.782   3.612   4.112 -1.7295 -0.8922  0.6822
 8414SOL    HW236879   2.691   3.690   4.200  0.0923  1.2305  0.3137
 8415SOL     OW36880   3.090   3.513   3.252  0.7167 -0.6959  0.4554
 8415SOL    HW136881   3.069   3.445   3.315  0.5163 -1.2728 -0.2342
 8415SOL    HW236882   3.162   3.474   3.203  0.5159 -1.1111  0.4954
 8416SOL     OW36883   0.001   3.227   4.614 -0.1529 -0.0780 -0.2442
 8416SOL    HW136884   4.717   3.139   4.584  0.9710  0.2504 -1.9620
 8416SOL    HW236885   4.654   3.250   4.656  0.6070 -0.5631  1.5149
 8417SOL     OW36886   4.395   0.992   2.493  0.2561  0.0409 -0.3411
 8417SOL    HW136887   4.407   0.995   2.398 -2.9466  0.5746 -0.7167
 8417SOL    HW236888   4.314   1.037   2.514 -0.9250 -1.6260 -1.3265
 8418SOL     OW36889   1.658   2.824  12.465 -0.2339  0.6401  0.2052
 8418SOL    HW136890   1.745   2.858  12.488  0.5973 -0.5193 -1.2187
 8418SOL    HW236891   1.636   2.900  12.411  1.1183  1.5541  0.9340
 8419SOL     OW36892   4.267   4.260   7.859  0.2278  0.3554  0.2888
 8419SOL    HW136893   4.311   4.249   7.775 -1.3385 -1.6783 -0.2877
 8419SOL    HW236894   4.289   4.171   7.889  0.2863  0.3687  0.2844
 8420SOL     OW36895   0.152   1.119  16.786  0.4673 -0.0346  0.4805
 8420SOL    HW136896   0.198   1.200  16.809  0.3609  0.8994 -2.6238
 8420SOL    HW236897   0.158   1.116  16.690  3.0614  0.5377  0.6228
 8421SOL     OW36898   2.663   2.628  16.640  0.2175 -0.3793 -0.2989
 8421SOL    HW136899   2.658   2.578  16.722  0.5023 -1.7368 -1.1200
 8421SOL    HW236900   2.758   2.624  16.628 -0.0753  0.6616 -2.8823
 8422SOL     OW36901   2.090   4.050   3.349 -0.4766  0.1441  0.3705
 8422SOL    HW136902   2.089   4.026   3.257  2.2156 -0.1276  0.4134
 8422SOL    HW236903   2.101   4.144   3.362  0.0495  0.4006 -2.0714
 8423SOL     OW36904   1.108   3.442   8.545  0.1769  0.1479 -0.1563
 8423SOL    HW136905   1.061   3.408   8.621  0.6210 -1.6054 -0.6525
 8423SOL    HW236906   1.054   3.519   8.529 -0.4561 -0.3477 -0.4038
 8424SOL     OW36907   1.384   1.262   3.717 -0.0521 -0.2692 -0.4064
 8424SOL    HW136908   1.473   1.291   3.737 -0.2931 -1.1749  2.0853
 8424SOL    HW236909   1.378   1.173   3.754  1.3410 -0.3233 -0.2955
 8425SOL     OW36910   0.762   0.241   9.601  0.6153 -0.2547  1.1034
 8425SOL    HW136911   0.805   0.184   9.666  3.2455  0.0031 -0.4021
 8425SOL    HW236912   0.739   0.176   9.535 -1.6729  0.9697  0.7081
 8426SOL     OW36913   0.163   4.616   3.839 -0.2192  0.0433 -0.0369
 8426SOL    HW136914   0.175   4.654   3.926  0.0047  2.9637 -1.3324
 8426SOL    HW236915   0.251   4.581   3.823 -0.7340 -0.6085 -1.3676
 8427SOL     OW36916   1.435   0.047  12.387 -0.6916 -0.5988 -0.2547
 8427SOL    HW136917   1.524   0.018  12.402 -0.2807 -0.0263 -1.5707
 8427SOL    HW236918   1.399   4.703  12.347 -3.7618  0.2485  0.7639
 8428SOL     OW36919   0.001   3.154   5.178 -0.1533 -0.0793  0.5448
 8428SOL    HW136920   4.659   3.166   5.123 -0.3046 -0.2976  0.7060
 8428SOL    HW236921   0.008   3.060   5.160  1.4908  0.5093 -1.9801
 8429SOL     OW36922   3.105   0.183   2.086  0.7606  0.0705  0.1043
 8429SOL    HW136923   3.041   0.117   2.058  0.7409  0.2195 -0.2065
 8429SOL    HW236924   3.153   0.211   2.008  1.3612 -0.2721  0.3521
 8430SOL     OW36925   3.152   3.439   2.041 -0.1308  0.0016  0.4509
 8430SOL    HW136926   3.093   3.450   1.966  0.0523  0.3893  0.3632
 8430SOL    HW236927   3.234   3.461   1.998 -0.1248  1.0381  0.9826
 8431SOL     OW36928   1.039   0.676   7.711  0.6551  0.3678  0.4290
 8431SOL    HW136929   0.973   0.635   7.766 -0.1006  1.2716  0.2049
 8431SOL    HW236930   1.054   0.758   7.759  2.3131  2.2380 -3.2795
 8432SOL     OW36931   2.340   1.548   8.642  0.0834  0.7786 -0.1364
 8432SOL    HW136932   2.374   1.527   8.554  0.9409 -0.4754  0.4936
 8432SOL    HW236933   2.412   1.506   8.689 -0.3960 -0.4082 -0.4431
 8433SOL     OW36934   1.147   0.372   6.081 -0.0253  0.2617  0.0585
 8433SOL    HW136935   1.231   0.325   6.080 -0.8438 -1.1979  1.1645
 8433SOL    HW236936   1.166   0.455   6.037  0.4092 -0.9280 -1.9961
 8434SOL     OW36937   3.035   0.905   9.839  0.1090  0.4071  0.3497
 8434SOL    HW136938   3.048   0.997   9.815  1.0269  0.8418  2.5606
 8434SOL    HW236939   2.956   0.899   9.892  1.0135 -2.1604  1.3950
 8435SOL     OW36940   1.999   4.339   5.962 -0.1476 -0.6104  0.4668
 8435SOL    HW136941   2.012   4.270   5.897  0.2193 -0.7400  0.6797
 8435SOL    HW236942   1.991   4.418   5.908 -1.4254 -2.0226 -1.4321
 8436SOL     OW36943   4.197   0.167  16.351  0.8957 -0.0908  0.3904
 8436SOL    HW136944   4.146   0.235  16.395  1.0662  1.1770 -1.3835
 8436SOL    HW236945   4.251   0.225  16.298 -0.3800  1.8335  1.1879
 8437SOL     OW36946   3.797   4.156   2.070  0.0320  0.3929  0.1411
 8437SOL    HW136947   3.887   4.187   2.062 -0.0866  0.9056  0.7989
 8437SOL    HW236948   3.800   4.078   2.014  0.5173  0.5436 -0.0427
 8438SOL     OW36949   3.916   1.536   3.974  0.1939 -0.3037  0.5367
 8438SOL    HW136950   3.944   1.549   3.884  0.8857  0.3144  0.8336
 8438SOL    HW236951   3.915   1.624   4.012  0.8391  0.2399 -0.7213
 8439SOL     OW36952   0.006   4.674   6.898  0.1847  0.0978 -0.1541
 8439SOL    HW136953   4.651   4.704   6.893 -0.0456 -0.6824 -0.6625
 8439SOL    HW236954   0.019   4.687   6.992  2.0516 -0.2688 -0.3495
 8440SOL     OW36955   4.192   1.241   1.797 -0.1792 -0.1858  0.3080
 8440SOL    HW136956   4.191   1.230   1.702 -0.4358  0.0777  0.2799
 8440SOL    HW236957   4.116   1.187   1.818 -1.0208  0.3770 -1.2280
 8441SOL     OW36958   3.655   3.619  15.878 -0.0789  0.0964 -0.7023
 8441SOL    HW136959   3.665   3.685  15.809 -0.7171  0.9882  0.0620
 8441SOL    HW236960   3.664   3.681  15.950 -0.3226  0.2614 -0.8130
 8442SOL     OW36961   0.143   0.008   4.079  0.2447 -0.6940 -0.0210
 8442SOL    HW136962   0.103   0.079   4.029 -0.3423 -0.3355  0.9704
 8442SOL    HW236963   0.065   4.702   4.115  0.5836 -0.2546  1.2036
 8443SOL     OW36964   2.709   0.117   7.273 -0.1706  0.3022  0.0776
 8443SOL    HW136965   2.744   0.191   7.224  0.2498 -0.5233 -0.8547
 8443SOL    HW236966   2.735   0.047   7.214 -1.1564 -0.1277  0.1438
 8444SOL     OW36967   4.448   1.890   5.584  0.8207 -0.6405  0.2624
 8444SOL    HW136968   4.494   1.971   5.607  1.6888 -0.6734 -1.3216
 8444SOL    HW236969   4.369   1.924   5.542  0.1750 -1.4117  0.8696
 8445SOL     OW36970   2.088   0.006   3.477 -1.0208 -0.3377  0.5618
 8445SOL    HW136971   2.069   4.652   3.507  0.8626 -1.2072 -0.8624
 8445SOL    HW236972   2.054   0.003   3.388 -0.6429 -2.1349  0.4661
 8446SOL     OW36973   1.745   1.611   1.757 -0.0311 -0.4287  0.2781
 8446SOL    HW136974   1.837   1.634   1.747 -0.6524  0.5825 -3.2411
 8446SOL    HW236975   1.735   1.591   1.664 -1.9760  0.6688  0.2466
 8447SOL     OW36976   2.098   2.028  17.518 -0.1540  0.0214  0.1212
 8447SOL    HW136977   2.135   1.949  17.556 -0.5127 -0.7392 -1.1237
 8447SOL    HW236978   2.153   2.038  17.441 -0.6927  1.9356 -0.0186
 8448SOL     OW36979   0.229   2.080   7.296  1.1283  0.0530 -0.1363
 8448SOL    HW136980   0.282   2.018   7.346  0.1370 -1.3758 -0.8646
 8448SOL    HW236981   0.283   2.094   7.219  2.1273  0.5839  0.6652
 8449SOL     OW36982   4.536   4.734  16.090  0.7093 -0.7829  0.1837
 8449SOL    HW136983   4.565   4.675  16.020  1.5867  0.2295 -0.3026
 8449SOL    HW236984   4.572   4.678  16.159  0.0192  1.0477  2.0234
 8450SOL     OW36985   1.488   1.414   2.838 -0.2761 -0.1819 -0.1975
 8450SOL    HW136986   1.446   1.470   2.772  0.1444  0.1832 -0.1628
 8450SOL    HW236987   1.445   1.436   2.920 -0.2888  1.4701 -0.6429
 8451SOL     OW36988   3.159   1.659   4.966 -0.0694  0.6369 -0.0842
 8451SOL    HW136989   3.106   1.697   5.036  0.0471  1.0934 -0.2477
 8451SOL    HW236990   3.135   1.720   4.896 -0.0286 -0.1184 -0.7647
 8452SOL     OW36991   0.772   1.257   5.430 -0.0226  0.1667 -0.0732
 8452SOL    HW136992   0.830   1.191   5.466 -3.7977 -2.3622  1.4274
 8452SOL    HW236993   0.702   1.269   5.495 -0.1520  1.4227 -0.4495
 8453SOL     OW36994   2.898   3.903   6.167  0.2671  0.0418  0.5405
 8453SOL    HW136995   2.849   3.979   6.135 -1.8639 -0.4958  2.5706
 8453SOL    HW236996   2.883   3.838   6.098 -1.4160  2.1251 -1.0729
 8454SOL     OW36997   1.333   1.596   5.060 -0.5553 -0.1923 -0.4330
 8454SOL    HW136998   1.291   1.570   5.142 -0.0787 -0.0583 -0.1477
 8454SOL    HW236999   1.292   1.534   5.000 -0.0993 -2.9117  2.0651
 8455SOL     OW37000   0.318   0.795   2.512 -0.3377  0.1728 -0.0204
 8455SOL    HW137001   0.285   0.706   2.498 -1.9999  0.4972  1.8640
 8455SOL    HW237002   0.342   0.806   2.420  1.1233 -0.5557  0.2653
 8456SOL     OW37003   3.570   2.253  10.977 -0.4567  0.0141  0.1170
 8456SOL    HW137004   3.485   2.210  10.977 -0.2542 -0.3917 -1.1695
 8456SOL    HW237005   3.568   2.312  11.053 -0.0982 -0.0077  0.1443
 8457SOL     OW37006   0.063   1.474   2.233 -0.5111  0.4846 -0.4742
 8457SOL    HW137007   0.016   1.517   2.304 -0.0293 -1.3887  0.9437
 8457SOL    HW237008   0.040   1.382   2.235 -0.4561  0.4162 -2.9722
 8458SOL     OW37009   1.267   1.343   1.006 -0.2356 -1.0291  0.4334
 8458SOL    HW137010   1.234   1.285   1.075 -0.3144 -1.2538  0.2078
 8458SOL    HW237011   1.334   1.297   0.956  0.9255 -0.0717  1.1189
 8459SOL     OW37012   0.460   0.103   1.805  0.1015 -0.3135 -0.2451
 8459SOL    HW137013   0.380   0.073   1.761  0.2661 -1.9657  0.5918
 8459SOL    HW237014   0.445   0.197   1.815 -1.1525 -0.6259  0.8699
 8460SOL     OW37015   0.710   3.048   6.242 -0.4024 -0.5869  0.4508
 8460SOL    HW137016   0.801   3.019   6.245 -0.4769 -0.8905 -0.3311
 8460SOL    HW237017   0.685   2.994   6.168  0.0999 -3.3903  2.3229
 8461SOL     OW37018   4.465   0.695   2.930  0.2629  0.4209 -0.1769
 8461SOL    HW137019   4.547   0.670   2.888  0.8034  0.2806  0.9505
 8461SOL    HW237020   4.494   0.730   3.015  0.7001  2.8106 -1.3155
 8462SOL     OW37021   4.239   4.365   6.751  0.4365 -0.1407 -0.0077
 8462SOL    HW137022   4.239   4.424   6.676  0.8680 -0.7859 -0.5181
 8462SOL    HW237023   4.146   4.370   6.775 -0.0263  0.5672 -2.0067
 8463SOL     OW37024   1.999   3.184   1.398  0.6267  0.3387 -0.4120
 8463SOL    HW137025   2.003   3.160   1.490  0.4027  0.2821 -0.4173
 8463SOL    HW237026   2.088   3.218   1.399 -0.2853  2.6859 -0.0352
 8464SOL     OW37027   0.526   2.555   1.105  1.0776  0.4811  0.1930
 8464SOL    HW137028   0.445   2.602   1.088  0.7892  0.3800  1.3184
 8464SOL    HW237029   0.507   2.491   1.173 -1.1095  0.9177 -0.0193
 8465SOL     OW37030   4.134   3.250  16.451  0.4724 -0.0066  0.0983
 8465SOL    HW137031   4.062   3.312  16.435 -0.3867 -1.6463 -2.2890
 8465SOL    HW237032   4.156   3.202  16.372  0.5508  1.7871 -0.9787
 8466SOL     OW37033   0.699   4.008   5.101 -0.9329 -0.4016 -0.4085
 8466SOL    HW137034   0.765   4.077   5.103 -2.5291  1.1000  0.0309
 8466SOL    HW237035   0.713   3.966   5.016 -1.5688 -0.7117 -0.3587
 8467SOL     OW37036   1.386   2.110   7.292  0.3443  0.2661  0.1094
 8467SOL    HW137037   1.425   2.106   7.379 -0.6490  2.2551  0.6395
 8467SOL    HW237038   1.449   2.168   7.250 -0.7026  0.9564 -0.5173
 8468SOL     OW37039   1.498   1.881   5.674 -0.1348  0.0539  0.0804
 8468SOL    HW137040   1.420   1.825   5.669 -1.9861  2.6090  0.5100
 8468SOL    HW237041   1.517   1.881   5.581  1.2423  2.5974  0.3604
 8469SOL     OW37042   1.559   3.063   6.202  0.2048 -0.1386  0.5042
 8469SOL    HW137043   1.517   3.037   6.284 -4.1363 -0.0841 -1.6853
 8469SOL    HW237044   1.650   3.067   6.229 -0.1655 -0.9004  1.8873
 8470SOL     OW37045   1.025   0.309  14.700  0.1901  0.5086  0.1672
 8470SOL    HW137046   0.986   0.221  14.707 -0.4349  0.7861  0.2441
 8470SOL    HW237047   0.992   0.349  14.620  3.2147  2.1672 -0.2357
 8471SOL     OW37048   3.672   2.400   7.417 -0.5017 -0.0219 -0.0624
 8471SOL    HW137049   3.711   2.316   7.444  1.9266  1.4407  1.0040
 8471SOL    HW237050   3.581   2.385   7.442  0.1420 -1.3448  1.5654
 8472SOL     OW37051   0.072   2.167   6.814  0.2893  0.0029  0.0827
 8472SOL    HW137052   0.161   2.142   6.788  1.4319  4.7059 -0.4118
 8472SOL    HW237053   0.021   2.105   6.761  1.0015 -0.7952  0.3310
 8473SOL     OW37054   3.091   4.501  12.712 -0.6270  0.1454 -0.0425
 8473SOL    HW137055   3.164   4.562  12.718 -1.6298  1.5004 -1.4776
 8473SOL    HW237056   3.125   4.422  12.754 -0.5637  0.0294 -0.3103
 8474SOL     OW37057   0.307   4.723   1.606  0.2226 -0.2245  0.6354
 8474SOL    HW137058   0.287   4.724   1.513 -1.0069 -1.8646  0.8665
 8474SOL    HW237059   0.251   4.648   1.627 -0.9674  0.8204  1.2093
 8475SOL     OW37060   3.369   2.351  14.139  0.1344  0.3302  0.5803
 8475SOL    HW137061   3.329   2.437  14.130  0.2122  0.2142 -0.8479
 8475SOL    HW237062   3.305   2.296  14.093  0.8479  1.5707 -1.8397
 8476SOL     OW37063   3.532   0.350   1.209  0.0355  0.1724 -0.2325
 8476SOL    HW137064   3.593   0.288   1.248  1.0828  0.5108 -1.3260
 8476SOL    HW237065   3.582   0.429   1.185  1.5115 -0.0087  2.2250
 8477SOL     OW37066   4.713   1.113   4.058 -0.0153 -0.2007  0.2928
 8477SOL    HW137067   4.628   1.109   4.102 -0.6514  1.4170 -0.7986
 8477SOL    HW237068   4.719   1.023   4.029  0.4799 -0.4818  1.2633
 8478SOL     OW37069   0.930   2.366   6.998 -0.0263  0.1563 -0.0487
 8478SOL    HW137070   0.996   2.310   7.040  1.5575  0.8217 -1.6731
 8478SOL    HW237071   0.903   2.315   6.922  2.0463  0.8221 -1.2412
 8479SOL     OW37072   0.984   2.187   8.829  0.1314  0.0869  0.2485
 8479SOL    HW137073   1.068   2.152   8.858  0.4826 -0.0426 -0.9127
 8479SOL    HW237074   0.924   2.141   8.888  0.6114 -0.8566  0.0045
 8480SOL     OW37075   4.453   0.692   5.223  0.0319  0.3768 -0.0631
 8480SOL    HW137076   4.526   0.692   5.285 -2.1569 -0.3501  2.4840
 8480SOL    HW237077   4.426   0.601   5.223 -2.3690  1.0783  0.8715
 8481SOL     OW37078   2.732   2.643   2.008 -0.1881 -0.0682  0.7273
 8481SOL    HW137079   2.715   2.681   2.094 -1.2610  1.0045  0.0483
 8481SOL    HW237080   2.737   2.549   2.022  2.0138 -0.0116  0.4244
 8482SOL     OW37081   2.535   2.470  16.466 -0.0250 -0.2232  0.7175
 8482SOL    HW137082   2.577   2.483  16.381 -0.2148 -1.0730  0.4911
 8482SOL    HW237083   2.591   2.516  16.529  2.0874 -1.8068 -0.0212
 8483SOL     OW37084   0.998   0.648  15.920  0.6447 -0.0607  0.7911
 8483SOL    HW137085   1.061   0.692  15.863  1.2626  1.5876  2.7712
 8483SOL    HW237086   0.922   0.701  15.897  0.9128  0.3446  0.8475
 8484SOL     OW37087   2.793   4.181  15.977 -0.3709  0.1774  0.1899
 8484SOL    HW137088   2.760   4.224  15.899 -1.2950 -2.1052 -0.6611
 8484SOL    HW237089   2.738   4.205  16.051 -0.0060 -1.3216  0.9556
 8485SOL     OW37090   0.834   3.759   1.938 -0.1945 -0.0711  0.0770
 8485SOL    HW137091   0.759   3.758   1.998  1.1302 -0.5936  1.7376
 8485SOL    HW237092   0.849   3.853   1.944 -1.3827  0.2210 -1.5733
 8486SOL     OW37093   1.491   2.562  16.248 -0.1071  0.2892  0.0985
 8486SOL    HW137094   1.471   2.475  16.283  1.1275  0.4943  1.2899
 8486SOL    HW237095   1.567   2.590  16.299  0.7609 -0.8509 -0.5694
 8487SOL     OW37096   0.476   2.529   5.839  0.4451 -0.2398 -0.4825
 8487SOL    HW137097   0.409   2.588   5.806 -0.1618  0.5335  2.1673
 8487SOL    HW237098   0.524   2.505   5.760  0.7327  0.4450 -0.5240
 8488SOL     OW37099   0.240   0.988   6.168 -0.0862  0.0091 -0.6871
 8488SOL    HW137100   0.292   1.062   6.198 -0.7874 -0.5902  2.0090
 8488SOL    HW237101   0.233   0.945   6.254 -0.1793  0.6496 -0.3724
 8489SOL     OW37102   2.277   2.562   2.300 -0.0538 -0.2472 -0.2069
 8489SOL    HW137103   2.309   2.491   2.356  0.6178  0.7658  0.6902
 8489SOL    HW237104   2.182   2.550   2.305 -0.0486  0.0833  0.5765
 8490SOL     OW37105   0.892   3.222   5.690 -0.4517  0.4983  0.0189
 8490SOL    HW137106   0.878   3.293   5.627 -0.2553 -1.0964 -1.8509
 8490SOL    HW237107   0.940   3.157   5.638 -1.3973  0.6560 -1.0404
 8491SOL     OW37108   1.248   1.964   8.591  0.2330 -0.2316 -0.5196
 8491SOL    HW137109   1.174   2.024   8.584  1.9501  1.8999 -0.5553
 8491SOL    HW237110   1.246   1.919   8.506  0.3413  0.5888 -0.9508
 8492SOL     OW37111   1.543   2.653   5.580  0.2471 -0.1655  0.6630
 8492SOL    HW137112   1.613   2.631   5.519  0.1372  1.4033 -0.0230
 8492SOL    HW237113   1.535   2.576   5.636  0.0179 -0.6141 -0.0004
 8493SOL     OW37114   1.832   3.990  17.473 -0.0559  0.3473 -0.0592
 8493SOL    HW137115   1.857   4.054  17.539  2.5370 -0.1022 -0.6261
 8493SOL    HW237116   1.799   3.921  17.532  0.1058  1.2407  1.0869
 8494SOL     OW37117   4.255   2.154   5.891  0.2190  0.0665 -0.0807
 8494SOL    HW137118   4.227   2.162   5.982  1.8710  0.0741  0.4334
 8494SOL    HW237119   4.334   2.099   5.893  0.9305  1.0385 -1.2464
 8495SOL     OW37120   1.903   0.957   8.999  0.0621 -0.4497 -0.2402
 8495SOL    HW137121   1.935   0.953   9.089  0.2604 -2.9364 -0.4290
 8495SOL    HW237122   1.839   0.886   9.003  2.6027 -2.6366  1.4536
 8496SOL     OW37123   3.590   3.878   4.848 -0.2531 -0.5654  0.6789
 8496SOL    HW137124   3.562   3.850   4.761  3.7825 -0.2130 -0.7480
 8496SOL    HW237125   3.523   3.840   4.904 -0.3978  1.4985  1.9187
 8497SOL     OW37126   4.268   2.223  12.274  0.3598  0.0418 -0.0697
 8497SOL    HW137127   4.279   2.130  12.291  2.8368  0.2548 -0.5849
 8497SOL    HW237128   4.344   2.241  12.329  0.8520  1.0827 -1.0912
 8498SOL     OW37129   2.461   2.247  10.806 -0.2156 -0.2141  0.5080
 8498SOL    HW137130   2.456   2.190  10.728 -1.3759  1.9164 -0.9572
 8498SOL    HW237131   2.466   2.338  10.778 -2.0177 -0.6104 -1.0464
 8499SOL     OW37132   2.820   1.106   6.482 -0.5749 -0.2440 -0.0690
 8499SOL    HW137133   2.810   1.087   6.575  0.9574 -1.4692 -0.1602
 8499SOL    HW237134   2.916   1.108   6.481 -0.5887  1.3213  1.3231
 8500SOL     OW37135   1.700   0.138   9.469 -0.5802  0.1702  0.2245
 8500SOL    HW137136   1.749   0.220   9.484  1.2956 -1.1997  1.6383
 8500SOL    HW237137   1.753   0.082   9.525 -0.8417 -2.9755 -2.6592
 8501SOL     OW37138   2.004   1.343   0.578  0.1094  0.4056  0.8894
 8501SOL    HW137139   2.041   1.266   0.621  3.0055  0.3482 -1.7311
 8501SOL    HW237140   1.919   1.304   0.558  1.0843 -0.8654 -0.7916
 8502SOL     OW37141   0.445   2.498  10.670 -0.7203 -0.2476  0.0358
 8502SOL    HW137142   0.505   2.571  10.689  0.9986 -1.8826  0.8957
 8502SOL    HW237143   0.457   2.452  10.753  1.1776  2.0415  1.0546
 8503SOL     OW37144   1.702   1.806   3.140 -0.1793  0.0567 -0.0922
 8503SOL    HW137145   1.635   1.739   3.151  1.0861 -1.4185 -1.4428
 8503SOL    HW237146   1.645   1.869   3.096 -0.2834 -1.0770 -1.5831
 8504SOL     OW37147   0.907   3.897   2.348 -0.4603 -0.2657  0.2252
 8504SOL    HW137148   0.858   3.819   2.323 -2.4184  0.8137  0.7264
 8504SOL    HW237149   0.845   3.967   2.332  0.1107  0.6191  1.8712
 8505SOL     OW37150   0.696   2.974  10.782 -0.3160 -0.3777  0.4679
 8505SOL    HW137151   0.627   3.000  10.721  1.0199 -0.0169 -0.8930
 8505SOL    HW237152   0.666   3.001  10.870 -0.3125 -1.1696  0.7093
 8506SOL     OW37153   3.986   1.132   3.513 -0.3575  0.3467 -0.1273
 8506SOL    HW137154   3.968   1.218   3.549  0.8730  0.9953 -1.0863
 8506SOL    HW237155   3.905   1.091   3.543  0.3759 -0.1893  1.1089
 8507SOL     OW37156   2.211   4.679   5.796 -0.7457 -0.3718  0.0342
 8507SOL    HW137157   2.125   4.637   5.792 -0.4868 -1.1078  1.9515
 8507SOL    HW237158   2.181   0.031   5.821 -1.9938 -1.4379  2.3658
 8508SOL     OW37159   0.688   0.471   2.609 -0.5093  0.7545 -0.2571
 8508SOL    HW137160   0.628   0.433   2.545 -1.8828  2.0345  0.2449
 8508SOL    HW237161   0.690   0.398   2.671  2.4321  1.9213  1.0011
 8509SOL     OW37162   3.188   0.088   0.822  0.0338  0.0639  0.4198
 8509SOL    HW137163   3.271   0.044   0.804  0.1299  0.4167  0.0062
 8509SOL    HW237164   3.156   0.085   0.731  0.7944 -1.3899  0.1893
 8510SOL     OW37165   0.067   1.930  11.712 -0.2636  0.0700  0.2621
 8510SOL    HW137166   0.127   1.876  11.659  1.6305  2.4771 -0.0467
 8510SOL    HW237167   0.042   1.861  11.773 -0.0757 -0.3461 -0.1265
 8511SOL     OW37168   2.204   3.036   2.255  0.8099  0.3665  0.0752
 8511SOL    HW137169   2.196   2.979   2.331 -0.3464 -0.9428 -1.0093
 8511SOL    HW237170   2.175   2.973   2.188 -1.5718  1.2309  0.2801
 8512SOL     OW37171   3.954   2.952   7.556  0.1764  0.4416 -0.0751
 8512SOL    HW137172   3.968   2.987   7.468  2.1828 -1.6341 -0.5910
 8512SOL    HW237173   3.961   2.858   7.538 -0.2933  0.7911 -2.1139
 8513SOL     OW37174   2.578   2.424  11.433  0.1704 -1.0156 -0.0067
 8513SOL    HW137175   2.520   2.372  11.489  0.0417  0.6440  1.3834
 8513SOL    HW237176   2.518   2.445  11.361  0.0454 -2.6746 -0.3982
 8514SOL     OW37177   1.055   2.865   6.011 -0.8114 -0.3573  0.3238
 8514SOL    HW137178   1.022   2.947   5.973 -1.0419 -1.4387 -1.8460
 8514SOL    HW237179   1.131   2.898   6.058 -1.2772 -0.8287  1.3984
 8515SOL     OW37180   0.372   0.728  14.838 -0.2209  0.4574 -0.7072
 8515SOL    HW137181   0.338   0.817  14.844  1.6551  1.0615  0.9879
 8515SOL    HW237182   0.296   0.676  14.811  0.7873 -1.1700 -0.4483
 8516SOL     OW37183   1.146   1.800  15.593 -0.2446 -0.0614  0.0080
 8516SOL    HW137184   1.097   1.859  15.651  0.2752 -1.4004  1.8290
 8516SOL    HW237185   1.166   1.725  15.650 -0.3859  0.5304  0.8456
 8517SOL     OW37186   1.478   0.912   7.216  0.4919 -0.1579  0.2161
 8517SOL    HW137187   1.421   0.872   7.282 -3.0797  3.3522 -0.7305
 8517SOL    HW237188   1.519   0.976   7.274  1.3616 -0.6483  0.1440
 8518SOL     OW37189   4.079   0.506   4.320 -0.0658 -0.0081 -0.0690
 8518SOL    HW137190   4.088   0.410   4.322  1.0706  0.1134  1.0749
 8518SOL    HW237191   3.986   0.524   4.325  0.0004  1.0195 -2.7459
 8519SOL     OW37192   2.263   2.471   7.495  0.1526  0.4349 -0.3339
 8519SOL    HW137193   2.293   2.560   7.511  1.2458 -0.1678  0.9078
 8519SOL    HW237194   2.343   2.437   7.455 -0.1097  2.0497 -2.2604
 8520SOL     OW37195   3.229   0.682   8.283  0.3653 -0.5670  0.4900
 8520SOL    HW137196   3.296   0.625   8.244  2.3807  0.7834  1.9797
 8520SOL    HW237197   3.220   0.653   8.373 -0.3476  0.2502  0.6733
 8521SOL     OW37198   1.474   4.037   1.738 -0.2159 -0.6866  0.3994
 8521SOL    HW137199   1.541   3.972   1.718  2.1435  2.5842 -2.4232
 8521SOL    HW237200   1.475   4.054   1.832  0.6178  0.9178  0.0982
 8522SOL     OW37201   0.930   0.725   6.838  0.5762  0.2883  0.3296
 8522SOL    HW137202   0.993   0.732   6.909 -0.3391 -0.8009  1.2576
 8522SOL    HW237203   0.844   0.735   6.879  1.6574 -1.2267  2.9368
 8523SOL     OW37204   4.606   0.018  12.846 -0.0541  0.1356 -1.1784
 8523SOL    HW137205   4.696   0.023  12.812  0.4441 -0.2585  0.0831
 8523SOL    HW237206   4.622   0.038  12.938 -1.5714  0.4975 -1.0029
 8524SOL     OW37207   3.237   1.306  15.523  0.1947 -0.0011 -0.4062
 8524SOL    HW137208   3.331   1.287  15.529  0.2220  0.8918  1.9770
 8524SOL    HW237209   3.232   1.294  15.428  0.2919  1.8724 -0.6445
 8525SOL     OW37210   2.326   2.251   5.364  0.6828 -0.3929 -0.0864
 8525SOL    HW137211   2.257   2.317   5.373  1.5656  0.1997  2.5268
 8525SOL    HW237212   2.289   2.190   5.301  0.7612  0.5977 -1.1067
 8526SOL     OW37213   4.712   2.961  11.531 -0.4081  0.2428  0.0750
 8526SOL    HW137214   4.627   2.928  11.560 -0.2896 -0.5358 -0.4583
 8526SOL    HW237215   4.688   2.980  11.440  1.5692 -0.7199 -0.6474
 8527SOL     OW37216   2.898   2.512   2.625 -0.1413 -0.2690 -0.0121
 8527SOL    HW137217   2.968   2.448   2.617  0.1974 -0.0520  1.3083
 8527SOL    HW237218   2.924   2.543   2.712  0.1157 -2.4278  0.6783
 8528SOL     OW37219   3.505   2.141   8.789 -0.0622 -0.2451  0.3217
 8528SOL    HW137220   3.499   2.231   8.820  0.0889 -0.4318  0.8920
 8528SOL    HW237221   3.443   2.092   8.842 -0.0353  0.2814  0.8301
 8529SOL     OW37222   1.044   3.434   3.364 -0.0903  0.2911  0.6091
 8529SOL    HW137223   1.019   3.526   3.361 -2.1358 -0.2816  0.2579
 8529SOL    HW237224   1.056   3.409   3.272 -0.1648  0.9985  0.4071
 8530SOL     OW37225   0.552   1.022   6.773 -0.0050  0.0277 -0.4218
 8530SOL    HW137226   0.583   0.999   6.861 -0.6191 -0.9046 -0.4547
 8530SOL    HW237227   0.630   1.075   6.752 -0.6150  0.3683 -1.8100
 8531SOL     OW37228   0.838   2.801   5.015  0.7651  0.2534 -0.1830
 8531SOL    HW137229   0.863   2.712   4.989 -0.4324  0.4837 -2.0949
 8531SOL    HW237230   0.925   2.842   5.017  1.5023 -1.3609  0.9656
 8532SOL     OW37231   2.133   2.162   7.266 -0.3098  0.4728  0.0579
 8532SOL    HW137232   2.170   2.096   7.324  0.7178  0.4988 -0.5694
 8532SOL    HW237233   2.046   2.165   7.305 -0.5206 -0.3800 -0.3576
 8533SOL     OW37234   1.963   3.720  11.230  0.1964  0.3620  0.1385
 8533SOL    HW137235   2.036   3.721  11.292  0.9602  2.9687 -0.7969
 8533SOL    HW237236   1.942   3.813  11.220  1.1566  0.4718 -0.9196
 8534SOL     OW37237   4.446   4.018   1.800  0.3637  0.9817  0.6803
 8534SOL    HW137238   4.530   3.990   1.836 -0.6644  0.0687  2.3466
 8534SOL    HW237239   4.413   3.943   1.750 -0.9799  0.6679  2.0531
 8535SOL     OW37240   1.201   2.977   1.623  0.8469  0.2428 -0.4011
 8535SOL    HW137241   1.278   3.000   1.570  1.4397  0.6437  0.6424
 8535SOL    HW237242   1.239   2.996   1.709 -0.2767  0.7389 -0.0159
 8536SOL     OW37243   2.864   2.032   4.767  0.0161  0.3748  0.5226
 8536SOL    HW137244   2.774   2.056   4.746  0.4698  0.3883 -1.4933
 8536SOL    HW237245   2.892   2.115   4.805  1.4945 -0.6033  1.5737
 8537SOL     OW37246   2.563   3.790  14.880 -0.0103 -0.3747  0.0794
 8537SOL    HW137247   2.630   3.725  14.899 -1.1740 -0.8722  2.5389
 8537SOL    HW237248   2.488   3.745  14.920 -0.9703  2.3010  1.2445
 8538SOL     OW37249   2.181   1.831   3.500 -0.2942 -0.0718  0.6862
 8538SOL    HW137250   2.186   1.919   3.536 -0.6871 -1.7336  4.7950
 8538SOL    HW237251   2.163   1.848   3.408 -1.9397 -0.6549  0.9015
 8539SOL     OW37252   3.998   4.714  10.374 -0.1945  0.8536  0.2720
 8539SOL    HW137253   4.023   4.678  10.459  0.0089  1.4066  0.4474
 8539SOL    HW237254   4.022   0.067  10.401  0.5078  1.3365 -1.9589
 8540SOL     OW37255   1.891   3.904   6.830  0.0900 -0.3158 -0.1645
 8540SOL    HW137256   1.831   3.965   6.873  1.5511  0.5934  0.6054
 8540SOL    HW237257   1.833   3.853   6.774 -0.7232  0.8596 -0.3851
 8541SOL     OW37258   3.326   0.845   4.590 -0.9174  0.0231 -0.3817
 8541SOL    HW137259   3.261   0.916   4.591 -1.4372 -0.4241 -1.7045
 8541SOL    HW237260   3.281   0.786   4.650  1.2765  0.3664  1.5704
 8542SOL     OW37261   0.634   3.380   5.639  0.4292  0.3679  0.1800
 8542SOL    HW137262   0.557   3.434   5.660 -0.1457 -0.5545  0.4416
 8542SOL    HW237263   0.661   3.413   5.554  0.6680 -2.0018 -0.6473
 8543SOL     OW37264   3.176   3.123   6.747 -0.3843  0.6268  0.0348
 8543SOL    HW137265   3.156   3.112   6.840  0.9098 -1.4054  0.0567
 8543SOL    HW237266   3.258   3.075   6.741 -1.0212 -0.3337 -0.9202
 8544SOL     OW37267   1.500   2.514   4.637  1.0506  0.0014 -0.0464
 8544SOL    HW137268   1.564   2.542   4.571  0.1325  1.2844 -0.4054
 8544SOL    HW237269   1.564   2.482   4.700  0.6928 -2.0526 -0.7434
 8545SOL     OW37270   2.935   0.777   9.534  0.0229  0.0669  0.2005
 8545SOL    HW137271   2.917   0.822   9.617 -0.8028  1.9567 -1.0001
 8545SOL    HW237272   3.005   0.834   9.503  0.2342 -1.9107 -2.9336
 8546SOL     OW37273   1.330   3.435   8.696 -0.3657 -0.2748 -0.0705
 8546SOL    HW137274   1.262   3.423   8.630  1.6646  0.3462 -2.2497
 8546SOL    HW237275   1.384   3.506   8.661 -0.5493  0.3417  0.9057
 8547SOL     OW37276   2.404   2.979   6.818 -0.4685  0.7349  0.3514
 8547SOL    HW137277   2.368   2.909   6.872 -1.7232  0.9773 -0.1891
 8547SOL    HW237278   2.329   2.995   6.762  0.7004 -0.3013 -1.5070
 8548SOL     OW37279   3.496   3.600   6.630 -0.0883  0.4243  0.5492
 8548SOL    HW137280   3.517   3.561   6.545 -0.9843 -1.3658  1.1423
 8548SOL    HW237281   3.472   3.520   6.677  1.8755 -0.4213  0.0912
 8549SOL     OW37282   2.251   3.641   4.218 -0.2411 -0.0423  0.2475
 8549SOL    HW137283   2.289   3.708   4.274 -0.0007 -1.5049  1.8512
 8549SOL    HW237284   2.326   3.584   4.202 -1.8034 -1.8375 -0.7164
 8550SOL     OW37285   1.466   1.461  13.807 -0.3199  0.1706 -0.5937
 8550SOL    HW137286   1.382   1.437  13.846 -0.4247 -1.8267 -2.0763
 8550SOL    HW237287   1.534   1.409  13.850  1.8032  0.8180 -3.2127
 8551SOL     OW37288   4.631   2.070   8.678 -0.5749  0.4577  0.2440
 8551SOL    HW137289   4.691   2.081   8.752  0.3593  3.4237 -0.9591
 8551SOL    HW237290   4.547   2.047   8.718 -1.2691  0.8297 -1.0094
 8552SOL     OW37291   1.062   4.725   2.490 -0.4426  0.0715  0.3283
 8552SOL    HW137292   1.156   4.732   2.507  0.1605 -0.2555 -2.7621
 8552SOL    HW237293   1.028   0.060   2.545  0.8113 -0.8009  2.2397
 8553SOL     OW37294   2.540   2.455   1.146 -0.3680 -0.0395 -0.0335
 8553SOL    HW137295   2.471   2.465   1.212 -0.9447  1.0264 -0.7921
 8553SOL    HW237296   2.514   2.511   1.073  0.5948  1.1984  0.5649
 8554SOL     OW37297   0.969   0.792   2.728 -0.2123 -0.2034 -0.3751
 8554SOL    HW137298   0.991   0.875   2.685 -1.8644 -1.1440 -3.0420
 8554SOL    HW237299   1.023   0.805   2.806 -0.5044  0.9395 -0.3621
 8555SOL     OW37300   0.658   2.869   9.321 -0.1437  0.1306 -0.0984
 8555SOL    HW137301   0.675   2.796   9.261 -1.4033 -0.3449  0.1344
 8555SOL    HW237302   0.567   2.855   9.348 -0.8825  1.8264 -1.7844
 8556SOL     OW37303   3.983   3.317   0.235 -0.2244 -0.2870  0.5252
 8556SOL    HW137304   4.064   3.282   0.273  0.5877  0.0224 -0.9138
 8556SOL    HW237305   3.924   3.295   0.307  1.4688 -1.1579  1.6463
 8557SOL     OW37306   3.940   4.332   6.389  0.3777 -0.2627  1.0296
 8557SOL    HW137307   3.906   4.355   6.475  0.2990  3.6447 -0.0202
 8557SOL    HW237308   3.948   4.416   6.344  0.7510 -1.1849 -0.6370
 8558SOL     OW37309   1.385   4.536   1.942  0.2745 -0.1025 -0.1351
 8558SOL    HW137310   1.409   4.450   1.979  0.7729 -0.1448 -0.5575
 8558SOL    HW237311   1.419   4.528   1.853  0.0250 -2.0113 -0.0669
 8559SOL     OW37312   4.506   2.040   5.911  0.7960 -0.0278  0.2383
 8559SOL    HW137313   4.558   1.976   5.861  0.6671 -0.3684  0.5355
 8559SOL    HW237314   4.580   2.095   5.937  0.8621  0.8480 -1.8513
 8560SOL     OW37315   0.055   3.665   7.537 -0.1833 -0.8921 -0.1589
 8560SOL    HW137316   4.735   3.655   7.460  1.1750  1.7777 -1.4474
 8560SOL    HW237317   4.722   3.675   7.604 -0.0559 -1.9083  0.1274
 8561SOL     OW37318   4.720   0.814  12.554  0.5123  0.6046 -0.5669
 8561SOL    HW137319   0.045   0.860  12.613  0.7123 -0.5057  0.0890
 8561SOL    HW237320   0.036   0.743  12.516  1.9488  0.9910  0.6874
 8562SOL     OW37321   2.050   2.451   7.246 -0.5421  0.2772  0.0882
 8562SOL    HW137322   2.077   2.416   7.161 -0.2259 -0.2594  0.4008
 8562SOL    HW237323   2.131   2.435   7.296  0.2391 -2.3980 -2.0221
 8563SOL     OW37324   0.204   1.317  13.372 -0.6074  0.1053  0.1273
 8563SOL    HW137325   0.175   1.334  13.462  3.8239 -0.0962  1.5825
 8563SOL    HW237326   0.131   1.364  13.331 -0.8613 -0.2921  0.1165
 8564SOL     OW37327   2.845   0.531   0.873  0.0634  0.1862 -0.2904
 8564SOL    HW137328   2.879   0.542   0.784  1.9256 -1.8635  0.1621
 8564SOL    HW237329   2.903   0.462   0.907  0.8357  1.2962  0.6407
 8565SOL     OW37330   4.012   0.564   8.507 -0.3094  0.2511  0.4065
 8565SOL    HW137331   3.984   0.654   8.523  0.8716  0.8934 -1.0589
 8565SOL    HW237332   3.926   0.523   8.504 -0.8957  1.6517 -2.4804
 8566SOL     OW37333   4.083   2.541   1.218 -0.2348 -0.7436 -0.4654
 8566SOL    HW137334   4.034   2.503   1.291 -1.8933  1.4557 -0.4457
 8566SOL    HW237335   4.004   2.571   1.173  0.2738  0.4587 -0.5587
 8567SOL     OW37336   3.244   2.625  14.055 -0.0270 -0.0839 -0.2064
 8567SOL    HW137337   3.317   2.678  14.088  2.6346 -2.8528 -1.5670
 8567SOL    HW237338   3.184   2.689  14.019  0.7199  0.0047 -1.2985
 8568SOL     OW37339   1.438   1.991   0.876  0.0201  0.8512  0.2327
 8568SOL    HW137340   1.494   1.913   0.878  0.3162  1.0651  0.4045
 8568SOL    HW237341   1.494   2.034   0.941  1.4215  0.7241 -0.8849
 8569SOL     OW37342   3.158   0.413   8.867 -0.1857  0.0410 -0.4920
 8569SOL    HW137343   3.248   0.410   8.902 -0.6817 -2.2220  0.5744
 8569SOL    HW237344   3.117   0.418   8.954 -0.3291 -0.9065 -0.5063
 8570SOL     OW37345   0.228   3.440   1.291 -0.1700 -0.2962  0.4282
 8570SOL    HW137346   0.296   3.506   1.307  0.0763 -0.6946  1.0008
 8570SOL    HW237347   0.252   3.367   1.348  1.6472 -2.7047 -3.3952
 8571SOL     OW37348   0.084   2.876  13.389 -0.2241 -0.3368 -0.0050
 8571SOL    HW137349   0.124   2.818  13.454 -1.3261 -0.3086  0.7064
 8571SOL    HW237350   0.013   2.820  13.358 -1.7013  1.9281 -0.6711
 8572SOL     OW37351   0.745   2.075   6.274  0.0410  0.1019  0.1105
 8572SOL    HW137352   0.684   2.139   6.235 -1.2187  0.4689  2.7112
 8572SOL    HW237353   0.811   2.071   6.205 -1.6832 -0.3483 -1.5121
 8573SOL     OW37354   0.593   4.254   9.608  0.1886  0.3404  0.4454
 8573SOL    HW137355   0.575   4.182   9.669  0.8820 -1.2053 -1.1501
 8573SOL    HW237356   0.628   4.210   9.531  1.1439  2.3278 -0.2468
 8574SOL     OW37357   1.434   0.353   3.127 -0.5753 -0.5522 -0.7231
 8574SOL    HW137358   1.473   0.407   3.196  1.2756 -0.9547 -1.4389
 8574SOL    HW237359   1.394   0.412   3.063 -0.5012 -0.0845 -0.3340
 8575SOL     OW37360   4.339   2.075  10.856  0.1013  0.1708  0.3247
 8575SOL    HW137361   4.380   2.087  10.942 -2.1044  1.6351  1.1671
 8575SOL    HW237362   4.246   2.074  10.877 -0.1667 -0.2996 -0.8950
 8576SOL     OW37363   1.536   2.031  16.174  0.1553  0.4827 -0.2331
 8576SOL    HW137364   1.550   1.953  16.120 -0.7300 -0.7376  1.3082
 8576SOL    HW237365   1.441   2.041  16.175  0.0115 -0.9434 -0.8328
 8577SOL     OW37366   0.591   0.369   2.382 -0.0576 -0.2137  0.2074
 8577SOL    HW137367   0.660   0.392   2.320 -3.4549  3.1895 -2.3947
 8577SOL    HW237368   0.590   0.277   2.356 -0.7567 -0.8609  2.5973
 8578SOL     OW37369   0.047   3.449   5.963 -0.0525 -0.7563 -0.5859
 8578SOL    HW137370   4.690   3.472   5.977  0.6193 -0.3560  3.2628
 8578SOL    HW237371   0.051   3.429   5.870  0.5852 -1.1722 -0.4690
 8579SOL     OW37372   3.360   3.884   5.495  0.4019  0.2143 -0.6171
 8579SOL    HW137373   3.450   3.901   5.523 -0.0355  0.2108  0.7616
 8579SOL    HW237374   3.341   3.806   5.547 -0.1834  1.5825  1.2094
 8580SOL     OW37375   1.214   4.310   2.034 -0.6530  0.4856 -0.2047
 8580SOL    HW137376   1.290   4.284   1.982 -1.4169  0.7188 -1.4477
 8580SOL    HW237377   1.147   4.300   1.966 -0.0409  2.2988 -1.0766
 8581SOL     OW37378   3.797   0.051   4.820  0.4683  0.3061  0.7737
 8581SOL    HW137379   3.714   0.094   4.800  0.7401  1.5662  2.3119
 8581SOL    HW237380   3.866   0.116   4.832  0.3810  0.8358 -1.6525
 8582SOL     OW37381   4.058   1.864   4.774  0.3103  0.1092 -0.8339
 8582SOL    HW137382   4.010   1.942   4.803 -2.1790 -1.4525 -0.6862
 8582SOL    HW237383   4.029   1.852   4.684  0.7921 -0.9594 -0.8436
 8583SOL     OW37384   0.345   4.016   7.830  0.2445  0.0256  0.2301
 8583SOL    HW137385   0.299   3.972   7.901 -0.7555  1.5811  0.5729
 8583SOL    HW237386   0.334   3.957   7.755  1.4094 -0.6037  0.5710
 8584SOL     OW37387   1.846   3.816   1.498 -0.5903 -0.0466  0.3128
 8584SOL    HW137388   1.889   3.834   1.413  1.2736  2.3012  1.7413
 8584SOL    HW237389   1.836   3.721   1.493  0.0764 -0.1929  1.9822
 8585SOL     OW37390   4.312   4.423   5.992 -0.0396  0.2591 -0.1097
 8585SOL    HW137391   4.407   4.410   5.990  0.0142  0.5631  0.8372
 8585SOL    HW237392   4.305   4.511   6.028 -1.7799  0.1782 -0.2565
 8586SOL     OW37393   3.318   1.162   6.932  0.2183  0.4604 -0.0509
 8586SOL    HW137394   3.274   1.149   6.848  1.0817  1.6351 -0.6881
 8586SOL    HW237395   3.242   1.163   6.990 -0.9745 -1.1823 -1.6052
 8587SOL     OW37396   4.235   4.484   2.185  0.1190 -0.2737  0.8733
 8587SOL    HW137397   4.200   4.401   2.216 -2.4288  0.3588 -0.3298
 8587SOL    HW237398   4.292   4.466   2.110 -0.0762  0.7309  0.4824
 8588SOL     OW37399   0.542   1.662   7.579  0.0850  0.1466  0.1617
 8588SOL    HW137400   0.611   1.606   7.542 -0.1299  0.1992 -0.3199
 8588SOL    HW237401   0.592   1.717   7.639 -0.6487  0.4814  0.4736
 8589SOL     OW37402   0.420   0.721   6.982  0.1217 -0.1535 -0.0380
 8589SOL    HW137403   0.387   0.681   7.062  2.3851  0.2912  1.1144
 8589SOL    HW237404   0.355   0.791   6.977 -1.1228 -1.3373 -0.1829
 8590SOL     OW37405   4.377   3.699   4.665  0.5382 -0.0646  0.6727
 8590SOL    HW137406   4.410   3.710   4.576  1.5393 -1.9462  0.8145
 8590SOL    HW237407   4.454   3.686   4.719  1.3763  1.9732 -0.0619
 8591SOL     OW37408   1.168   0.638  11.382  0.1880 -0.8754 -0.2693
 8591SOL    HW137409   1.186   0.615  11.473 -1.3991 -0.1804  0.2244
 8591SOL    HW237410   1.175   0.733  11.390 -1.2032 -0.7422 -0.5922
 8592SOL     OW37411   3.108   2.863   5.777 -0.6579  0.2492 -0.1465
 8592SOL    HW137412   3.126   2.934   5.838  0.6169  1.0752 -1.4947
 8592SOL    HW237413   3.163   2.793   5.812 -1.6511 -0.2583  0.3837
 8593SOL     OW37414   2.908   1.091   4.442  0.2343  0.2813  0.5549
 8593SOL    HW137415   2.887   1.184   4.430  0.5384  0.0726 -1.5937
 8593SOL    HW237416   2.843   1.073   4.510  0.7468  0.5906  1.1320
 8594SOL     OW37417   1.657   2.830   0.740 -0.1028  0.0577  0.1058
 8594SOL    HW137418   1.738   2.790   0.709 -0.8454 -1.6987  0.4676
 8594SOL    HW237419   1.663   2.830   0.835  0.0754 -1.4684  0.0843
 8595SOL     OW37420   3.396   3.162   5.893  0.2211  0.9107  0.4634
 8595SOL    HW137421   3.359   3.248   5.914 -1.2690  0.4880 -0.4231
 8595SOL    HW237422   3.314   3.115   5.879  0.6040  0.3508  0.0989
 8596SOL     OW37423   0.691   4.036   8.502  0.3320 -0.5089 -0.1207
 8596SOL    HW137424   0.748   4.035   8.425 -1.0806 -1.1721 -1.1470
 8596SOL    HW237425   0.651   4.121   8.483 -0.3965 -0.8094  0.0778
 8597SOL     OW37426   1.439   1.847   2.376 -0.4776  0.1763  0.3299
 8597SOL    HW137427   1.473   1.767   2.336 -0.5645  0.8232 -1.0378
 8597SOL    HW237428   1.506   1.909   2.346 -0.8821 -0.6953 -2.3549
 8598SOL     OW37429   2.869   0.081   8.715 -0.2254  0.0211  0.5864
 8598SOL    HW137430   2.872   0.124   8.801  2.3369  2.2346 -0.5945
 8598SOL    HW237431   2.775   0.071   8.705 -0.1007 -1.6960  1.1316
 8599SOL     OW37432   3.577   3.968  16.551 -0.3875  0.5427  0.3999
 8599SOL    HW137433   3.511   3.944  16.486  0.5001 -2.8003  0.7184
 8599SOL    HW237434   3.633   4.025  16.499  0.3335 -0.6994 -0.1744
 8600SOL     OW37435   0.961   1.061   6.798 -0.0780 -0.3777 -0.3189
 8600SOL    HW137436   1.020   1.117   6.849 -2.3745  1.3976  0.3734
 8600SOL    HW237437   1.002   0.985   6.757 -1.3284 -0.4776 -1.3739
 8601SOL     OW37438   1.274   3.844   5.153 -0.1317 -0.0043  0.0964
 8601SOL    HW137439   1.238   3.779   5.093 -2.2030  0.5002  0.7907
 8601SOL    HW237440   1.215   3.831   5.227 -0.1831  0.0512  0.0655
 8602SOL     OW37441   2.702   2.536  13.706  0.1439 -0.1762  0.3819
 8602SOL    HW137442   2.743   2.615  13.741 -0.4237 -0.4281  1.6158
 8602SOL    HW237443   2.630   2.579  13.660  1.3998 -2.2844 -3.4463
 8603SOL     OW37444   4.488   2.808   6.561 -0.2165 -0.3608 -0.0191
 8603SOL    HW137445   4.558   2.743   6.572  1.0363  0.4630 -3.0696
 8603SOL    HW237446   4.419   2.758   6.517 -0.0082 -1.5626  1.0132
 8604SOL     OW37447   1.971   2.021   6.332 -0.5337 -0.7774  0.0793
 8604SOL    HW137448   2.063   2.048   6.334 -0.6917 -0.1506 -1.7395
 8604SOL    HW237449   1.949   2.016   6.425 -3.0483  0.8615 -0.4419
 8605SOL     OW37450   3.309   0.276   3.108  0.3770 -0.3479  0.3301
 8605SOL    HW137451   3.243   0.325   3.059  1.6500  1.8559  0.8296
 8605SOL    HW237452   3.325   0.342   3.176 -2.7050 -0.1641  0.8894
 8606SOL     OW37453   2.466   1.492   2.479 -0.1153  0.5415  0.2353
 8606SOL    HW137454   2.536   1.426   2.472 -1.2634 -0.5715 -0.8172
 8606SOL    HW237455   2.392   1.432   2.487  0.9154 -0.3841  2.9838
 8607SOL     OW37456   2.671   3.990   8.988  0.1960  0.0347  0.3043
 8607SOL    HW137457   2.676   4.057   8.920 -0.3177  1.1574  1.3761
 8607SOL    HW237458   2.581   4.009   9.013 -0.2927  0.3603 -1.7019
 8608SOL     OW37459   0.703   0.940   2.560  0.2433 -0.0665 -0.0313
 8608SOL    HW137460   0.695   0.875   2.631  0.1660  0.1205  0.1308
 8608SOL    HW237461   0.689   0.888   2.481 -0.3491  0.2510 -0.1378
 8609SOL     OW37462   2.695   3.963   1.640 -0.2642 -0.0126  0.1826
 8609SOL    HW137463   2.685   3.978   1.734 -1.9446 -0.9912  0.1566
 8609SOL    HW237464   2.618   3.909   1.626  0.3775 -0.9065  0.1421
 8610SOL     OW37465   2.554   1.474  13.603 -0.1943  0.0484 -0.0606
 8610SOL    HW137466   2.514   1.400  13.648  0.2850 -0.7880 -1.0071
 8610SOL    HW237467   2.645   1.445  13.595 -0.2890  0.4519 -2.5147
 8611SOL     OW37468   2.721   3.511   7.227 -0.0646  0.1353  0.0579
 8611SOL    HW137469   2.782   3.438   7.223 -0.0040  0.2587 -1.3114
 8611SOL    HW237470   2.647   3.480   7.279  0.4489  1.3740  1.5106
 8612SOL     OW37471   4.038   2.424   4.434  0.2693 -0.1666  0.1793
 8612SOL    HW137472   4.069   2.478   4.506  1.0265  0.6676 -0.7768
 8612SOL    HW237473   4.081   2.341   4.455  0.6223  0.1270  0.6167
 8613SOL     OW37474   2.907   3.833   2.945  0.4462 -0.1804 -0.2277
 8613SOL    HW137475   2.998   3.821   2.920  0.8633  1.4069  0.5801
 8613SOL    HW237476   2.923   3.873   3.030 -0.7073  2.2920 -1.1864
 8614SOL     OW37477   3.351   4.108   7.077 -0.3252 -0.0825 -0.3127
 8614SOL    HW137478   3.314   4.031   7.118  1.2184  0.7995  2.7224
 8614SOL    HW237479   3.330   4.081   6.987 -0.0598 -2.3762  0.3249
 8615SOL     OW37480   1.242   1.831   8.313  0.2460  0.1308  0.4422
 8615SOL    HW137481   1.284   1.878   8.240  0.2816 -0.5508  0.0280
 8615SOL    HW237482   1.311   1.778   8.354 -3.9998 -3.7810  2.4859
 8616SOL     OW37483   1.815   3.574   2.907  0.0217 -0.5741 -0.4861
 8616SOL    HW137484   1.879   3.604   2.842  1.1973 -3.6795 -0.7751
 8616SOL    HW237485   1.853   3.618   2.983  2.0123  0.7289 -2.2476
 8617SOL     OW37486   2.414   2.947  11.609 -0.1475  0.5183 -0.0259
 8617SOL    HW137487   2.440   2.976  11.696 -1.0478  2.7408 -0.5099
 8617SOL    HW237488   2.471   2.871  11.595  0.1200  0.9359 -1.2336
 8618SOL     OW37489   1.562   0.182   3.983  0.1973  0.2603  0.5041
 8618SOL    HW137490   1.499   0.175   4.055 -0.3193 -2.0682 -0.1747
 8618SOL    HW237491   1.528   0.102   3.942 -0.3109  0.6272  0.2115
 8619SOL     OW37492   3.129   2.496   4.371 -0.0282  0.3493 -0.4490
 8619SOL    HW137493   3.159   2.417   4.326 -0.6879 -1.6682  2.6921
 8619SOL    HW237494   3.042   2.509   4.333 -1.2327 -2.0715  1.5340
 8620SOL     OW37495   1.005   1.138   0.750  0.0913 -0.1676 -0.3245
 8620SOL    HW137496   1.047   1.057   0.779 -0.8950 -1.3489 -2.1770
 8620SOL    HW237497   1.081   1.180   0.709 -0.5134  3.3170  2.1260
 8621SOL     OW37498   4.128   1.819  14.924  0.8453  0.0480 -0.5900
 8621SOL    HW137499   4.117   1.907  14.961 -0.7715 -0.2623 -0.2948
 8621SOL    HW237500   4.190   1.835  14.853 -0.3094  0.9585 -1.4113
 8622SOL     OW37501   2.665   2.973   5.066  0.1152  0.4838  0.3577
 8622SOL    HW137502   2.745   2.996   5.019 -0.6655 -2.3979 -2.3108
 8622SOL    HW237503   2.695   2.973   5.157 -0.0928  0.2607  0.4253
 8623SOL     OW37504   2.663   1.167  17.573  0.3717  0.0469  0.2402
 8623SOL    HW137505   2.638   1.093  17.628 -0.6791  0.4970  0.3698
 8623SOL    HW237506   2.715   1.225  17.629 -0.6875 -0.2075  1.4786
 8624SOL     OW37507   1.580   2.774   2.195 -0.4627 -0.0794  0.2824
 8624SOL    HW137508   1.513   2.834   2.228 -0.1605 -0.3270  1.3444
 8624SOL    HW237509   1.548   2.690   2.227 -2.1901  0.1021 -1.0253
 8625SOL     OW37510   0.954   4.640  16.518  0.1595 -0.2434  0.1715
 8625SOL    HW137511   0.952   4.731  16.487  0.0660 -0.0092  0.8662
 8625SOL    HW237512   1.012   4.637  16.594  2.9528  0.1630 -1.9010
 8626SOL     OW37513   2.121   4.528   7.008  0.2540  0.0864  0.4245
 8626SOL    HW137514   2.088   4.592   7.071 -0.7907  0.0875 -0.1199
 8626SOL    HW237515   2.080   4.450   7.044  0.3198  0.0144  0.3429
 8627SOL     OW37516   3.168   3.686   2.382 -0.1385  0.6692 -0.0113
 8627SOL    HW137517   3.198   3.755   2.323  2.7649  0.4391  1.2224
 8627SOL    HW237518   3.241   3.624   2.381 -1.1138 -0.4683 -0.7490
 8628SOL     OW37519   0.449   0.510  15.698  0.5622  0.6953  0.0467
 8628SOL    HW137520   0.452   0.595  15.653  0.7121  0.1761 -0.9385
 8628SOL    HW237521   0.435   0.538  15.788 -0.1106 -1.0139  0.4666
 8629SOL     OW37522   2.050   3.573   7.083 -0.0224  0.3118 -0.0548
 8629SOL    HW137523   2.140   3.598   7.061  0.7121 -0.7554  1.7771
 8629SOL    HW237524   2.030   3.524   7.003  0.6773 -1.0164  0.5826
 8630SOL     OW37525   0.817   3.803   8.132 -0.1071  0.7318 -0.6015
 8630SOL    HW137526   0.729   3.768   8.149  0.6727  1.5867  5.1874
 8630SOL    HW237527   0.814   3.871   8.199 -3.6799  0.1204 -0.1118
 8631SOL     OW37528   2.946   2.789   4.519 -0.0225 -0.1949  0.3544
 8631SOL    HW137529   2.961   2.781   4.425  1.7204  0.4751  0.5673
 8631SOL    HW237530   2.948   2.883   4.538 -0.6054 -0.2604  0.7237
 8632SOL     OW37531   1.233   1.918   4.628 -0.3232  0.4698  0.0277
 8632SOL    HW137532   1.289   1.995   4.637  0.4644 -0.0920 -0.0548
 8632SOL    HW237533   1.271   1.889   4.546 -3.2459  0.5937 -1.3783
 8633SOL     OW37534   4.132   3.227  12.955 -0.7561  0.4983  0.1252
 8633SOL    HW137535   4.223   3.255  12.955 -0.8928  0.9394  0.2160
 8633SOL    HW237536   4.117   3.197  13.044 -0.7282 -0.1627 -0.0938
 8634SOL     OW37537   3.629   0.394   5.290  0.1300  0.3458  0.2338
 8634SOL    HW137538   3.635   0.316   5.234 -0.3909 -0.9928  2.0754
 8634SOL    HW237539   3.700   0.373   5.351  2.8454 -1.8312 -3.6419
 8635SOL     OW37540   3.769   1.560   1.376 -0.1675 -0.3409 -0.0194
 8635SOL    HW137541   3.783   1.471   1.407  1.8503 -0.2785 -0.7749
 8635SOL    HW237542   3.853   1.600   1.398 -0.5604 -0.0445  0.9399
 8636SOL     OW37543   0.377   4.198   7.266 -0.5088  0.2978 -0.1374
 8636SOL    HW137544   0.328   4.117   7.278  0.0833 -0.3946 -2.3445
 8636SOL    HW237545   0.309   4.265   7.266 -1.6440 -0.8464  2.7999
 8637SOL     OW37546   2.727   3.311  11.660  0.5061  0.1229  0.3685
 8637SOL    HW137547   2.807   3.309  11.713  1.6634  0.7111 -1.3477
 8637SOL    HW237548   2.694   3.223  11.674  1.2778 -0.1050  0.7429
 8638SOL     OW37549   3.802   1.507  12.225  0.1508  0.6468  0.4024
 8638SOL    HW137550   3.861   1.432  12.228  1.4158  1.6068 -0.2492
 8638SOL    HW237551   3.791   1.509  12.130 -0.2432 -0.2580  0.4327
 8639SOL     OW37552   2.553   2.950   6.336  0.0804  0.6687  0.1927
 8639SOL    HW137553   2.525   2.894   6.264  1.9983  0.3601 -0.3060
 8639SOL    HW237554   2.639   2.921   6.366  0.5195  1.3707 -0.3688
 8640SOL     OW37555   2.049   1.310   8.131 -0.1289 -0.2867  0.0249
 8640SOL    HW137556   1.974   1.284   8.077  0.6685  0.2604 -1.3341
 8640SOL    HW237557   2.033   1.261   8.212 -0.8797 -0.4775 -0.2353
 8641SOL     OW37558   1.665   1.755  13.161 -0.1532 -0.2983 -0.0347
 8641SOL    HW137559   1.683   1.712  13.245  1.5093 -2.0514 -1.3061
 8641SOL    HW237560   1.752   1.751  13.122 -1.1329 -0.6747 -2.1720
 8642SOL     OW37561   3.986   4.379   9.666 -0.0989 -0.6114  0.3597
 8642SOL    HW137562   3.931   4.447   9.628  0.7305 -0.2638 -0.2189
 8642SOL    HW237563   3.915   4.340   9.716  0.2202  0.2541  1.5104
 8643SOL     OW37564   1.510   2.716  11.759  0.1544 -0.1036  0.1447
 8643SOL    HW137565   1.507   2.727  11.664  1.3988 -1.0923 -0.0023
 8643SOL    HW237566   1.558   2.795  11.783  0.1008 -0.2323  0.6850
 8644SOL     OW37567   2.928   3.333  11.313 -0.3897  0.5260 -0.3826
 8644SOL    HW137568   2.849   3.282  11.295  0.9698 -1.2941 -1.1591
 8644SOL    HW237569   2.893   3.410  11.356  0.3674  1.6545 -1.7984
 8645SOL     OW37570   3.305   3.755   5.924 -0.0376  0.3459 -0.4581
 8645SOL    HW137571   3.226   3.806   5.906 -0.3445 -0.1397 -0.5000
 8645SOL    HW237572   3.284   3.737   6.015 -2.5821 -1.9507 -1.5008
 8646SOL     OW37573   1.917   4.531   4.535  0.4460 -0.3359 -0.0816
 8646SOL    HW137574   2.007   4.549   4.507  0.6238 -1.8670 -0.4782
 8646SOL    HW237575   1.935   4.463   4.600  3.2208 -0.0968 -0.5721
 8647SOL     OW37576   0.144   3.200  11.116  0.6896  0.0214 -0.7803
 8647SOL    HW137577   0.108   3.241  11.038 -1.3084 -0.4227 -0.0975
 8647SOL    HW237578   0.215   3.150  11.075  0.5324  1.3531 -2.6643
 8648SOL     OW37579   3.303   0.152  11.744  0.0522  0.5781  0.6261
 8648SOL    HW137580   3.385   0.104  11.749 -1.3287 -1.7369  1.1285
 8648SOL    HW237581   3.242   0.084  11.773  0.8882 -0.3627  0.1896
 8649SOL     OW37582   1.446   1.110   1.850  0.0768 -0.4842  0.0052
 8649SOL    HW137583   1.468   1.169   1.778  0.3210  1.1827  1.4364
 8649SOL    HW237584   1.514   1.134   1.913 -0.1929  1.0591 -0.2940
 8650SOL     OW37585   1.514   0.107   1.864  0.2884 -0.2436  0.0846
 8650SOL    HW137586   1.536   0.189   1.908  0.1693 -0.4919  0.5987
 8650SOL    HW237587   1.434   0.078   1.907  1.0563  0.4076  1.9299
 8651SOL     OW37588   3.386   2.856  11.527  0.4648  0.9403 -0.3047
 8651SOL    HW137589   3.340   2.796  11.585 -1.0783  1.4739 -0.9704
 8651SOL    HW237590   3.322   2.927  11.516  0.7851  1.1729 -0.6513
 8652SOL     OW37591   4.217   2.209   7.899 -0.2572 -0.2701 -0.0014
 8652SOL    HW137592   4.124   2.224   7.915 -0.2832 -0.5930  0.1414
 8652SOL    HW237593   4.212   2.161   7.816  1.2823 -2.3698  1.1321
 8653SOL     OW37594   3.212   3.153  11.279  0.0851  0.5596  0.2598
 8653SOL    HW137595   3.133   3.110  11.246  0.1781  0.3299  0.3375
 8653SOL    HW237596   3.283   3.103  11.241 -0.8218 -0.6698  0.1954
 8654SOL     OW37597   4.251   4.480   3.045 -0.1436  0.0263  0.4831
 8654SOL    HW137598   4.182   4.481   2.978 -0.3434  2.0795  0.7205
 8654SOL    HW237599   4.233   4.567   3.081 -0.4545  0.3757 -0.5041
 8655SOL     OW37600   1.661   2.437  13.192  0.0239  0.0696  0.0983
 8655SOL    HW137601   1.663   2.439  13.288  0.3523  2.9177  0.0403
 8655SOL    HW237602   1.755   2.442  13.173  0.0895  1.7276  0.8748
 8656SOL     OW37603   0.201   2.704   6.284 -0.0451 -0.4321 -0.0523
 8656SOL    HW137604   0.135   2.771   6.303  0.9282  0.8190 -1.0886
 8656SOL    HW237605   0.157   2.658   6.213  0.1730  0.5946 -0.8559
 8657SOL     OW37606   3.855   3.062   2.651  0.7334 -0.3013  0.2688
 8657SOL    HW137607   3.944   3.066   2.616  0.4861  1.4561 -0.1423
 8657SOL    HW237608   3.846   3.157   2.659  0.0135 -0.5155  2.0449
 8658SOL     OW37609   2.321   0.582   6.010 -0.4036 -0.2983 -0.1876
 8658SOL    HW137610   2.305   0.503   6.062 -4.1456 -0.5023 -1.6251
 8658SOL    HW237611   2.248   0.637   6.039 -0.5333 -2.0622  2.7884
 8659SOL     OW37612   3.812   0.556   3.706 -0.0640 -0.3609  0.0494
 8659SOL    HW137613   3.737   0.616   3.709  0.6672  0.6520 -1.9350
 8659SOL    HW237614   3.784   0.501   3.633 -0.4413  1.6321 -1.2941
 8660SOL     OW37615   1.809   2.544  11.094  0.4036 -0.2155  0.2532
 8660SOL    HW137616   1.892   2.570  11.054 -1.1691  2.3404 -1.3289
 8660SOL    HW237617   1.804   2.609  11.164  0.7271  0.4478 -0.3360
 8661SOL     OW37618   4.679   3.666   9.975  0.4078 -0.2581  0.2322
 8661SOL    HW137619   4.637   3.583   9.953  0.1925  0.2720 -1.3651
 8661SOL    HW237620   4.722   3.637  10.055  1.2545 -0.3555 -0.2641
 8662SOL     OW37621   1.990   0.225   8.377  0.6442  0.4034 -0.2674
 8662SOL    HW137622   2.023   0.314   8.383  1.4226  0.2269 -2.0888
 8662SOL    HW237623   2.017   0.217   8.286 -0.5753  2.1139 -0.7805
 8663SOL     OW37624   3.996   0.970   7.720  0.1135 -0.1877  0.1310
 8663SOL    HW137625   4.063   1.035   7.700 -0.0175  0.9245  3.3397
 8663SOL    HW237626   3.924   0.997   7.663  0.2526  2.8354  1.3530
 8664SOL     OW37627   4.161   2.151   6.743 -0.1752  0.6868  0.3461
 8664SOL    HW137628   4.083   2.106   6.776  0.3863  0.1500  0.9349
 8664SOL    HW237629   4.206   2.170   6.825 -0.9402  2.2339  0.4016
 8665SOL     OW37630   3.817   3.196   3.407  0.1133 -0.9731 -0.4570
 8665SOL    HW137631   3.852   3.260   3.468 -2.6468  0.4260 -0.3128
 8665SOL    HW237632   3.873   3.122   3.430 -0.1511 -0.5452  1.5341
 8666SOL     OW37633   1.712   2.730   4.833 -0.4298 -0.3591 -0.4926
 8666SOL    HW137634   1.755   2.773   4.759 -2.2715  0.7720 -0.8988
 8666SOL    HW237635   1.656   2.802   4.865  2.9861  1.8483  0.5711
 8667SOL     OW37636   3.069   3.673   7.803 -0.1243 -0.7931  0.3281
 8667SOL    HW137637   2.977   3.685   7.825 -0.1219 -0.3081  0.0760
 8667SOL    HW237638   3.055   3.723   7.722 -0.5248 -0.6008  0.5150
 8668SOL     OW37639   2.495   4.642   5.776 -0.6292 -0.6882 -0.2895
 8668SOL    HW137640   2.474   4.555   5.743 -1.3763 -1.0781  1.2007
 8668SOL    HW237641   2.405   4.672   5.790 -0.5647  0.7889 -3.1105
 8669SOL     OW37642   4.099   2.998   7.013 -0.0855 -0.4274  0.1756
 8669SOL    HW137643   4.047   2.961   6.942 -0.5273  1.5829 -0.5284
 8669SOL    HW237644   4.187   2.962   7.000 -0.9184 -1.8170 -1.4935
 8670SOL     OW37645   2.121   3.604   6.331  0.4335  0.7912 -0.2433
 8670SOL    HW137646   2.166   3.578   6.411 -0.9358 -0.3596  0.1451
 8670SOL    HW237647   2.144   3.696   6.342  1.3429  0.3703  1.3813
 8671SOL     OW37648   0.655   3.110  12.392 -0.3241  0.4724 -0.0529
 8671SOL    HW137649   0.713   3.041  12.423 -0.4417 -0.1257 -1.1697
 8671SOL    HW237650   0.591   3.058  12.343  1.4103 -1.0742 -0.6540
 8672SOL     OW37651   2.736   2.097   5.375  0.2935  0.4100 -0.4548
 8672SOL    HW137652   2.692   2.116   5.458 -0.1335 -0.8379 -0.3875
 8672SOL    HW237653   2.810   2.042   5.400  0.2383  0.8153  0.5810
 8673SOL     OW37654   1.904   3.191   2.270 -0.3674 -0.4905 -0.2025
 8673SOL    HW137655   1.991   3.211   2.235 -1.5638  1.8850 -1.8696
 8673SOL    HW237656   1.854   3.260   2.224 -1.5000 -1.7524 -0.8596
 8674SOL     OW37657   0.504   0.937   4.482  0.1303 -0.4402  0.2301
 8674SOL    HW137658   0.587   0.980   4.501  0.2326 -0.7982  0.5872
 8674SOL    HW237659   0.529   0.854   4.522  1.2093 -0.6315 -0.8196
 8675SOL     OW37660   1.533   3.176   5.355  0.1316 -0.6870  0.2876
 8675SOL    HW137661   1.446   3.169   5.316 -0.3036  0.8107  1.0112
 8675SOL    HW237662   1.533   3.115   5.429  2.3755 -1.1123 -0.0552
 8676SOL     OW37663   4.132   0.057   1.666  0.4797  0.1186  0.6902
 8676SOL    HW137664   4.173   4.726   1.611 -0.8131 -0.9189  0.9713
 8676SOL    HW237665   4.063   0.085   1.606 -0.5510  0.2545  1.9261
 8677SOL     OW37666   4.330   1.299  14.280  0.3595 -0.1545 -0.2652
 8677SOL    HW137667   4.318   1.384  14.238 -0.2909  0.6445  1.5397
 8677SOL    HW237668   4.240   1.280  14.307  0.9461 -0.5007  1.4191
 8678SOL     OW37669   4.530   3.258   7.296  0.4651 -0.5668  0.2482
 8678SOL    HW137670   4.512   3.315   7.371 -4.0509 -2.7749  0.8455
 8678SOL    HW237671   4.499   3.178   7.340  0.9185 -0.1228  1.3825
 8679SOL     OW37672   2.225   3.267   9.719  0.3902 -0.8722  0.0339
 8679SOL    HW137673   2.193   3.300   9.635  1.5033  1.8848  0.6923
 8679SOL    HW237674   2.271   3.188   9.693 -0.7378 -1.8548  1.0179
 8680SOL     OW37675   3.162   0.914   0.891  1.0467  0.1181  0.0262
 8680SOL    HW137676   3.116   0.921   0.807  0.0436 -0.3851  0.5364
 8680SOL    HW237677   3.122   0.836   0.930 -1.4873  1.8377  0.8486
 8681SOL     OW37678   0.743   0.641   1.574 -0.0275  0.1666  0.0315
 8681SOL    HW137679   0.703   0.606   1.654 -1.5028 -0.4089 -0.9593
 8681SOL    HW237680   0.775   0.726   1.604 -1.5637  1.0323 -0.7916
 8682SOL     OW37681   2.519   2.440   9.909  0.1990 -0.1116 -0.0268
 8682SOL    HW137682   2.534   2.384   9.985 -0.8633 -0.3069  0.0313
 8682SOL    HW237683   2.488   2.521   9.950 -0.3908 -0.4950  0.2864
 8683SOL     OW37684   3.305   3.671   5.664 -0.3931  0.5734 -0.6164
 8683SOL    HW137685   3.317   3.576   5.670  1.2837  0.8069 -0.4191
 8683SOL    HW237686   3.302   3.707   5.752  1.4813 -0.2329 -0.2291
 8684SOL     OW37687   1.168   3.358   0.770  0.4818 -0.0724  0.3104
 8684SOL    HW137688   1.091   3.405   0.802 -0.4264 -0.7192 -0.9569
 8684SOL    HW237689   1.180   3.293   0.839  1.0208  2.2114  2.4163
 8685SOL     OW37690   3.325   4.730  10.945  0.4128  0.3295 -0.0719
 8685SOL    HW137691   3.404   0.033  10.983 -0.3596  0.6413  1.2441
 8685SOL    HW237692   3.301   4.668  11.015 -0.1939  0.7496  0.0973
 8686SOL     OW37693   0.018   3.934   1.843 -0.6458 -0.7196 -0.0917
 8686SOL    HW137694   0.020   3.848   1.802  0.0153 -0.5388 -0.4476
 8686SOL    HW237695   0.069   3.985   1.780  0.6949  0.3206  1.8147
 8687SOL     OW37696   2.438   3.982   8.614  0.3036  0.1400  0.0288
 8687SOL    HW137697   2.435   3.995   8.519 -0.3100 -0.3171 -0.0158
 8687SOL    HW237698   2.431   4.071   8.646 -0.2120  0.1398 -0.0675
 8688SOL     OW37699   4.735   4.596   9.440  0.1462  0.0192 -0.3583
 8688SOL    HW137700   0.086   4.585   9.400  0.8141 -2.9070  1.9652
 8688SOL    HW237701   0.018   4.683   9.476 -1.6370  0.9956 -1.7730
 8689SOL     OW37702   3.245   1.863   7.003  0.2144  0.0919  0.2841
 8689SOL    HW137703   3.160   1.821   7.012 -0.3263  0.9376 -0.7872
 8689SOL    HW237704   3.279   1.815   6.928 -1.9110 -1.2347  0.1736
 8690SOL     OW37705   0.882   0.214  12.324  0.0673  0.7460 -0.6760
 8690SOL    HW137706   0.913   0.126  12.344  0.1245  1.0151  0.4217
 8690SOL    HW237707   0.955   0.271  12.347  0.8567 -0.4394 -0.2782
 8691SOL     OW37708   3.267   1.756   3.334 -0.4884  0.0885 -0.3696
 8691SOL    HW137709   3.228   1.840   3.358  0.4268  0.8459 -1.4975
 8691SOL    HW237710   3.299   1.734   3.422  2.1871  0.7237 -1.1686
 8692SOL     OW37711   1.591   1.219   6.952 -0.4956  0.4579  0.6919
 8692SOL    HW137712   1.664   1.225   7.013 -0.1735 -0.0227  0.3578
 8692SOL    HW237713   1.542   1.301   6.955 -0.2802  0.6262 -0.4373
 8693SOL     OW37714   1.334   1.523   4.332  0.8263  0.1287 -0.0856
 8693SOL    HW137715   1.373   1.480   4.408 -2.4094  1.1963  2.2126
 8693SOL    HW237716   1.325   1.612   4.367 -1.7283 -0.2968  0.3098
 8694SOL     OW37717   1.863   0.418  12.297  0.2175 -0.3152 -0.3637
 8694SOL    HW137718   1.942   0.405  12.244  1.1495 -1.4194  1.2997
 8694SOL    HW237719   1.825   0.497  12.258  0.6227 -0.9590 -2.0492
 8695SOL     OW37720   2.817   2.688   7.375  0.6566  0.0801 -0.0504
 8695SOL    HW137721   2.797   2.608   7.327 -0.4094  0.2646  0.0894
 8695SOL    HW237722   2.881   2.735   7.321 -0.3575 -2.3469 -3.3211
 8696SOL     OW37723   4.603   3.805   5.605  0.0440  0.1258 -0.1517
 8696SOL    HW137724   4.533   3.742   5.625 -0.9414  1.4972  0.7243
 8696SOL    HW237725   4.556   3.888   5.612  1.9385  1.0959  1.1646
 8697SOL     OW37726   4.165   4.592  14.913 -0.4461  0.6228 -0.6848
 8697SOL    HW137727   4.199   4.557  14.831 -1.1650 -0.1492 -0.6621
 8697SOL    HW237728   4.226   4.560  14.979  0.7991  0.5859 -1.8549
 8698SOL     OW37729   4.105   0.239   1.154  0.1792 -0.4794 -0.2466
 8698SOL    HW137730   4.129   0.218   1.244  2.1312 -0.8617 -0.8522
 8698SOL    HW237731   4.085   0.331   1.172 -1.4543 -0.8871 -0.0416
 8699SOL     OW37732   0.727   1.821   5.014  0.1687  0.0598  0.5084
 8699SOL    HW137733   0.735   1.733   4.977 -0.4527  0.0572  0.3794
 8699SOL    HW237734   0.650   1.859   4.973  0.6846  0.0548 -0.4530
 8700SOL     OW37735   2.203   2.619  15.614  0.2753  0.5701 -0.7877
 8700SOL    HW137736   2.289   2.590  15.581  0.6961  2.1222 -1.0724
 8700SOL    HW237737   2.142   2.546  15.605 -1.8115  1.8284  3.3657
 8701SOL     OW37738   3.177   1.142   6.697 -0.4151 -0.2153 -0.9971
 8701SOL    HW137739   3.175   1.234   6.670 -0.8139 -0.0703 -0.4658
 8701SOL    HW237740   3.224   1.105   6.623  2.4247  1.2755  0.0723
 8702SOL     OW37741   1.765   4.557   2.055 -0.0795 -1.0996  0.4348
 8702SOL    HW137742   1.758   4.503   2.133 -0.3798 -1.5297  0.1078
 8702SOL    HW237743   1.731   4.634   2.102 -0.4446 -1.8936  1.4646
 8703SOL     OW37744   0.751   1.207   6.718  0.4495  0.6461  0.5288
 8703SOL    HW137745   0.829   1.157   6.741 -0.6077 -1.0492  0.4466
 8703SOL    HW237746   0.778   1.294   6.690  0.5045  1.1972  2.3466
 8704SOL     OW37747   3.430   1.122   4.377 -0.2392 -0.0734  0.5475
 8704SOL    HW137748   3.344   1.133   4.419 -1.0188  0.3396 -1.1395
 8704SOL    HW237749   3.468   1.205   4.405 -0.1516 -0.3125  1.1363
 8705SOL     OW37750   3.368   2.284   2.838  0.2594 -0.3040  0.1893
 8705SOL    HW137751   3.343   2.270   2.747 -2.4076 -0.7839  0.9958
 8705SOL    HW237752   3.397   2.195   2.855  2.0463 -0.3020 -2.8297
 8706SOL     OW37753   3.929   1.867  13.367  0.2856 -0.1741 -0.0519
 8706SOL    HW137754   3.953   1.901  13.281  2.8332  1.6289  1.3615
 8706SOL    HW237755   3.835   1.872  13.351  0.1962 -1.2506  0.1266
 8707SOL     OW37756   2.581   3.281   4.763  0.5201  0.4104  0.0581
 8707SOL    HW137757   2.535   3.198   4.775 -0.7769  1.1567  0.3072
 8707SOL    HW237758   2.517   3.347   4.789  0.5024  0.8748 -1.1567
 8708SOL     OW37759   0.916   3.798   1.658 -0.5478 -0.6231  0.5147
 8708SOL    HW137760   0.843   3.739   1.672  0.9471 -2.8325 -0.9457
 8708SOL    HW237761   0.884   3.868   1.715  1.5737  1.3989 -0.8111
 8709SOL     OW37762   2.759   3.317   8.958  0.2905 -0.2163 -0.4410
 8709SOL    HW137763   2.843   3.354   8.931 -1.4851  2.3694 -2.4043
 8709SOL    HW237764   2.765   3.315   9.054 -1.4329 -1.8658 -0.3681
 8710SOL     OW37765   2.395   4.600   1.526 -0.0164 -0.9102 -0.4840
 8710SOL    HW137766   2.434   4.681   1.558 -0.3253 -0.6585 -0.7566
 8710SOL    HW237767   2.305   4.593   1.560 -0.4303  1.6949 -1.0369
 8711SOL     OW37768   2.429   2.429  15.773 -0.8127  0.2218  0.1475
 8711SOL    HW137769   2.500   2.387  15.822 -0.4416  0.9229  0.2087
 8711SOL    HW237770   2.476   2.509  15.747  0.4099 -0.7257 -0.5921
 8712SOL     OW37771   0.979   0.889  17.463 -0.5383  0.8540 -0.0802
 8712SOL    HW137772   1.042   0.825  17.497 -1.4345 -1.1309 -2.1470
 8712SOL    HW237773   1.046   0.956  17.452  1.8383 -1.4234  0.4459
 8713SOL     OW37774   1.982   2.647   2.861 -0.3028 -0.0822  0.0333
 8713SOL    HW137775   1.969   2.596   2.781 -0.0164 -1.1781  0.6855
 8713SOL    HW237776   2.078   2.650   2.857 -0.3834 -1.5316 -3.4968
 8714SOL     OW37777   1.860   1.861  14.971 -0.4971  0.0970  0.6364
 8714SOL    HW137778   1.897   1.781  15.008 -1.8153 -0.2655  1.1894
 8714SOL    HW237779   1.911   1.874  14.891  1.0184 -0.0471  1.5871
 8715SOL     OW37780   0.826   3.953   6.613 -0.3795 -0.6614 -0.2930
 8715SOL    HW137781   0.732   3.960   6.596 -0.5291 -0.9350  0.3981
 8715SOL    HW237782   0.847   4.045   6.598 -0.4611 -0.4479  0.8797
 8716SOL     OW37783   0.528   2.276   6.776 -0.2089  0.0494  0.4951
 8716SOL    HW137784   0.575   2.350   6.737  1.0705  0.1791  2.2758
 8716SOL    HW237785   0.601   2.222   6.806 -0.2270  0.2104  0.8330
 8717SOL     OW37786   0.424   0.649   6.077 -0.4130 -0.2832 -0.3547
 8717SOL    HW137787   0.458   0.734   6.105  0.4140  0.1274 -2.6321
 8717SOL    HW237788   0.506   0.613   6.044  0.2482  1.3938 -0.5550
 8718SOL     OW37789   1.607   4.084   2.277  0.2587 -0.1151  0.1852
 8718SOL    HW137790   1.575   4.074   2.366 -0.5957  0.9417 -0.0014
 8718SOL    HW237791   1.610   4.179   2.264  2.4017 -0.8464 -4.8748
 8719SOL     OW37792   3.567   4.221   7.724  0.0233  0.1542 -0.2715
 8719SOL    HW137793   3.542   4.296   7.669  0.7669  0.9053  0.4136
 8719SOL    HW237794   3.662   4.221   7.716  0.0109  0.1067 -0.4246
 8720SOL     OW37795   3.514   2.454  17.040  0.4244  0.0307  0.1732
 8720SOL    HW137796   3.539   2.511  16.967  0.9547 -2.0766 -1.3236
 8720SOL    HW237797   3.464   2.508  17.101 -1.1432  1.2850 -2.2392
 8721SOL     OW37798   0.211   1.949   2.302 -0.5526  0.1318  0.2716
 8721SOL    HW137799   0.146   1.887   2.335 -0.2609  1.2627  2.9478
 8721SOL    HW237800   0.171   2.027   2.340 -1.5590  0.1349 -0.7825
 8722SOL     OW37801   0.163   2.049   1.929 -0.0469  0.9276  0.3893
 8722SOL    HW137802   0.244   2.065   1.978  1.7228 -1.4766 -1.7619
 8722SOL    HW237803   0.172   2.095   1.845 -4.8987 -1.6510 -1.5557
 8723SOL     OW37804   2.402   4.385   3.642  0.1076  0.3626 -0.3424
 8723SOL    HW137805   2.405   4.319   3.712  2.0779  0.5179 -0.2751
 8723SOL    HW237806   2.492   4.384   3.609  0.7187  1.4194  1.2796
 8724SOL     OW37807   0.429   2.941   6.799 -0.1074 -0.2444 -0.4522
 8724SOL    HW137808   0.470   2.863   6.762  1.2432  0.3603 -0.1904
 8724SOL    HW237809   0.464   2.955   6.887 -3.2925 -0.8768  0.9375
 8725SOL     OW37810   1.816   0.320   6.909  0.3257  0.8796  0.1141
 8725SOL    HW137811   1.756   0.372   6.855  0.8102 -0.1608 -1.3989
 8725SOL    HW237812   1.903   0.341   6.877  0.7691 -1.0333  0.0686
 8726SOL     OW37813   0.466   1.953   3.993 -0.1973 -0.4864  0.8935
 8726SOL    HW137814   0.508   2.038   3.987  0.7364 -0.9295  1.2074
 8726SOL    HW237815   0.542   1.901   3.967 -0.8930 -0.5300 -1.0746
 8727SOL     OW37816   1.469   4.399   3.458  0.1438 -0.5810  0.2706
 8727SOL    HW137817   1.511   4.441   3.383  0.6328 -2.9885 -0.8331
 8727SOL    HW237818   1.435   4.320   3.416  0.3937 -1.5441  1.8638
 8728SOL     OW37819   1.209   0.012  12.939 -0.2037 -0.1374  0.1989
 8728SOL    HW137820   1.152   0.089  12.938 -1.9110 -1.3334  2.7929
 8728SOL    HW237821   1.147   4.694  12.989  0.6825 -0.7409  0.6426
 8729SOL     OW37822   3.402   3.917  16.320 -0.3397 -1.0746  0.2927
 8729SOL    HW137823   3.353   3.835  16.313  1.1084 -1.9518  0.3095
 8729SOL    HW237824   3.330   3.975  16.344  0.7340 -0.0489  1.0201
 8730SOL     OW37825   2.017   1.967   1.981  0.0100 -0.1636  0.3685
 8730SOL    HW137826   2.110   1.990   1.980  0.0134 -0.1617  1.0966
 8730SOL    HW237827   2.017   1.880   1.939 -1.9938 -0.3334  0.7187
 8731SOL     OW37828   0.665   0.057   3.049  0.1916 -0.2211  0.4586
 8731SOL    HW137829   0.585   0.104   3.073  0.9227  1.7067 -0.8391
 8731SOL    HW237830   0.713   0.118   2.993  3.0308 -1.8415  1.0820
 8732SOL     OW37831   2.761   1.127   1.023  0.3078 -0.1595  0.6374
 8732SOL    HW137832   2.767   1.222   1.012  0.6677 -0.6172 -2.9345
 8732SOL    HW237833   2.847   1.103   0.990 -0.2146 -0.3240 -0.6144
 8733SOL     OW37834   2.252   3.942   4.631  0.0181 -0.4778  0.2629
 8733SOL    HW137835   2.219   4.005   4.694  0.7139  0.2256 -0.0759
 8733SOL    HW237836   2.334   3.984   4.605  1.3860 -3.3852 -0.1794
 8734SOL     OW37837   2.224   0.718   8.976  0.1907 -0.0938  0.5929
 8734SOL    HW137838   2.169   0.734   9.053 -0.7536 -0.4762 -0.0010
 8734SOL    HW237839   2.156   0.682   8.918  0.0997  0.0890  0.5872
 8735SOL     OW37840   3.695   3.862  14.602  0.0259 -0.4998  0.9703
 8735SOL    HW137841   3.773   3.882  14.653  2.1898  0.0824 -2.5778
 8735SOL    HW237842   3.703   3.767  14.591  0.0570 -0.1250 -2.4527
 8736SOL     OW37843   2.877   0.749   7.017  0.2525 -0.7133 -0.3871
 8736SOL    HW137844   2.843   0.663   7.042 -0.7013 -0.1919  0.1461
 8736SOL    HW237845   2.962   0.731   6.979  0.6948  1.4666 -0.4569
 8737SOL     OW37846   0.726   4.671   3.577  0.4905 -0.8613  0.4468
 8737SOL    HW137847   0.780   0.007   3.544 -0.1706 -0.5525  0.0431
 8737SOL    HW237848   0.772   4.649   3.658 -0.7807 -0.1729  1.3495
 8738SOL     OW37849   2.435   2.350  11.877  0.2635 -0.1967  0.2807
 8738SOL    HW137850   2.401   2.370  11.965 -1.2004  1.6611 -0.6728
 8738SOL    HW237851   2.491   2.427  11.863 -1.2192  0.5442 -1.6174
 8739SOL     OW37852   3.890   4.626  15.015 -0.1844  0.2209 -0.6932
 8739SOL    HW137853   3.893   4.578  15.098  1.0441  1.5367  0.0361
 8739SOL    HW237854   3.981   4.635  14.985  0.2103 -0.9427  0.1557
 8740SOL     OW37855   0.664   2.301   1.443  0.2783 -0.0213  0.1356
 8740SOL    HW137856   0.652   2.243   1.368  2.6993 -1.2166  0.6651
 8740SOL    HW237857   0.759   2.293   1.451  0.1667 -0.1637  1.2766
 8741SOL     OW37858   3.142   0.964  13.843  0.1508  0.0218 -0.0569
 8741SOL    HW137859   3.077   1.032  13.826  0.9788  0.8970  0.2909
 8741SOL    HW237860   3.123   0.898  13.776  1.1710  1.5145 -1.8137
 8742SOL     OW37861   1.868   4.661  11.244 -0.1753  0.2055 -0.0086
 8742SOL    HW137862   1.884   4.731  11.307  2.7089  2.4458 -3.1896
 8742SOL    HW237863   1.870   4.715  11.165 -2.9262  0.8942  0.3817
 8743SOL     OW37864   1.525   1.492   1.633  0.4641 -0.4314  0.0353
 8743SOL    HW137865   1.561   1.449   1.711  0.4928  1.7463  1.2350
 8743SOL    HW237866   1.502   1.413   1.584 -1.1320  0.3737 -0.4875
 8744SOL     OW37867   4.227   3.716   5.365  0.0368 -0.0291  0.1698
 8744SOL    HW137868   4.179   3.706   5.283  0.7136 -0.6307 -0.1551
 8744SOL    HW237869   4.315   3.691   5.336 -0.6908 -1.0375 -1.1931
 8745SOL     OW37870   1.426   4.491  12.765 -0.3226 -0.2214  0.7715
 8745SOL    HW137871   1.418   4.526  12.676  1.3841 -0.5495  0.4824
 8745SOL    HW237872   1.387   4.406  12.747  1.2740 -0.3631 -2.0068
 8746SOL     OW37873   1.228   1.841   3.429  0.6153 -0.0726 -0.0862
 8746SOL    HW137874   1.284   1.801   3.494  1.3168 -0.1860 -0.7564
 8746SOL    HW237875   1.242   1.935   3.442  4.2005 -0.4605 -1.1797
 8747SOL     OW37876   1.633   1.503  15.642  0.5687 -0.3045 -0.0828
 8747SOL    HW137877   1.719   1.478  15.608 -0.8025 -1.0317 -2.9772
 8747SOL    HW237878   1.588   1.526  15.561  0.1085  1.2489  0.6054
 8748SOL     OW37879   3.718   2.142   7.080 -0.4360 -0.2305 -0.0008
 8748SOL    HW137880   3.767   2.079   7.132  1.6203  1.1843 -0.2297
 8748SOL    HW237881   3.783   2.212   7.085  1.1997 -1.7087 -0.8055
 8749SOL     OW37882   2.456   3.654   3.713 -0.4575 -1.0350 -0.1589
 8749SOL    HW137883   2.468   3.748   3.722  2.3996 -1.4938  0.6434
 8749SOL    HW237884   2.443   3.634   3.620 -0.2291 -0.3759 -0.3314
 8750SOL     OW37885   4.231   3.713   2.459 -0.1489 -0.5134  0.5676
 8750SOL    HW137886   4.200   3.623   2.469 -0.0672 -0.6940 -0.7736
 8750SOL    HW237887   4.223   3.720   2.364  0.8591  0.5109  0.5601
 8751SOL     OW37888   1.701   4.474   4.246  0.0301 -0.6032 -0.3931
 8751SOL    HW137889   1.687   4.405   4.311 -0.3225 -0.5096 -0.3689
 8751SOL    HW237890   1.765   4.429   4.190  0.2374  2.0070 -2.2892
 8752SOL     OW37891   3.558   4.528  14.548  0.5522  0.3308 -0.2136
 8752SOL    HW137892   3.479   4.478  14.527 -0.6894  2.2544 -0.1681
 8752SOL    HW237893   3.614   4.501  14.475  0.5811  1.6839 -0.6922
 8753SOL     OW37894   1.861   3.445   5.473  0.4035 -0.3280 -0.2833
 8753SOL    HW137895   1.774   3.440   5.513  0.5038 -0.0928 -0.0381
 8753SOL    HW237896   1.830   3.424   5.385 -4.2185 -0.7914  1.3979
 8754SOL     OW37897   4.356   3.337   9.387  0.0123  0.4640  0.4768
 8754SOL    HW137898   4.350   3.256   9.437  0.4152 -0.9164 -1.7282
 8754SOL    HW237899   4.286   3.389   9.427  0.8262  2.3251 -0.5110
 8755SOL     OW37900   4.184   3.337   2.972 -0.0405  0.4714 -0.3248
 8755SOL    HW137901   4.140   3.310   3.052  0.5224 -0.4798 -0.3328
 8755SOL    HW237902   4.206   3.252   2.934 -0.1630  0.5762 -0.6312
 8756SOL     OW37903   4.361   0.195   0.698 -0.1552 -1.1263 -0.0042
 8756SOL    HW137904   4.285   0.253   0.701  0.1725 -0.6563 -0.8262
 8756SOL    HW237905   4.348   0.141   0.620  0.8949 -1.7751  0.2644
 8757SOL     OW37906   2.079   2.133   4.693 -0.2685 -0.3979 -0.0915
 8757SOL    HW137907   2.113   2.052   4.657  1.0357  0.3994 -0.6602
 8757SOL    HW237908   1.990   2.115   4.722 -0.4948  1.1361  0.1844
 8758SOL     OW37909   3.427   4.729   5.120  0.1798  0.0764 -0.2123
 8758SOL    HW137910   3.517   0.016   5.141  0.2807  0.4752 -1.0778
 8758SOL    HW237911   3.407   4.657   5.180 -2.6127  0.0271 -1.1601
 8759SOL     OW37912   0.307   2.520   6.576  0.3511 -0.2953 -0.0534
 8759SOL    HW137913   0.214   2.530   6.598  0.4359  0.0789  0.1321
 8759SOL    HW237914   0.319   2.486   6.487 -1.2389 -0.5737 -0.1672
 8760SOL     OW37915   1.698   2.419   0.727 -0.4281  0.6322  0.3770
 8760SOL    HW137916   1.693   2.495   0.668  1.4790  0.3982 -0.0778
 8760SOL    HW237917   1.683   2.339   0.677 -0.2513  0.5327  0.4838
 8761SOL     OW37918   1.309   3.725   8.343 -0.0688 -0.5812  0.5666
 8761SOL    HW137919   1.367   3.658   8.306  0.0953  0.0839 -0.3807
 8761SOL    HW237920   1.247   3.722   8.271  3.0080 -0.9226 -2.0662
 8762SOL     OW37921   3.849   1.852  15.473 -0.1145 -0.1222 -0.1242
 8762SOL    HW137922   3.814   1.941  15.475 -0.4804 -0.3103  1.9531
 8762SOL    HW237923   3.770   1.799  15.455  0.9412 -1.6983 -0.1149
 8763SOL     OW37924   2.782   2.852   7.843 -0.3461  0.1186  0.1785
 8763SOL    HW137925   2.810   2.765   7.871  0.2724  0.3830  0.3680
 8763SOL    HW237926   2.818   2.902   7.916 -0.0223 -0.1586  0.2057
 8764SOL     OW37927   3.465   3.217   3.953  0.1557 -0.0568  0.9441
 8764SOL    HW137928   3.551   3.258   3.947 -0.0609  0.1709 -0.7613
 8764SOL    HW237929   3.418   3.252   3.878  1.1052 -0.9790 -0.0839
 8765SOL     OW37930   0.249   3.621  13.037  0.7544 -0.2942  0.2103
 8765SOL    HW137931   0.193   3.692  13.005  1.9098 -0.6402 -2.5703
 8765SOL    HW237932   0.220   3.544  12.989  0.9164  0.5879 -1.2933
 8766SOL     OW37933   2.280   4.708   7.546  0.1900  0.1828 -0.2764
 8766SOL    HW137934   2.318   0.031   7.612 -2.1876  1.3593  0.0512
 8766SOL    HW237935   2.366   4.690   7.506 -0.3298 -0.5162 -1.0656
 8767SOL     OW37936   0.071   3.154  13.438  0.3234  0.9049 -0.3833
 8767SOL    HW137937   0.079   3.066  13.401 -4.3879  0.0524  0.5504
 8767SOL    HW237938   4.722   3.142  13.482  0.7998  2.6062  0.9842
 8768SOL     OW37939   1.215   1.849   5.105 -0.0549 -0.7070  0.0086
 8768SOL    HW137940   1.289   1.790   5.119  0.4615 -0.5357 -2.0449
 8768SOL    HW237941   1.190   1.821   5.017 -2.2018  1.0555  0.0397
 8769SOL     OW37942   3.886   3.079   6.713 -0.7426  0.1046 -0.3830
 8769SOL    HW137943   3.949   3.136   6.668  0.9040  0.5039  2.4732
 8769SOL    HW237944   3.939   3.000   6.720  0.3573  0.9678  1.0139
 8770SOL     OW37945   2.929   1.149   0.353 -0.0912  0.0144 -0.5987
 8770SOL    HW137946   2.849   1.200   0.338 -0.8538 -0.3351  2.2359
 8770SOL    HW237947   2.976   1.197   0.422 -3.2253  2.0129  0.1463
 8771SOL     OW37948   3.246   2.475  16.633 -0.4209  0.4617 -0.2079
 8771SOL    HW137949   3.312   2.543  16.620 -1.3658  1.2997 -0.5834
 8771SOL    HW237950   3.312   2.410  16.655  1.4627  2.3579 -0.2260
 8772SOL     OW37951   1.577   2.502  15.707  0.8155 -0.5636 -0.1992
 8772SOL    HW137952   1.603   2.515  15.798 -3.9029 -0.9122  1.1670
 8772SOL    HW237953   1.482   2.511  15.717  1.3668  2.1085  2.5543
 8773SOL     OW37954   3.049   1.544  16.474  0.6322  0.7535 -0.6041
 8773SOL    HW137955   3.097   1.627  16.470  0.9328  0.4970 -2.1138
 8773SOL    HW237956   3.031   1.531  16.568  1.4229  2.2836 -0.2479
 8774SOL     OW37957   1.921   4.033   4.532  0.3785 -0.0833 -0.2381
 8774SOL    HW137958   1.999   4.007   4.482  0.1826 -0.8202 -0.1539
 8774SOL    HW237959   1.859   4.055   4.463 -1.2189  2.0957  1.8915
 8775SOL     OW37960   3.045   3.893  16.210 -0.1249 -0.3917 -0.4601
 8775SOL    HW137961   2.995   3.931  16.283 -0.6827 -0.0973 -0.9957
 8775SOL    HW237962   2.976   3.860  16.153 -1.5923  1.8592 -0.0017
 8776SOL     OW37963   4.724   2.033   5.291 -0.2669  0.2534  0.1419
 8776SOL    HW137964   4.685   2.036   5.203 -0.5570 -1.0705  0.2362
 8776SOL    HW237965   4.644   2.056   5.338 -0.7250  1.4541 -1.2153
 8777SOL     OW37966   0.438   2.590   3.552 -0.0986 -0.9972  0.6508
 8777SOL    HW137967   0.379   2.664   3.559 -1.1592 -1.7441 -0.3802
 8777SOL    HW237968   0.386   2.520   3.591 -1.5045  0.3646  1.1895
 8778SOL     OW37969   4.399   3.169   2.717 -0.3588  0.2094  0.0098
 8778SOL    HW137970   4.354   3.209   2.644  1.8179 -0.1967 -1.5570
 8778SOL    HW237971   4.428   3.250   2.760 -0.5844 -0.9746  2.3960
 8779SOL     OW37972   2.569   0.470  11.575  0.4819  0.4385 -0.4528
 8779SOL    HW137973   2.541   0.381  11.556  0.5850  0.2545  0.2592
 8779SOL    HW237974   2.516   0.500  11.649  0.2584  2.2303 -1.3285
 8780SOL     OW37975   1.461   2.604   6.295 -0.2159 -0.0790  0.3685
 8780SOL    HW137976   1.444   2.656   6.373  0.2258  2.0035 -0.9241
 8780SOL    HW237977   1.536   2.646   6.252 -0.7632  0.5959  0.0660
 8781SOL     OW37978   1.340   4.410   0.457 -0.0704 -0.0871 -0.1966
 8781SOL    HW137979   1.282   4.470   0.411  0.5375 -0.8258 -1.9181
 8781SOL    HW237980   1.291   4.328   0.444  2.6500 -2.1497  2.3786
 8782SOL     OW37981   2.577   3.593   6.988 -0.4264  0.3413  0.1541
 8782SOL    HW137982   2.599   3.506   7.019  2.7474  0.7542 -0.9396
 8782SOL    HW237983   2.606   3.639   7.067  0.2522  0.5620 -0.2203
 8783SOL     OW37984   4.453   1.858   4.936  0.0277  0.3335  0.4900
 8783SOL    HW137985   4.452   1.777   4.988 -0.0859 -1.3169 -2.1018
 8783SOL    HW237986   4.436   1.819   4.851 -1.2393 -3.0148  2.2604
 8784SOL     OW37987   3.236   2.247   0.199  0.2374 -0.1706 -0.1138
 8784SOL    HW137988   3.319   2.201   0.214 -0.9640 -2.7929 -1.6428
 8784SOL    HW237989   3.274   2.330   0.228 -1.3056  0.7234 -0.6806
 8785SOL     OW37990   2.957   1.034   6.840  0.5232  0.7278 -0.0543
 8785SOL    HW137991   3.021   1.066   6.776  1.8435 -1.0941  0.3393
 8785SOL    HW237992   2.990   0.947   6.862  0.6051  0.8544  0.3179
 8786SOL     OW37993   4.175   4.685   1.934 -0.8055 -0.1446 -0.4302
 8786SOL    HW137994   4.112   4.614   1.920 -0.9535 -0.1576  0.3118
 8786SOL    HW237995   4.159   0.000   1.854  0.9941  1.0145 -0.0551
 8787SOL     OW37996   3.855   2.710   9.931 -0.4084  0.5324  0.6286
 8787SOL    HW137997   3.924   2.660   9.974  0.5034  0.8854 -0.4284
 8787SOL    HW237998   3.822   2.628   9.892  0.6648  0.0226  0.7927
 8788SOL     OW37999   1.504   0.575   5.557  0.0307  0.2975 -0.1621
 8788SOL    HW138000   1.437   0.546   5.495  0.6588 -0.4887 -0.4774
 8788SOL    HW238001   1.464   0.659   5.578 -1.6697 -0.5281 -0.0509
 8789SOL     OW38002   2.460   0.194   9.028 -0.3263 -0.7377  0.0264
 8789SOL    HW138003   2.422   0.282   9.030 -0.2909 -0.7355  0.6499
 8789SOL    HW238004   2.402   0.138   9.081  1.6036 -2.2250  0.5652
 8790SOL     OW38005   3.427   1.395   2.560  0.5532 -0.3642  0.3491
 8790SOL    HW138006   3.490   1.418   2.628 -1.8624 -0.4237  2.5905
 8790SOL    HW238007   3.408   1.483   2.528  0.8606 -0.2229  0.5576
 8791SOL     OW38008   2.255   1.434   5.895  0.1773  0.5884  0.2930
 8791SOL    HW138009   2.351   1.435   5.892  0.2265 -0.5743  1.7914
 8791SOL    HW238010   2.240   1.463   5.985  0.0785  0.2564  0.3818
 8792SOL     OW38011   1.230   0.624   0.610  0.3345 -0.1016  0.9248
 8792SOL    HW138012   1.278   0.707   0.608 -1.3537  0.8908  1.7448
 8792SOL    HW238013   1.199   0.626   0.700 -0.1326  0.8671  0.7534
 8793SOL     OW38014   3.147   1.847   5.603 -0.2651  0.5821 -0.3037
 8793SOL    HW138015   3.186   1.809   5.681 -0.3289 -0.2845 -0.6934
 8793SOL    HW238016   3.137   1.771   5.546  1.2761  0.5887 -0.5675
 8794SOL     OW38017   4.011   4.125   1.608  0.0683 -0.4766 -0.4016
 8794SOL    HW138018   3.942   4.059   1.605  0.6643 -1.2557  3.1304
 8794SOL    HW238019   4.089   4.072   1.595  0.3979 -0.1785  0.3567
 8795SOL     OW38020   3.244   1.612   5.389 -0.1242 -0.0622  0.7766
 8795SOL    HW138021   3.168   1.570   5.348  0.3471  0.2999 -0.4654
 8795SOL    HW238022   3.302   1.544   5.354 -1.7162 -1.2705  0.4757
 8796SOL     OW38023   1.099   1.196  16.555  0.0055 -0.1358 -0.2686
 8796SOL    HW138024   1.087   1.161  16.643 -0.4147 -2.1124 -1.1060
 8796SOL    HW238025   1.009   1.223  16.536  0.6813  0.4384 -2.6904
 8797SOL     OW38026   3.203   2.515   8.402  0.5217 -0.3599  0.4075
 8797SOL    HW138027   3.297   2.507   8.385  0.6485 -0.1304  0.9894
 8797SOL    HW238028   3.208   2.544   8.493  0.8776 -2.1259  0.9492
 8798SOL     OW38029   0.799   4.397   6.621 -0.1911 -0.0086 -0.0919
 8798SOL    HW138030   0.725   4.403   6.682  1.0191  0.5835  1.3356
 8798SOL    HW238031   0.861   4.438   6.681 -0.6024 -0.1785  0.4521
 8799SOL     OW38032   0.946   4.104   9.558  0.2337  0.1188 -0.5116
 8799SOL    HW138033   0.935   4.150   9.641 -2.9263  0.4373 -1.1412
 8799SOL    HW238034   0.858   4.070   9.545 -0.5338  1.6571  0.6946
 8800SOL     OW38035   1.798   0.730   4.403 -0.4735 -0.2318 -0.0732
 8800SOL    HW138036   1.760   0.648   4.434 -1.1942 -0.1445 -0.7137
 8800SOL    HW238037   1.820   0.706   4.313 -0.6273  0.8696 -0.4005
 8801SOL     OW38038   3.296   0.667  15.722 -0.3884  0.1821  0.1511
 8801SOL    HW138039   3.305   0.748  15.772 -1.6857  0.5574 -0.2201
 8801SOL    HW238040   3.233   0.700  15.658 -0.3721 -1.3434 -0.6656
 8802SOL     OW38041   0.618   1.042   8.767  0.0018  0.1425  0.1657
 8802SOL    HW138042   0.538   1.011   8.724 -0.0797  1.2042 -0.4541
 8802SOL    HW238043   0.584   1.042   8.856  0.5497  3.2375  0.3620
 8803SOL     OW38044   0.020   1.191   0.066  0.5710 -0.0588  0.2658
 8803SOL    HW138045   0.033   1.103   0.031 -2.8953 -0.7350  0.7013
 8803SOL    HW238046   4.689   1.184   0.135 -1.5120 -1.2533 -1.8454
 8804SOL     OW38047   1.955   0.427  15.346 -0.2141 -0.2234 -0.2225
 8804SOL    HW138048   1.981   0.337  15.324  0.6163 -0.0532  0.0772
 8804SOL    HW238049   2.019   0.451  15.413 -0.9121 -0.1545  0.4207
 8805SOL     OW38050   4.243   0.347   0.457  0.5076 -0.4128 -0.2852
 8805SOL    HW138051   4.296   0.424   0.479  0.2426 -0.9475  2.1246
 8805SOL    HW238052   4.312   0.281   0.462  0.0774 -0.7806  0.6042
 8806SOL     OW38053   4.460   1.292   6.509  0.0392 -0.3314 -0.4938
 8806SOL    HW138054   4.546   1.256   6.531 -0.1202 -0.9577 -0.8874
 8806SOL    HW238055   4.453   1.270   6.416  0.9611 -0.5403 -0.5112
 8807SOL     OW38056   2.462   4.692   6.997  0.2888 -0.0662  0.6853
 8807SOL    HW138057   2.421   0.013   7.062  0.7800  1.7351 -0.5653
 8807SOL    HW238058   2.556   4.684   7.017  0.3558 -0.6455  0.1043
 8808SOL     OW38059   1.591   4.111  10.346 -0.7406  0.1332  0.0259
 8808SOL    HW138060   1.556   4.028  10.313 -0.2861 -0.2044  0.3852
 8808SOL    HW238061   1.671   4.110  10.293  1.8124  0.1892  3.8798
 8809SOL     OW38062   2.371   4.121   2.040  0.2452 -0.2287 -0.1364
 8809SOL    HW138063   2.344   4.054   1.977 -0.2769 -1.0552  0.9613
 8809SOL    HW238064   2.299   4.184   2.031  0.6276  0.3967  1.1832
 8810SOL     OW38065   2.433   2.595   4.169  0.6700  0.5029 -0.8809
 8810SOL    HW138066   2.447   2.551   4.253  2.1741 -1.7992 -2.3506
 8810SOL    HW238067   2.393   2.682   4.181  2.6465  1.3836 -0.6326
 8811SOL     OW38068   0.646   1.935  15.208 -1.2108 -0.6845  0.2714
 8811SOL    HW138069   0.712   1.878  15.248  0.4096 -0.0429 -1.5049
 8811SOL    HW238070   0.570   1.877  15.198 -0.1691 -2.2309  1.2424
 8812SOL     OW38071   0.938   0.419   6.241 -0.0292 -0.1140  0.1751
 8812SOL    HW138072   1.008   0.393   6.180 -2.0045  0.1462 -2.2257
 8812SOL    HW238073   0.933   0.511   6.216  1.5081 -0.3130 -0.9183
 8813SOL     OW38074   0.675   0.552   6.449 -0.4024 -0.7094  0.1117
 8813SOL    HW138075   0.630   0.615   6.505 -1.4337  1.3493 -3.0827
 8813SOL    HW238076   0.714   0.490   6.511  1.9203 -0.3042 -0.9293
 8814SOL     OW38077   1.821   1.588  15.198 -0.0133 -0.0014 -0.5690
 8814SOL    HW138078   1.743   1.535  15.183 -1.2866  1.2071  1.8715
 8814SOL    HW238079   1.775   1.664  15.232  0.7447  0.3173 -0.2574
 8815SOL     OW38080   3.221   1.694  10.983  0.5665 -0.0492 -0.5799
 8815SOL    HW138081   3.155   1.659  10.923  0.9471 -1.7769 -0.0122
 8815SOL    HW238082   3.301   1.652  10.952 -0.2653 -1.7312 -0.4553
 8816SOL     OW38083   0.995   3.844   2.610  0.1201  0.5177 -0.0342
 8816SOL    HW138084   0.967   3.924   2.654 -2.2169 -0.3059 -0.0483
 8816SOL    HW238085   0.977   3.869   2.519  3.3636  2.8695 -0.0355
 8817SOL     OW38086   2.818   4.611   3.318 -0.0717  0.2069  0.2081
 8817SOL    HW138087   2.911   4.631   3.330 -0.1953 -0.0728  1.5907
 8817SOL    HW238088   2.833   4.521   3.289  0.5845  0.1454  0.7505
 8818SOL     OW38089   4.047   0.376  17.199  0.0586  0.1892  0.3226
 8818SOL    HW138090   4.138   0.347  17.206 -0.4110 -1.5011 -0.4161
 8818SOL    HW238091   4.029   0.428  17.277 -0.7915  1.3239 -0.6340
 8819SOL     OW38092   1.124   0.745   1.189  0.4743  0.9230 -0.0698
 8819SOL    HW138093   1.198   0.723   1.246 -0.5549  0.8463  1.2117
 8819SOL    HW238094   1.055   0.745   1.255  0.6871  1.3846  0.1538
 8820SOL     OW38095   1.254   4.581   8.008  0.1744 -0.2308  0.2894
 8820SOL    HW138096   1.167   4.620   7.998  0.6865  0.9317  0.2978
 8820SOL    HW238097   1.284   4.611   8.094  0.7650 -0.9797  0.3392
 8821SOL     OW38098   0.250   0.012  13.342 -0.5388  0.0089  0.2374
 8821SOL    HW138099   0.198   0.016  13.422  0.2379 -3.0613  0.9044
 8821SOL    HW238100   0.279   0.103  13.335  0.4140 -0.4025 -1.2025
 8822SOL     OW38101   3.168   3.156   1.486  0.3883 -0.1580 -0.4460
 8822SOL    HW138102   3.191   3.243   1.519 -0.4995 -0.3153  0.5884
 8822SOL    HW238103   3.077   3.170   1.460  0.5423 -0.7043 -1.2905
 8823SOL     OW38104   2.165   0.163   4.014 -0.0753 -0.0539  0.3164
 8823SOL    HW138105   2.246   0.137   3.969 -0.0952  0.1259  0.1742
 8823SOL    HW238106   2.110   0.118   3.951  1.5443 -0.0498 -1.0932
 8824SOL     OW38107   4.580   4.427   6.837 -0.1355 -0.0093 -0.9152
 8824SOL    HW138108   4.515   4.482   6.792  1.7124  2.7125 -0.2336
 8824SOL    HW238109   4.548   4.420   6.927 -0.7885  0.7623 -1.0871
 8825SOL     OW38110   2.891   3.435   5.446  0.2049  0.3125 -0.2675
 8825SOL    HW138111   2.825   3.492   5.485  0.3773  0.2144  0.1658
 8825SOL    HW238112   2.910   3.375   5.519  0.2761  0.4042 -0.2100
 8826SOL     OW38113   2.604   4.721   3.648 -0.4540 -0.2973 -0.7306
 8826SOL    HW138114   2.656   0.051   3.694 -1.2197  0.7049 -1.2892
 8826SOL    HW238115   2.518   4.722   3.690  1.1111  1.0021  2.3572
 8827SOL     OW38116   0.636   2.425  11.642  0.1744 -0.1934  0.0097
 8827SOL    HW138117   0.729   2.446  11.638 -0.1938  1.2464 -0.6918
 8827SOL    HW238118   0.589   2.507  11.653  0.4563 -0.0891  0.4350
 8828SOL     OW38119   2.867   2.307  17.044  0.2595 -0.5203 -0.3412
 8828SOL    HW138120   2.879   2.266  16.958  0.7787  1.3386 -1.1743
 8828SOL    HW238121   2.842   2.394  17.012  1.0830 -0.1790 -0.0508
 8829SOL     OW38122   3.361   1.996  13.195 -0.0575 -0.2748 -0.6215
 8829SOL    HW138123   3.372   1.901  13.206  0.6373  0.1388  2.2930
 8829SOL    HW238124   3.268   2.001  13.213 -0.0689  1.2726 -1.1567
 8830SOL     OW38125   1.795   4.258  13.354 -0.7946  0.2763 -0.5062
 8830SOL    HW138126   1.816   4.349  13.373 -0.0708  0.2243 -1.0472
 8830SOL    HW238127   1.729   4.239  13.421  1.0863 -1.7699  0.7660
 8831SOL     OW38128   0.001   0.976  11.277 -0.2332 -0.7757  0.2309
 8831SOL    HW138129   4.675   0.906  11.256 -0.5393 -0.0904 -1.2071
 8831SOL    HW238130   0.048   0.982  11.194  1.7292 -1.3256  1.3128
 8832SOL     OW38131   0.873   2.067  10.137 -0.0488  0.3239 -0.4073
 8832SOL    HW138132   0.951   2.014  10.153 -0.8044 -0.9691 -1.0289
 8832SOL    HW238133   0.901   2.127  10.068  2.1701 -1.2895 -0.8927
 8833SOL     OW38134   3.076   4.382   1.971  0.2009  0.5024 -0.6757
 8833SOL    HW138135   3.106   4.410   1.885  0.0567  0.1026 -0.8565
 8833SOL    HW238136   3.154   4.346   2.013  0.1333  0.6147 -0.4530
 8834SOL     OW38137   2.476   4.413   2.675 -0.6143 -0.1808  0.0277
 8834SOL    HW138138   2.566   4.431   2.702 -0.9699  0.9027  0.5008
 8834SOL    HW238139   2.430   4.443   2.754  1.0161  0.2420  0.8026
 8835SOL     OW38140   0.743   2.299  12.664  0.1030  0.2785  0.3754
 8835SOL    HW138141   0.688   2.372  12.636  3.1317  2.3648 -0.1294
 8835SOL    HW238142   0.789   2.337  12.739 -0.4200  1.8968 -0.1224
 8836SOL     OW38143   1.794   0.284   1.902 -0.3884  0.0075 -0.4314
 8836SOL    HW138144   1.712   0.324   1.931 -0.4474 -0.0430 -0.5292
 8836SOL    HW238145   1.829   0.360   1.856 -0.6914 -0.5888 -1.6349
 8837SOL     OW38146   1.124   4.543  12.746 -0.0836 -0.1296 -0.2605
 8837SOL    HW138147   1.162   4.607  12.806 -0.8876  0.0092  0.1045
 8837SOL    HW238148   1.174   4.461  12.747 -0.1622 -0.1559  0.8749
 8838SOL     OW38149   3.302   1.994   4.893  0.8016 -0.5714  0.0514
 8838SOL    HW138150   3.313   1.975   4.799 -1.9697 -2.5096  0.1141
 8838SOL    HW238151   3.379   1.951   4.931  2.1299 -0.0150 -1.9672
 8839SOL     OW38152   4.693   0.578  11.365 -0.1210 -0.0553  0.2759
 8839SOL    HW138153   4.652   0.598  11.449  1.1617  0.2129  0.8538
 8839SOL    HW238154   0.046   0.614  11.379 -0.7868  1.0686  1.5733
 8840SOL     OW38155   2.573   3.788   3.255 -0.1516  0.0785  0.2546
 8840SOL    HW138156   2.618   3.720   3.204 -1.8412  0.5989 -1.9407
 8840SOL    HW238157   2.635   3.794   3.328  1.5950 -1.8759 -1.0516
 8841SOL     OW38158   2.425   3.135   6.075  0.0760  0.1017  0.2194
 8841SOL    HW138159   2.366   3.133   6.150  0.5652 -1.3042  0.5695
 8841SOL    HW238160   2.456   3.045   6.068  0.5421  0.3047 -0.3057
 8842SOL     OW38161   3.900   2.744  12.039  0.6594 -0.1453 -0.6496
 8842SOL    HW138162   3.878   2.756  12.132  1.5009  0.3291 -0.5174
 8842SOL    HW238163   3.988   2.780  12.035  0.8847 -0.3407  2.1376
 8843SOL     OW38164   1.142   0.596   7.291  0.3087 -0.1802 -0.6884
 8843SOL    HW138165   1.069   0.572   7.348  1.0845 -0.9264 -0.0272
 8843SOL    HW238166   1.154   0.513   7.246 -1.2035 -0.4678 -0.5539
 8844SOL     OW38167   1.502   0.482   6.134  0.2149  0.2649  0.5094
 8844SOL    HW138168   1.483   0.502   6.042  2.3292  1.1652  0.2529
 8844SOL    HW238169   1.468   0.393   6.143 -0.2104  0.5332  1.5129
 8845SOL     OW38170   0.225   1.075   3.077  0.1338  0.4355 -0.4568
 8845SOL    HW138171   0.154   1.117   3.029 -0.5539 -1.0190 -0.7180
 8845SOL    HW238172   0.281   1.152   3.080  1.8745 -0.7575 -2.2627
 8846SOL     OW38173   2.280   2.687   6.396  0.2007  0.0521 -0.2373
 8846SOL    HW138174   2.306   2.704   6.306 -1.8034  3.8108 -0.1405
 8846SOL    HW238175   2.343   2.736   6.450 -0.5770 -0.8691  1.5005
 8847SOL     OW38176   3.383   1.727  14.954 -0.7199  0.1987  0.4934
 8847SOL    HW138177   3.418   1.773  15.031 -0.3151  1.3510 -0.3844
 8847SOL    HW238178   3.311   1.784  14.927 -0.4706  0.7215  0.9049
 8848SOL     OW38179   4.299   2.268   2.015  0.8816  0.5269 -0.1020
 8848SOL    HW138180   4.237   2.199   2.039  1.4446  0.3209  0.7717
 8848SOL    HW238181   4.365   2.218   1.966  0.7507 -0.5847  0.8487
 8849SOL     OW38182   3.519   1.424  16.876  0.1575 -0.2054  0.1753
 8849SOL    HW138183   3.495   1.351  16.818  1.0619  1.2724 -2.0563
 8849SOL    HW238184   3.601   1.393  16.913 -1.3675 -0.7042  3.1364
 8850SOL     OW38185   3.766   0.563   2.526  0.0893  0.2813 -0.2976
 8850SOL    HW138186   3.777   0.507   2.603 -1.0143 -0.6932 -0.8603
 8850SOL    HW238187   3.712   0.627   2.572  2.4773  3.4990 -1.9249
 8851SOL     OW38188   3.914   4.558   8.592 -0.0677 -0.1954  0.5239
 8851SOL    HW138189   3.905   4.462   8.594 -2.5584  0.0575  1.4171
 8851SOL    HW238190   3.840   4.578   8.650 -0.8259 -1.1622 -0.1136
 8852SOL     OW38191   1.976   4.499   8.141  0.3041 -0.1432 -0.0584
 8852SOL    HW138192   2.005   4.410   8.120 -0.2170 -1.1561  3.5074
 8852SOL    HW238193   2.020   4.549   8.073  1.0405 -0.4459  0.1947
 8853SOL     OW38194   2.745   2.859   1.134 -0.1779 -0.7136 -0.9508
 8853SOL    HW138195   2.768   2.886   1.223 -2.0684 -2.4526  0.0739
 8853SOL    HW238196   2.668   2.912   1.115 -0.7056 -0.1154  2.9024
 8854SOL     OW38197   1.710   1.175   4.894  1.1714 -0.0917  0.1876
 8854SOL    HW138198   1.749   1.106   4.842  0.0478 -0.7324  0.1991
 8854SOL    HW238199   1.774   1.207   4.958  1.6414 -1.0563  0.1836
 8855SOL     OW38200   1.897   3.892   0.552 -0.2448 -0.0020 -0.5648
 8855SOL    HW138201   1.819   3.894   0.497  0.7388 -0.0711 -1.9689
 8855SOL    HW238202   1.881   3.810   0.598 -1.4266  1.5556  1.8134
 8856SOL     OW38203   2.313   2.591   8.931  0.1738 -0.0728  0.0951
 8856SOL    HW138204   2.369   2.597   8.853 -0.7000  1.0517 -0.4574
 8856SOL    HW238205   2.378   2.556   8.992 -0.4661 -1.2785  0.0644
 8857SOL     OW38206   1.272   0.529  15.820 -0.3125  0.3367 -0.2092
 8857SOL    HW138207   1.334   0.471  15.776  0.5716  1.0349  0.1093
 8857SOL    HW238208   1.194   0.474  15.814  2.2476 -3.0799 -2.1989
 8858SOL     OW38209   0.478   3.113   3.394  0.3225 -0.5743 -0.2484
 8858SOL    HW138210   0.567   3.077   3.389  1.1658  1.5620 -0.9577
 8858SOL    HW238211   0.487   3.197   3.348  0.4564 -0.3195  0.2464
 8859SOL     OW38212   1.358   0.239   8.574 -0.2361 -0.2572  0.1466
 8859SOL    HW138213   1.266   0.243   8.601 -0.1035  1.5161  0.2873
 8859SOL    HW238214   1.342   0.294   8.498 -0.5432  1.0211  1.1261
 8860SOL     OW38215   1.423   2.307   2.877  0.1861  0.1063 -0.2722
 8860SOL    HW138216   1.393   2.266   2.796 -0.7644 -1.3076  0.8059
 8860SOL    HW238217   1.464   2.387   2.843 -0.7927 -0.1540 -2.0806
 8861SOL     OW38218   1.462   1.859  11.250 -0.1054  0.0752 -0.1720
 8861SOL    HW138219   1.495   1.796  11.315 -2.0029 -2.5790 -1.7593
 8861SOL    HW238220   1.440   1.936  11.303  2.7109  1.7747 -1.4745
 8862SOL     OW38221   0.852   1.542   6.983  0.6755  0.4514 -0.3638
 8862SOL    HW138222   0.808   1.522   6.900  0.2573  0.1610 -0.0686
 8862SOL    HW238223   0.828   1.458   7.022  0.1994  0.8384  0.1792
 8863SOL     OW38224   0.193   1.214   3.364  0.8079  0.2486  0.4003
 8863SOL    HW138225   0.138   1.216   3.286  0.3651  0.6131  0.7207
 8863SOL    HW238226   0.174   1.295   3.411 -1.5097 -0.4178  0.5674
 8864SOL     OW38227   2.250   0.243   0.653  0.2155 -0.3940  0.1408
 8864SOL    HW138228   2.171   0.189   0.659 -0.3031  0.3861  0.2681
 8864SOL    HW238229   2.302   0.218   0.577  1.2393 -0.0860  0.7430
 8865SOL     OW38230   3.946   1.324   6.199 -0.6925 -0.2499 -0.2886
 8865SOL    HW138231   3.906   1.338   6.113  1.8490 -1.1746 -1.6234
 8865SOL    HW238232   3.944   1.229   6.208 -0.0182 -0.2989 -0.6677
 8866SOL     OW38233   2.252   2.587   9.641  0.1364  0.5268 -0.1825
 8866SOL    HW138234   2.231   2.507   9.689 -1.5564  0.2844 -1.3039
 8866SOL    HW238235   2.345   2.569   9.624 -0.4134 -0.7723 -1.8359
 8867SOL     OW38236   3.457   2.483   8.364 -0.1077 -0.0524 -0.0053
 8867SOL    HW138237   3.538   2.432   8.365 -0.1385 -0.1306 -1.3626
 8867SOL    HW238238   3.478   2.552   8.300  1.9836 -0.1904  0.5145
 8868SOL     OW38239   0.058   2.063   0.731 -0.4505 -0.6897  0.0380
 8868SOL    HW138240   0.078   1.980   0.774  0.4818  0.4979  1.9006
 8868SOL    HW238241   4.732   2.096   0.796  0.8102  0.3548  0.6940
 8869SOL     OW38242   2.734   2.988   6.689 -0.3221  0.5086 -0.3150
 8869SOL    HW138243   2.670   2.974   6.758  0.0937 -0.1210 -0.0584
 8869SOL    HW238244   2.738   2.896   6.663 -2.0000 -0.4408  2.7990
 8870SOL     OW38245   2.251   3.302   6.945  0.0690 -0.7182  0.6195
 8870SOL    HW138246   2.190   3.369   6.913 -0.4697 -1.4334  0.1388
 8870SOL    HW238247   2.320   3.298   6.878  0.1220  2.7490  0.4601
 8871SOL     OW38248   1.257   3.676  16.838  0.2083  0.0114 -0.2696
 8871SOL    HW138249   1.184   3.732  16.811  0.8538  1.4438  0.9746
 8871SOL    HW238250   1.326   3.739  16.860 -0.1372  1.3892 -3.1612
 8872SOL     OW38251   4.366   0.028   4.226  0.6055 -0.5623 -0.3440
 8872SOL    HW138252   4.380   0.104   4.284  0.5687 -0.3972 -0.5520
 8872SOL    HW238253   4.361   0.072   4.141  0.8128 -0.0831 -0.1099
 8873SOL     OW38254   0.006   0.620   4.625  0.2679  0.1104  0.0043
 8873SOL    HW138255   0.021   0.619   4.720 -1.6486 -0.5579  0.2865
 8873SOL    HW238256   0.052   0.539   4.604 -0.6867 -1.2125  3.0198
 8874SOL     OW38257   1.440   4.440   3.740  0.4596  0.1578  0.2909
 8874SOL    HW138258   1.433   4.418   3.647 -1.1308 -0.7168  0.6224
 8874SOL    HW238259   1.378   4.375   3.774  0.8429  0.1280  0.9268
 8875SOL     OW38260   1.989   4.655   2.841 -0.1509 -0.0819 -0.0163
 8875SOL    HW138261   2.041   4.582   2.876  1.4621  1.1695  0.2218
 8875SOL    HW238262   1.961   4.691   2.925 -1.4590  1.9575 -1.3512
 8876SOL     OW38263   2.836   2.972   3.319 -0.4020  0.7388  0.0551
 8876SOL    HW138264   2.807   2.935   3.236 -2.1185  0.4151  0.8004
 8876SOL    HW238265   2.919   3.009   3.292 -1.2227  1.2209 -1.7896
 8877SOL     OW38266   4.635   3.763  16.344  0.5806 -0.4624  0.4577
 8877SOL    HW138267   4.661   3.748  16.435 -0.1011 -1.5245  0.4887
 8877SOL    HW238268   4.647   3.673  16.312  1.2763  0.2594 -1.2701
 8878SOL     OW38269   2.897   3.126   4.988 -0.0187  0.0755 -0.1412
 8878SOL    HW138270   2.903   3.188   5.061  1.0940 -1.3980  1.0091
 8878SOL    HW238271   2.907   3.181   4.910  1.1000  1.7667  1.1870
 8879SOL     OW38272   3.515   3.508  16.330  0.2676 -0.3096  0.0754
 8879SOL    HW138273   3.438   3.545  16.372  0.5628 -2.1240  2.1916
 8879SOL    HW238274   3.547   3.590  16.292  1.3056 -0.7182  0.0678
 8880SOL     OW38275   1.583   2.417   5.999 -0.4361 -0.9693  0.1644
 8880SOL    HW138276   1.661   2.368   5.973 -0.0381 -0.0371 -0.4035
 8880SOL    HW238277   1.631   2.484   6.047 -0.6222  0.0363 -1.0656
 8881SOL     OW38278   3.307   0.749   7.064  0.2556 -0.2847  0.3958
 8881SOL    HW138279   3.303   0.836   7.102 -0.3317 -0.2235  0.2018
 8881SOL    HW238280   3.310   0.703   7.148  0.2364  2.9407  2.1584
 8882SOL     OW38281   3.221   1.430   5.111 -0.5053  0.3230 -0.2963
 8882SOL    HW138282   3.148   1.374   5.088 -0.9169  1.3931 -1.6240
 8882SOL    HW238283   3.217   1.506   5.053 -0.5315 -0.6795 -1.6062
 8883SOL     OW38284   2.573   0.563   4.317 -0.1745 -0.0347 -0.0611
 8883SOL    HW138285   2.548   0.576   4.226 -0.2172 -0.3739 -0.0989
 8883SOL    HW238286   2.519   0.491   4.349  1.2421 -1.0054  0.1594
 8884SOL     OW38287   4.645   3.528   3.254 -0.2059  0.0239 -0.0335
 8884SOL    HW138288   4.578   3.464   3.278  0.0522 -0.3428 -0.2993
 8884SOL    HW238289   4.637   3.539   3.160 -2.5508  0.6694  0.2448
 8885SOL     OW38290   2.482   1.909   7.002  0.0065 -0.9364  0.8142
 8885SOL    HW138291   2.455   1.955   7.082 -0.0509 -1.2571  0.9829
 8885SOL    HW238292   2.406   1.850   6.996 -1.0618  0.4321  0.8739
 8886SOL     OW38293   2.313   0.007  12.827 -0.0436  0.5082 -1.1581
 8886SOL    HW138294   2.312   4.721  12.920  3.1110 -0.2919 -1.3182
 8886SOL    HW238295   2.274   4.662  12.793  2.9974 -1.5086  0.1696
 8887SOL     OW38296   0.336   0.248   5.023  0.1163  0.5251  0.6829
 8887SOL    HW138297   0.425   0.273   5.048  0.9284 -0.5503 -1.1798
 8887SOL    HW238298   0.294   0.239   5.109  0.8308  0.2692  1.0024
 8888SOL     OW38299   3.064   3.005   2.048  0.0414 -0.2202 -0.2855
 8888SOL    HW138300   3.068   2.979   2.141  2.0903  1.5919  0.1327
 8888SOL    HW238301   3.033   2.921   2.015 -0.1291  0.4796 -1.8799
 8889SOL     OW38302   3.816   0.900   3.338 -0.3473 -0.4502  0.0824
 8889SOL    HW138303   3.845   0.989   3.358 -1.2614  0.3032 -1.9750
 8889SOL    HW238304   3.733   0.907   3.386 -0.3209 -1.4262  0.2762
 8890SOL     OW38305   3.453   3.458  10.363  0.3538  0.1632  0.0283
 8890SOL    HW138306   3.403   3.478  10.442 -0.6372 -3.6382  0.3868
 8890SOL    HW238307   3.373   3.431  10.318 -0.1471  0.7034  0.6012
 8891SOL     OW38308   4.598   2.343  16.559 -0.3242  0.6679  0.0695
 8891SOL    HW138309   4.611   2.413  16.495  2.3839  1.5644  1.5444
 8891SOL    HW238310   4.509   2.319  16.536  0.0994 -0.2708 -0.5802
 8892SOL     OW38311   3.084   3.332   2.814  0.1840 -0.2400 -0.1133
 8892SOL    HW138312   3.043   3.284   2.742 -0.7362  0.8738 -0.3178
 8892SOL    HW238313   3.176   3.307   2.799 -0.8171 -3.6753 -0.5884
 8893SOL     OW38314   3.642   0.374   3.580  0.0329 -0.3325  0.1422
 8893SOL    HW138315   3.722   0.322   3.575 -1.2600 -2.3460  0.3783
 8893SOL    HW238316   3.608   0.369   3.491  1.3094 -1.5735 -0.2711
 8894SOL     OW38317   1.703   2.703   8.222 -0.2063 -0.6044  0.7106
 8894SOL    HW138318   1.642   2.745   8.161  2.8094  0.3264 -1.6366
 8894SOL    HW238319   1.774   2.767   8.230  0.7523 -1.3980 -1.5744
 8895SOL     OW38320   1.363   1.414   9.109  0.1339 -0.1090  0.5402
 8895SOL    HW138321   1.310   1.432   9.187  0.1897 -0.6290  0.6970
 8895SOL    HW238322   1.297   1.428   9.041 -0.4472 -1.0527  0.9024
 8896SOL     OW38323   0.889   4.093   0.558 -0.0144 -0.2274 -0.0015
 8896SOL    HW138324   0.812   4.139   0.526  0.7957  1.4961  0.5182
 8896SOL    HW238325   0.931   4.041   0.489  1.4322  0.9846 -0.0384
 8897SOL     OW38326   2.077   0.715  14.794  0.3125 -0.2625 -0.3375
 8897SOL    HW138327   2.110   0.748  14.878 -2.4362  3.6625 -0.8472
 8897SOL    HW238328   1.983   0.704  14.808  0.5521 -1.8284  0.0739
 8898SOL     OW38329   0.978   4.025   7.800  0.3771 -0.5769  0.3110
 8898SOL    HW138330   1.021   4.022   7.715  1.8254 -1.5737  1.0893
 8898SOL    HW238331   0.953   4.117   7.812  1.4236 -0.5026  1.9626
 8899SOL     OW38332   3.009   3.423   4.442  0.8258  0.5391  0.5147
 8899SOL    HW138333   3.084   3.480   4.462  0.0342  1.3099  1.2335
 8899SOL    HW238334   2.941   3.454   4.500  0.6281 -0.3048  0.7310
 8900SOL     OW38335   2.999   1.087  14.137 -0.2052 -0.4642  0.0245
 8900SOL    HW138336   3.055   1.120  14.207 -0.2587  0.9809 -0.6169
 8900SOL    HW238337   2.967   1.006  14.176 -0.4894  0.3840  1.5503
 8901SOL     OW38338   2.592   0.745   3.808 -0.1678  0.1130  0.1431
 8901SOL    HW138339   2.624   0.772   3.723 -2.2286 -1.4238 -1.1398
 8901SOL    HW238340   2.636   0.781   3.885  0.6498 -0.4619 -0.0609
 8902SOL     OW38341   3.298   2.484   9.196  0.4865  0.2086  0.0139
 8902SOL    HW138342   3.393   2.495   9.203  0.3602  1.2810  0.0859
 8902SOL    HW238343   3.286   2.424   9.269 -0.1798 -0.6098 -0.7663
 8903SOL     OW38344   3.747   4.170   5.662  0.0455  0.4632  0.3295
 8903SOL    HW138345   3.687   4.126   5.722 -0.5673  1.4444  0.4359
 8903SOL    HW238346   3.754   4.112   5.587  0.3702  0.5061  0.3262
 8904SOL     OW38347   1.080   4.674   1.108  0.4715 -0.3618  0.2744
 8904SOL    HW138348   1.066   4.604   1.171 -1.5640 -0.9902 -0.8753
 8904SOL    HW238349   1.167   4.700   1.140 -0.5304  1.9255  1.1085
 8905SOL     OW38350   1.546   0.006   5.714 -0.1479  0.1294 -0.0951
 8905SOL    HW138351   1.594   0.081   5.679 -1.0314  0.1526 -1.2749
 8905SOL    HW238352   1.595   4.663   5.692  2.5875  1.6415  0.5734
 8906SOL     OW38353   3.932   2.568  12.438  0.4094 -0.1308 -0.4035
 8906SOL    HW138354   3.897   2.631  12.375  0.3117 -1.2664 -1.4673
 8906SOL    HW238355   3.996   2.515  12.392 -0.2640 -0.5456 -0.8522
 8907SOL     OW38356   4.192   2.498   1.979  0.0379 -0.4591  0.3985
 8907SOL    HW138357   4.237   2.421   2.012  2.8874  0.3093 -1.7383
 8907SOL    HW238358   4.164   2.475   1.890 -1.5955  0.9958  0.5236
 8908SOL     OW38359   2.544   2.510  14.844  0.3823  0.0163 -0.1865
 8908SOL    HW138360   2.503   2.433  14.805 -0.3000  1.4286 -2.2897
 8908SOL    HW238361   2.545   2.574  14.772 -2.0200  1.3829  0.9848
 8909SOL     OW38362   1.727   3.517   3.322  0.6407  0.5553  0.4581
 8909SOL    HW138363   1.703   3.559   3.404 -0.5407 -1.0454  0.9377
 8909SOL    HW238364   1.814   3.552   3.304  1.8810 -2.0575  1.2836
 8910SOL     OW38365   3.997   0.850   8.526  0.1264 -0.0095 -0.3202
 8910SOL    HW138366   4.008   0.884   8.437  1.8271  0.5607  0.1059
 8910SOL    HW238367   3.993   0.932   8.576 -0.2651  0.9632 -1.9560
 8911SOL     OW38368   0.643   2.813   5.621 -0.4002  0.2379 -0.1247
 8911SOL    HW138369   0.695   2.783   5.695 -0.1302  1.9689  0.3908
 8911SOL    HW238370   0.609   2.726   5.600 -0.2398  0.2991 -0.6549
 8912SOL     OW38371   3.761   4.521   2.004 -0.0645 -0.1560 -0.0978
 8912SOL    HW138372   3.830   4.557   2.060 -0.9606 -0.3741  1.1631
 8912SOL    HW238373   3.706   4.476   2.068  0.5605 -1.6395 -0.5924
 8913SOL     OW38374   0.927   2.391   0.327 -1.0163 -0.9329 -0.3950
 8913SOL    HW138375   0.864   2.351   0.267  0.2046 -0.3681 -2.0593
 8913SOL    HW238376   0.984   2.434   0.263 -1.0788 -0.2676 -0.0052
 8914SOL     OW38377   3.751   2.268   2.064  0.4822 -0.0566  0.0736
 8914SOL    HW138378   3.663   2.231   2.071 -0.5085  3.1056  4.5893
 8914SOL    HW238379   3.747   2.325   2.141 -4.5377  0.3743 -0.5312
 8915SOL     OW38380   0.566   0.794  11.253  0.7018 -0.8216 -0.3954
 8915SOL    HW138381   0.484   0.764  11.293  0.1500  1.1662 -0.0058
 8915SOL    HW238382   0.603   0.845  11.325 -1.0762  1.3023 -0.9515
 8916SOL     OW38383   3.296   3.531   7.421  0.6393  0.5535  0.4898
 8916SOL    HW138384   3.242   3.593   7.470  0.7269  0.3802  0.8033
 8916SOL    HW238385   3.276   3.448   7.464 -0.5486  0.1912 -0.7438
 8917SOL     OW38386   2.525   0.300   4.398 -0.0470 -0.0399  0.3669
 8917SOL    HW138387   2.553   0.237   4.465 -3.4508 -1.0572  0.8146
 8917SOL    HW238388   2.569   0.273   4.317 -0.6142 -0.3638  0.1663
 8918SOL     OW38389   2.450   3.805   1.681 -0.6022 -0.3814 -0.0046
 8918SOL    HW138390   2.488   3.788   1.767 -2.1335 -0.3830  0.6706
 8918SOL    HW238391   2.389   3.878   1.690  0.0676  0.2939 -0.9486
 8919SOL     OW38392   4.167   1.555  14.378  0.2293  0.4662 -0.7288
 8919SOL    HW138393   4.235   1.579  14.315 -0.5327  0.3237 -1.6157
 8919SOL    HW238394   4.225   1.523  14.447  1.5069 -0.0184 -2.0320
 8920SOL     OW38395   0.257   4.137   3.128 -0.3804 -0.0087 -0.3429
 8920SOL    HW138396   0.331   4.082   3.154 -0.4912  0.3337  0.6770
 8920SOL    HW238397   0.261   4.120   3.034  0.6853 -1.1636 -0.0943
 8921SOL     OW38398   1.035   0.350   2.494 -0.6274  0.1641 -1.3331
 8921SOL    HW138399   1.010   0.334   2.403  0.1304  0.3712 -1.5711
 8921SOL    HW238400   1.038   0.445   2.497 -0.8148  0.1267  0.1314
 8922SOL     OW38401   2.280   0.993  17.034  0.4065  0.6567 -0.4864
 8922SOL    HW138402   2.217   1.060  17.006  1.3334  1.6076 -0.2931
 8922SOL    HW238403   2.347   1.054  17.066  0.6584  0.8685 -1.4202
 8923SOL     OW38404   4.076   0.281   4.885 -0.2568 -0.0844 -0.5240
 8923SOL    HW138405   4.099   0.209   4.826  2.1141 -0.6447  1.0386
 8923SOL    HW238406   4.036   0.347   4.829 -0.4388  0.1656 -0.1003
 8924SOL     OW38407   4.274   3.948   9.700  0.1336 -0.1872 -0.0836
 8924SOL    HW138408   4.272   3.927   9.793 -1.3851 -2.5961 -0.6705
 8924SOL    HW238409   4.179   3.960   9.690 -0.1625 -1.5312  1.1302
 8925SOL     OW38410   4.140   4.261   8.296  0.3369  0.6025 -0.5200
 8925SOL    HW138411   4.213   4.300   8.247 -0.3973  0.9513 -1.3382
 8925SOL    HW238412   4.066   4.285   8.241  0.9607  0.3896 -1.4536
 8926SOL     OW38413   2.774   0.294   2.317 -0.2525  0.0010  0.0887
 8926SOL    HW138414   2.712   0.336   2.257 -0.8487  0.0298  0.7246
 8926SOL    HW238415   2.777   0.204   2.283 -0.8274  0.6067 -1.5392
 8927SOL     OW38416   4.197   0.318   1.640  0.5804 -0.2322  0.4315
 8927SOL    HW138417   4.292   0.327   1.632 -0.1329  3.7989 -3.5809
 8927SOL    HW238418   4.190   0.225   1.661  2.0440 -0.3829  0.2504
 8928SOL     OW38419   2.203   1.462   2.922 -0.2356  0.0516  0.2637
 8928SOL    HW138420   2.124   1.440   2.971 -1.1441  1.2267 -0.6813
 8928SOL    HW238421   2.230   1.544   2.964  1.6237 -1.4101  1.9288
 8929SOL     OW38422   3.831   3.033   0.920 -0.1415 -0.4584  0.2912
 8929SOL    HW138423   3.915   3.013   0.959  0.9119  0.1750 -1.6237
 8929SOL    HW238424   3.774   3.018   0.995 -0.1256  0.6593  0.5247
 8930SOL     OW38425   4.044   3.456   2.387 -0.4261  0.0552 -0.2634
 8930SOL    HW138426   4.029   3.468   2.294  1.6776  0.2508 -0.5735
 8930SOL    HW238427   3.952   3.468   2.412 -0.5582 -2.9980  0.8112
 8931SOL     OW38428   1.040   3.191   2.843  0.3041  0.1155  0.3128
 8931SOL    HW138429   0.996   3.276   2.835 -4.3875 -2.2085  1.0444
 8931SOL    HW238430   0.961   3.140   2.824 -0.2026  1.2000 -0.5498
 8932SOL     OW38431   4.349   1.523  14.569  0.3216 -0.6551 -0.5146
 8932SOL    HW138432   4.381   1.465  14.638 -1.8467 -1.6002 -0.3082
 8932SOL    HW238433   4.434   1.547  14.531  0.8616 -1.0317  0.4445
 8933SOL     OW38434   1.268   0.395   0.466  0.4652  0.7528  0.3326
 8933SOL    HW138435   1.244   0.483   0.494 -0.5729  0.7991 -0.6921
 8933SOL    HW238436   1.358   0.383   0.495 -0.2653  2.0290  3.1104
 8934SOL     OW38437   2.135   0.395  17.723 -0.3409 -0.0639 -0.1653
 8934SOL    HW138438   2.048   0.429  17.703 -1.4662 -1.3281  2.6600
 8934SOL    HW238439   2.195   0.468   0.002 -0.6991  0.5885 -1.4882
 8935SOL     OW38440   3.152   1.207   8.978 -0.6538  0.0720 -0.9709
 8935SOL    HW138441   3.151   1.300   9.002 -2.2662  0.0224 -0.8588
 8935SOL    HW238442   3.107   1.160   9.048 -1.6542  0.2613 -1.4850
 8936SOL     OW38443   3.145   3.463   6.629 -0.0446 -0.1282  0.2036
 8936SOL    HW138444   3.172   3.482   6.539 -1.0456  1.9822  0.3411
 8936SOL    HW238445   3.208   3.397   6.657 -0.0778  0.4506  1.6422
 8937SOL     OW38446   3.104   0.747   5.801 -0.7771  0.0617 -0.1348
 8937SOL    HW138447   3.041   0.684   5.769  0.6581 -1.8707  0.8405
 8937SOL    HW238448   3.136   0.770   5.714  1.1853 -2.0853  0.0098
 8938SOL     OW38449   4.662   1.252   2.368 -0.1757 -0.7119 -0.0125
 8938SOL    HW138450   4.639   1.285   2.455 -2.1470 -2.5791  0.1801
 8938SOL    HW238451   4.625   1.164   2.370  0.6527 -1.1157 -2.0454
 8939SOL     OW38452   2.931   0.732   6.459  0.7242  0.2066 -0.9718
 8939SOL    HW138453   2.910   0.724   6.551 -0.3896 -1.0125 -1.3340
 8939SOL    HW238454   2.969   0.820   6.461 -1.9037  1.3173 -0.8272
 8940SOL     OW38455   0.639   1.669   2.625  0.2926  0.0507  0.1344
 8940SOL    HW138456   0.585   1.594   2.648 -0.2544  0.3018 -0.3169
 8940SOL    HW238457   0.679   1.681   2.711  1.8936  1.1195 -0.7454
 8941SOL     OW38458   3.263   2.800  14.820  0.0840 -0.0331  0.5649
 8941SOL    HW138459   3.305   2.818  14.904  0.8092 -0.4884  0.3031
 8941SOL    HW238460   3.176   2.777  14.854 -1.2082  4.7759  0.4663
 8942SOL     OW38461   2.107   4.033   3.079  0.6796  0.5456 -0.5899
 8942SOL    HW138462   2.164   4.086   3.024  1.7463 -0.0880 -0.0891
 8942SOL    HW238463   2.070   3.990   3.001  1.7498 -0.2938 -0.6354
 8943SOL     OW38464   4.732   4.259  12.589 -0.2423 -0.6768 -0.6243
 8943SOL    HW138465   4.653   4.236  12.540  0.2417 -0.9121 -1.2943
 8943SOL    HW238466   0.065   4.268  12.523  0.5950 -1.9156  0.0710
 8944SOL     OW38467   2.915   4.458  12.346  0.6808  0.0341 -0.0449
 8944SOL    HW138468   2.856   4.461  12.422 -0.6607 -1.4215 -1.0233
 8944SOL    HW238469   2.953   4.545  12.335 -0.1287  0.4149  0.1446
 8945SOL     OW38470   0.551   0.268   2.047 -0.2891  0.3464  0.4005
 8945SOL    HW138471   0.553   0.172   2.051 -1.3496  0.3424  0.7644
 8945SOL    HW238472   0.626   0.293   2.101  1.8808  1.7190 -3.2067
 8946SOL     OW38473   1.804   2.274   3.896  0.0328  0.1643 -0.4866
 8946SOL    HW138474   1.825   2.278   3.803  0.0089 -1.6452 -0.5731
 8946SOL    HW238475   1.866   2.341   3.923 -0.7986  1.2132 -1.1549
 8947SOL     OW38476   4.347   3.253   1.953  0.1046  0.5846  0.1375
 8947SOL    HW138477   4.291   3.184   1.919  0.0465  0.0328  1.3436
 8947SOL    HW238478   4.409   3.196   1.998 -1.1754 -1.9674 -1.3331
 8948SOL     OW38479   3.572   2.617   6.736 -0.5608  0.3894  0.3127
 8948SOL    HW138480   3.531   2.548   6.685 -3.7237  1.4017  1.5282
 8948SOL    HW238481   3.600   2.669   6.661  2.0284 -0.7479  0.4992
 8949SOL     OW38482   0.365   2.428  12.647  0.2019  0.2628 -0.0821
 8949SOL    HW138483   0.302   2.447  12.578 -2.7214  0.2654  2.5826
 8949SOL    HW238484   0.431   2.497  12.638  0.9381 -0.6353 -1.4660
 8950SOL     OW38485   1.809   0.117  17.521  0.2348  0.2440 -0.7820
 8950SOL    HW138486   1.810   0.039  17.466 -0.5769  0.3906 -0.9976
 8950SOL    HW238487   1.716   0.139  17.521  0.0823 -0.4106 -0.3795
 8951SOL     OW38488   4.447   2.447  14.672 -0.3199  0.4517  0.8304
 8951SOL    HW138489   4.501   2.383  14.625 -0.3535  1.6322 -0.8549
 8951SOL    HW238490   4.365   2.443  14.623 -0.8634 -1.4576  1.9288
 8952SOL     OW38491   3.750   0.544  17.394 -0.0934  0.3044  0.5025
 8952SOL    HW138492   3.666   0.565  17.436 -0.5606  0.0320 -0.3030
 8952SOL    HW238493   3.717   0.467  17.349  0.7193  1.5846 -2.3188
 8953SOL     OW38494   2.606   2.326  10.113 -0.5062 -0.6624  0.2314
 8953SOL    HW138495   2.566   2.372  10.186  4.4577  2.8119  0.7640
 8953SOL    HW238496   2.693   2.318  10.153  0.3099  0.5491 -1.3124
 8954SOL     OW38497   3.234   4.057  16.025  0.0865 -0.1162 -0.0657
 8954SOL    HW138498   3.160   4.056  16.086 -0.4095  0.4513 -0.6758
 8954SOL    HW238499   3.187   4.082  15.946 -0.8372 -1.1895  0.1374
 8955SOL     OW38500   0.925   2.663   7.250 -0.4397 -0.6110  0.3417
 8955SOL    HW138501   0.853   2.628   7.303 -2.2046  2.2617 -0.1728
 8955SOL    HW238502   0.881   2.644   7.167 -0.0060  0.3724 -0.1024
 8956SOL     OW38503   4.189   1.551   0.840 -0.0925 -0.1120  0.0831
 8956SOL    HW138504   4.133   1.474   0.846  2.5737 -2.3877 -4.6346
 8956SOL    HW238505   4.279   1.518   0.831  0.5049  1.4268  0.3053
 8957SOL     OW38506   0.705   1.160  11.188 -0.5021  0.2287  0.0422
 8957SOL    HW138507   0.667   1.128  11.106 -0.5560  2.2680 -0.7399
 8957SOL    HW238508   0.794   1.126  11.179 -1.4038 -2.1436  0.2299
 8958SOL     OW38509   3.043   3.165  10.326  0.2407 -0.7046  0.7350
 8958SOL    HW138510   3.062   3.126  10.241  3.1226 -0.4681  1.2738
 8958SOL    HW238511   3.069   3.094  10.385  1.2587  0.2453  1.4288
 8959SOL     OW38512   2.978   2.182  12.805 -0.5091 -0.4881  0.2778
 8959SOL    HW138513   3.006   2.156  12.892 -0.0019 -2.1764 -0.3912
 8959SOL    HW238514   3.062   2.186  12.760 -0.6870  3.5422  0.3173
 8960SOL     OW38515   1.701   0.403   8.685  0.3100  0.3341  0.0577
 8960SOL    HW138516   1.725   0.374   8.597 -1.0660  0.2852 -0.3014
 8960SOL    HW238517   1.745   0.487   8.687  2.7118 -0.9193 -1.0508
 8961SOL     OW38518   4.203   0.097   2.149  0.2721  0.2450  0.6932
 8961SOL    HW138519   4.183   0.023   2.206 -1.0147 -0.7257 -1.0308
 8961SOL    HW238520   4.186   0.057   2.064 -0.9827  2.2765 -0.0204
 8962SOL     OW38521   3.494   1.746   4.130  0.1403 -0.5405 -0.2436
 8962SOL    HW138522   3.477   1.837   4.107  0.4314 -0.4159  0.0322
 8962SOL    HW238523   3.424   1.698   4.085 -0.5953 -0.7347  1.1094
 8963SOL     OW38524   2.625   4.365   3.457 -0.6369 -0.1368  0.5166
 8963SOL    HW138525   2.695   4.333   3.400  0.2365  2.5827  0.0580
 8963SOL    HW238526   2.676   4.414   3.521 -0.4510  1.7336 -1.0492
 8964SOL     OW38527   1.212   2.379  12.906  0.1409 -0.0716 -0.2506
 8964SOL    HW138528   1.272   2.336  12.845  2.7124  2.4766  0.4594
 8964SOL    HW238529   1.256   2.383  12.992 -1.3972  1.6059  0.4510
 8965SOL     OW38530   3.200   2.980  15.944 -0.5606 -0.2395  0.1940
 8965SOL    HW138531   3.187   3.074  15.932  0.1817  0.1771  2.6889
 8965SOL    HW238532   3.110   2.951  15.927 -0.3623 -0.2669 -0.8426
 8966SOL     OW38533   3.156   2.264   1.856 -1.0731 -0.5981 -0.0854
 8966SOL    HW138534   3.134   2.338   1.799  1.0954 -0.6209 -0.9561
 8966SOL    HW238535   3.235   2.230   1.814  0.0608  1.2296  0.5518
 8967SOL     OW38536   3.268   3.717   1.763  0.1335  1.0989  0.2982
 8967SOL    HW138537   3.344   3.775   1.759  2.0974 -1.5131 -0.3538
 8967SOL    HW238538   3.286   3.651   1.696 -1.0526 -0.3096  1.3700
 8968SOL     OW38539   1.904   1.048   2.023  0.6669  0.1606  0.9400
 8968SOL    HW138540   1.823   1.082   1.986  1.1073  0.1712 -0.0060
 8968SOL    HW238541   1.918   0.974   1.964  2.0774  0.4588  0.8845
 8969SOL     OW38542   2.367   1.792   6.294 -0.2943 -0.0166 -0.4944
 8969SOL    HW138543   2.391   1.827   6.380  0.2393 -2.6046  0.3902
 8969SOL    HW238544   2.446   1.785   6.241 -2.1747 -1.6636 -3.0997
 8970SOL     OW38545   4.377   0.883  11.470 -0.5508  0.1120 -0.0729
 8970SOL    HW138546   4.395   0.870  11.377 -0.6247  0.3846 -0.1266
 8970SOL    HW238547   4.460   0.866  11.514 -0.2627  2.8799  0.4373
 8971SOL     OW38548   3.175   3.515   3.595 -0.3032 -0.3194  0.4338
 8971SOL    HW138549   3.138   3.446   3.539 -0.4382  0.0361  0.0909
 8971SOL    HW238550   3.203   3.580   3.532  0.5327  0.8072  1.9687
 8972SOL     OW38551   3.739   0.837  11.734 -0.0045 -0.0314  0.7398
 8972SOL    HW138552   3.675   0.887  11.786 -1.2837  0.1341 -1.0035
 8972SOL    HW238553   3.722   0.750  11.769 -1.3592  0.0530  0.2801
 8973SOL     OW38554   1.804   0.714  14.801 -0.3200  0.4389  0.2965
 8973SOL    HW138555   1.761   0.799  14.809 -0.8903  0.1347  0.4620
 8973SOL    HW238556   1.823   0.710  14.707 -1.7274 -1.1586  0.0771
 8974SOL     OW38557   2.890   0.491   8.994  0.1717 -0.1289  0.3151
 8974SOL    HW138558   2.923   0.569   8.948 -0.7015  0.0422 -0.0258
 8974SOL    HW238559   2.894   0.519   9.085  1.1584 -3.5704  1.3000
 8975SOL     OW38560   0.723   1.804  14.615 -0.1898  0.0772  0.0751
 8975SOL    HW138561   0.637   1.847  14.616  0.7641  2.0051  0.8993
 8975SOL    HW238562   0.757   1.850  14.538  0.1504  1.2097  0.8877
 8976SOL     OW38563   2.354   2.817   9.487 -0.2080  0.3092 -0.2366
 8976SOL    HW138564   2.327   2.736   9.530  0.3578  0.9004  1.2301
 8976SOL    HW238565   2.325   2.797   9.398 -0.4169  2.0735 -0.5650
 8977SOL     OW38566   2.372   4.203  10.247  0.3237  0.0507 -0.1978
 8977SOL    HW138567   2.468   4.212  10.251  0.4122  1.0659 -4.3920
 8977SOL    HW238568   2.359   4.136  10.180  0.9573 -0.9123  0.6359
 8978SOL     OW38569   2.953   1.785  17.305  0.7185 -0.5706 -0.0636
 8978SOL    HW138570   3.022   1.729  17.339 -0.3681 -1.5223  0.6057
 8978SOL    HW238571   2.922   1.737  17.227  1.2956 -2.0628  0.6258
 8979SOL     OW38572   0.490   4.347  14.054  0.2112  0.2789  0.0919
 8979SOL    HW138573   0.463   4.438  14.067  0.3722  0.7511 -2.8204
 8979SOL    HW238574   0.570   4.365  14.005  1.1810  0.8580  1.8800
 8980SOL     OW38575   0.507   3.947  15.637 -0.5211  0.2375 -0.3514
 8980SOL    HW138576   0.516   4.000  15.716  0.6297 -0.4747  0.0073
 8980SOL    HW238577   0.579   3.985  15.586  0.3981 -0.4144  0.4524
 8981SOL     OW38578   2.691   4.030   5.448  0.0729 -0.2592 -0.1082
 8981SOL    HW138579   2.664   4.105   5.502 -0.4000  0.0968 -0.8372
 8981SOL    HW238580   2.613   4.004   5.399 -0.4123  1.7556 -0.4254
 8982SOL     OW38581   1.987   3.199   0.506 -0.0636  0.3286  0.1947
 8982SOL    HW138582   1.904   3.200   0.459  1.5796  1.6813 -2.7177
 8982SOL    HW238583   2.058   3.224   0.446  0.3921 -0.1646  0.5288
 8983SOL     OW38584   0.849   4.242   3.438 -0.3479  0.1042 -0.0021
 8983SOL    HW138585   0.923   4.183   3.456 -0.8575  0.2502  2.6124
 8983SOL    HW238586   0.882   4.294   3.365  1.6879 -1.3722 -0.1255
 8984SOL     OW38587   3.109   1.747   6.324 -0.6197 -0.1661 -0.2706
 8984SOL    HW138588   3.105   1.652   6.333 -1.3748 -0.0325  0.7921
 8984SOL    HW238589   3.193   1.746   6.279 -0.1858 -0.4126  0.5548
 8985SOL     OW38590   0.273   0.102   6.782 -0.2771  0.0633  0.2031
 8985SOL    HW138591   0.254   0.118   6.874 -0.5564  0.2763  0.1078
 8985SOL    HW238592   0.209   0.035   6.759  2.7281 -2.4705 -0.7375
 8986SOL     OW38593   2.989   2.348  12.374 -0.5434  0.0810 -0.3023
 8986SOL    HW138594   2.937   2.414  12.421  2.8400  2.1941  0.4616
 8986SOL    HW238595   3.014   2.397  12.296 -0.9266  1.9947  0.7719
 8987SOL     OW38596   0.087   3.162   6.361 -0.1282 -0.3208  0.3209
 8987SOL    HW138597   0.101   3.208   6.278 -1.4009 -0.6557 -0.0799
 8987SOL    HW238598   0.145   3.205   6.424  0.9789  1.4538 -1.9122
 8988SOL     OW38599   4.721   1.454   4.659  0.1086  0.3406 -0.2602
 8988SOL    HW138600   4.686   1.387   4.599 -2.5441 -0.9358  2.6947
 8988SOL    HW238601   0.014   1.524   4.601  2.0139  0.3932  0.7504
 8989SOL     OW38602   4.159   2.340  11.600 -0.4379  0.1807 -0.4374
 8989SOL    HW138603   4.079   2.290  11.616 -0.9221  0.8981 -0.6309
 8989SOL    HW238604   4.149   2.363  11.507  0.4699 -0.7489 -0.7725
 8990SOL     OW38605   3.971   3.785  14.075  0.2078  0.0635  0.5630
 8990SOL    HW138606   4.046   3.822  14.028  2.0052 -2.3928  1.5261
 8990SOL    HW238607   3.998   3.694  14.071  0.4319  0.1900 -0.6590
 8991SOL     OW38608   0.944   0.163  16.446  0.3517  0.6388 -0.7665
 8991SOL    HW138609   0.877   0.194  16.508  0.9700  0.8281 -0.1952
 8991SOL    HW238610   1.016   0.220  16.471  1.6598 -1.0672 -0.6809
 8992SOL     OW38611   2.760   4.346   2.820 -0.2075  0.0187 -0.0016
 8992SOL    HW138612   2.825   4.403   2.779  0.9943 -1.5649 -0.3003
 8992SOL    HW238613   2.812   4.266   2.828 -1.4041 -0.8090 -0.3834
 8993SOL     OW38614   3.941   1.863   4.459  0.2243 -0.0202  0.0349
 8993SOL    HW138615   4.032   1.887   4.444  0.5999 -1.1952  0.4093
 8993SOL    HW238616   3.900   1.869   4.372  0.1256  0.1624  0.0933
 8994SOL     OW38617   2.291   4.400   2.305 -0.0453 -0.3282  0.0993
 8994SOL    HW138618   2.268   4.354   2.386  0.5772  0.4648  0.7301
 8994SOL    HW238619   2.386   4.408   2.307  0.0206 -0.6187 -1.8171
 8995SOL     OW38620   1.412   3.503  12.846  0.0932 -0.1328 -0.5300
 8995SOL    HW138621   1.382   3.523  12.935 -2.0138 -1.4167 -0.9698
 8995SOL    HW238622   1.469   3.580  12.839  0.2488 -0.0373  1.8794
 8996SOL     OW38623   4.262   2.694   7.252 -0.5174  0.4966 -0.1641
 8996SOL    HW138624   4.292   2.667   7.340 -3.3200 -1.0661  0.3133
 8996SOL    HW238625   4.273   2.789   7.256  1.2236  0.2689  0.4976
 8997SOL     OW38626   4.390   3.006   3.105  0.2953 -0.3313 -0.0890
 8997SOL    HW138627   4.365   2.928   3.155 -1.5794 -1.1748 -2.3482
 8997SOL    HW238628   4.482   3.009   3.131 -0.8379  0.2068  3.6985
 8998SOL     OW38629   4.024   3.320  10.071  0.4835 -0.3648 -0.2788
 8998SOL    HW138630   4.052   3.399  10.026  2.1500 -1.0182 -0.3856
 8998SOL    HW238631   4.006   3.364  10.154  0.4320 -0.0372 -0.4646
 8999SOL     OW38632   3.630   3.531   3.495  0.0846  0.7768 -0.1110
 8999SOL    HW138633   3.559   3.526   3.431  1.2963  1.9195 -1.5495
 8999SOL    HW238634   3.573   3.544   3.570 -0.0799  1.3490 -0.3338
 9000SOL     OW38635   1.942   1.805   0.092 -0.2020 -1.1764  0.7997
 9000SOL    HW138636   1.948   1.894   0.127 -0.1594 -0.7705 -0.2533
 9000SOL    HW238637   1.916   1.832   0.004  3.1699 -1.6329 -0.3027
 9001SOL     OW38638   3.908   2.118   4.308  0.3267  0.6736 -0.5681
 9001SOL    HW138639   3.984   2.069   4.276  0.1020 -0.6117  0.9029
 9001SOL    HW238640   3.960   2.125   4.387  0.9485  0.8373 -0.9950
 9002SOL     OW38641   0.177   4.394   7.191  0.3229  0.2510 -0.1997
 9002SOL    HW138642   0.107   4.395   7.125 -0.6636  0.2328  0.8578
 9002SOL    HW238643   0.123   4.389   7.269  1.8273  0.4345  0.8396
 9003SOL     OW38644   4.206   2.074  10.328  0.5633  0.0573 -0.2959
 9003SOL    HW138645   4.293   2.072  10.287  1.0932  0.7702  0.7836
 9003SOL    HW238646   4.232   2.069  10.420  1.2180  0.2154 -0.4689
 9004SOL     OW38647   3.815   2.259  16.195  0.2625  0.1685 -0.4069
 9004SOL    HW138648   3.895   2.250  16.142 -1.3962 -1.9966 -2.5213
 9004SOL    HW238649   3.767   2.210  16.129 -2.1644 -0.1054  1.5926
 9005SOL     OW38650   0.665   1.348  11.591 -0.3964  0.3038 -0.8415
 9005SOL    HW138651   0.703   1.360  11.504  1.1245 -1.0762 -0.3504
 9005SOL    HW238652   0.747   1.359  11.639 -0.1353  1.2586 -1.5076
 9006SOL     OW38653   3.914   0.571   4.985  0.4467  0.0647 -0.1096
 9006SOL    HW138654   3.920   0.505   4.916 -0.5582 -2.0596  1.8235
 9006SOL    HW238655   3.912   0.651   4.933 -0.6205 -0.8749 -1.4906
 9007SOL     OW38656   1.616   1.708   8.048 -0.5643 -0.2662  0.0484
 9007SOL    HW138657   1.639   1.793   8.085  1.2195 -0.6583 -0.1533
 9007SOL    HW238658   1.672   1.704   7.970  1.4713  0.5693  1.4827
 9008SOL     OW38659   2.976   1.233   5.390 -0.3856  0.0549  0.1846
 9008SOL    HW138660   2.881   1.230   5.377 -0.6105  1.1273  1.5258
 9008SOL    HW238661   2.978   1.202   5.481 -2.1477  0.8053  0.4793
 9009SOL     OW38662   0.413   0.926   5.620  0.4670  0.0758 -0.2953
 9009SOL    HW138663   0.466   0.916   5.541  0.8319 -2.6413  0.2776
 9009SOL    HW238664   0.417   1.019   5.639  1.7812  0.2317 -1.3579
 9010SOL     OW38665   3.133   1.248   4.837  0.1578  0.1984  0.0959
 9010SOL    HW138666   3.056   1.288   4.878 -1.3698 -1.8161 -0.8157
 9010SOL    HW238667   3.152   1.313   4.769  0.4250  0.4278  0.3886
 9011SOL     OW38668   1.944   1.872   1.562 -0.6133 -0.6071 -0.2083
 9011SOL    HW138669   2.011   1.890   1.496  1.2911  0.8579  2.1231
 9011SOL    HW238670   1.941   1.777   1.569 -0.3722 -0.4162  2.4240
 9012SOL     OW38671   1.411   2.890   1.431  0.2572  0.0780 -0.3072
 9012SOL    HW138672   1.483   2.953   1.437 -0.5521  1.0862 -1.4003
 9012SOL    HW238673   1.438   2.840   1.508  1.4050  0.7063 -0.2934
 9013SOL     OW38674   0.116   0.547   9.289  0.4313  0.0281 -0.0604
 9013SOL    HW138675   0.098   0.641   9.280 -0.1569 -0.0370  0.4421
 9013SOL    HW238676   0.142   0.538   9.381  1.9155  1.9068 -0.2894
 9014SOL     OW38677   4.715   4.448  11.599  0.1494  0.5338  0.3377
 9014SOL    HW138678   4.705   4.507  11.525  0.3166 -1.1051 -1.0147
 9014SOL    HW238679   0.055   4.485  11.644  2.3859 -0.9262 -2.1547
 9015SOL     OW38680   1.455   2.573   9.910  0.0035 -0.0352 -0.2169
 9015SOL    HW138681   1.551   2.572   9.916  0.0605 -0.2303 -1.0889
 9015SOL    HW238682   1.438   2.481   9.930  2.1357 -0.3302  0.2521
 9016SOL     OW38683   4.236   3.636   7.688 -1.0095 -0.1000  0.0387
 9016SOL    HW138684   4.270   3.564   7.741  0.4728  1.4113  1.1749
 9016SOL    HW238685   4.156   3.648   7.738 -1.0683 -1.2559  0.2278
 9017SOL     OW38686   1.404   1.370   8.785 -0.4193 -0.2695  0.4157
 9017SOL    HW138687   1.382   1.463   8.781 -0.5993 -0.3496 -0.4857
 9017SOL    HW238688   1.487   1.367   8.737  1.1820  1.8363  3.0152
 9018SOL     OW38689   3.456   4.724  14.694 -0.0508  0.0855  0.2066
 9018SOL    HW138690   3.477   4.648  14.640 -0.5323  0.5019 -0.5685
 9018SOL    HW238691   3.537   4.731  14.745  1.6866  1.5123 -2.7230
 9019SOL     OW38692   1.476   1.926   6.536  0.4389 -0.0138 -0.2758
 9019SOL    HW138693   1.403   1.865   6.543 -1.3799  2.4760  2.7757
 9019SOL    HW238694   1.462   1.977   6.457  1.6401  1.0610  0.2095
 9020SOL     OW38695   1.533   3.476  16.637  0.1812  0.3933  0.1913
 9020SOL    HW138696   1.568   3.445  16.554 -1.2091  2.6792 -1.2334
 9020SOL    HW238697   1.595   3.443  16.703 -0.9678 -0.1898  0.9710
 9021SOL     OW38698   3.385   0.364   6.004  0.0764  0.1967 -0.4995
 9021SOL    HW138699   3.339   0.281   5.994  0.2825 -0.0341  0.5551
 9021SOL    HW238700   3.322   0.428   5.969  0.1551  1.4032  1.6004
 9022SOL     OW38701   0.105   2.275   3.280  0.1393 -0.0627 -0.4029
 9022SOL    HW138702   0.155   2.230   3.212 -0.5729  0.3515 -1.1910
 9022SOL    HW238703   0.032   2.215   3.297 -0.8254  0.0026 -4.2394
 9023SOL     OW38704   2.849   4.165   0.819  0.0119 -0.4655 -1.0709
 9023SOL    HW138705   2.820   4.134   0.905 -1.9677  2.0492 -0.8473
 9023SOL    HW238706   2.765   4.155   0.773 -0.5079  0.0165 -0.2199
 9024SOL     OW38707   4.501   2.813   2.031  0.0257  0.0332  0.0971
 9024SOL    HW138708   4.486   2.888   2.088 -1.3313  1.9255 -2.7325
 9024SOL    HW238709   4.413   2.808   1.994 -0.0260 -1.1200  0.3682
 9025SOL     OW38710   3.852   2.349  14.800  0.2395 -0.1596  0.1297
 9025SOL    HW138711   3.893   2.429  14.833 -0.2711 -0.0990  0.6292
 9025SOL    HW238712   3.800   2.385  14.728 -0.5683  1.2687  1.4405
 9026SOL     OW38713   2.329   1.655   0.736  0.2926  0.4301  0.2596
 9026SOL    HW138714   2.310   1.731   0.681 -0.3002  0.7939  0.9662
 9026SOL    HW238715   2.290   1.586   0.683 -0.5084 -1.0581  2.7960
 9027SOL     OW38716   2.468   1.572   2.834 -0.1096 -0.1944 -0.0379
 9027SOL    HW138717   2.473   1.667   2.825 -0.8695 -0.1186  0.3128
 9027SOL    HW238718   2.432   1.558   2.746  0.4489 -1.7829 -0.0204
 9028SOL     OW38719   3.488   3.802   1.287  0.2690 -0.2412 -0.4915
 9028SOL    HW138720   3.567   3.770   1.331 -0.1915 -0.5243  0.1324
 9028SOL    HW238721   3.499   3.896   1.300 -4.0584 -0.0495  1.8478
 9029SOL     OW38722   1.470   4.490  11.140 -0.0027  0.2856 -0.3326
 9029SOL    HW138723   1.556   4.450  11.153  0.7577  2.6561  1.6978
 9029SOL    HW238724   1.418   4.411  11.124 -1.3913  1.4281 -1.5209
 9030SOL     OW38725   1.318   1.654   5.619  0.4813  0.2780 -0.3617
 9030SOL    HW138726   1.272   1.673   5.701  0.6266 -0.0041 -0.2149
 9030SOL    HW238727   1.321   1.559   5.630  0.5951  0.4088  0.7372
 9031SOL     OW38728   0.243   4.626   4.626  0.3171 -0.6424 -0.6933
 9031SOL    HW138729   0.299   4.616   4.703 -2.0508  1.2589  1.2914
 9031SOL    HW238730   0.305   4.668   4.568 -1.0309  2.6937  0.2752
 9032SOL     OW38731   3.944   3.005   1.573 -0.0405  0.2737  0.3643
 9032SOL    HW138732   3.853   2.976   1.571  0.7860 -2.1210 -1.9145
 9032SOL    HW238733   3.964   3.018   1.481  1.1829 -0.2590  0.5526
 9033SOL     OW38734   0.465   2.509  14.455  0.0159 -0.4954  0.0165
 9033SOL    HW138735   0.387   2.465  14.487  1.5042 -2.2545  1.2194
 9033SOL    HW238736   0.471   2.579  14.521  0.7389  1.3443 -1.9969
 9034SOL     OW38737   0.489   4.562   6.388  0.5386 -0.5507 -0.1412
 9034SOL    HW138738   0.551   4.526   6.324  1.9172 -0.6194  1.2228
 9034SOL    HW238739   0.466   4.649   6.355  1.9243  0.5279  1.6930
 9035SOL     OW38740   3.266   2.711  11.714  0.2315 -1.2070 -0.1763
 9035SOL    HW138741   3.347   2.680  11.755 -1.5175 -1.5007  2.9744
 9035SOL    HW238742   3.232   2.623  11.695  0.3868 -1.1838 -0.5751
 9036SOL     OW38743   1.589   2.178   2.395  0.5678 -0.3435  0.1102
 9036SOL    HW138744   1.670   2.127   2.391  1.0039  0.5258 -2.1252
 9036SOL    HW238745   1.572   2.210   2.307 -0.2160 -0.6487  0.1515
 9037SOL     OW38746   2.206   4.621   2.095  0.1793 -0.2069  0.7109
 9037SOL    HW138747   2.159   4.594   2.016 -1.6296  1.3881  1.2264
 9037SOL    HW238748   2.215   4.540   2.146  1.8970  1.8415  3.6541
 9038SOL     OW38749   0.629   4.236   3.928  0.2704  0.3048  0.4194
 9038SOL    HW138750   0.675   4.277   3.854 -0.0503 -0.0539  0.0186
 9038SOL    HW238751   0.694   4.238   3.998 -0.6525 -0.5907  1.3066
 9039SOL     OW38752   3.434   0.064   8.731  0.2075  0.2137 -0.0221
 9039SOL    HW138753   3.357   0.039   8.680  0.9443 -1.6017 -0.2527
 9039SOL    HW238754   3.417   0.029   8.818  0.6257 -0.6035 -0.2729
 9040SOL     OW38755   2.262   3.844   2.402  0.0878  0.3411  0.2479
 9040SOL    HW138756   2.352   3.829   2.433 -0.2126  1.0797  1.4857
 9040SOL    HW238757   2.265   3.931   2.362 -0.1548 -0.1753 -0.8967
 9041SOL     OW38758   2.930   2.894   8.048  0.2355  0.1427  0.1710
 9041SOL    HW138759   2.985   2.822   8.078 -0.4164  0.2373  1.6079
 9041SOL    HW238760   2.909   2.947   8.125  0.3101  0.6162 -0.1393
 9042SOL     OW38761   0.171   3.065  10.752 -0.0145  0.5675  0.0630
 9042SOL    HW138762   0.167   3.144  10.805  0.0621  3.3132 -3.9853
 9042SOL    HW238763   0.088   3.072  10.706 -0.8921 -3.8746  0.9392
 9043SOL     OW38764   0.373   4.409   1.934 -0.0120  0.9719  0.4177
 9043SOL    HW138765   0.355   4.430   2.025  0.5275  2.4754  0.1943
 9043SOL    HW238766   0.301   4.350   1.914  0.7445 -0.2121  1.1955
 9044SOL     OW38767   3.298   4.734   4.473  0.5805 -0.1671  0.6181
 9044SOL    HW138768   3.279   0.045   4.555  0.3721  1.3996 -0.3173
 9044SOL    HW238769   3.261   4.649   4.499 -0.0030  0.0452  0.4817
 9045SOL     OW38770   1.964   4.200   8.061  0.1396 -0.0623  0.0475
 9045SOL    HW138771   1.974   4.156   8.146 -2.3646 -1.5557 -0.4424
 9045SOL    HW238772   1.872   4.183   8.039  0.6823  0.4605 -2.6435
 9046SOL     OW38773   0.847   1.106  15.618  0.0943 -0.6867  0.2671
 9046SOL    HW138774   0.877   1.033  15.564  3.4353  0.7329  0.2336
 9046SOL    HW238775   0.775   1.133  15.561 -0.5599 -3.6141 -0.3001
 9047SOL     OW38776   3.302   4.723   2.629  0.0297  1.0570  0.4431
 9047SOL    HW138777   3.253   0.070   2.629 -0.4289  0.7594 -1.6288
 9047SOL    HW238778   3.301   4.694   2.721 -0.8647 -1.1656 -0.2732
 9048SOL     OW38779   2.804   2.766  12.792  0.8370  0.0800 -0.3366
 9048SOL    HW138780   2.880   2.750  12.848 -0.4463 -3.2783  0.4177
 9048SOL    HW238781   2.839   2.770  12.703 -0.8925  4.2348 -0.8348
 9049SOL     OW38782   2.233   4.081   8.414  0.4343 -0.4801 -0.4137
 9049SOL    HW138783   2.185   4.107   8.493  0.3016 -1.4500 -0.1675
 9049SOL    HW238784   2.157   4.049   8.364  0.5285  0.1977 -0.9886
 9050SOL     OW38785   0.886   4.443   6.161 -0.2825 -0.0208  0.1054
 9050SOL    HW138786   0.936   4.362   6.162 -0.5595 -0.1880  0.4585
 9050SOL    HW238787   0.929   4.507   6.218  1.0922 -0.1692 -0.7671
 9051SOL     OW38788   0.711   2.456  12.889  0.1056  0.5279 -0.1089
 9051SOL    HW138789   0.694   2.435  12.981  0.1234 -1.5756 -0.5976
 9051SOL    HW238790   0.699   2.551  12.896 -1.8967  0.4059 -1.8759
 9052SOL     OW38791   2.346   1.138   6.339 -0.1609  0.1837  0.2056
 9052SOL    HW138792   2.345   1.056   6.290 -0.1938  0.7022 -0.6636
 9052SOL    HW238793   2.405   1.109   6.408  1.4099  0.7294 -0.9016
 9053SOL     OW38794   0.900   0.623   7.487  0.0312 -0.1257  0.2769
 9053SOL    HW138795   0.927   0.656   7.573 -0.3462 -0.0966  0.3853
 9053SOL    HW238796   0.851   0.545   7.513  1.4102 -1.0671  0.0569
 9054SOL     OW38797   0.983   3.228   3.945 -0.0616  0.0655 -0.2229
 9054SOL    HW138798   1.041   3.251   3.873 -0.8086 -0.4976 -1.0114
 9054SOL    HW238799   0.909   3.223   3.885 -0.3578  0.3798  0.1097
 9055SOL     OW38800   4.733   3.872  16.023  0.0499 -0.0553  0.6855
 9055SOL    HW138801   4.724   3.914  16.109 -0.3323 -0.7445  0.9797
 9055SOL    HW238802   0.051   3.795  16.043 -1.1830 -1.2915 -0.7359
 9056SOL     OW38803   1.102   1.979  13.904 -0.0572 -0.5534 -0.2882
 9056SOL    HW138804   1.040   2.034  13.951  1.9158  0.9684  0.5394
 9056SOL    HW238805   1.149   2.030  13.838 -0.1008  1.0794  0.9706
 9057SOL     OW38806   3.061   0.616  17.599 -0.1199 -0.2483  0.4798
 9057SOL    HW138807   3.125   0.681  17.628 -0.0438  0.0198 -0.2797
 9057SOL    HW238808   3.040   0.654  17.514 -0.9980  0.5031  1.0331
 9058SOL     OW38809   2.936   1.361   3.963  0.6776  0.5716 -0.1206
 9058SOL    HW138810   2.898   1.399   4.043  1.2744 -0.4685  0.6508
 9058SOL    HW238811   3.026   1.335   3.978 -0.0403 -0.4257  2.3964
 9059SOL     OW38812   3.053   4.062   1.552 -0.3240 -0.3736 -0.3646
 9059SOL    HW138813   3.044   3.987   1.612  0.2779 -0.6980 -0.6717
 9059SOL    HW238814   3.099   4.029   1.475 -2.2914 -1.7101 -0.9509
 9060SOL     OW38815   3.877   3.323   4.196  0.0426  0.0229  0.2816
 9060SOL    HW138816   3.947   3.266   4.227 -2.3438 -2.4079  1.1005
 9060SOL    HW238817   3.815   3.257   4.165  2.1567 -2.6337  1.7079
 9061SOL     OW38818   3.930   4.392   8.188  0.9588  0.0991  0.1207
 9061SOL    HW138819   3.888   4.406   8.273 -0.6917 -1.8627 -0.3440
 9061SOL    HW238820   3.973   4.475   8.171 -1.7023  1.6988  1.2587
 9062SOL     OW38821   0.085   3.642   6.302  0.0566 -0.2470 -0.3024
 9062SOL    HW138822   0.149   3.659   6.232 -1.2434  1.8387 -0.9824
 9062SOL    HW238823   0.037   3.725   6.300 -0.7506 -0.7401 -1.7058
 9063SOL     OW38824   4.521   4.117   2.448  0.1133 -0.0377  0.0285
 9063SOL    HW138825   4.615   4.137   2.450 -0.2632  1.8161 -0.8139
 9063SOL    HW238826   4.510   4.033   2.403  0.8895  0.8164 -1.7669
 9064SOL     OW38827   4.003   1.999  10.155 -0.2480 -0.1393  0.0160
 9064SOL    HW138828   4.055   1.987  10.075  2.5731  1.6874  1.5641
 9064SOL    HW238829   4.076   2.032  10.207 -1.0103  0.0168  0.9783
 9065SOL     OW38830   4.499   1.033   3.332 -0.1005  0.3391  0.5061
 9065SOL    HW138831   4.408   1.010   3.318  0.1523  0.7219 -1.7594
 9065SOL    HW238832   4.540   0.954   3.367  1.7306  0.0618 -2.2390
 9066SOL     OW38833   0.332   3.082   0.607 -0.3202 -0.0266  0.8246
 9066SOL    HW138834   0.325   2.987   0.600  1.4114 -0.0070 -1.0929
 9066SOL    HW238835   0.242   3.098   0.634 -0.8083  2.1839 -2.1268
 9067SOL     OW38836   1.027   2.596   5.971  0.3168 -0.3025  0.3750
 9067SOL    HW138837   1.021   2.568   6.062  1.1797 -1.1807  0.1589
 9067SOL    HW238838   1.057   2.684   5.995  2.4608 -1.0354  0.3890
 9068SOL     OW38839   0.703   4.674  16.618 -0.2908  0.7083  0.5447
 9068SOL    HW138840   0.684   0.022  16.575 -2.2667 -0.5817 -1.0874
 9068SOL    HW238841   0.785   4.647  16.578  0.0252 -0.4003  1.9541
 9069SOL     OW38842   0.181   2.747  12.103 -0.2367  0.0321  0.5401
 9069SOL    HW138843   0.208   2.785  12.187 -0.2805 -1.7212  1.3441
 9069SOL    HW238844   0.268   2.745  12.062  1.0700  0.7827  3.2578
 9070SOL     OW38845   3.904   4.457   4.456  0.3277  0.7518 -0.1925
 9070SOL    HW138846   3.932   4.506   4.533 -1.1661 -0.1481  0.8996
 9070SOL    HW238847   3.815   4.491   4.449  0.0509  0.1485  0.5432
 9071SOL     OW38848   3.989   3.462  16.879 -0.6745 -0.6970  0.2014
 9071SOL    HW138849   4.060   3.458  16.943 -0.2102 -0.2041 -0.2904
 9071SOL    HW238850   3.991   3.373  16.845 -0.2134 -0.8651  0.6773
 9072SOL     OW38851   2.766   1.122   3.418  0.8473  0.4517  0.1359
 9072SOL    HW138852   2.802   1.045   3.372  1.6673  0.9564 -0.0739
 9072SOL    HW238853   2.778   1.087   3.506 -2.5176 -3.1416 -0.8496
 9073SOL     OW38854   1.548   0.159   1.571 -0.2167  0.4819  0.2002
 9073SOL    HW138855   1.523   0.123   1.656  1.5293 -2.0462 -0.3644
 9073SOL    HW238856   1.461   0.181   1.537 -0.4731 -1.5128 -0.4449
 9074SOL     OW38857   1.025   1.591   7.951  0.0573  0.7711  0.4783
 9074SOL    HW138858   1.043   1.570   8.043  0.5479  1.4817  0.5463
 9074SOL    HW238859   1.041   1.685   7.938 -0.9379  0.8278 -0.2767
 9075SOL     OW38860   0.698   0.142   8.205  0.6879  0.5145  1.0638
 9075SOL    HW138861   0.650   0.059   8.211 -0.3998  1.2449  2.4841
 9075SOL    HW238862   0.751   0.141   8.285 -0.0958 -2.5322  1.5511
 9076SOL     OW38863   0.710   0.562   2.962  0.0433 -0.1218  0.2391
 9076SOL    HW138864   0.765   0.518   3.026 -0.3151 -1.3070 -0.2728
 9076SOL    HW238865   0.676   0.485   2.916  1.3779 -0.2693 -0.4944
 9077SOL     OW38866   2.644   4.191  11.714  0.5374 -0.3886 -1.0162
 9077SOL    HW138867   2.680   4.262  11.767 -3.3062 -0.2489  1.3436
 9077SOL    HW238868   2.549   4.204  11.713  0.4984 -0.7215 -1.7642
 9078SOL     OW38869   2.283   4.174   8.840  0.1611  0.0365  0.4695
 9078SOL    HW138870   2.293   4.261   8.799  1.0867 -0.4489 -0.3337
 9078SOL    HW238871   2.235   4.121   8.777  1.1538 -1.2792  0.8153
 9079SOL     OW38872   0.469   0.693   7.465  0.0272  0.2207  0.2623
 9079SOL    HW138873   0.391   0.667   7.514  0.3250  1.2082  1.2531
 9079SOL    HW238874   0.422   0.696   7.382  2.3524  0.0973 -1.0786
 9080SOL     OW38875   0.436   1.347  14.209 -0.0984  0.0272  1.1632
 9080SOL    HW138876   0.357   1.369  14.259 -1.3046 -0.2384 -0.6259
 9080SOL    HW238877   0.487   1.285  14.261  0.9673  0.1106  0.2166
 9081SOL     OW38878   4.473   0.368   6.762 -0.0242  0.0421 -0.0793
 9081SOL    HW138879   4.455   0.461   6.746  2.0019  0.2917 -0.8454
 9081SOL    HW238880   4.439   0.353   6.851 -1.5671  3.5680 -0.0804
 9082SOL     OW38881   1.500   2.450   8.403 -0.0207 -0.2638  0.2242
 9082SOL    HW138882   1.552   2.425   8.327  1.9123  0.6047  1.2630
 9082SOL    HW238883   1.455   2.531   8.379  2.1411  1.1468  0.9062
 9083SOL     OW38884   1.564   1.074   2.487 -0.1045  0.1155  0.2887
 9083SOL    HW138885   1.565   0.978   2.489 -0.2841  0.1144  0.2883
 9083SOL    HW238886   1.586   1.088   2.579  0.5913 -0.2469  0.1777
 9084SOL     OW38887   4.373   2.583   8.101 -0.2115 -0.7703 -0.4461
 9084SOL    HW138888   4.346   2.503   8.147  1.4570 -1.8540 -1.3792
 9084SOL    HW238889   4.446   2.551   8.049 -0.1200 -1.1867 -0.0564
 9085SOL     OW38890   1.745   0.880   5.611  0.1024 -0.2040 -0.3948
 9085SOL    HW138891   1.735   0.974   5.625  2.3305 -0.0104 -0.1479
 9085SOL    HW238892   1.660   0.846   5.639  0.0157  0.0153 -0.3946
 9086SOL     OW38893   0.814   3.241   8.788  0.1978 -0.3221 -0.3129
 9086SOL    HW138894   0.833   3.148   8.788  0.5690 -0.2375 -1.5723
 9086SOL    HW238895   0.719   3.225   8.788  0.5993 -2.6728  0.9770
 9087SOL     OW38896   3.995   2.461  16.647  0.6005  0.6189  0.6820
 9087SOL    HW138897   4.064   2.447  16.582 -0.7059 -1.5535 -0.2454
 9087SOL    HW238898   3.979   2.372  16.679 -3.5577  0.5903 -1.4759
 9088SOL     OW38899   2.318   0.522   5.286  0.2235 -0.2367  0.0465
 9088SOL    HW138900   2.230   0.551   5.309 -0.0186 -1.7264  0.9973
 9088SOL    HW238901   2.304   0.429   5.304 -0.0789 -0.2391 -0.2003
 9089SOL     OW38902   1.386   0.999   4.490  0.8353 -0.5282 -0.3039
 9089SOL    HW138903   1.401   0.933   4.422  3.0424 -0.0552 -0.2941
 9089SOL    HW238904   1.479   1.005   4.513  0.5287 -1.9266  1.2592
 9090SOL     OW38905   1.483   3.376   6.720  0.2221  0.3352  0.2747
 9090SOL    HW138906   1.493   3.292   6.766  0.1750  0.2095  0.0559
 9090SOL    HW238907   1.413   3.409   6.776  2.2069  1.5688  1.9964
 9091SOL     OW38908   1.387   4.552  16.306  0.1016 -0.0838 -0.1254
 9091SOL    HW138909   1.435   4.632  16.327  1.6481 -0.9296 -0.4432
 9091SOL    HW238910   1.353   4.543  16.395 -0.5816  0.0345 -0.3769
 9092SOL     OW38911   4.363   3.791  11.281  0.0090  0.2676  0.0874
 9092SOL    HW138912   4.316   3.731  11.223 -0.6125  1.4337 -0.6262
 9092SOL    HW238913   4.418   3.838  11.217  1.7692 -2.4873 -0.4391
 9093SOL     OW38914   0.643   1.842   4.256  0.1810 -0.3187  0.0722
 9093SOL    HW138915   0.608   1.925   4.290 -2.5488 -0.9074 -1.2819
 9093SOL    HW238916   0.562   1.801   4.227 -0.8419  2.2572 -0.7677
 9094SOL     OW38917   4.609   0.636   4.365  1.0394 -0.5516  0.6403
 9094SOL    HW138918   4.655   0.642   4.449 -0.2283  1.1411  1.2248
 9094SOL    HW238919   4.543   0.569   4.384  0.3565  1.2070  4.6132
 9095SOL     OW38920   1.623   0.279   0.132  0.9383 -0.1008 -0.3165
 9095SOL    HW138921   1.631   0.263   0.038  0.9630 -1.6223 -0.0463
 9095SOL    HW238922   1.531   0.305   0.134  1.2791  1.0646  0.6353
 9096SOL     OW38923   2.576   0.308  17.230  0.1459  0.2075  0.0929
 9096SOL    HW138924   2.548   0.244  17.295  3.2778 -1.0847  0.1408
 9096SOL    HW238925   2.662   0.332  17.262  1.0354 -0.5209 -1.7628
 9097SOL     OW38926   1.560   0.570   9.150 -0.9783  0.0230 -0.6937
 9097SOL    HW138927   1.498   0.533   9.213 -0.2638  0.4473  0.2595
 9097SOL    HW238928   1.526   0.558   9.061 -1.5035  0.4035 -0.5416
 9098SOL     OW38929   1.816   3.516   1.478 -0.0977  0.6019  0.1971
 9098SOL    HW138930   1.750   3.457   1.443 -1.4982  1.5717  1.2094
 9098SOL    HW238931   1.891   3.458   1.495  1.2858  2.6021  0.9636
 9099SOL     OW38932   0.415   4.104   9.241  0.7087 -0.4091 -0.5131
 9099SOL    HW138933   0.510   4.099   9.235  0.8461  0.9063  0.5417
 9099SOL    HW238934   0.392   4.197   9.248 -0.0665 -0.5111 -1.7390
 9100SOL     OW38935   3.882   0.305   6.819  0.5568 -0.1406 -0.3870
 9100SOL    HW138936   3.877   0.227   6.764 -0.7718  0.0899 -0.5912
 9100SOL    HW238937   3.796   0.342   6.800  0.8469 -0.4792 -2.3785
 9101SOL     OW38938   3.519   2.904   2.214 -0.0262 -0.9496 -0.1770
 9101SOL    HW138939   3.599   2.860   2.243  0.2543 -0.7327 -0.6101
 9101SOL    HW238940   3.466   2.838   2.168 -0.5635 -3.1603  3.6695
 9102SOL     OW38941   3.089   4.008  12.985  0.3743  0.2758 -0.2517
 9102SOL    HW138942   3.019   4.033  12.925 -0.4706  0.9601  1.0225
 9102SOL    HW238943   3.146   3.963  12.922 -0.6549 -0.6106 -0.5471
 9103SOL     OW38944   2.989   2.054   1.334 -0.0058  0.0373  0.0785
 9103SOL    HW138945   3.050   2.003   1.387 -1.8262  0.0669  2.1919
 9103SOL    HW238946   3.008   2.011   1.250 -0.4885 -1.0525  0.5306
 9104SOL     OW38947   3.345   2.978   0.159 -0.1932 -0.6852  0.4538
 9104SOL    HW138948   3.360   2.924   0.082  0.1595 -0.4525  0.3624
 9104SOL    HW238949   3.301   2.913   0.215 -0.3234 -1.5184 -0.6099
 9105SOL     OW38950   2.104   0.914  11.479 -0.7091  0.1737 -0.0037
 9105SOL    HW138951   2.195   0.916  11.509 -0.3844 -1.2898 -0.8901
 9105SOL    HW238952   2.068   1.000  11.500  1.8633  1.1008  0.6577
 9106SOL     OW38953   3.281   0.747   3.010  0.0444  0.3933 -0.3891
 9106SOL    HW138954   3.214   0.738   2.943  0.8917 -0.4418 -1.1303
 9106SOL    HW238955   3.343   0.808   2.969 -0.3578 -0.9561 -3.0478
 9107SOL     OW38956   4.481   4.576   7.245 -0.4381  0.1825 -0.1404
 9107SOL    HW138957   4.437   4.571   7.330 -0.9597  1.9501 -0.3206
 9107SOL    HW238958   4.567   4.542   7.268 -1.0084 -0.7105  0.7013
 9108SOL     OW38959   2.577   3.733   8.285  0.2856 -0.0157 -0.0453
 9108SOL    HW138960   2.617   3.813   8.251  1.9419 -0.4493  0.8810
 9108SOL    HW238961   2.509   3.722   8.218  0.7452  0.0478 -0.5229
 9109SOL     OW38962   2.505   2.393   9.407  0.0500  0.4633  0.0197
 9109SOL    HW138963   2.524   2.462   9.471  0.0390  0.4817  0.0031
 9109SOL    HW238964   2.468   2.449   9.339 -2.9591 -1.1630  0.3126
 9110SOL     OW38965   3.517   0.584   3.052 -0.0138 -0.0592 -0.2240
 9110SOL    HW138966   3.522   0.679   3.040 -2.9940 -0.0795 -1.6660
 9110SOL    HW238967   3.432   0.581   3.096 -0.5174  3.1626 -0.9077
 9111SOL     OW38968   0.747   1.652  15.293  1.0426 -0.3229  0.1409
 9111SOL    HW138969   0.703   1.674  15.374  0.1255 -0.8996 -0.2065
 9111SOL    HW238970   0.827   1.703  15.307  0.5897  0.8344 -1.4837
 9112SOL     OW38971   2.095   2.865  10.944  0.1405  0.7125  0.0424
 9112SOL    HW138972   2.085   2.889  11.036  0.2214 -2.2939  0.8308
 9112SOL    HW238973   2.158   2.933  10.918 -1.5074  2.0036 -0.5978
 9113SOL     OW38974   0.937   0.618   2.274  0.0429  0.3309  0.1306
 9113SOL    HW138975   0.916   0.585   2.361  0.1541  0.4958  0.2191
 9113SOL    HW238976   1.032   0.630   2.278 -0.0961  1.4149  0.0703
 9114SOL     OW38977   0.090   2.467   8.898 -0.4632 -0.6992  0.1429
 9114SOL    HW138978   0.044   2.384   8.894 -0.8913 -0.4312 -0.4119
 9114SOL    HW238979   0.174   2.444   8.857  0.4596  1.8849  0.5639
 9115SOL     OW38980   3.578   0.125   5.751 -1.0526 -0.6794 -0.2984
 9115SOL    HW138981   3.617   0.206   5.782 -1.1546 -2.1454  3.6244
 9115SOL    HW238982   3.591   0.061   5.821 -2.7321 -2.9999 -2.0796
 9116SOL     OW38983   1.259   2.508   6.934  0.8517  0.2530  0.7603
 9116SOL    HW138984   1.283   2.485   7.024 -1.3303  0.4801  1.3984
 9116SOL    HW238985   1.198   2.441   6.905  0.4533  0.6417  0.7062
 9117SOL     OW38986   3.132   1.357  13.737  0.0361 -0.1150 -0.1252
 9117SOL    HW138987   3.092   1.306  13.807 -0.8936 -0.1132 -0.6528
 9117SOL    HW238988   3.215   1.309  13.746  0.7797  0.7612 -2.2115
 9118SOL     OW38989   0.720   2.881   8.527 -0.2801 -0.4915  0.1679
 9118SOL    HW138990   0.768   2.810   8.485  3.5231  1.8468  0.6182
 9118SOL    HW238991   0.681   2.916   8.447  1.3301 -2.3528 -1.4114
 9119SOL     OW38992   1.818   4.079   2.667 -0.1586 -0.2488 -0.0040
 9119SOL    HW138993   1.879   4.011   2.698  2.2614  2.8930  2.0838
 9119SOL    HW238994   1.761   4.073   2.744 -0.1420 -1.0847 -0.0506
 9120SOL     OW38995   1.435   2.518   1.671 -1.2233  0.0995  0.0446
 9120SOL    HW138996   1.496   2.526   1.597  0.3786 -0.9020  1.2605
 9120SOL    HW238997   1.400   2.431   1.655 -1.2924  0.0257  0.6092
 9121SOL     OW38998   0.780   2.323  12.098 -0.2304  0.0848  0.0278
 9121SOL    HW138999   0.747   2.249  12.046 -0.7595 -0.7464  1.5456
 9121SOL    HW239000   0.801   2.277  12.180 -2.4133  0.2218  0.6592
 9122SOL     OW39001   0.387   1.756   6.595 -0.5724 -0.4184  0.5278
 9122SOL    HW139002   0.459   1.749   6.657 -0.7431  1.7108  0.9652
 9122SOL    HW239003   0.428   1.715   6.518 -0.9177 -0.7957  0.5413
 9123SOL     OW39004   4.151   0.731  15.505 -0.6901  0.0575 -0.1665
 9123SOL    HW139005   4.122   0.703  15.418  0.2931  2.9019 -1.4088
 9123SOL    HW239006   4.120   0.663  15.565 -2.0127 -0.2495 -1.1930
 9124SOL     OW39007   2.858   2.417  12.887  0.4529  0.1730  0.0639
 9124SOL    HW139008   2.900   2.408  12.973 -0.8733 -1.2883  0.5755
 9124SOL    HW239009   2.870   2.325  12.865 -0.1387 -0.1151  0.9147
 9125SOL     OW39010   1.295   4.172  10.082  0.2695  1.0743 -0.5672
 9125SOL    HW139011   1.306   4.141  10.172  0.9988 -0.5518 -1.2202
 9125SOL    HW239012   1.353   4.113  10.034  0.8186  2.2468 -1.3345
 9126SOL     OW39013   3.050   2.616   9.250  0.5894  0.1228  0.0494
 9126SOL    HW139014   3.126   2.558   9.256 -0.5157 -1.2649  0.7379
 9126SOL    HW239015   3.004   2.594   9.170 -0.0370 -1.6718  0.9092
 9127SOL     OW39016   4.450   2.924  11.606  0.1410  0.0799  0.4937
 9127SOL    HW139017   4.401   2.942  11.686  2.4526 -0.0124  1.9288
 9127SOL    HW239018   4.435   2.829  11.601 -1.0015  0.3459 -1.0307
 9128SOL     OW39019   4.409   2.008   4.381 -0.1832  0.0046 -0.0769
 9128SOL    HW139020   4.475   2.076   4.367 -0.2603  0.1817  0.4325
 9128SOL    HW239021   4.349   2.045   4.315  1.0828  4.3366  1.1774
 9129SOL     OW39022   1.879   0.941  12.344  0.7820  0.2423  0.1230
 9129SOL    HW139023   1.848   1.017  12.294  1.2103  0.0928 -0.3714
 9129SOL    HW239024   1.795   0.923  12.387  1.0531  0.2024  0.6299
 9130SOL     OW39025   1.295   3.111   2.850 -0.3611 -0.1641 -0.4709
 9130SOL    HW139026   1.223   3.171   2.831  1.5363  1.9505 -1.0079
 9130SOL    HW239027   1.246   3.031   2.833 -0.7527 -0.4172  1.9944
 9131SOL     OW39028   3.040   1.146   8.062  0.0720 -0.4615 -0.0101
 9131SOL    HW139029   2.978   1.080   8.094  0.5789  0.6512  3.2264
 9131SOL    HW239030   3.045   1.198   8.142  1.6537 -2.0161  0.9099
 9132SOL     OW39031   1.554   1.375  10.087  0.0830  0.0839 -0.2026
 9132SOL    HW139032   1.469   1.361  10.129  0.8202 -0.7812  0.9725
 9132SOL    HW239033   1.527   1.399   9.998  1.1741  1.5293 -0.1411
 9133SOL     OW39034   0.772   1.591   8.713  0.0862  0.4901  0.0996
 9133SOL    HW139035   0.724   1.515   8.679 -1.3767  1.0331  1.0135
 9133SOL    HW239036   0.783   1.563   8.804 -2.2875  0.6537  0.4180
 9134SOL     OW39037   4.161   2.357   3.203  0.6588  0.1919 -0.1627
 9134SOL    HW139038   4.223   2.327   3.269  0.9051  0.1963 -0.3945
 9134SOL    HW239039   4.108   2.411   3.262  1.1675 -1.0778  1.4651
 9135SOL     OW39040   2.163   3.152   2.643  0.2777 -0.6072  0.7371
 9135SOL    HW139041   2.143   3.063   2.672 -1.4078 -0.1783  0.9254
 9135SOL    HW239042   2.243   3.129   2.597 -1.0661 -0.5070 -1.6536
 9136SOL     OW39043   1.051   0.748   4.094 -0.2046  0.1685 -0.2481
 9136SOL    HW139044   1.004   0.714   4.170  1.3982 -0.8448  0.2842
 9136SOL    HW239045   1.039   0.841   4.115 -1.8065  0.4608 -2.4186
 9137SOL     OW39046   0.115   2.769  15.635 -0.1633 -0.3252 -0.4333
 9137SOL    HW139047   0.079   2.777  15.724 -0.0346 -1.4339 -0.2846
 9137SOL    HW239048   0.041   2.735  15.586 -0.0485  0.2173 -0.9813
 9138SOL     OW39049   3.268   4.177   2.378  0.2919 -0.3950 -0.0532
 9138SOL    HW139050   3.201   4.149   2.440  0.1971 -0.5058 -0.2054
 9138SOL    HW239051   3.336   4.114   2.404  1.1070 -0.3568 -2.0804
 9139SOL     OW39052   0.948   0.453   5.268  0.3426  0.6051 -0.0268
 9139SOL    HW139053   0.899   0.463   5.350 -0.0677 -2.7190  0.1109
 9139SOL    HW239054   1.034   0.439   5.306 -0.4552 -2.9632  0.4719
 9140SOL     OW39055   2.361   3.994   3.355 -0.1842 -0.7519  0.3112
 9140SOL    HW139056   2.266   3.995   3.344 -0.1308 -0.7774 -0.1620
 9140SOL    HW239057   2.374   3.901   3.373 -1.4020 -1.0010 -0.1135
 9141SOL     OW39058   0.350   3.102   8.452 -0.4427 -0.6686  0.2650
 9141SOL    HW139059   0.270   3.083   8.500 -0.0049 -0.3747  1.1219
 9141SOL    HW239060   0.368   3.194   8.476  1.2398 -0.8295 -0.3435
 9142SOL     OW39061   3.846   1.332   7.112  0.2454 -0.2821 -0.2607
 9142SOL    HW139062   3.863   1.412   7.162 -0.2080  0.6819 -1.6411
 9142SOL    HW239063   3.803   1.290   7.187 -2.2989 -0.1320 -1.6356
 9143SOL     OW39064   0.759   0.233  10.181  0.5153 -0.2050 -0.0226
 9143SOL    HW139065   0.738   0.157  10.235 -1.9159  0.6477  0.2109
 9143SOL    HW239066   0.844   0.262  10.216 -0.6696  1.5540  1.3738
 9144SOL     OW39067   4.722   0.776   7.064 -0.4571  0.9247 -0.1151
 9144SOL    HW139068   4.682   0.836   7.127  0.5471  1.8589 -0.3520
 9144SOL    HW239069   0.078   0.805   7.054 -0.2362  0.5103  0.6660
 9145SOL     OW39070   2.745   4.567  12.518  0.4329  0.4244 -0.7390
 9145SOL    HW139071   2.715   4.657  12.509  0.2841  0.6164  1.6717
 9145SOL    HW239072   2.686   4.533  12.585 -1.3085  2.5580 -1.1932
 9146SOL     OW39073   1.660   3.422   8.861  0.5744  0.3240  0.3106
 9146SOL    HW139074   1.614   3.503   8.880  2.1406  0.7343  2.4436
 9146SOL    HW239075   1.717   3.409   8.937  0.1595  0.6884  0.6780
 9147SOL     OW39076   1.660   1.762   3.514 -0.4433  0.6986  0.1036
 9147SOL    HW139077   1.662   1.821   3.439 -0.2356 -0.5423 -0.8585
 9147SOL    HW239078   1.696   1.821   3.580 -1.7554 -0.6670  2.0334
 9148SOL     OW39079   2.357   3.183   5.816 -0.4525  0.0870 -0.8033
 9148SOL    HW139080   2.414   3.160   5.890 -0.8472 -0.8794 -0.7966
 9148SOL    HW239081   2.356   3.277   5.829 -2.1404 -0.2258  1.2982
 9149SOL     OW39082   2.625   4.571   2.945 -0.1538  0.1823 -0.0683
 9149SOL    HW139083   2.678   4.493   2.930  0.1685  0.2403  0.7941
 9149SOL    HW239084   2.587   4.558   3.032 -1.3099  0.8745 -0.4636
 9150SOL     OW39085   1.972   1.557   4.460 -0.1587 -0.1560  0.0161
 9150SOL    HW139086   2.046   1.538   4.519  0.1806 -2.2139 -1.0662
 9150SOL    HW239087   1.983   1.478   4.408  1.4398 -0.8887  1.4541
 9151SOL     OW39088   2.516   0.421  13.356 -0.4736 -0.6074 -0.4242
 9151SOL    HW139089   2.612   0.416  13.357 -0.2535  2.8321 -1.0525
 9151SOL    HW239090   2.500   0.394  13.265  0.7040 -1.8247 -0.2666
 9152SOL     OW39091   2.110   1.247  11.193  1.0712  0.2426 -0.2907
 9152SOL    HW139092   2.136   1.155  11.190 -0.4055 -0.2284  0.9437
 9152SOL    HW239093   2.015   1.237  11.203  1.2153 -0.5265  0.3258
 9153SOL     OW39094   2.010   2.099   6.684 -0.4373 -0.1237  0.2013
 9153SOL    HW139095   1.987   2.129   6.771  1.6429  2.6044 -0.1915
 9153SOL    HW239096   2.085   2.039   6.691  0.7465  1.6376  2.7319
 9154SOL     OW39097   0.875   4.091   5.613 -0.5223 -0.7138  0.3620
 9154SOL    HW139098   0.930   4.095   5.534 -1.7474 -1.9897 -0.5647
 9154SOL    HW239099   0.928   4.128   5.683 -2.2805  1.0959  0.7553
 9155SOL     OW39100   0.549   2.093   4.338  0.1233 -0.8198 -0.2378
 9155SOL    HW139101   0.551   2.158   4.267 -2.9578  0.6953  1.0586
 9155SOL    HW239102   0.613   2.140   4.392  0.4918 -0.4208 -1.0153
 9156SOL     OW39103   2.871   2.496   9.989 -0.0899 -0.2362  0.1299
 9156SOL    HW139104   2.824   2.580   9.994  0.7269  0.1702  1.0204
 9156SOL    HW239105   2.894   2.488  10.081 -1.0367  0.4839  0.4362
 9157SOL     OW39106   2.823   3.051   8.913 -0.0702  0.0386  0.5585
 9157SOL    HW139107   2.825   3.146   8.925 -1.8890  0.2733 -1.0634
 9157SOL    HW239108   2.732   3.032   8.890 -0.8827  2.1111  2.0791
 9158SOL     OW39109   0.693   1.209  16.702 -0.2792 -0.2116 -0.0174
 9158SOL    HW139110   0.646   1.292  16.711  1.0235  0.5032  0.1684
 9158SOL    HW239111   0.615   1.153  16.697 -0.5485  0.3195 -1.5753
 9159SOL     OW39112   0.630   3.618   2.285 -0.2628 -0.0770 -0.2820
 9159SOL    HW139113   0.623   3.669   2.204 -1.8044 -1.5369 -1.0528
 9159SOL    HW239114   0.595   3.687   2.342 -0.1392  0.9534 -1.4464
 9160SOL     OW39115   1.581   2.169  10.775 -0.1151  0.1238 -0.0839
 9160SOL    HW139116   1.671   2.202  10.784 -0.2878  0.9428 -1.3384
 9160SOL    HW239117   1.534   2.232  10.829 -0.5789 -0.8749  0.6744
 9161SOL     OW39118   3.283   1.747   5.801 -0.3675  0.5011  0.1749
 9161SOL    HW139119   3.229   1.671   5.820 -1.1462  1.5355  2.1069
 9161SOL    HW239120   3.372   1.713   5.816 -0.0259  1.9165  1.3186
 9162SOL     OW39121   1.280   3.524   7.170 -0.0272  0.3666  0.5883
 9162SOL    HW139122   1.284   3.609   7.126  0.3712  0.3838  0.6582
 9162SOL    HW239123   1.332   3.535   7.249 -0.4913  2.4496  0.5994
 9163SOL     OW39124   2.123   1.446   2.406 -0.0034  0.3382 -0.1162
 9163SOL    HW139125   2.090   1.447   2.317  0.8830 -1.3997 -0.4638
 9163SOL    HW239126   2.135   1.541   2.407  0.1275  0.3384 -2.1961
 9164SOL     OW39127   2.512   3.256   9.108  0.1557 -0.0564  0.2720
 9164SOL    HW139128   2.490   3.229   9.019 -0.1665  0.9829  0.0286
 9164SOL    HW239129   2.434   3.307   9.132 -1.0274 -1.4389 -0.6606
 9165SOL     OW39130   1.972   0.336   4.782 -0.1034 -0.3318 -0.0726
 9165SOL    HW139131   1.945   0.373   4.866 -0.3939  1.8183 -1.1178
 9165SOL    HW239132   2.039   0.401   4.762  1.7639 -1.3309  2.8935
 9166SOL     OW39133   3.634   3.485   6.092  0.0506  0.0143 -0.0492
 9166SOL    HW139134   3.584   3.517   6.017 -1.2838 -0.0340  0.8135
 9166SOL    HW239135   3.675   3.411   6.048  0.8011  0.9584 -0.9216
 9167SOL     OW39136   4.352   2.485   6.670  0.4532 -0.3862 -0.3916
 9167SOL    HW139137   4.388   2.409   6.624  0.8648 -0.4934  0.1014
 9167SOL    HW239138   4.423   2.503   6.731  1.6841  2.2817 -2.5854
 9168SOL     OW39139   2.492   2.144   8.504 -0.2386  0.5853  1.0794
 9168SOL    HW139140   2.559   2.211   8.488  2.2141 -1.7348  1.6835
 9168SOL    HW239141   2.484   2.108   8.416  0.3109  2.1832  0.3758
 9169SOL     OW39142   4.527   3.968  12.274 -0.1110  0.1971 -0.7180
 9169SOL    HW139143   4.558   3.943  12.361 -1.8796 -1.2606 -0.5201
 9169SOL    HW239144   4.438   3.984  12.305  0.5474  1.1890  0.6700
 9170SOL     OW39145   3.812   3.955   1.895  0.0940 -0.1463 -0.8769
 9170SOL    HW139146   3.880   3.911   1.844  0.6617  1.8722 -1.8501
 9170SOL    HW239147   3.736   3.905   1.866 -1.6928  1.3082  1.3329
 9171SOL     OW39148   4.132   4.284   2.381 -0.1696 -0.2350 -0.3696
 9171SOL    HW139149   4.130   4.362   2.436 -2.5389 -2.0265  2.0642
 9171SOL    HW239150   4.063   4.242   2.431 -0.4187 -0.3316 -0.7927
 9172SOL     OW39151   0.200   2.044  14.359  0.6789  0.3654 -0.2883
 9172SOL    HW139152   0.290   2.067  14.384  0.6565 -0.7021  0.7935
 9172SOL    HW239153   0.166   2.001  14.438  0.2304  0.4072 -0.4604
 9173SOL     OW39154   0.362   0.289   5.541  0.2837 -0.4690 -0.3748
 9173SOL    HW139155   0.385   0.317   5.629  0.2611 -0.5141 -0.3547
 9173SOL    HW239156   0.411   0.207   5.537  0.4969 -0.3785  0.5475
 9174SOL     OW39157   4.264   1.336  11.052 -0.6748  0.4887 -0.2528
 9174SOL    HW139158   4.175   1.364  11.074 -0.8338  0.0664 -0.3703
 9174SOL    HW239159   4.278   1.263  11.112 -1.2282 -0.5182 -1.3570
 9175SOL     OW39160   4.618   3.563   3.897  0.1058  0.5170  0.3466
 9175SOL    HW139161   4.690   3.607   3.851  0.3132  0.4418  0.5949
 9175SOL    HW239162   4.624   3.474   3.863  2.1966  1.4831 -1.8174
 9176SOL     OW39163   4.354   2.196  16.605  0.3019  0.1949 -0.0482
 9176SOL    HW139164   4.380   2.239  16.687 -1.6477 -2.2218  1.8232
 9176SOL    HW239165   4.259   2.191  16.610  0.2997  0.0332 -0.2374
 9177SOL     OW39166   0.962   1.047   3.252  0.6698  0.6187  0.6058
 9177SOL    HW139167   0.912   1.113   3.300 -0.8549 -0.6538  0.7710
 9177SOL    HW239168   0.951   1.074   3.160 -1.2395 -2.0594  0.0525
 9178SOL     OW39169   3.998   0.390   1.879 -0.4600  0.0658  0.3342
 9178SOL    HW139170   4.072   0.359   1.827  1.3159  0.9160  2.3410
 9178SOL    HW239171   4.038   0.399   1.966 -1.1064 -0.4003  0.6813
 9179SOL     OW39172   3.394   3.283   7.566  0.0267  0.4221  0.2728
 9179SOL    HW139173   3.347   3.287   7.649 -1.1929 -0.7078 -0.3667
 9179SOL    HW239174   3.382   3.190   7.546 -1.8260  0.5914  0.6636
 9180SOL     OW39175   2.589   0.769   9.934 -0.4701 -0.0685 -0.1772
 9180SOL    HW139176   2.531   0.820   9.992  0.3129  1.1053 -0.4263
 9180SOL    HW239177   2.546   0.685   9.948  1.5978 -0.7552  1.9846
 9181SOL     OW39178   4.720   1.156   8.661 -0.0418 -0.3401 -0.0893
 9181SOL    HW139179   4.652   1.178   8.598  0.3232 -0.4277 -0.5112
 9181SOL    HW239180   0.046   1.228   8.650 -0.4032 -0.1330 -0.7229
 9182SOL     OW39181   2.229   2.115   3.703 -0.4461 -0.3421  0.7937
 9182SOL    HW139182   2.213   2.201   3.741  2.3345 -0.8281  3.0474
 9182SOL    HW239183   2.234   2.144   3.612  2.7557 -0.0630  1.0532
 9183SOL     OW39184   0.818   0.890  15.102 -0.3032  0.1818  0.3853
 9183SOL    HW139185   0.834   0.795  15.096  0.8557  0.1946  3.1196
 9183SOL    HW239186   0.839   0.912  15.193 -1.3174  4.0492 -0.3193
 9184SOL     OW39187   2.078   4.386   4.766  0.0755  0.7457 -0.1106
 9184SOL    HW139188   2.145   4.398   4.698  2.9648  0.4080  2.6399
 9184SOL    HW239189   2.037   4.301   4.748 -0.3675  0.6293  1.4636
 9185SOL     OW39190   2.990   0.737   8.927  1.1278  0.2176 -0.2455
 9185SOL    HW139191   3.061   0.748   8.864 -0.3558 -0.2244 -1.9989
 9185SOL    HW239192   2.953   0.825   8.918 -1.0059 -0.7303 -0.7899
 9186SOL     OW39193   0.003   2.168   3.876  0.2212 -0.7490  0.0275
 9186SOL    HW139194   4.720   2.110   3.950  0.2229  0.4713  0.9881
 9186SOL    HW239195   0.094   2.191   3.895 -0.2896  2.2492 -1.1716
 9187SOL     OW39196   2.430   1.391   5.130  0.1127  0.2978 -0.7478
 9187SOL    HW139197   2.491   1.352   5.068 -2.0421 -2.4665 -1.1567
 9187SOL    HW239198   2.385   1.447   5.067 -2.4590 -2.5920 -1.5159
 9188SOL     OW39199   0.806   2.218   3.204  0.4394  0.1010 -0.4917
 9188SOL    HW139200   0.827   2.137   3.249  1.4773  1.3549  1.2759
 9188SOL    HW239201   0.766   2.188   3.122 -0.4994  0.7694 -0.2748
 9189SOL     OW39202   4.300   2.305  11.048  0.1267  0.0586  0.7548
 9189SOL    HW139203   4.299   2.292  10.953 -0.4753 -2.1578  1.0573
 9189SOL    HW239204   4.215   2.347  11.062  1.3428  1.9070  2.4908
 9190SOL     OW39205   4.599   1.333   2.594  0.2743  0.2165 -0.3815
 9190SOL    HW139206   4.646   1.375   2.667  0.0986  0.8812 -0.6523
 9190SOL    HW239207   4.535   1.403   2.581  1.8748  1.6087 -0.7420
 9191SOL     OW39208   2.849   3.247   2.557 -0.1694  0.0228  0.6257
 9191SOL    HW139209   2.764   3.274   2.525 -2.2189 -1.2130  4.9811
 9191SOL    HW239210   2.892   3.332   2.553 -1.1760  0.5720  1.4992
 9192SOL     OW39211   0.415   0.813   2.755 -0.3861 -0.6222  0.7894
 9192SOL    HW139212   0.382   0.809   2.665  2.8470  1.3767 -0.4606
 9192SOL    HW239213   0.506   0.785   2.749  0.3874  1.9449  0.3613
 9193SOL     OW39214   0.125   3.655   9.490  0.0772 -0.3771 -0.1254
 9193SOL    HW139215   0.072   3.731   9.513  0.4843 -0.5020  1.2127
 9193SOL    HW239216   0.068   3.617   9.423  0.0964  0.1827 -0.4564
 9194SOL     OW39217   3.496   0.340  15.591 -0.1512  0.2472  0.6160
 9194SOL    HW139218   3.503   0.427  15.551  0.1956 -0.8395 -1.6827
 9194SOL    HW239219   3.404   0.326  15.613 -0.0573  0.6929  1.3015
 9195SOL     OW39220   4.289   4.426   8.098  0.1271 -0.0627 -0.9011
 9195SOL    HW139221   4.211   4.481   8.091 -1.0147 -1.8598 -2.4771
 9195SOL    HW239222   4.279   4.377   8.016 -2.7666 -3.3738  1.4361
 9196SOL     OW39223   4.730   1.179   7.746 -0.1273  0.4616 -0.2177
 9196SOL    HW139224   4.678   1.117   7.798  0.7781 -0.1092  0.0147
 9196SOL    HW239225   0.071   1.126   7.723  0.0234  0.7748 -0.4363
 9197SOL     OW39226   0.466   4.273   7.899 -0.1333 -0.0560 -0.1796
 9197SOL    HW139227   0.439   4.182   7.890  0.1814 -0.3622  1.8513
 9197SOL    HW239228   0.405   4.315   7.838 -1.1370  0.5592  1.2303
 9198SOL     OW39229   4.386   4.732   0.198  0.3950  0.1823 -0.2984
 9198SOL    HW139230   4.479   4.710   0.203  0.3066  0.5043  3.0169
 9198SOL    HW239231   4.397   0.066   0.133 -0.2906 -1.1893 -1.8591
 9199SOL     OW39232   0.556   0.923   5.383 -1.0650  0.2257 -0.2274
 9199SOL    HW139233   0.595   0.982   5.319 -0.3575 -0.7018 -0.6488
 9199SOL    HW239234   0.488   0.875   5.336 -2.2897  1.1646  0.5767
 9200SOL     OW39235   1.651   3.756   0.646  0.0598 -0.3859 -0.0815
 9200SOL    HW139236   1.557   3.762   0.630 -0.0213 -1.2774  0.0725
 9200SOL    HW239237   1.661   3.663   0.666 -0.2712  0.2951  3.2578
 9201SOL     OW39238   2.839   0.103  16.572  0.0070 -0.1394 -0.1914
 9201SOL    HW139239   2.811   0.110  16.481 -2.1405  2.8134  0.6666
 9201SOL    HW239240   2.803   0.018  16.595 -0.1086  0.3270  1.4152
 9202SOL     OW39241   3.540   2.127   1.499  0.4619  0.1847  0.8739
 9202SOL    HW139242   3.602   2.154   1.431 -1.3146 -0.9743 -1.1990
 9202SOL    HW239243   3.594   2.060   1.542 -0.5772 -1.8703 -0.9994
 9203SOL     OW39244   3.406   1.636   1.050  0.3402  0.3253 -0.6558
 9203SOL    HW139245   3.458   1.566   1.089 -4.7685 -1.8524  2.0828
 9203SOL    HW239246   3.319   1.598   1.051  0.1402  0.9034  3.2384
 9204SOL     OW39247   0.800   4.583   4.830  0.6043 -0.4487 -0.2613
 9204SOL    HW139248   0.852   4.660   4.854  1.6319 -1.0651 -0.5197
 9204SOL    HW239249   0.870   4.523   4.805  1.6157  0.0212  1.4910
 9205SOL     OW39250   1.689   4.318   3.842  0.5926  0.0077  0.1974
 9205SOL    HW139251   1.756   4.360   3.788  2.0932 -1.0374  1.2506
 9205SOL    HW239252   1.608   4.354   3.807 -0.2794 -0.4034  1.7832
 9206SOL     OW39253   2.328   1.993  15.777  0.3736 -0.2115  0.2727
 9206SOL    HW139254   2.388   1.987  15.851  0.6556 -0.1767  0.0472
 9206SOL    HW239255   2.288   2.080  15.778 -0.2518 -0.5037  1.6669
 9207SOL     OW39256   0.571   2.728   6.644 -0.1897 -0.5137 -0.2290
 9207SOL    HW139257   0.506   2.741   6.575  1.0662  1.7822 -0.9535
 9207SOL    HW239258   0.654   2.718   6.598  1.6645  0.4227  2.9041
 9208SOL     OW39259   3.983   3.643   6.041 -0.4271 -0.3625 -0.1438
 9208SOL    HW139260   3.969   3.708   5.972 -0.4843 -0.8883 -0.6248
 9208SOL    HW239261   4.015   3.564   5.998 -2.4321 -0.9100 -0.6195
 9209SOL     OW39262   3.662   0.686   1.409  0.0974  0.4243  0.5647
 9209SOL    HW139263   3.595   0.718   1.348  1.3466  2.3351  0.1617
 9209SOL    HW239264   3.624   0.602   1.431  3.6075 -0.6867  2.3663
 9210SOL     OW39265   0.414   0.609  11.485 -0.3125 -0.6529 -0.1193
 9210SOL    HW139266   0.401   0.575  11.396 -0.6299  0.3900 -0.4687
 9210SOL    HW239267   0.503   0.587  11.513 -0.1484 -0.5957 -0.5907
 9211SOL     OW39268   4.723   0.960   8.326 -0.1065 -0.5306  0.6561
 9211SOL    HW139269   4.731   0.875   8.369  0.7459  0.1533  1.8438
 9211SOL    HW239270   0.016   0.938   8.237 -0.9262 -1.5579  0.6474
 9212SOL     OW39271   2.102   1.820   3.024 -0.3889 -0.4453  0.2037
 9212SOL    HW139272   2.043   1.807   2.950 -0.6762  1.6877  0.0840
 9212SOL    HW239273   2.185   1.819   2.977  0.6702  0.1337  2.0864
 9213SOL     OW39274   0.112   0.738   5.123  0.3800  0.4573 -0.8137
 9213SOL    HW139275   0.056   0.805   5.085 -0.4650 -0.8796 -1.9110
 9213SOL    HW239276   0.054   0.684   5.178  0.6277  0.4508 -0.5608
 9214SOL     OW39277   2.912   0.946  10.619  0.6226  0.3892 -0.3081
 9214SOL    HW139278   2.888   0.973  10.531  0.8225 -1.2086 -0.8472
 9214SOL    HW239279   3.001   0.981  10.624  1.4108 -1.7231  0.2638
 9215SOL     OW39280   2.925   0.952   3.022 -0.1192 -0.3148  0.0046
 9215SOL    HW139281   2.947   0.870   2.979  1.0437  1.3687 -2.6360
 9215SOL    HW239282   2.833   0.942   3.046  0.3907 -3.0002  0.8310
 9216SOL     OW39283   4.072   4.053  17.256  0.6169  0.1635  0.5468
 9216SOL    HW139284   4.107   4.128  17.207  1.3488  0.3445  1.3275
 9216SOL    HW239285   4.032   4.022  17.175  1.1779  3.6504 -1.0735
 9217SOL     OW39286   2.212   1.965   9.279 -0.0610  0.4147 -0.2423
 9217SOL    HW139287   2.122   1.935   9.269 -0.1198  0.3417  0.5406
 9217SOL    HW239288   2.224   1.993   9.188 -0.2066  2.0792  0.2378
 9218SOL     OW39289   1.432   3.733   6.002  0.0168  0.5617 -0.7461
 9218SOL    HW139290   1.472   3.651   5.973  0.1455  0.4551 -0.2621
 9218SOL    HW239291   1.373   3.707   6.073 -0.0971  0.1182 -1.0033
 9219SOL     OW39292   2.549   2.349  17.150 -0.3044  0.2699  0.5449
 9219SOL    HW139293   2.505   2.271  17.116  1.1935 -0.6938  0.7823
 9219SOL    HW239294   2.482   2.382  17.210 -1.1079 -0.4833  0.0642
 9220SOL     OW39295   1.314   3.230   7.367 -0.1063  0.4389  0.2535
 9220SOL    HW139296   1.328   3.184   7.450  0.7336  0.3775  0.0766
 9220SOL    HW239297   1.250   3.297   7.393 -1.6242 -0.3398 -1.4456
 9221SOL     OW39298   3.559   0.163   4.744  0.0505 -0.0910  0.3856
 9221SOL    HW139299   3.483   0.106   4.758 -1.6367  1.4698 -2.4002
 9221SOL    HW239300   3.520   0.250   4.750 -1.4357 -0.5543 -2.5338
 9222SOL     OW39301   0.353   0.878   8.744 -0.2027  0.0345  0.8277
 9222SOL    HW139302   0.288   0.873   8.674  1.6416 -1.2650 -0.8092
 9222SOL    HW239303   0.294   0.870   8.818 -3.0290 -2.9831 -1.7321
 9223SOL     OW39304   1.214   4.111  11.242 -0.1787  0.4307  0.1992
 9223SOL    HW139305   1.233   4.018  11.229 -1.3189  0.4779 -1.8798
 9223SOL    HW239306   1.206   4.119  11.337 -1.9656  0.5847  0.0384
 9224SOL     OW39307   1.237   1.317  17.372  0.3011 -0.4030 -0.4461
 9224SOL    HW139308   1.274   1.242  17.419  2.7714 -0.3802 -2.3272
 9224SOL    HW239309   1.187   1.371  17.433  1.7456 -1.8956  2.0669
 9225SOL     OW39310   0.963   2.947   6.355  0.1150  0.1551 -0.5939
 9225SOL    HW139311   1.042   2.893   6.353  0.7366  1.1036 -1.8140
 9225SOL    HW239312   0.952   2.958   6.450  0.3403  0.8382 -0.6405
 9226SOL     OW39313   3.024   0.919   4.197 -0.0039 -0.0999  1.5509
 9226SOL    HW139314   2.967   0.961   4.262 -0.1808  0.7995  0.8173
 9226SOL    HW239315   3.086   0.867   4.247 -1.8442  0.0230  3.9958
 9227SOL     OW39316   0.169   0.537   8.213 -0.3459 -0.0445  0.4588
 9227SOL    HW139317   0.185   0.579   8.298 -0.2395  3.1138 -1.1268
 9227SOL    HW239318   0.181   0.446   8.238  1.7369 -0.4644 -2.1686
 9228SOL     OW39319   0.204   1.764   7.964  0.5715  0.0525 -0.0581
 9228SOL    HW139320   0.256   1.703   7.911  0.7243 -1.1821  1.5216
 9228SOL    HW239321   0.148   1.800   7.895  1.8075  2.1107  0.0272
 9229SOL     OW39322   1.747   0.598   5.253  0.3450  0.3398  0.3072
 9229SOL    HW139323   1.746   0.674   5.195  1.1760 -0.2049 -0.4313
 9229SOL    HW239324   1.780   0.630   5.337  3.3553  1.8182 -1.4191
 9230SOL     OW39325   0.784   3.219   3.770  0.5259  0.4660  0.3661
 9230SOL    HW139326   0.744   3.144   3.726  2.4798  0.3938 -1.2647
 9230SOL    HW239327   0.703   3.262   3.799  1.2150  1.8242  0.2907
 9231SOL     OW39328   2.089   2.461   9.226  0.3392  0.5823  0.3266
 9231SOL    HW139329   2.128   2.379   9.197 -3.8311 -1.1228 -0.4644
 9231SOL    HW239330   1.996   2.438   9.219  0.7714 -1.5380  1.5194
 9232SOL     OW39331   2.711   2.626   1.745  0.1618 -0.0291 -0.4537
 9232SOL    HW139332   2.662   2.704   1.720 -2.4120 -2.0117 -1.5580
 9232SOL    HW239333   2.721   2.633   1.840 -0.7040  0.2001 -0.3772
 9233SOL     OW39334   1.329   3.246   6.065  0.0889  0.0875 -0.1712
 9233SOL    HW139335   1.419   3.268   6.042  0.1844 -0.8299 -0.6778
 9233SOL    HW239336   1.320   3.191   5.987  0.6715 -0.2322 -0.0142
 9234SOL     OW39337   2.720   3.607   5.599 -0.6888 -0.2882 -0.1331
 9234SOL    HW139338   2.676   3.675   5.548  1.0412  0.2281 -0.9458
 9234SOL    HW239339   2.641   3.589   5.651  0.2699 -1.6598  0.8430
 9235SOL     OW39340   3.940   0.211  11.203 -0.5821  0.5376  0.8310
 9235SOL    HW139341   3.888   0.249  11.133 -0.6737 -0.0146  0.5996
 9235SOL    HW239342   3.904   0.123  11.189 -0.2476  0.3754  0.9597
 9236SOL     OW39343   1.683   2.832   5.122  0.4739  0.7839 -0.0020
 9236SOL    HW139344   1.598   2.868   5.146  0.0451 -0.2137 -0.0516
 9236SOL    HW239345   1.700   2.772   5.195 -0.2730  1.1945  0.5037
 9237SOL     OW39346   3.528   1.041   0.343 -0.5177 -0.6451 -0.2866
 9237SOL    HW139347   3.505   1.096   0.418  1.0844 -2.3698  1.4627
 9237SOL    HW239348   3.465   1.069   0.277 -0.0402 -0.4897 -0.6768
 9238SOL     OW39349   2.903   3.307   8.664  0.1478  1.0811 -0.3296
 9238SOL    HW139350   2.907   3.211   8.669  0.8876  1.0580 -1.3072
 9238SOL    HW239351   2.880   3.316   8.571 -0.5110  1.1968 -0.1595
 9239SOL     OW39352   2.269   1.982   0.903  0.3263  0.0348 -0.4577
 9239SOL    HW139353   2.232   2.040   0.837  1.3873  1.4455  0.1836
 9239SOL    HW239354   2.360   2.000   0.879  1.4228 -0.5719  3.1735
 9240SOL     OW39355   1.915   0.244   8.768 -0.1170  0.1594  0.2707
 9240SOL    HW139356   1.839   0.259   8.712 -1.2336 -0.4006  1.6152
 9240SOL    HW239357   1.982   0.303   8.734 -0.9314 -0.1983 -1.9312
 9241SOL     OW39358   3.026   4.724   7.419 -0.8364 -0.2238  0.4258
 9241SOL    HW139359   2.995   4.633   7.422  0.5987 -0.7317  0.1179
 9241SOL    HW239360   2.968   0.035   7.479 -0.6132  0.6529 -0.0342
 9242SOL     OW39361   2.489   0.742  13.631 -0.2822  0.4536  0.6862
 9242SOL    HW139362   2.466   0.735  13.724 -1.7138  0.9176  0.3594
 9242SOL    HW239363   2.425   0.680  13.595  0.3805 -0.2228  0.6626
 9243SOL     OW39364   3.366   0.379   8.372 -0.4109 -0.1471 -0.1910
 9243SOL    HW139365   3.341   0.292   8.341 -2.5936 -0.2771  1.9341
 9243SOL    HW239366   3.348   0.361   8.464  1.1118  1.5818  0.4559
 9244SOL     OW39367   1.215   4.044   0.714  0.0742 -0.4867  0.4446
 9244SOL    HW139368   1.257   4.028   0.798 -1.1250  3.1193  1.7007
 9244SOL    HW239369   1.133   3.996   0.718 -0.6576  0.8143  0.7906
 9245SOL     OW39370   3.742   4.284   9.492  0.2734  0.1932 -0.6894
 9245SOL    HW139371   3.737   4.298   9.587  1.2271 -2.0474 -0.3054
 9245SOL    HW239372   3.730   4.374   9.461 -1.9336 -0.5423 -1.9546
 9246SOL     OW39373   2.208   4.181  15.423  0.3663  0.5834  0.1172
 9246SOL    HW139374   2.152   4.107  15.451  0.4316  0.6901  0.5342
 9246SOL    HW239375   2.273   4.172  15.492  0.3314 -2.3943 -0.2164
 9247SOL     OW39376   3.809   1.483   8.147  0.3746  0.0535  0.5928
 9247SOL    HW139377   3.810   1.391   8.122 -1.3026 -0.5826  2.8928
 9247SOL    HW239378   3.887   1.524   8.109  0.1701 -0.3567 -0.2566
 9248SOL     OW39379   0.636   2.162  16.021 -0.0294  0.2725 -0.6396
 9248SOL    HW139380   0.713   2.191  15.972  1.7611 -0.9062  1.4675
 9248SOL    HW239381   0.575   2.218  15.974 -0.9296  1.1729  1.5695
 9249SOL     OW39382   1.898   0.456   0.585 -0.0438 -0.0939  0.5839
 9249SOL    HW139383   1.942   0.404   0.653 -0.4072 -1.1290  0.0175
 9249SOL    HW239384   1.962   0.437   0.516  1.0987  1.4370  1.2135
 9250SOL     OW39385   3.160   2.768   8.223 -0.1620  0.1678  0.0728
 9250SOL    HW139386   3.167   2.864   8.223  0.3467  0.1318  0.5317
 9250SOL    HW239387   3.249   2.746   8.195 -0.4377 -0.9982  0.1330
 9251SOL     OW39388   4.110   0.223   4.376 -0.1318  0.1702  0.1152
 9251SOL    HW139389   4.088   0.156   4.311 -0.4289  1.2765 -0.9108
 9251SOL    HW239390   4.185   0.183   4.422  0.6389  0.8866 -0.5338
 9252SOL     OW39391   0.211   0.265   3.987  0.0503  0.0676 -0.3322
 9252SOL    HW139392   0.303   0.239   3.986 -0.1305 -0.5584 -1.0694
 9252SOL    HW239393   0.213   0.348   4.035 -1.0492  1.6183 -2.9882
 9253SOL     OW39394   1.689   4.156   7.899  0.2447 -0.2785 -0.3445
 9253SOL    HW139395   1.638   4.089   7.944  1.8913 -0.2771  1.5118
 9253SOL    HW239396   1.738   4.102   7.836  0.6383  1.1122 -1.2412
 9254SOL     OW39397   0.852   0.436   9.061 -0.0518  0.3423 -0.5466
 9254SOL    HW139398   0.797   0.362   9.039  0.3656 -1.2882  3.8659
 9254SOL    HW239399   0.789   0.507   9.074 -0.3072  0.5019 -2.6436
 9255SOL     OW39400   2.158   0.148   2.440 -0.1780 -0.3716  0.9190
 9255SOL    HW139401   2.209   0.066   2.434  1.3112  0.6228 -0.1611
 9255SOL    HW239402   2.123   0.147   2.351  0.8362  0.7983  0.5001
 9256SOL     OW39403   0.649   4.378   6.855 -0.2677  0.0891 -0.1268
 9256SOL    HW139404   0.598   4.320   6.911  1.9552 -1.1632  0.5960
 9256SOL    HW239405   0.593   4.453   6.836 -0.8461 -0.0419  1.0879
 9257SOL     OW39406   1.240   3.574   6.165  0.0850 -0.2468 -0.1282
 9257SOL    HW139407   1.158   3.621   6.150 -0.9267 -1.7755  0.6131
 9257SOL    HW239408   1.214   3.485   6.191  1.7160 -1.0619 -1.2737
 9258SOL     OW39409   3.446   2.685   2.068  0.3161 -0.4459 -0.5988
 9258SOL    HW139410   3.411   2.603   2.034 -0.8882 -0.4809  0.7384
 9258SOL    HW239411   3.501   2.722   1.999 -1.3209  2.4446 -0.3437
 9259SOL     OW39412   3.856   3.510  13.526  0.1628  0.1895  0.4074
 9259SOL    HW139413   3.776   3.560  13.539  1.3651  2.7029 -2.1082
 9259SOL    HW239414   3.841   3.444  13.459 -0.6934  0.0980  0.6907
 9260SOL     OW39415   1.875   3.003  12.539  0.3214  0.5612  0.1930
 9260SOL    HW139416   1.935   3.016  12.613 -3.0296  0.4421  2.9561
 9260SOL    HW239417   1.891   3.089  12.501 -1.1623  0.7442 -0.0378
 9261SOL     OW39418   0.911   3.422   8.048  0.5368  0.1658 -0.0227
 9261SOL    HW139419   0.996   3.380   8.031  0.4108 -0.7860  1.7331
 9261SOL    HW239420   0.882   3.457   7.964  1.3854 -1.3773 -0.9761
 9262SOL     OW39421   2.220   4.681  11.816  0.2230  0.3862 -0.1738
 9262SOL    HW139422   2.154   4.669  11.748 -1.0479 -1.7049  1.4138
 9262SOL    HW239423   2.180   4.631  11.887 -0.3209  1.7158  0.4559
 9263SOL     OW39424   2.488   2.237  12.208 -0.1254  0.1645 -0.3489
 9263SOL    HW139425   2.582   2.243  12.192 -0.0875  3.4795  1.0645
 9263SOL    HW239426   2.479   2.142  12.197  0.9038 -0.0633  0.7215
 9264SOL     OW39427   4.148   3.268   7.040  0.4239  0.0848 -0.6470
 9264SOL    HW139428   4.114   3.179   7.033 -0.5691  0.3280  1.2153
 9264SOL    HW239429   4.210   3.253   7.110 -0.2855  1.3843  0.2580
 9265SOL     OW39430   3.253   2.181   8.531  0.1649  0.0444  0.3556
 9265SOL    HW139431   3.254   2.144   8.620  1.8538  1.5538  0.9572
 9265SOL    HW239432   3.235   2.270   8.560  1.7152 -0.3311  2.4805
 9266SOL     OW39433   4.087   0.461   6.798  0.0843 -0.5905 -0.2809
 9266SOL    HW139434   4.025   0.533   6.789  0.6790  0.0077  0.4360
 9266SOL    HW239435   4.025   0.389   6.810 -0.2922 -0.4723 -1.4468
 9267SOL     OW39436   0.430   0.631   2.015  0.1854 -0.1094  0.3838
 9267SOL    HW139437   0.421   0.565   2.083  1.6418 -0.0831  0.6141
 9267SOL    HW239438   0.338   0.638   1.993  0.5606  1.8728 -0.5640
 9268SOL     OW39439   3.260   3.180   4.336 -0.4528  0.0405  0.7380
 9268SOL    HW139440   3.299   3.234   4.405 -0.4647  1.8697 -0.6960
 9268SOL    HW239441   3.276   3.093   4.371 -1.3226 -0.7832 -0.9283
 9269SOL     OW39442   1.590   4.456   6.086 -0.6171 -0.4590  0.0438
 9269SOL    HW139443   1.684   4.446   6.070 -0.0197  3.4919  1.2050
 9269SOL    HW239444   1.559   4.533   6.040  0.5152  0.5553  0.9909
 9270SOL     OW39445   1.578   3.210   2.116 -0.1708  0.2469 -0.2134
 9270SOL    HW139446   1.504   3.244   2.067  0.0293 -0.2220 -0.8408
 9270SOL    HW239447   1.583   3.267   2.193  1.4153 -1.1820  0.7746
 9271SOL     OW39448   2.771   2.421  10.819  0.4716  0.4136 -0.6089
 9271SOL    HW139449   2.789   2.385  10.906  0.2447  0.5914 -0.4879
 9271SOL    HW239450   2.859   2.423  10.782  0.4401  2.3457 -0.5724
 9272SOL     OW39451   4.419   0.523   0.535 -0.1255 -0.1057 -0.0566
 9272SOL    HW139452   4.460   0.571   0.463 -1.9458  0.6001 -0.6115
 9272SOL    HW239453   4.427   0.580   0.612  2.8668 -1.3913  0.5675
 9273SOL     OW39454   4.392   1.695   5.196 -0.4721  0.1811 -0.6437
 9273SOL    HW139455   4.458   1.739   5.249 -2.2694 -0.5733  2.2085
 9273SOL    HW239456   4.399   1.604   5.225 -3.1039  0.2601  0.2610
 9274SOL     OW39457   2.081   2.951   6.290 -0.8336 -0.3770  0.2432
 9274SOL    HW139458   2.150   3.017   6.285 -2.1674  1.0576  0.7702
 9274SOL    HW239459   2.109   2.904   6.369 -1.2379  0.7373  1.0466
 9275SOL     OW39460   4.693   0.533   5.316 -1.0105  0.1313 -0.0833
 9275SOL    HW139461   4.719   0.497   5.401  0.1726  0.8094 -0.1665
 9275SOL    HW239462   4.690   0.450   5.270  3.3927 -0.6984  1.1528
 9276SOL     OW39463   1.436   2.266   7.728 -0.2221  0.5253  0.1998
 9276SOL    HW139464   1.502   2.315   7.777  0.6026 -1.6991  1.2761
 9276SOL    HW239465   1.412   2.342   7.674 -2.0193  0.3645  0.7898
 9277SOL     OW39466   2.928   4.269   7.291 -0.2123  0.1003  0.0429
 9277SOL    HW139467   3.019   4.238   7.287 -0.0907  0.0937  2.6193
 9277SOL    HW239468   2.899   4.279   7.201 -2.0098  0.2771  0.6429
 9278SOL     OW39469   4.059   2.257  16.057  0.0029 -0.1179 -0.0620
 9278SOL    HW139470   4.101   2.236  15.974 -1.1259 -0.7360 -0.4687
 9278SOL    HW239471   4.103   2.342  16.070  1.2876 -0.7165 -0.4805
 9279SOL     OW39472   3.786   0.217   1.200  0.2965 -0.7580 -0.4966
 9279SOL    HW139473   3.823   0.243   1.115  0.8282 -1.4819 -0.4892
 9279SOL    HW239474   3.859   0.214   1.261  1.7559  0.1403 -2.1916
 9280SOL     OW39475   3.846   0.286   6.488 -0.4757  0.5768  0.1885
 9280SOL    HW139476   3.840   0.235   6.568  0.1051 -0.3032 -0.3258
 9280SOL    HW239477   3.942   0.289   6.483 -0.5610  1.1023 -1.3856
 9281SOL     OW39478   4.505   3.564   2.537 -0.0080  0.5498 -0.5354
 9281SOL    HW139479   4.427   3.510   2.528  1.6427 -1.9303  0.0992
 9281SOL    HW239480   4.475   3.654   2.526  2.6572  1.5867  0.8005
 9282SOL     OW39481   3.914   0.985  17.114 -0.0325 -0.3029  0.0931
 9282SOL    HW139482   3.883   0.909  17.163 -1.2550 -0.7787 -1.4554
 9282SOL    HW239483   3.930   1.040  17.191  1.7170  2.6314 -2.3575
 9283SOL     OW39484   0.095   0.898  11.543  0.4995 -0.4680  0.0913
 9283SOL    HW139485   0.103   0.905  11.448 -1.4693 -1.2056 -0.1369
 9283SOL    HW239486   0.112   0.986  11.577  0.9847 -0.1468 -1.0164
 9284SOL     OW39487   0.022   0.445   6.274  0.3242  0.9881 -0.2070
 9284SOL    HW139488   4.726   0.452   6.364  3.0364  1.8970  0.6911
 9284SOL    HW239489   0.061   0.358   6.280 -1.0237  0.5024  1.4684
 9285SOL     OW39490   3.632   1.430   2.735 -0.0170  0.0206  0.3496
 9285SOL    HW139491   3.637   1.417   2.829  0.7626 -0.0626  0.2948
 9285SOL    HW239492   3.718   1.470   2.719  0.2778 -0.4674  0.6995
 9286SOL     OW39493   3.649   1.920  17.561  0.5085 -0.1280  0.3277
 9286SOL    HW139494   3.693   1.954  17.639 -1.6553 -0.1338  1.5559
 9286SOL    HW239495   3.699   1.959  17.489 -0.5155  0.8797  0.1689
 9287SOL     OW39496   3.116   1.567   1.078  0.0381 -0.2057 -0.0229
 9287SOL    HW139497   3.092   1.626   1.007 -0.6540  1.6871  1.7645
 9287SOL    HW239498   3.035   1.565   1.129 -0.2013  0.9735 -0.3663
 9288SOL     OW39499   2.060   2.193   2.690  0.5089  0.3224 -0.3074
 9288SOL    HW139500   2.019   2.272   2.656 -2.8382 -0.9734  0.6378
 9288SOL    HW239501   2.119   2.217   2.761  0.2126 -0.7628  0.3057
 9289SOL     OW39502   0.472   1.866  11.869 -0.0835 -0.2948 -0.2662
 9289SOL    HW139503   0.561   1.830  11.877 -0.0502 -0.1481  0.0329
 9289SOL    HW239504   0.433   1.810  11.935  2.8552  0.0415  1.7613
 9290SOL     OW39505   1.162   1.268   2.531 -0.2010 -0.1998 -0.5128
 9290SOL    HW139506   1.104   1.336   2.497  1.0716  1.7679  1.2591
 9290SOL    HW239507   1.239   1.290   2.479 -0.5294  1.6991 -0.1990
 9291SOL     OW39508   1.825   4.113   6.061  0.4747 -0.1279  0.6258
 9291SOL    HW139509   1.776   4.119   5.979  0.6522 -0.0037  0.5271
 9291SOL    HW239510   1.888   4.179   6.033  0.5960 -1.6422 -2.6698
 9292SOL     OW39511   3.930   1.075  15.184  0.2393 -0.7253  0.3666
 9292SOL    HW139512   4.006   1.090  15.240  0.9991 -1.9435 -0.3439
 9292SOL    HW239513   3.868   1.061  15.256 -1.0145  0.3997 -0.4745
 9293SOL     OW39514   4.424   2.657  15.195  0.4042  0.0395  0.3167
 9293SOL    HW139515   4.470   2.712  15.132 -0.3851  0.1284 -0.1927
 9293SOL    HW239516   4.486   2.588  15.217  1.1381  0.6368  0.0875
 9294SOL     OW39517   3.617   3.129   2.895  0.2567  0.1508  0.3777
 9294SOL    HW139518   3.641   3.041   2.924  1.6280  0.2346 -0.5073
 9294SOL    HW239519   3.699   3.178   2.903 -0.4228  1.5261 -1.0634
 9295SOL     OW39520   1.980   2.571   5.861  0.1749 -0.2406 -0.1238
 9295SOL    HW139521   1.934   2.585   5.944 -0.1514 -0.8418 -0.2047
 9295SOL    HW239522   2.049   2.637   5.869 -0.9768  0.8422  0.8963
 9296SOL     OW39523   3.185   1.409   3.541 -0.6982 -0.1019 -0.0678
 9296SOL    HW139524   3.134   1.475   3.495 -1.0390  0.8151  1.6288
 9296SOL    HW239525   3.151   1.334   3.494  0.2526  1.4094 -3.1409
 9297SOL     OW39526   4.564   1.764  10.213  0.6331 -0.5971 -0.2823
 9297SOL    HW139527   4.658   1.745  10.214  0.4814 -1.3291  0.2775
 9297SOL    HW239528   4.540   1.756  10.306 -1.4430 -2.3835 -1.0020
 9298SOL     OW39529   3.656   2.008   0.206  0.3861 -0.6259 -0.0399
 9298SOL    HW139530   3.723   2.037   0.267  1.1271 -0.1284 -1.0995
 9298SOL    HW239531   3.653   2.079   0.142 -0.2573 -0.1635  0.5084
 9299SOL     OW39532   1.538   0.920   6.033 -0.1868  0.3931  0.1010
 9299SOL    HW139533   1.578   0.997   6.074 -1.6275  1.0861  0.1980
 9299SOL    HW239534   1.506   0.874   6.111 -0.1229 -2.1024 -1.3535
 9300SOL     OW39535   2.450   3.925   6.887  0.1029 -0.1080  0.0180
 9300SOL    HW139536   2.464   3.850   6.945 -1.6121  0.2362  0.8694
 9300SOL    HW239537   2.381   3.971   6.934  0.1167  0.3133 -0.3793
 9301SOL     OW39538   3.201   3.635   4.474 -0.3382  0.6450 -0.0639
 9301SOL    HW139539   3.253   3.650   4.395 -0.8036  0.0960 -0.4781
 9301SOL    HW239540   3.265   3.607   4.540  1.3050 -0.9416 -2.2926
 9302SOL     OW39541   1.452   1.176   0.865 -0.0702 -0.1098 -0.3754
 9302SOL    HW139542   1.451   1.084   0.839 -1.5482 -0.3678  0.5647
 9302SOL    HW239543   1.519   1.216   0.810  0.4049  0.2178  0.4336
 9303SOL     OW39544   4.136   4.618   4.009  0.2457 -0.3061 -0.5483
 9303SOL    HW139545   4.115   4.552   3.944  1.0766 -0.0128 -1.1204
 9303SOL    HW239546   4.232   4.620   4.019  0.2179 -0.4133 -0.2348
 9304SOL     OW39547   1.686   1.363   7.486 -0.3971 -0.5263  0.0099
 9304SOL    HW139548   1.653   1.416   7.413  2.0322  2.3528  1.0198
 9304SOL    HW239549   1.610   1.347   7.542  1.0502 -0.9692  1.8094
 9305SOL     OW39550   1.918   0.519  15.068 -0.4494  0.1814 -0.3431
 9305SOL    HW139551   1.978   0.479  15.005  0.1132  0.4225  0.0500
 9305SOL    HW239552   1.962   0.514  15.152  0.4314 -0.3524 -0.8379
 9306SOL     OW39553   4.052   2.149  10.809 -0.6002  0.0526  0.2023
 9306SOL    HW139554   3.995   2.190  10.874 -1.0688  0.9891 -0.7978
 9306SOL    HW239555   4.036   2.217  10.743 -2.5349  0.5904  1.2412
 9307SOL     OW39556   4.128   0.100   4.695 -0.2853 -0.2210  0.0259
 9307SOL    HW139557   4.069   0.030   4.666 -1.3710 -0.0016  1.7261
 9307SOL    HW239558   4.209   0.065   4.657  0.5521  1.5263  0.2058
 9308SOL     OW39559   1.958   4.097   7.414  0.0237  0.1029 -0.2468
 9308SOL    HW139560   1.960   4.046   7.495 -0.4652  0.7665  0.1828
 9308SOL    HW239561   2.041   4.143   7.429 -0.5082  1.1511 -0.5408
 9309SOL     OW39562   0.054   2.880   5.067  0.4100 -0.2093  0.2390
 9309SOL    HW139563   0.134   2.828   5.060 -0.4543 -1.7268  1.7753
 9309SOL    HW239564   0.068   2.920   4.980 -0.0064 -1.4795 -0.4105
 9310SOL     OW39565   2.157   3.189  10.604  0.4821  0.4280 -0.2819
 9310SOL    HW139566   2.064   3.198  10.587 -0.1117  1.2358  3.5571
 9310SOL    HW239567   2.192   3.243  10.533  1.2776  1.0341  0.5599
 9311SOL     OW39568   4.033   4.695   5.713 -0.1094  0.4815  0.2173
 9311SOL    HW139569   4.063   4.608   5.738 -3.6364 -1.0473 -0.9327
 9311SOL    HW239570   4.054   4.683   5.620  2.2585  0.6510  0.7367
 9312SOL     OW39571   1.621   1.629  14.180  0.0689  0.2533  0.2512
 9312SOL    HW139572   1.708   1.643  14.142  0.1701  1.9718  1.1267
 9312SOL    HW239573   1.584   1.716  14.187 -1.5096 -0.4180  0.3004
 9313SOL     OW39574   3.917   0.952   7.313 -0.1847 -0.7375  0.0535
 9313SOL    HW139575   4.004   0.984   7.336  0.2886 -1.7724 -0.3125
 9313SOL    HW239576   3.922   0.858   7.328  0.3714 -1.3289 -3.6678
 9314SOL     OW39577   4.135   0.675   1.507  0.6387  0.2774 -0.1988
 9314SOL    HW139578   4.091   0.599   1.468  1.0730 -0.2298  0.3051
 9314SOL    HW239579   4.083   0.685   1.586 -0.7541 -0.2777 -1.0402
 9315SOL     OW39580   4.354   0.229  12.331  0.7254  0.0045 -0.0053
 9315SOL    HW139581   4.299   0.158  12.363  1.2208 -1.1929 -1.8486
 9315SOL    HW239582   4.386   0.184  12.253  0.4781 -0.7662  0.3426
 9316SOL     OW39583   3.110   0.404   2.973 -0.8493 -0.0658 -0.3665
 9316SOL    HW139584   3.042   0.419   2.907 -1.0033 -0.8663 -0.3858
 9316SOL    HW239585   3.186   0.436   2.924 -0.6007 -0.8458 -0.4930
 9317SOL     OW39586   3.747   0.885   4.296  0.0460  0.2590  0.0464
 9317SOL    HW139587   3.792   0.921   4.373  0.5630  0.4891 -0.3669
 9317SOL    HW239588   3.655   0.890   4.322  0.0025  0.9680 -0.2564
 9318SOL     OW39589   1.444   4.236  14.801 -0.6324 -0.2367 -0.1823
 9318SOL    HW139590   1.539   4.238  14.793 -0.7255  4.3554 -0.2790
 9318SOL    HW239591   1.433   4.311  14.859 -2.3610 -1.2962  0.8532
 9319SOL     OW39592   2.012   1.618   3.409  0.5360  0.1497  0.0500
 9319SOL    HW139593   2.043   1.684   3.470  1.3012 -0.5879  0.4534
 9319SOL    HW239594   1.922   1.610   3.441  0.3768  0.0998 -0.4093
 9320SOL     OW39595   1.141   1.234   6.940 -1.0664  0.0850  0.5165
 9320SOL    HW139596   1.134   1.322   6.976 -3.4073 -0.1276  0.5723
 9320SOL    HW239597   1.180   1.179   7.008 -0.2012 -1.3590 -1.1306
 9321SOL     OW39598   0.292   1.052   1.984  0.5996 -0.9058  0.2423
 9321SOL    HW139599   0.321   1.137   1.950 -1.5043 -0.5428 -0.7086
 9321SOL    HW239600   0.293   1.005   1.900 -0.8815 -1.1025  0.3331
 9322SOL     OW39601   4.322   0.611   0.098 -0.6184 -0.4215  0.4177
 9322SOL    HW139602   4.389   0.546   0.078  0.3036 -0.0261  2.2953
 9322SOL    HW239603   4.377   0.689   0.095  0.3951 -1.1371  0.6787
 9323SOL     OW39604   1.178   4.080   8.475 -0.2687  0.3617  0.2518
 9323SOL    HW139605   1.136   4.162   8.502 -3.1640 -1.1805  0.4158
 9323SOL    HW239606   1.116   4.011   8.500 -0.8640  0.6937 -0.2930
 9324SOL     OW39607   0.603   3.716   4.243  0.2570 -0.1601 -0.2655
 9324SOL    HW139608   0.526   3.684   4.290  0.5432  0.7447  0.8231
 9324SOL    HW239609   0.571   3.692   4.156  0.6040 -4.9666  0.9179
 9325SOL     OW39610   4.467   4.718   1.638 -1.1119  0.0385 -0.0284
 9325SOL    HW139611   4.546   0.036   1.629 -0.8975 -0.0585  1.2449
 9325SOL    HW239612   4.416   0.036   1.699  1.9359  0.7432  1.9431
 9326SOL     OW39613   2.711   0.173   1.879  0.3808 -0.0297 -0.7248
 9326SOL    HW139614   2.779   0.217   1.828 -0.9822  2.7224 -0.2232
 9326SOL    HW239615   2.637   0.204   1.826 -1.0851  1.5455  2.2677
 9327SOL     OW39616   2.584   0.037  17.356  0.1165 -0.3495 -0.1649
 9327SOL    HW139617   2.596   0.014  17.449 -0.6224  1.5538  0.3950
 9327SOL    HW239618   2.606   4.688  17.316  1.8354  0.6997 -1.3874
 9328SOL     OW39619   3.020   1.692   6.993  0.2165  0.0021 -0.4456
 9328SOL    HW139620   2.956   1.642   6.943  0.4446  0.0830 -0.8203
 9328SOL    HW239621   2.956   1.720   7.059 -0.0144  0.0248 -0.6793
 9329SOL     OW39622   3.693   4.513   7.652 -0.3655  0.0611  0.0938
 9329SOL    HW139623   3.771   4.459   7.644  0.5320  1.5074 -0.9617
 9329SOL    HW239624   3.697   4.560   7.568 -2.7338  2.0210  1.0821
 9330SOL     OW39625   0.921   1.909   2.649 -0.0485 -0.1930  0.3219
 9330SOL    HW139626   0.950   1.859   2.725  2.4415 -0.7638 -1.0163
 9330SOL    HW239627   0.963   1.995   2.652 -1.0037  0.2941 -0.1403
 9331SOL     OW39628   0.110   0.943  10.475 -0.0483  0.4598  0.0614
 9331SOL    HW139629   0.093   0.849  10.465 -1.0078  0.5824  0.4348
 9331SOL    HW239630   0.049   0.990  10.419 -0.7913  0.2902  0.7192
 9332SOL     OW39631   2.398   1.712  13.516 -0.1828 -0.3730 -0.0889
 9332SOL    HW139632   2.425   1.657  13.590  1.6960  1.5167  0.6211
 9332SOL    HW239633   2.483   1.709  13.473 -0.1584 -1.6352  0.0491
 9333SOL     OW39634   0.346   0.790   5.257  0.1902 -0.0972  0.6962
 9333SOL    HW139635   0.271   0.795   5.198  0.8821 -1.6204 -0.3118
 9333SOL    HW239636   0.320   0.711   5.304  1.7375  0.7623  3.0124
 9334SOL     OW39637   2.011   2.859   6.010 -0.5407  0.3069  0.8533
 9334SOL    HW139638   2.026   2.869   6.104  0.3003 -0.7578  0.8440
 9334SOL    HW239639   2.092   2.811   5.990 -0.6705  0.5080 -0.1704
 9335SOL     OW39640   4.633   2.452   5.900  0.1079  0.0626  0.0651
 9335SOL    HW139641   4.692   2.511   5.854 -0.5366 -0.3481 -1.2650
 9335SOL    HW239642   4.636   2.385   5.833  1.6890  2.5807 -2.3707
 9336SOL     OW39643   2.580   3.467   1.749 -0.3299 -0.3473 -0.1626
 9336SOL    HW139644   2.617   3.430   1.829  1.3401  0.8887 -0.3845
 9336SOL    HW239645   2.562   3.386   1.701 -2.0093  0.1408 -0.3485
 9337SOL     OW39646   2.943   1.695   4.513  0.1292  0.2809 -0.2107
 9337SOL    HW139647   2.882   1.731   4.576  0.4076 -0.7461  0.6445
 9337SOL    HW239648   3.001   1.768   4.492 -0.3170  0.4839 -0.7293
 9338SOL     OW39649   2.382   0.080   2.108  0.3592 -0.1372  0.0724
 9338SOL    HW139650   2.434   0.064   2.030  1.8913 -0.9566  1.2553
 9338SOL    HW239651   2.313   0.015   2.097 -1.6715  1.8676  0.9729
 9339SOL     OW39652   4.397   0.726   1.609  0.0256  0.2262 -0.2825
 9339SOL    HW139653   4.309   0.727   1.573 -0.6150 -0.0804  1.2561
 9339SOL    HW239654   4.386   0.781   1.687 -1.1657 -0.8850  0.3158
 9340SOL     OW39655   1.438   3.507   8.249  0.3329  0.0163 -0.6259
 9340SOL    HW139656   1.368   3.447   8.276  0.6334  0.4841  1.1778
 9340SOL    HW239657   1.492   3.511   8.328 -0.2468  1.2378 -0.2886
 9341SOL     OW39658   0.787   2.485   6.265  0.5440 -0.1449 -0.0691
 9341SOL    HW139659   0.754   2.565   6.305  1.0373  0.2584 -0.4787
 9341SOL    HW239660   0.881   2.496   6.274  0.4224  0.3934  0.4945
 9342SOL     OW39661   0.820   3.305   0.047  0.4469 -0.3363  0.3519
 9342SOL    HW139662   0.769   3.231   0.081  0.4692 -0.8292 -0.6809
 9342SOL    HW239663   0.774   3.380   0.084 -1.3110 -1.4424  0.4527
 9343SOL     OW39664   2.224   2.161   7.002  0.5128 -0.5368  0.3385
 9343SOL    HW139665   2.250   2.249   7.029 -0.9776  0.2178 -0.6913
 9343SOL    HW239666   2.190   2.135   7.088  0.9632 -2.2346  0.0089
 9344SOL     OW39667   2.266   2.013   8.604 -0.0278  0.4077  0.3511
 9344SOL    HW139668   2.342   2.064   8.576 -1.0246  2.0400  0.5911
 9344SOL    HW239669   2.221   2.067   8.668  0.2895  2.5860 -1.2702
 9345SOL     OW39670   0.967   3.856   0.077 -0.3495 -0.7486 -0.4572
 9345SOL    HW139671   1.005   3.899   0.000  1.2272 -0.7968  0.3055
 9345SOL    HW239672   0.982   3.768   0.043  1.7427 -1.1722  1.5851
 9346SOL     OW39673   2.428   0.870   8.907 -0.0285  0.4815 -0.2637
 9346SOL    HW139674   2.513   0.827   8.900 -0.4787 -0.7703  2.3529
 9346SOL    HW239675   2.366   0.806   8.939 -0.8126  1.9636  1.1894
 9347SOL     OW39676   1.457   0.751   1.664  0.2906 -0.5609  0.1904
 9347SOL    HW139677   1.399   0.682   1.696  0.9768 -1.0273  0.4429
 9347SOL    HW239678   1.397   0.816   1.702 -0.4090 -1.0989  0.0061
 9348SOL     OW39679   0.054   0.969   2.101 -0.4339  0.4515  0.0694
 9348SOL    HW139680   0.123   0.997   2.041  0.2054  1.7223  1.3870
 9348SOL    HW239681   0.029   0.879   2.079  0.5500  0.0175  0.7412
 9349SOL     OW39682   2.272   0.726  14.588 -0.3668  0.0222  0.4576
 9349SOL    HW139683   2.342   0.747  14.649  1.9195 -0.0456 -2.1782
 9349SOL    HW239684   2.193   0.732  14.642 -0.7010  0.1761 -0.0436
 9350SOL     OW39685   2.782   4.389   3.877 -0.3231  0.2264 -0.8853
 9350SOL    HW139686   2.776   4.408   3.783  1.9623  1.9416 -0.6711
 9350SOL    HW239687   2.858   4.333   3.892 -0.3612  0.4059 -0.0503
 9351SOL     OW39688   3.591   0.533  14.219  0.0153  0.0798  0.5182
 9351SOL    HW139689   3.559   0.492  14.138 -1.3144  1.6151  0.2657
 9351SOL    HW239690   3.567   0.464  14.281 -1.1326  0.1205  0.1275
 9352SOL     OW39691   3.741   3.866  11.234  0.0537 -0.0122 -0.2690
 9352SOL    HW139692   3.695   3.786  11.260  1.5769 -1.1777 -1.1233
 9352SOL    HW239693   3.770   3.885  11.323 -0.4678 -1.2806  0.1786
 9353SOL     OW39694   0.171   0.399   4.220  0.3011 -0.1857  0.1555
 9353SOL    HW139695   0.224   0.478   4.232  1.5111 -0.7539 -1.4119
 9353SOL    HW239696   0.193   0.344   4.295  2.0664  0.7740  0.3408
 9354SOL     OW39697   0.187   0.582   0.203  0.0988  0.1317  0.2301
 9354SOL    HW139698   0.207   0.674   0.221 -1.0902  0.2154  1.1543
 9354SOL    HW239699   0.232   0.533   0.271 -0.5099 -0.0526  0.5048
 9355SOL     OW39700   2.340   2.526   6.701  0.0906 -0.2998  0.4293
 9355SOL    HW139701   2.407   2.477   6.749  0.2189 -0.2441  0.3072
 9355SOL    HW239702   2.393   2.566   6.633 -0.6223  0.2786  0.2200
 9356SOL     OW39703   2.508   0.242   1.674  0.9765  0.0541  0.3091
 9356SOL    HW139704   2.471   0.223   1.587  0.8495 -1.5541  0.7157
 9356SOL    HW239705   2.499   0.337   1.680  0.0603 -0.0867  1.2238
 9357SOL     OW39706   1.777   1.573   3.651  0.1925  0.4752 -0.3786
 9357SOL    HW139707   1.849   1.633   3.669 -1.1815  1.9489  0.2228
 9357SOL    HW239708   1.724   1.623   3.589  0.5880  2.9118  1.2182
 9358SOL     OW39709   3.334   3.592   7.791  0.8083 -0.4204 -0.6437
 9358SOL    HW139710   3.243   3.624   7.796  1.4094  1.0739  0.8410
 9358SOL    HW239711   3.316   3.498   7.790 -0.9281 -0.0904 -1.0440
 9359SOL     OW39712   1.525   0.625   1.966  0.3905 -0.3367 -0.0175
 9359SOL    HW139713   1.455   0.602   1.905 -0.6304 -0.0710  1.0696
 9359SOL    HW239714   1.599   0.629   1.904 -0.2477  0.0399 -0.7527
 9360SOL     OW39715   2.184   1.234   1.265  0.3463 -0.1890 -0.4353
 9360SOL    HW139716   2.176   1.140   1.248 -0.0524 -0.0504 -1.0113
 9360SOL    HW239717   2.190   1.275   1.179 -1.5293 -0.1606 -0.5408
 9361SOL     OW39718   3.806   0.596   4.330 -0.0606  0.6520  0.3813
 9361SOL    HW139719   3.754   0.531   4.282 -1.0490  0.3334  1.8865
 9361SOL    HW239720   3.803   0.668   4.266 -1.1870  1.2352  1.0794
 9362SOL     OW39721   3.580   1.761   0.873 -0.0687 -0.1946 -0.8391
 9362SOL    HW139722   3.503   1.725   0.918 -0.4495  1.5503 -0.0715
 9362SOL    HW239723   3.645   1.692   0.886  0.9212  1.0052  0.6722
 9363SOL     OW39724   2.394   0.824   1.257 -0.2845  0.0127 -0.1448
 9363SOL    HW139725   2.309   0.868   1.257 -0.5446 -0.5335  3.3755
 9363SOL    HW239726   2.437   0.858   1.179 -1.6616  0.9421 -0.5037
 9364SOL     OW39727   2.238   3.327   6.222 -0.2786 -0.3668  0.4492
 9364SOL    HW139728   2.258   3.278   6.302  1.3505 -1.5425 -0.6620
 9364SOL    HW239729   2.300   3.400   6.230  0.7669 -1.0820 -1.0685
 9365SOL     OW39730   1.776   3.707  14.903 -0.0258 -0.4189 -0.5186
 9365SOL    HW139731   1.745   3.628  14.948  1.4933 -0.6534  0.1029
 9365SOL    HW239732   1.802   3.662  14.822  1.4703 -0.4587 -0.0028
 9366SOL     OW39733   3.160   4.413   2.652  0.9124  0.2153 -0.4652
 9366SOL    HW139734   3.237   4.398   2.707 -0.1419 -1.2876  0.5918
 9366SOL    HW239735   3.195   4.444   2.568  1.1078 -0.6677 -0.7092
 9367SOL     OW39736   1.936   0.168  11.405 -0.0410 -0.3818 -0.1747
 9367SOL    HW139737   1.911   0.232  11.339 -0.6542  1.3142  1.7087
 9367SOL    HW239738   2.031   0.156  11.401 -0.0207 -0.1887 -0.2684
 9368SOL     OW39739   3.132   1.617   0.281  0.0959 -0.8044  0.0755
 9368SOL    HW139740   3.080   1.648   0.207  0.2426 -2.8024 -0.8763
 9368SOL    HW239741   3.219   1.638   0.248  0.2173 -0.6360  0.5104
 9369SOL     OW39742   1.435   2.978  10.332 -0.3127  0.0131 -0.2282
 9369SOL    HW139743   1.402   2.943  10.415  2.0082 -0.3505  0.5564
 9369SOL    HW239744   1.364   3.039  10.310 -2.2905 -1.8392  1.0863
 9370SOL     OW39745   1.667   2.001   4.156 -0.1476  0.1432  0.0529
 9370SOL    HW139746   1.706   1.959   4.079  0.3926 -1.0188  0.9602
 9370SOL    HW239747   1.732   2.069   4.176 -1.0531  0.4120  2.0975
 9371SOL     OW39748   3.665   1.330   3.760 -0.6285 -0.0531 -0.1459
 9371SOL    HW139749   3.593   1.364   3.708 -1.0351  0.1985  0.5817
 9371SOL    HW239750   3.641   1.368   3.844  1.7704  0.3528  0.3779
 9372SOL     OW39751   0.230   0.191   2.140  0.2356 -0.2579  0.1814
 9372SOL    HW139752   0.260   0.141   2.063  0.4097 -0.9002  0.6616
 9372SOL    HW239753   0.220   0.120   2.204  3.6998 -2.9247 -2.2358
 9373SOL     OW39754   2.496   3.273   7.837 -0.0236  0.1395 -0.9001
 9373SOL    HW139755   2.562   3.341   7.846 -0.0937 -0.0280  0.8536
 9373SOL    HW239756   2.551   3.201   7.807  1.2293 -0.7251  3.4160
 9374SOL     OW39757   0.535   3.634   7.340  0.3545 -0.2349  0.3854
 9374SOL    HW139758   0.521   3.540   7.332 -0.0007  0.0041 -1.8073
 9374SOL    HW239759   0.532   3.652   7.246 -2.3473  0.4299  0.5923
 9375SOL     OW39760   1.988   0.202  14.701 -0.0488 -0.0542 -0.5286
 9375SOL    HW139761   2.001   0.138  14.771  0.2581 -0.6205 -1.1063
 9375SOL    HW239762   2.032   0.155  14.630  0.4835  2.1077 -1.6109
 9376SOL     OW39763   1.747   1.477  10.267 -0.6163  0.4894 -0.3049
 9376SOL    HW139764   1.798   1.399  10.247 -0.5455 -0.0950  2.1212
 9376SOL    HW239765   1.662   1.444  10.238 -1.6785  1.9896  1.0662
 9377SOL     OW39766   4.317   3.430  16.282 -0.2221  0.4832 -0.2615
 9377SOL    HW139767   4.291   3.478  16.204 -1.9132  1.8094  1.1025
 9377SOL    HW239768   4.294   3.490  16.353  0.8050  0.1569  0.3489
 9378SOL     OW39769   1.107   3.954   9.372  0.1250  0.3904  0.0875
 9378SOL    HW139770   1.052   4.026   9.404  0.3776  0.9155 -0.6498
 9378SOL    HW239771   1.032   3.900   9.347 -1.1073  1.6071  1.1468
 9379SOL     OW39772   2.565   2.962  11.370  0.3363 -0.3986  0.0458
 9379SOL    HW139773   2.569   2.870  11.396  2.6157  0.6781  3.3934
 9379SOL    HW239774   2.504   2.997  11.435 -0.7118  1.9525 -2.1574
 9380SOL     OW39775   4.240   4.411   6.324 -0.1821  0.4965 -0.5755
 9380SOL    HW139776   4.316   4.463   6.298  0.1862  0.1719 -0.1555
 9380SOL    HW239777   4.273   4.324   6.346  0.1750  0.4270 -1.3950
 9381SOL     OW39778   1.940   3.233   0.772  0.5590 -0.7466  0.3704
 9381SOL    HW139779   1.850   3.204   0.782 -0.6301  1.7483 -3.1126
 9381SOL    HW239780   1.953   3.227   0.677  1.5309 -0.3084  0.4727
 9382SOL     OW39781   0.045   0.528   6.928 -0.3342  0.0475  0.1525
 9382SOL    HW139782   0.010   0.466   6.991 -0.7673 -0.4350 -0.5526
 9382SOL    HW239783   0.061   0.606   6.980  0.3498 -0.8031  1.2105
 9383SOL     OW39784   2.629   0.712  16.951 -0.0975 -0.2547  0.6305
 9383SOL    HW139785   2.715   0.745  16.925 -1.0527  0.3383 -1.7779
 9383SOL    HW239786   2.637   0.705  17.046 -1.7383  1.7720  0.9076
 9384SOL     OW39787   1.849   4.090  15.220 -0.5507  0.2572  0.3120
 9384SOL    HW139788   1.895   4.018  15.176 -0.9065  0.0476  0.2852
 9384SOL    HW239789   1.873   4.070  15.310  0.0912 -0.9316 -0.1241
 9385SOL     OW39790   3.683   4.449   8.378  0.1442  0.1003 -0.8248
 9385SOL    HW139791   3.596   4.451   8.340  1.2200 -1.3050 -3.3702
 9385SOL    HW239792   3.679   4.523   8.438  2.2178 -0.7284  0.3467
 9386SOL     OW39793   2.225   0.303   9.140  0.3772 -0.3939 -0.2544
 9386SOL    HW139794   2.138   0.264   9.130  0.1922  0.5669 -2.3878
 9386SOL    HW239795   2.218   0.386   9.092 -2.0351  0.2503  1.2647
 9387SOL     OW39796   3.032   4.059   5.108 -0.2493  1.2316 -0.5725
 9387SOL    HW139797   3.074   4.112   5.176 -1.2979  0.9252  0.3227
 9387SOL    HW239798   2.962   4.016   5.157  0.0871  1.9340  0.5325
 9388SOL     OW39799   1.662   0.118  10.954  0.2800 -0.2115 -0.2137
 9388SOL    HW139800   1.635   0.026  10.960 -1.6430  0.2636 -1.4907
 9388SOL    HW239801   1.748   0.118  10.912  0.3922  2.9004  0.0178
 9389SOL     OW39802   0.984   2.121  16.154  0.2985 -0.2189 -0.4705
 9389SOL    HW139803   0.973   2.027  16.143  2.0424 -0.3917 -0.6310
 9389SOL    HW239804   0.924   2.132  16.228  0.2955  1.4570 -0.7288
 9390SOL     OW39805   1.654   0.999   4.492  0.9253 -0.0887 -0.6332
 9390SOL    HW139806   1.708   1.069   4.530  1.2519 -1.1978  0.9842
 9390SOL    HW239807   1.706   0.975   4.415  1.9213 -1.1086  0.3532
 9391SOL     OW39808   3.725   3.393   7.168 -0.2124 -0.2465  0.1235
 9391SOL    HW139809   3.645   3.418   7.214 -0.5165 -0.2069 -0.4329
 9391SOL    HW239810   3.773   3.473   7.148  0.4781 -0.2864  1.5885
 9392SOL     OW39811   2.837   2.143  15.154  0.4806 -0.1483 -0.0508
 9392SOL    HW139812   2.890   2.081  15.203 -1.6848 -1.8056  0.2316
 9392SOL    HW239813   2.757   2.095  15.133  0.3624 -0.1347  0.3642
 9393SOL     OW39814   0.781   2.628   2.355  0.1245 -0.3136  0.0988
 9393SOL    HW139815   0.823   2.636   2.269 -0.0207  1.2896  0.1755
 9393SOL    HW239816   0.841   2.686   2.403  0.7238 -0.3008 -0.6616
 9394SOL     OW39817   2.368   1.204   3.927  0.1852  0.0954  0.2962
 9394SOL    HW139818   2.339   1.113   3.933 -0.7259  0.4533  1.2963
 9394SOL    HW239819   2.401   1.208   3.837  1.9303  2.2282  1.0476
 9395SOL     OW39820   1.961   3.592   3.245 -0.8208 -0.3301 -0.0803
 9395SOL    HW139821   2.029   3.650   3.210  0.8212 -2.4758 -0.4210
 9395SOL    HW239822   2.007   3.512   3.220 -0.7267 -0.0733 -0.7115
 9396SOL     OW39823   0.926   0.103   7.209  0.2151  0.7375 -1.0055
 9396SOL    HW139824   0.986   0.101   7.135  1.3027 -1.8631 -0.0605
 9396SOL    HW239825   0.879   0.186   7.198  0.7572  0.8984 -2.0837
 9397SOL     OW39826   2.942   0.030   1.934 -0.2257  0.3438  0.3170
 9397SOL    HW139827   2.853   0.040   1.902  0.3209  0.5010 -1.1431
 9397SOL    HW239828   2.967   4.700   1.869  1.7074 -0.8219  2.2152
 9398SOL     OW39829   2.966   0.555   5.607 -0.5766  0.3921 -0.3372
 9398SOL    HW139830   2.981   0.525   5.517 -0.1541 -1.6546  0.4260
 9398SOL    HW239831   2.871   0.553   5.619 -0.4629  1.3951  0.7116
 9399SOL     OW39832   1.274   0.154   2.276  0.5320  0.4239 -0.0346
 9399SOL    HW139833   1.293   0.075   2.326  1.7830  0.7402 -0.0283
 9399SOL    HW239834   1.285   0.122   2.187  1.5795  3.0556 -0.8626
 9400SOL     OW39835   1.501   0.957   0.437 -0.3149 -0.2285 -0.4648
 9400SOL    HW139836   1.475   0.883   0.382 -0.7530 -0.0284 -0.5312
 9400SOL    HW239837   1.594   0.935   0.442  0.0395  0.7469 -2.7186
 9401SOL     OW39838   4.148   3.753   6.535 -0.1167  0.4367  0.1509
 9401SOL    HW139839   4.093   3.780   6.608 -2.0876 -1.3409 -0.6948
 9401SOL    HW239840   4.152   3.835   6.487  0.9995 -0.1458 -0.7423
 9402SOL     OW39841   2.056   0.938  14.555  0.2615 -0.0585 -0.3494
 9402SOL    HW139842   2.001   0.981  14.489  1.1007  0.5071 -0.6782
 9402SOL    HW239843   2.011   0.855  14.570  2.7328 -1.5149 -1.0118
 9403SOL     OW39844   4.039   3.145  16.166 -0.0000 -0.1296 -0.5003
 9403SOL    HW139845   4.120   3.104  16.138  1.9304  1.7202  2.3192
 9403SOL    HW239846   4.054   3.233  16.132 -1.6369  0.5955  0.6428
 9404SOL     OW39847   4.466   1.056   7.072 -0.5277 -0.7012  0.2225
 9404SOL    HW139848   4.453   0.967   7.107 -1.2693 -1.2375 -1.4143
 9404SOL    HW239849   4.384   1.101   7.094 -0.4063 -1.2939  1.9087
 9405SOL     OW39850   1.062   3.907   8.955  0.9217 -0.2500 -0.0572
 9405SOL    HW139851   1.050   3.830   8.900 -1.2662 -0.5282  0.7744
 9405SOL    HW239852   0.972   3.941   8.952  1.6547  1.7263  0.5631
 9406SOL     OW39853   2.115   0.130   4.273 -0.3241 -0.0640 -0.6263
 9406SOL    HW139854   2.125   0.132   4.178  0.3821  0.0740 -0.5517
 9406SOL    HW239855   2.031   0.172   4.287  0.2298  0.9866 -0.4504
 9407SOL     OW39856   1.001   0.718   1.450  0.3999  0.0672 -0.5155
 9407SOL    HW139857   0.929   0.663   1.480 -0.6506  2.0537  0.5369
 9407SOL    HW239858   1.063   0.724   1.523 -1.6376 -0.4887  1.2518
 9408SOL     OW39859   0.909   3.462   0.864  0.4254  0.1280  0.4035
 9408SOL    HW139860   0.894   3.483   0.772 -1.4729  1.6855  1.0939
 9408SOL    HW239861   0.906   3.546   0.909 -0.3012 -0.1614  0.8902
 9409SOL     OW39862   4.223   1.557  10.370  0.1796 -0.1268  0.1058
 9409SOL    HW139863   4.228   1.645  10.332  1.4543 -0.4467 -0.4694
 9409SOL    HW239864   4.130   1.536  10.365  0.4794 -1.6430  0.8392
 9410SOL     OW39865   0.093   3.656   5.680  0.0851  0.1389 -0.1015
 9410SOL    HW139866   0.014   3.708   5.666  0.3341 -0.0063 -2.1469
 9410SOL    HW239867   0.058   3.569   5.700 -0.9083  0.4410 -0.5211
 9411SOL     OW39868   2.030   2.031   0.478  0.7661 -0.1470 -0.3666
 9411SOL    HW139869   2.027   2.117   0.519  1.2660  0.1351 -0.9268
 9411SOL    HW239870   2.011   2.041   0.385  1.8924 -0.5928 -0.6466
 9412SOL     OW39871   1.431   4.557   4.899  0.1868  0.0934  0.2671
 9412SOL    HW139872   1.509   4.556   4.954 -1.1867 -0.1704  2.1962
 9412SOL    HW239873   1.423   4.652   4.889  3.4993  0.2648 -0.7521
 9413SOL     OW39874   1.183   1.699   2.461 -0.1240 -0.4247 -0.0311
 9413SOL    HW139875   1.123   1.748   2.403  2.1983  2.7675  0.2508
 9413SOL    HW239876   1.257   1.751   2.431 -0.5847  0.7262  0.8392
 9414SOL     OW39877   0.779   3.440  12.960  0.4778 -0.1663  0.4160
 9414SOL    HW139878   0.778   3.411  13.051 -1.3455 -0.0450  0.4220
 9414SOL    HW239879   0.854   3.388  12.930  1.2879  2.7213 -2.5888
 9415SOL     OW39880   2.964   1.907   1.709 -0.3382  0.5784 -0.2823
 9415SOL    HW139881   3.022   1.895   1.634  0.0416 -1.5368  0.3526
 9415SOL    HW239882   2.901   1.967   1.670 -1.7469 -0.9817 -0.4190
 9416SOL     OW39883   2.832   1.729   5.362  0.1984 -0.0056 -0.3837
 9416SOL    HW139884   2.747   1.756   5.327 -0.3312 -0.8590  0.2609
 9416SOL    HW239885   2.819   1.634   5.366 -1.3213  0.1500 -1.6345
 9417SOL     OW39886   1.278   1.695   0.756  0.2141  0.3701 -0.0971
 9417SOL    HW139887   1.365   1.722   0.784  0.3065 -1.1899  1.1402
 9417SOL    HW239888   1.254   1.742   0.677  0.2919 -0.3670 -0.5573
 9418SOL     OW39889   0.668   2.986  15.364 -0.2030  0.5382  0.3629
 9418SOL    HW139890   0.575   2.963  15.360  0.4156 -1.9360 -0.1514
 9418SOL    HW239891   0.711   2.934  15.297  0.8345  1.0824  0.6100
 9419SOL     OW39892   2.427   0.717   4.502 -0.9828  0.9446  0.2508
 9419SOL    HW139893   2.492   0.703   4.432  0.5068 -0.7285  1.9475
 9419SOL    HW239894   2.360   0.657   4.468 -1.4960  1.5534  0.1958
 9420SOL     OW39895   1.424   3.737   5.478 -0.1554 -0.1773 -0.1204
 9420SOL    HW139896   1.418   3.652   5.521  0.0083 -0.5527 -0.8464
 9420SOL    HW239897   1.340   3.771   5.508  1.3541  1.9776  1.7036
 9421SOL     OW39898   4.255   0.445   5.738 -0.0903  0.1590 -0.1812
 9421SOL    HW139899   4.315   0.497   5.685 -0.1056  1.4685  1.0792
 9421SOL    HW239900   4.229   0.503   5.810 -1.2417  0.7654 -1.0881
 9422SOL     OW39901   4.451   4.317   2.974  0.7732  0.3555 -0.3523
 9422SOL    HW139902   4.403   4.394   3.004  1.3188  1.8827 -3.3576
 9422SOL    HW239903   4.376   4.258   2.972 -0.0263  1.3668 -0.1664
 9423SOL     OW39904   4.123   0.664   5.362 -1.0480 -0.4757 -0.6930
 9423SOL    HW139905   4.202   0.651   5.309  0.0329 -0.0380  0.8075
 9423SOL    HW239906   4.078   0.588   5.327 -0.9412  0.4132 -2.7546
 9424SOL     OW39907   0.537   1.905   2.576 -0.0480 -0.1164 -0.1390
 9424SOL    HW139908   0.585   1.829   2.609 -1.2893  0.2979  2.6130
 9424SOL    HW239909   0.451   1.867   2.556 -0.9140  1.5597  0.3812
 9425SOL     OW39910   2.382   2.547   5.962 -0.5635  0.0707  0.0099
 9425SOL    HW139911   2.409   2.466   6.005 -1.2857  0.3029  0.9031
 9425SOL    HW239912   2.465   2.566   5.918 -0.1663 -1.3385  0.1536
 9426SOL     OW39913   0.761   4.437   9.432 -0.0515 -0.1729 -0.0116
 9426SOL    HW139914   0.747   4.435   9.338 -2.1435  0.7200  0.2619
 9426SOL    HW239915   0.855   4.427   9.441 -0.2630 -0.3426  2.0852
 9427SOL     OW39916   1.092   3.092   6.954  0.4450  0.4398 -0.6231
 9427SOL    HW139917   1.043   3.026   7.004  1.7865 -0.5863 -0.6468
 9427SOL    HW239918   1.158   3.131   7.013  0.2504 -0.7434  0.3827
 9428SOL     OW39919   4.178   0.377  12.210  0.3723 -0.1357 -0.0951
 9428SOL    HW139920   4.218   0.464  12.207 -2.1990  0.9605 -2.6150
 9428SOL    HW239921   4.238   0.331  12.267  1.4407 -0.2880 -1.3480
 9429SOL     OW39922   1.011   3.422   8.818  0.0085 -0.9014 -0.1021
 9429SOL    HW139923   1.048   3.371   8.890 -0.0979 -1.6721 -0.5941
 9429SOL    HW239924   0.924   3.384   8.830 -0.8159  1.1556  0.4305
 9430SOL     OW39925   2.284   4.613   6.815  0.0157  0.3618  0.1347
 9430SOL    HW139926   2.351   4.656   6.867  0.1876 -1.5994  1.4851
 9430SOL    HW239927   2.221   4.589   6.883  1.1412 -1.0297  0.6839
 9431SOL     OW39928   1.150   3.365   3.760 -0.2331 -0.1919 -0.5352
 9431SOL    HW139929   1.243   3.389   3.766 -0.6857  1.6815 -1.1244
 9431SOL    HW239930   1.141   3.315   3.679 -0.2162  0.0477 -0.6847
 9432SOL     OW39931   0.585   1.422   3.033  0.2646  0.1392  0.3351
 9432SOL    HW139932   0.656   1.358   3.036  1.0895  0.9273 -1.9072
 9432SOL    HW239933   0.627   1.496   3.076 -0.3641  0.9968 -0.5298
 9433SOL     OW39934   0.548   0.201   8.586 -0.4305  0.2682 -0.0062
 9433SOL    HW139935   0.464   0.161   8.564 -0.5795  0.3380  0.4381
 9433SOL    HW239936   0.529   0.293   8.606 -1.0959 -0.1134  1.0897
 9434SOL     OW39937   2.924   0.751  10.933  0.3344 -0.2494 -0.0479
 9434SOL    HW139938   3.017   0.766  10.913  0.2554 -1.9756 -1.7515
 9434SOL    HW239939   2.925   0.671  10.986 -1.4495  1.1442  2.0490
 9435SOL     OW39940   3.773   2.372  14.542 -0.1971 -0.0151 -0.1944
 9435SOL    HW139941   3.837   2.327  14.486  0.1061  1.0334 -0.6788
 9435SOL    HW239942   3.698   2.316  14.521  0.0435 -0.2337 -0.4706
 9436SOL     OW39943   2.851   1.426   9.978  0.1572 -0.6506  0.0853
 9436SOL    HW139944   2.933   1.433   9.930 -0.0278 -0.0184 -0.1323
 9436SOL    HW239945   2.788   1.463   9.916  0.7468 -0.7871 -0.5950
 9437SOL     OW39946   3.053   3.250   3.086  0.1248 -0.0770  0.3262
 9437SOL    HW139947   3.074   3.283   2.998 -0.3043  0.8021  0.5525
 9437SOL    HW239948   2.963   3.282   3.083  0.6060  1.1653 -0.9443
 9438SOL     OW39949   1.391   1.991   4.170 -0.1788  0.3999 -0.0075
 9438SOL    HW139950   1.363   2.082   4.174  1.3704  0.8930 -0.6452
 9438SOL    HW239951   1.486   2.002   4.174 -0.1607 -0.6696  2.3437
 9439SOL     OW39952   0.207   3.926   4.126 -0.0151 -0.0558 -0.1432
 9439SOL    HW139953   0.136   3.862   4.117  0.0042 -0.2598  1.0716
 9439SOL    HW239954   0.159   4.003   4.098 -1.3470 -1.3758 -1.5061
 9440SOL     OW39955   1.561   3.868   0.322 -1.0168  0.0159  0.5687
 9440SOL    HW139956   1.530   3.850   0.233  1.6566 -0.6209 -0.2335
 9440SOL    HW239957   1.532   3.786   0.362  0.3252 -0.4511  0.6093
 9441SOL     OW39958   3.966   0.635   1.742 -0.4665 -0.0684  0.3801
 9441SOL    HW139959   3.961   0.545   1.773  0.0151  0.2907  1.4969
 9441SOL    HW239960   3.873   0.643   1.724 -0.2176  1.6157 -0.1684
 9442SOL     OW39961   2.417   1.213   6.048 -0.4796 -0.6040 -0.2820
 9442SOL    HW139962   2.378   1.224   6.134  0.2919 -0.4705  0.0531
 9442SOL    HW239963   2.336   1.197   6.000 -0.7645 -2.6387  0.8979
 9443SOL     OW39964   2.531   2.805   4.739 -0.3576 -0.3438  0.3542
 9443SOL    HW139965   2.608   2.757   4.709 -0.0307  1.1554 -1.2341
 9443SOL    HW239966   2.470   2.777   4.671  0.0282  0.4532 -0.3117
 9444SOL     OW39967   1.010   2.399  12.518 -0.0033  0.0167  0.3118
 9444SOL    HW139968   1.010   2.327  12.580 -1.6716 -0.4794 -0.2644
 9444SOL    HW239969   0.942   2.362  12.461 -1.2815  1.8675  0.6281
 9445SOL     OW39970   0.654   2.299  17.654  0.2069 -0.4608 -0.1591
 9445SOL    HW139971   0.614   2.333  17.574 -0.1020  0.7360  0.5098
 9445SOL    HW239972   0.638   2.205  17.655 -0.1333 -0.3696  1.7139
 9446SOL     OW39973   1.985   2.609   2.307  0.2358  0.4198 -0.4031
 9446SOL    HW139974   1.935   2.689   2.319 -0.3452  0.1376 -0.9630
 9446SOL    HW239975   1.971   2.583   2.216 -0.3221 -0.8863  0.0473
 9447SOL     OW39976   3.410   3.470  12.229 -0.6601 -0.4413 -0.4293
 9447SOL    HW139977   3.427   3.560  12.202 -1.6600 -0.0950  0.0999
 9447SOL    HW239978   3.398   3.500  12.319 -2.8387 -1.0559 -0.5009
 9448SOL     OW39979   3.926   0.176   3.111  0.0196 -0.4817 -0.0762
 9448SOL    HW139980   3.873   0.254   3.099 -0.2091 -0.3304  1.8563
 9448SOL    HW239981   3.983   0.194   3.186 -0.7987 -1.9232  0.8880
 9449SOL     OW39982   1.187   1.195   8.865 -0.0715 -0.1455  0.1809
 9449SOL    HW139983   1.198   1.113   8.818 -1.1382 -0.6567  0.8164
 9449SOL    HW239984   1.254   1.255   8.833 -0.2200 -0.8839 -1.5079
 9450SOL     OW39985   3.915   2.459   1.460 -0.0231 -0.1799 -0.3136
 9450SOL    HW139986   3.836   2.443   1.512 -0.5951 -0.7083 -1.3388
 9450SOL    HW239987   3.948   2.370   1.469 -0.5160 -0.6068 -2.5517
 9451SOL     OW39988   4.517   0.200   2.175 -0.0848 -0.0553  0.1816
 9451SOL    HW139989   4.448   0.241   2.227 -1.1680 -1.8301  0.1343
 9451SOL    HW239990   4.580   0.271   2.176  1.5474 -1.5181  2.6278
 9452SOL     OW39991   2.383   0.160   8.166  0.2289  0.4776  0.1972
 9452SOL    HW139992   2.431   0.077   8.158 -1.1078 -0.2236 -0.4454
 9452SOL    HW239993   2.408   0.201   8.083 -1.1789  1.8456  0.4576
 9453SOL     OW39994   2.713   3.715   7.534  0.2931  0.0470 -0.1458
 9453SOL    HW139995   2.622   3.715   7.505 -0.6520 -0.5600  2.8797
 9453SOL    HW239996   2.710   3.777   7.607  1.9073 -2.1253  1.7680
 9454SOL     OW39997   3.960   3.248   9.837  0.6674 -0.4751  0.4324
 9454SOL    HW139998   3.930   3.158   9.850 -0.3614 -0.1795  0.1122
 9454SOL    HW239999   3.986   3.270   9.926  0.1272 -0.4798  0.5936
 9455SOL     OW40000   2.949   2.544  10.253  0.3487  0.4409 -0.3611
 9455SOL    HW140001   2.902   2.605  10.309 -1.0734 -3.3706  2.5911
 9455SOL    HW240002   3.038   2.559  10.283  0.8218  0.2346 -1.6391
 9456SOL     OW40003   2.776   3.522  11.469 -0.1217 -0.3291  0.2360
 9456SOL    HW140004   2.802   3.582  11.539 -0.6784 -1.3682  1.3294
 9456SOL    HW240005   2.770   3.445  11.526 -0.6582  0.0820  0.7354
 9457SOL     OW40006   4.053   1.439   6.404 -0.1349  0.2983 -0.4568
 9457SOL    HW140007   4.015   1.394   6.328  0.0903  0.8296 -0.8752
 9457SOL    HW240008   3.969   1.464   6.443 -0.6192 -2.7857  0.5419
 9458SOL     OW40009   0.952   0.059   4.904  0.1692  0.2847 -0.6276
 9458SOL    HW140010   1.044   0.051   4.931  0.7286 -0.2071 -2.6549
 9458SOL    HW240011   0.912   0.134   4.948  0.7685  0.9502 -1.2113
 9459SOL     OW40012   3.376   0.519   8.124 -0.7469  0.1513 -0.1948
 9459SOL    HW140013   3.394   0.466   8.202 -0.6531  0.5037  0.0212
 9459SOL    HW240014   3.465   0.524   8.090 -0.5298  3.1849  0.8391
 9460SOL     OW40015   0.808   1.032   6.101 -0.2775  0.0677 -0.3705
 9460SOL    HW140016   0.816   1.001   6.011 -1.1557 -0.6715 -0.1997
 9460SOL    HW240017   0.884   0.982   6.130  0.7924  1.9566  0.0750
 9461SOL     OW40018   2.397   4.686   5.468 -0.3716  0.2998  0.2511
 9461SOL    HW140019   2.329   4.643   5.520 -1.3687 -1.9036 -2.8913
 9461SOL    HW240020   2.356   4.699   5.382  1.4006  2.9337 -0.2086
 9462SOL     OW40021   0.358   3.486   5.028  0.1043 -0.1867  0.1535
 9462SOL    HW140022   0.304   3.435   4.968 -0.7279  1.3325 -0.3901
 9462SOL    HW240023   0.305   3.565   5.037 -2.0579 -1.4949 -1.0058
 9463SOL     OW40024   1.882   1.377   5.515  0.5317 -0.7639  0.3020
 9463SOL    HW140025   1.852   1.467   5.505  1.2727 -0.2281  2.8945
 9463SOL    HW240026   1.925   1.370   5.600 -1.9357  1.6823  1.7586
 9464SOL     OW40027   0.231   3.213   5.732  0.3642 -0.6267 -0.2370
 9464SOL    HW140028   0.305   3.226   5.673 -0.5435  3.3855 -0.5379
 9464SOL    HW240029   0.274   3.164   5.801 -0.0176  0.3850  0.7224
 9465SOL     OW40030   2.474   0.297   7.054 -0.0709  0.0250 -0.4174
 9465SOL    HW140031   2.457   0.239   7.128  0.1802  1.7917  0.9997
 9465SOL    HW240032   2.567   0.318   7.050  0.0649 -0.4254  0.2536
 9466SOL     OW40033   1.360   1.792  17.037 -0.0211 -0.2576  0.0422
 9466SOL    HW140034   1.351   1.818  16.945 -3.2387 -1.1244  0.1084
 9466SOL    HW240035   1.358   1.697  17.027  1.3078 -0.3322  0.5124
 9467SOL     OW40036   3.316   0.712   5.575  0.1203 -0.0305  0.2629
 9467SOL    HW140037   3.361   0.738   5.495 -0.5093 -0.7498 -0.3216
 9467SOL    HW240038   3.295   0.626   5.541 -0.4674  0.0223  0.4946
 9468SOL     OW40039   0.685   1.719   6.137  0.3160 -0.4608 -0.0043
 9468SOL    HW140040   0.594   1.700   6.114  0.2997  2.1749 -2.1978
 9468SOL    HW240041   0.731   1.719   6.053  0.5608 -2.3362  0.1316
 9469SOL     OW40042   1.218   3.918   4.805 -0.3316  0.5294  0.4395
 9469SOL    HW140043   1.156   3.927   4.733  1.0058 -0.6720 -0.8742
 9469SOL    HW240044   1.200   3.831   4.839  0.0400  0.4597  0.4672
 9470SOL     OW40045   3.767   2.144   6.599  0.4512  0.0274  0.0594
 9470SOL    HW140046   3.692   2.156   6.657 -0.4719  0.0415 -1.1453
 9470SOL    HW240047   3.837   2.106   6.654 -0.8023 -0.3486  1.3954
 9471SOL     OW40048   3.422   3.229  15.932 -0.2555  0.1903  0.1337
 9471SOL    HW140049   3.447   3.307  15.983  1.2983  0.5955 -1.2530
 9471SOL    HW240050   3.380   3.269  15.856 -2.6139  0.2447  1.4525
 9472SOL     OW40051   3.303   1.323  17.413  0.2564 -0.1895  0.3577
 9472SOL    HW140052   3.371   1.300  17.477 -0.6615 -3.1575  0.2890
 9472SOL    HW240053   3.349   1.330  17.329  2.6669 -0.5907  1.6340
 9473SOL     OW40054   3.254   2.067   9.445  0.0941 -0.3426 -0.4085
 9473SOL    HW140055   3.330   2.020   9.412 -0.5094 -0.4928 -1.5678
 9473SOL    HW240056   3.184   2.016   9.405  0.3888 -0.3687 -0.8826
 9474SOL     OW40057   4.505   4.487   3.882  0.5235 -0.2258 -0.0729
 9474SOL    HW140058   4.544   4.562   3.837  0.9422 -2.0125 -2.6917
 9474SOL    HW240059   4.556   4.419   3.840  0.1913 -0.2370 -0.4640
 9475SOL     OW40060   0.302   1.339   3.092  0.2229  0.5569  0.2600
 9475SOL    HW140061   0.304   1.393   3.171  2.1650 -0.6552  1.0291
 9475SOL    HW240062   0.395   1.331   3.075  0.4528 -0.7019  2.0361
 9476SOL     OW40063   2.270   2.870   7.361 -0.0059 -0.0409 -0.6527
 9476SOL    HW140064   2.332   2.882   7.289  0.9695  1.0894  0.3743
 9476SOL    HW240065   2.189   2.859   7.312 -0.3724  1.0277 -0.2763
 9477SOL     OW40066   4.259   3.644  16.450 -0.5016  0.3011 -0.2135
 9477SOL    HW140067   4.202   3.619  16.523 -2.1838  0.6865 -1.3716
 9477SOL    HW240068   4.234   3.737  16.448  2.1210  1.0228  0.4775
 9478SOL     OW40069   3.947   0.461   1.508 -0.0483  0.0947 -0.0658
 9478SOL    HW140070   3.863   0.452   1.553 -1.0661  0.2440 -1.9321
 9478SOL    HW240071   4.011   0.407   1.555  0.6491  0.6889 -0.3192
 9479SOL     OW40072   0.434   4.502   2.694  0.4198  0.0907  0.4190
 9479SOL    HW140073   0.465   4.581   2.737 -1.0243  1.5478 -1.2059
 9479SOL    HW240074   0.479   4.427   2.735 -0.1739 -0.2500  0.4551
 9480SOL     OW40075   3.756   4.464  11.734  0.1844 -0.4852 -0.1963
 9480SOL    HW140076   3.795   4.449  11.647  0.2071  0.0002 -0.2704
 9480SOL    HW240077   3.683   4.522  11.711  0.4460 -0.8830 -2.0657
 9481SOL     OW40078   3.810   2.787  12.292  0.0297 -0.0716 -0.2453
 9481SOL    HW140079   3.777   2.877  12.291 -1.4103 -0.5795  0.5042
 9481SOL    HW240080   3.766   2.763  12.374 -0.6427  0.4882 -0.4432
 9482SOL     OW40081   1.780   4.318   3.347 -0.0865 -0.1029  0.4837
 9482SOL    HW140082   1.780   4.296   3.254 -1.0967  1.0133  0.2173
 9482SOL    HW240083   1.809   4.232   3.378  0.4941  0.2846  1.0196
 9483SOL     OW40084   0.025   1.142   1.722  0.3238 -0.2387  0.4912
 9483SOL    HW140085   0.085   1.109   1.654 -1.0587 -0.8055 -0.4525
 9483SOL    HW240086   0.087   1.211   1.746 -2.2900  1.2516  2.9069
 9484SOL     OW40087   0.065   2.805   2.195  0.2650  0.0249  0.3769
 9484SOL    HW140088   0.027   2.837   2.277  0.9861 -0.5019  0.9232
 9484SOL    HW240089   0.006   2.737   2.164 -0.3512 -0.2190  2.1033
 9485SOL     OW40090   3.122   1.786   8.611  0.2902 -0.5243 -0.2313
 9485SOL    HW140091   3.128   1.704   8.562 -0.2354 -0.6618 -0.0662
 9485SOL    HW240092   3.103   1.836   8.531  0.7369  0.9452  0.5835
 9486SOL     OW40093   1.609   1.355  15.873  0.3782 -0.1165 -0.0098
 9486SOL    HW140094   1.601   1.402  15.790 -0.7049  1.2919  0.8727
 9486SOL    HW240095   1.524   1.312  15.877  0.9311 -1.1491  0.5501
 9487SOL     OW40096   3.536   0.003   3.210  0.1519 -0.2080 -0.4905
 9487SOL    HW140097   3.588   4.678   3.157  0.6645  0.5470 -0.8404
 9487SOL    HW240098   3.592   0.029   3.283  0.5312  0.9409 -1.1869
 9488SOL     OW40099   1.517   4.713   5.988 -0.2385 -0.4009 -0.0016
 9488SOL    HW140100   1.527   4.732   5.895 -1.8113  2.5489  0.4092
 9488SOL    HW240101   1.596   0.024   6.016 -0.0232  0.3028 -1.7720
 9489SOL     OW40102   4.433   2.703   5.966 -0.1750 -0.3412  0.2679
 9489SOL    HW140103   4.517   2.749   5.961  0.1474 -1.0397 -0.6538
 9489SOL    HW240104   4.456   2.614   5.991  1.5759 -0.5519 -2.1207
 9490SOL     OW40105   1.242   3.010   4.198  0.0962 -0.5277 -0.3626
 9490SOL    HW140106   1.251   2.952   4.274  0.2752 -0.7167 -0.5266
 9490SOL    HW240107   1.146   3.003   4.195  0.1411 -0.5914 -1.8131
 9491SOL     OW40108   3.246   2.334   9.426 -0.3638 -0.2141 -0.2789
 9491SOL    HW140109   3.334   2.331   9.466  0.0646 -3.2520 -1.4268
 9491SOL    HW240110   3.219   2.242   9.429 -0.4415 -0.1790  0.1405
 9492SOL     OW40111   3.081   0.025  15.339  0.2236 -0.4089 -0.4787
 9492SOL    HW140112   3.032   0.103  15.364 -0.0953 -0.6179 -0.4455
 9492SOL    HW240113   3.004   4.703  15.333 -0.2834  0.3247 -0.9776
 9493SOL     OW40114   0.451   4.650   3.650 -0.1683 -0.8464 -0.1469
 9493SOL    HW140115   0.539   4.657   3.613 -0.4630  0.0590 -0.6688
 9493SOL    HW240116   0.402   4.688   3.576  0.3567 -0.1285 -0.1194
 9494SOL     OW40117   3.516   1.316   5.857 -0.3113 -0.4216  0.8429
 9494SOL    HW140118   3.544   1.241   5.806  3.0076  0.8514  0.8235
 9494SOL    HW240119   3.568   1.305   5.936 -0.0028  1.2109  0.8766
 9495SOL     OW40120   3.884   2.035  16.027 -0.4202  0.6250 -0.6007
 9495SOL    HW140121   3.923   2.031  16.114  0.7887 -2.4427 -1.2998
 9495SOL    HW240122   3.837   1.951  16.033 -4.5972  2.9045 -1.2626
 9496SOL     OW40123   1.663   0.798   7.948 -0.8101 -0.8322  0.4113
 9496SOL    HW140124   1.628   0.764   7.866 -1.7018  0.7730  0.1115
 9496SOL    HW240125   1.715   0.875   7.922 -1.5767 -0.4946 -0.1371
 9497SOL     OW40126   4.578   2.910   7.620 -0.0915 -0.4685 -0.0790
 9497SOL    HW140127   4.498   2.911   7.673  1.7099  1.0820  2.5928
 9497SOL    HW240128   4.646   2.877   7.679 -1.1599  0.4021  1.6380
 9498SOL     OW40129   4.174   1.490  12.126  0.1164 -0.5231 -0.3037
 9498SOL    HW140130   4.232   1.537  12.185 -0.3033 -0.8017  0.3288
 9498SOL    HW240131   4.091   1.482  12.172  2.2783  0.8740  3.8214
 9499SOL     OW40132   1.990   3.240   6.089  0.2589  0.2154  0.2870
 9499SOL    HW140133   1.987   3.188   6.009 -2.0864  1.1946 -0.2685
 9499SOL    HW240134   2.081   3.265   6.107  0.4204  1.3178 -2.0289
 9500SOL     OW40135   2.316   0.236   5.934  1.0441  0.1712  0.2557
 9500SOL    HW140136   2.251   0.190   5.987  0.3653 -0.7538 -1.3802
 9500SOL    HW240137   2.265   0.308   5.899 -0.1464 -0.3540  0.9096
 9501SOL     OW40138   3.293   0.636   4.222  0.0193 -0.3714 -0.2948
 9501SOL    HW140139   3.239   0.602   4.293 -0.1091 -0.6187 -0.5070
 9501SOL    HW240140   3.344   0.701   4.270  2.1562 -3.7040  1.9875
 9502SOL     OW40141   1.482   4.332  15.430  0.5368  0.3005 -0.4909
 9502SOL    HW140142   1.516   4.364  15.514 -0.0832 -0.6476  0.1091
 9502SOL    HW240143   1.447   4.248  15.458 -1.1132  0.6772 -1.4031
 9503SOL     OW40144   3.543   2.004   1.920  0.0159 -0.2912  0.1502
 9503SOL    HW140145   3.508   1.942   1.856  0.0533 -1.9630  1.7617
 9503SOL    HW240146   3.603   1.951   1.972  0.4935 -1.2697 -1.3953
 9504SOL     OW40147   0.211   0.839   4.879  0.0105 -0.4040 -0.6311
 9504SOL    HW140148   0.162   0.835   4.961  0.1432 -0.5697 -0.5598
 9504SOL    HW240149   0.160   0.908   4.837  1.1319  0.7603 -0.0646
 9505SOL     OW40150   2.902   4.718   1.250  0.7878 -0.1648 -0.1530
 9505SOL    HW140151   2.828   4.659   1.238  0.5725  0.0931 -0.1051
 9505SOL    HW240152   2.971   4.659   1.219 -1.2389 -2.2506 -0.6667
 9506SOL     OW40153   1.370   0.157   8.844 -0.2249 -0.0508 -0.3199
 9506SOL    HW140154   1.306   0.085   8.850 -0.3836  0.1372  0.3019
 9506SOL    HW240155   1.359   0.184   8.753 -2.8855 -0.7743 -0.2298
 9507SOL     OW40156   3.224   0.639   9.137  0.1001 -0.1348 -0.1528
 9507SOL    HW140157   3.150   0.603   9.186 -0.7644  0.3859 -1.0700
 9507SOL    HW240158   3.173   0.704   9.089 -0.9254 -1.1146 -0.3893
 9508SOL     OW40159   2.604   3.620   4.348 -0.3063 -0.1206 -0.5028
 9508SOL    HW140160   2.615   3.535   4.305 -0.3483 -0.2576 -0.2384
 9508SOL    HW240161   2.533   3.609   4.410  0.1164 -1.1266 -0.2096
 9509SOL     OW40162   1.359   1.222  12.343 -0.4359 -0.5658  0.4888
 9509SOL    HW140163   1.448   1.205  12.374  0.4460 -0.4663 -2.0082
 9509SOL    HW240164   1.373   1.209  12.249 -0.0748 -0.1314  0.4846
 9510SOL     OW40165   3.786   0.070   8.867  0.0055  0.4829  0.3490
 9510SOL    HW140166   3.738   0.151   8.883 -0.6795  0.1009  0.2250
 9510SOL    HW240167   3.831   0.090   8.785  1.0384 -2.2698  0.2421
 9511SOL     OW40168   4.701   2.608   4.277 -0.5007  0.3911  0.2041
 9511SOL    HW140169   4.710   2.513   4.270 -0.4036  0.3109  1.4155
 9511SOL    HW240170   4.612   2.614   4.243 -0.9524  1.0007  1.4879
 9512SOL     OW40171   2.009   4.587  13.019  0.3404  0.4395 -0.7746
 9512SOL    HW140172   2.006   4.639  12.939  1.3573  1.2513 -0.2927
 9512SOL    HW240173   1.920   4.583  13.054  0.4078  2.4633 -0.3882
 9513SOL     OW40174   4.023   3.241   8.145 -1.2239 -0.2026  0.0213
 9513SOL    HW140175   4.003   3.161   8.194 -1.4081 -0.2891 -0.1952
 9513SOL    HW240176   4.016   3.314   8.208 -1.3156 -0.3996  0.2391
 9514SOL     OW40177   3.667   2.892  11.505 -0.4738  0.0921  0.1103
 9514SOL    HW140178   3.574   2.875  11.489 -1.0413  1.0633  2.3876
 9514SOL    HW240179   3.665   2.927  11.594 -2.0021  0.7092 -0.1594
 9515SOL     OW40180   4.220   2.732   7.911 -0.3326  0.8046  0.2685
 9515SOL    HW140181   4.146   2.696   7.961  0.3992 -1.1365 -0.0486
 9515SOL    HW240182   4.287   2.682   7.959  0.5785  1.2636 -0.5408
 9516SOL     OW40183   2.133   1.723   8.859 -0.3181  0.1693 -0.0230
 9516SOL    HW140184   2.100   1.634   8.870  1.0201 -0.4215 -0.8192
 9516SOL    HW240185   2.179   1.708   8.777  0.9323 -2.3406  1.1396
 9517SOL     OW40186   2.880   0.011   1.505 -0.1783 -0.3271 -0.3743
 9517SOL    HW140187   2.834   0.096   1.504  1.4575  0.5620 -0.4531
 9517SOL    HW240188   2.876   0.002   1.410  1.2806 -0.2342 -0.4445
 9518SOL     OW40189   3.876   3.141   3.843  0.1970  0.4443 -0.4057
 9518SOL    HW140190   3.933   3.166   3.915 -0.7074  0.4721  0.2985
 9518SOL    HW240191   3.808   3.208   3.838 -0.1419  0.1478  0.2035
 9519SOL     OW40192   2.440   1.730   0.400 -0.4173 -0.3348 -0.1678
 9519SOL    HW140193   2.452   1.769   0.313  0.5426 -1.1531 -0.4062
 9519SOL    HW240194   2.373   1.791   0.431 -0.6653  0.2017 -1.7749
 9520SOL     OW40195   3.646   1.740   5.282  0.2694 -0.4307  0.1942
 9520SOL    HW140196   3.663   1.834   5.278 -0.7811 -0.3074 -1.4522
 9520SOL    HW240197   3.562   1.734   5.327 -0.3490 -0.1839 -0.9284
 9521SOL     OW40198   4.368   0.141   3.068 -0.3212 -0.6411  0.5383
 9521SOL    HW140199   4.301   0.102   3.123  0.7278 -2.4263  0.5370
 9521SOL    HW240200   4.408   0.216   3.111 -1.2274 -0.0251  0.3097
 9522SOL     OW40201   3.232   3.350   7.813  0.2388  0.4626 -0.6265
 9522SOL    HW140202   3.176   3.363   7.890  1.3297 -2.2601  0.6285
 9522SOL    HW240203   3.168   3.356   7.742 -0.8782  1.0388  0.4447
 9523SOL     OW40204   4.111   3.657   4.616 -0.1031 -0.5294  0.0245
 9523SOL    HW140205   4.111   3.661   4.521  1.4882  2.6808  0.1854
 9523SOL    HW240206   4.201   3.682   4.637 -0.4904  0.7354  0.1978
 9524SOL     OW40207   4.224   0.199   9.636  0.4247  0.3301  0.1313
 9524SOL    HW140208   4.202   0.269   9.698  0.6911  0.2842  0.2793
 9524SOL    HW240209   4.142   0.158   9.610  1.0306 -1.6625  1.3963
 9525SOL     OW40210   4.572   1.440  16.243  0.8893  0.3885  0.4302
 9525SOL    HW140211   4.658   1.482  16.239  1.1199 -0.1303 -0.1285
 9525SOL    HW240212   4.560   1.434  16.148  0.5452  0.8376  0.4466
 9526SOL     OW40213   2.344   0.921   5.512  0.1173 -0.0816  0.1177
 9526SOL    HW140214   2.251   0.936   5.496  0.2256  1.7696  1.1395
 9526SOL    HW240215   2.358   0.859   5.441 -0.1317 -0.8375  0.7324
 9527SOL     OW40216   2.639   2.393  15.258  0.2270  0.3762  0.3762
 9527SOL    HW140217   2.646   2.347  15.175 -1.0641 -0.7051  0.8775
 9527SOL    HW240218   2.592   2.328  15.310 -1.8199  2.1317  0.7157
 9528SOL     OW40219   2.086   0.373  12.118  0.0605 -0.1214  0.4678
 9528SOL    HW140220   2.067   0.380  12.025 -0.6929  0.1616  0.6411
 9528SOL    HW240221   2.157   0.310  12.118  0.7137  0.6296 -1.7040
 9529SOL     OW40222   1.768   1.455   2.911 -0.1976  0.0602 -0.3960
 9529SOL    HW140223   1.803   1.444   2.822  0.8765 -1.7877  0.2577
 9529SOL    HW240224   1.675   1.436   2.897 -1.1103  3.5874  0.8050
 9530SOL     OW40225   4.383   0.424   2.317  0.2810 -0.2252 -0.1996
 9530SOL    HW140226   4.323   0.449   2.388 -1.0017  0.5799 -1.5813
 9530SOL    HW240227   4.471   0.439   2.352  0.7140 -0.7305 -1.0718
 9531SOL     OW40228   4.277   2.569   3.037 -0.1538  0.0083  1.2868
 9531SOL    HW140229   4.191   2.581   2.997 -0.3714 -0.2589  1.6860
 9531SOL    HW240230   4.247   2.497   3.092 -0.3007 -0.3427  0.7436
 9532SOL     OW40231   3.531   0.042  11.129  0.2722 -0.5490  0.3812
 9532SOL    HW140232   3.481   0.110  11.176  1.4969  0.3750  0.3443
 9532SOL    HW240233   3.599   0.097  11.091 -0.4036 -1.2823 -1.8635
 9533SOL     OW40234   0.925   2.903   8.093  0.2524  0.5257 -0.0497
 9533SOL    HW140235   0.962   2.991   8.104  2.0432 -0.4812  2.0111
 9533SOL    HW240236   1.001   2.850   8.116 -1.4554 -2.1293 -0.5917
 9534SOL     OW40237   2.319   4.655   8.434  0.0282  0.0447 -0.1759
 9534SOL    HW140238   2.246   4.716   8.443  2.1018  2.1599  2.4929
 9534SOL    HW240239   2.271   4.582   8.395 -0.8728 -0.3675  1.6951
 9535SOL     OW40240   1.384   3.816   6.762 -0.0039  0.1716 -0.3746
 9535SOL    HW140241   1.316   3.852   6.705  0.1884 -1.7134 -1.7815
 9535SOL    HW240242   1.438   3.894   6.779  1.4613 -1.4074  2.1740
 9536SOL     OW40243   1.594   1.506  15.120  0.1691  0.4984  0.6113
 9536SOL    HW140244   1.630   1.509  15.032 -0.0845  1.9735  0.5648
 9536SOL    HW240245   1.551   1.420  15.129 -0.7260  0.7949 -0.8348
 9537SOL     OW40246   3.978   3.130   5.085 -0.4087 -0.0660 -0.1251
 9537SOL    HW140247   4.010   3.075   5.013  0.6464  1.4352 -0.8258
 9537SOL    HW240248   3.920   3.059   5.111  0.6607 -0.7410  0.4277
 9538SOL     OW40249   2.080   4.296   4.354  0.4560  0.3791  0.0973
 9538SOL    HW140250   1.989   4.280   4.328  0.8356 -0.9585 -0.4349
 9538SOL    HW240251   2.127   4.246   4.288  1.8173  1.5805  0.1484
 9539SOL     OW40252   0.713   3.991   4.518 -0.8371  0.2139  0.1975
 9539SOL    HW140253   0.653   3.923   4.487  2.6523 -3.1450  0.7866
 9539SOL    HW240254   0.726   4.041   4.437 -2.2336  0.1470 -0.0708
 9540SOL     OW40255   4.095   3.896  11.374  0.3831  0.2760 -0.5564
 9540SOL    HW140256   4.082   3.989  11.353 -2.2488 -0.5533 -2.5282
 9540SOL    HW240257   4.190   3.886  11.367  0.3688 -0.0345 -0.3098
 9541SOL     OW40258   1.122   2.218   4.318  0.0780 -0.2873  0.0673
 9541SOL    HW140259   1.173   2.234   4.239  0.4213  1.4938  0.6529
 9541SOL    HW240260   1.188   2.232   4.386  1.2571 -0.6405 -1.0031
 9542SOL     OW40261   4.211   0.891  15.185  0.8389  0.4379  0.8588
 9542SOL    HW140262   4.185   0.981  15.205  1.3928  0.1063  3.0040
 9542SOL    HW240263   4.203   0.889  15.089 -1.1869 -0.5989  1.0665
 9543SOL     OW40264   0.260   4.549   9.303  0.3499  0.2580  0.1551
 9543SOL    HW140265   0.325   4.618   9.320  1.3333 -1.0007  1.5715
 9543SOL    HW240266   0.318   4.478   9.332  1.5140  1.5175  0.9347
 9544SOL     OW40267   2.159   1.385   3.881  1.1958 -0.5979 -0.3509
 9544SOL    HW140268   2.242   1.340   3.897  1.0169 -0.8047  0.0068
 9544SOL    HW240269   2.141   1.358   3.791  1.6283 -2.3438  0.0880
 9545SOL     OW40270   0.449   3.014  12.213  0.3367 -0.1271  0.7655
 9545SOL    HW140271   0.442   2.926  12.174  4.1351 -0.5888  1.1408
 9545SOL    HW240272   0.374   3.058  12.171  0.6724  0.6173  0.9531
 9546SOL     OW40273   2.723   4.603  16.621  0.2373 -0.6622  0.2010
 9546SOL    HW140274   2.646   4.592  16.565 -0.2665 -0.3111  0.8152
 9546SOL    HW240275   2.674   4.634  16.698  1.6204  1.7404  0.1158
 9547SOL     OW40276   1.694   4.331   4.643 -0.4413  0.3569 -0.0254
 9547SOL    HW140277   1.672   4.279   4.566 -2.7257  3.0143 -1.1354
 9547SOL    HW240278   1.669   4.420   4.623  0.6059  0.5686 -0.4154
 9548SOL     OW40279   2.214   2.951   4.652 -0.6200  0.1619 -0.3999
 9548SOL    HW140280   2.174   2.902   4.723 -0.4196  0.3558 -0.1533
 9548SOL    HW240281   2.242   2.877   4.598  0.2741 -0.0955  0.4199
 9549SOL     OW40282   1.796   3.706   6.412  0.1372 -0.3210  0.0243
 9549SOL    HW140283   1.888   3.733   6.415  1.0605 -3.4284 -1.1735
 9549SOL    HW240284   1.761   3.769   6.348  0.4943 -1.8404 -1.6611
 9550SOL     OW40285   4.660   2.208   7.638  0.1011 -0.0780 -0.3025
 9550SOL    HW140286   4.696   2.130   7.595  0.4718 -0.1585  0.1497
 9550SOL    HW240287   4.590   2.170   7.692  0.3783  0.9043  0.7422
 9551SOL     OW40288   2.975   2.048   2.620  0.2340  0.6435 -0.3181
 9551SOL    HW140289   2.972   2.143   2.614 -0.2929  0.6245 -0.3867
 9551SOL    HW240290   2.974   2.024   2.528 -0.3996  4.1139 -1.1795
 9552SOL     OW40291   2.418   2.770   6.163 -0.1543 -0.3949  0.0552
 9552SOL    HW140292   2.387   2.685   6.132  0.5297 -0.4317 -0.5092
 9552SOL    HW240293   2.478   2.788   6.092 -1.5021 -0.2706 -1.0450
 9553SOL     OW40294   2.879   3.043   7.672  0.6007 -0.1338  0.0635
 9553SOL    HW140295   2.839   2.974   7.726 -2.1241  1.3675 -0.0309
 9553SOL    HW240296   2.883   3.113   7.737 -0.1185  0.6668 -0.7490
 9554SOL     OW40297   4.043   1.120   4.255  0.1574  0.3660 -0.3979
 9554SOL    HW140298   4.121   1.123   4.310  1.5790  1.0777 -2.4681
 9554SOL    HW240299   3.984   1.059   4.300  1.0401 -1.8087 -2.2011
 9555SOL     OW40300   0.211   3.117   2.683 -0.9648  0.5019  0.4219
 9555SOL    HW140301   0.285   3.057   2.672  0.8453  2.9497 -0.6752
 9555SOL    HW240302   0.177   3.085   2.767 -1.0617  1.1085  0.6129
 9556SOL     OW40303   0.243   3.187   1.430 -0.1839 -0.2668 -0.0429
 9556SOL    HW140304   0.197   3.175   1.514 -0.3950  1.2204  0.0435
 9556SOL    HW240305   0.331   3.169   1.463 -0.6873  1.3761  2.1861
 9557SOL     OW40306   1.908   4.179  14.323  0.4288 -0.6689 -0.2432
 9557SOL    HW140307   1.962   4.100  14.317 -0.9814 -1.8786  3.0333
 9557SOL    HW240308   1.852   4.165  14.247  1.9461  1.1588 -1.6989
 9558SOL     OW40309   1.316   3.931   7.715  0.2000  0.4992 -0.5149
 9558SOL    HW140310   1.313   4.024   7.738 -0.8361  0.5328 -0.7770
 9558SOL    HW240311   1.408   3.912   7.700 -0.1772 -0.1824 -1.9127
 9559SOL     OW40312   2.825   4.311   3.262  0.1116 -0.1344 -0.0678
 9559SOL    HW140313   2.743   4.266   3.243 -0.3403 -0.1479  1.8790
 9559SOL    HW240314   2.887   4.243   3.237 -1.3783 -1.7020  0.4231
 9560SOL     OW40315   3.374   3.992  13.856  0.1253  0.0155  0.2330
 9560SOL    HW140316   3.287   4.032  13.857 -1.5616 -3.7411  1.0663
 9560SOL    HW240317   3.360   3.928  13.926  4.0300  0.3750  1.3421
 9561SOL     OW40318   4.679   1.885   5.769  0.2539  0.5146 -0.0800
 9561SOL    HW140319   4.658   1.812   5.711 -0.9822 -0.7886  1.9973
 9561SOL    HW240320   0.029   1.850   5.796 -0.0496  0.5600  0.9215
 9562SOL     OW40321   3.558   1.866  10.277  0.1338 -0.3661 -1.0212
 9562SOL    HW140322   3.615   1.797  10.311  1.4406  1.4125  0.4223
 9562SOL    HW240323   3.621   1.938  10.284 -0.2373 -0.5298  3.7854
 9563SOL     OW40324   4.015   4.470   1.840 -0.0378 -0.7036  0.1658
 9563SOL    HW140325   3.921   4.451   1.848 -0.5874  1.7783 -0.5178
 9563SOL    HW240326   4.026   4.448   1.748  2.6391 -1.8867  0.7476
 9564SOL     OW40327   1.099   1.186  15.964  0.3657 -0.3615 -0.0826
 9564SOL    HW140328   1.013   1.147  15.950 -0.2470  1.6800 -2.0023
 9564SOL    HW240329   1.141   1.110  16.006  0.8559  0.3477  0.7078
 9565SOL     OW40330   0.072   3.683   1.668 -0.7316 -0.6258 -0.1657
 9565SOL    HW140331   0.042   3.595   1.691 -1.0533  0.4688  3.6373
 9565SOL    HW240332   0.020   3.696   1.589 -1.0304 -1.2392 -0.0694
 9566SOL     OW40333   4.709   3.068  12.134  0.2929  0.2857  0.5973
 9566SOL    HW140334   4.672   3.000  12.190 -1.1775  0.6287  0.0548
 9566SOL    HW240335   4.629   3.117  12.114 -0.8111 -2.3462 -1.4049
 9567SOL     OW40336   0.430   1.338   4.142  0.3629  0.4143  0.3747
 9567SOL    HW140337   0.346   1.296   4.129 -0.7123  2.0472  2.0090
 9567SOL    HW240338   0.445   1.300   4.229 -0.4419 -0.2822  0.1990
 9568SOL     OW40339   0.974   1.362   7.329  0.2084 -0.5454 -0.6547
 9568SOL    HW140340   0.882   1.389   7.328 -0.0326 -1.2725  1.7463
 9568SOL    HW240341   0.974   1.273   7.294  0.8627 -1.5215  1.8019
 9569SOL     OW40342   1.417   3.425   4.376  0.1200 -0.1992  0.5509
 9569SOL    HW140343   1.360   3.501   4.366  1.9950  0.9384 -1.5549
 9569SOL    HW240344   1.484   3.473   4.424  0.9868  1.1760 -2.0160
   4.73547   4.73547  17.74063
