Membrane in water
40344
    1TMC1    C1    1   4.659   2.940  11.522 -0.8043 -0.2039  0.0793
    1TMC1    C2    2   4.569   3.028  11.473 -0.5396  0.6655 -0.5083
    1TMC1    C3    3   4.475   2.985  11.387 -0.3501  0.5684  0.1443
    1TMC1    C4    4   4.664   2.808  11.490  0.7578 -0.7711  0.6934
    1TMC1    C5    5   4.569   2.768  11.396 -0.0859 -0.5452 -0.2902
    1TMC1    C6    6   4.473   2.855  11.346  0.6873 -0.2109  0.6064
    1TMC1     C    7   0.003   2.991  11.635  0.5226  0.2350  0.7784
    1TMC1     O    8   4.723   3.106  11.670  0.4528 -0.0430 -0.4082
    1TMC1     H    9   4.565   3.131  11.509 -0.2477  0.6195 -0.3501
    1TMC1    H1   10   4.728   2.740  11.546  0.6990 -0.1798  1.4800
    1TMC1    H2   11   4.394   2.814  11.284  0.0061  0.1791  1.2237
    1TMC1    C7   12   4.582   2.641  11.328  0.1701  0.2482 -0.0751
    1TMC1    C8   13   4.350   3.068  11.393 -0.0365 -0.0210  0.0546
    1TMC1    O1   14   4.505   2.622  11.240 -0.0049  0.3173 -0.1822
    1TMC1    O2   15   4.324   3.147  11.482 -0.0509  0.1965 -0.1550
    1TMC1    O3   16   4.713   2.605  11.325  0.2160 -0.1776  0.5426
    1TMC1    H3   17   0.037   2.657  11.382 -1.5249  3.1710 -0.6764
    1TMC1    O5   18   4.271   3.023  11.288  0.1648 -0.0039 -0.2731
    1TMC1    H5   19   4.324   2.983  11.215  1.4672 -0.3404  0.8660
    2MPD2     C   20   0.357   2.907  12.000  0.6339 -0.4091  0.0466
    2MPD2    C1   21   0.273   3.015  11.985  0.0931  0.0517  0.6015
    2MPD2    C2   22   0.175   3.010  11.880  0.2284 -0.4429  0.1314
    2MPD2    C3   23   0.186   2.905  11.783  0.5979  0.4592 -0.1980
    2MPD2    C4   24   0.285   2.807  11.793  0.4399 -0.5451 -0.5549
    2MPD2    C5   25   0.370   2.819  11.902  0.1637 -0.4839 -0.1059
    2MPD2     H   26   0.102   3.090  11.870  0.0517 -0.6789 -0.4369
    2MPD2    H1   27   0.301   2.729  11.719 -1.0764 -1.0170 -0.3881
    2MPD2    H2   28   0.415   2.900  12.092  0.4749 -0.1928  0.1632
    2MPD2    H3   29   0.454   2.750  11.905  0.8293  0.2650 -1.0530
    2MPD2     N   30   0.097   2.901  11.672  0.0748  0.2281  0.2782
    2MPD2    H5   31   0.114   2.820  11.613 -2.3444  0.3439 -0.6037
    2MPD2    N1   32   0.268   3.126  12.073 -0.4054 -0.4850 -0.1619
    2MPD2    H7   33   0.212   3.204  12.040 -0.0774  0.2356  0.9615
    3TMC1    C1   34   3.979   4.471  10.319 -0.1727 -0.5514  0.6521
    3TMC1    C2   35   3.973   4.356  10.252  0.8520 -0.2758 -0.0340
    3TMC1    C3   36   4.075   4.261  10.265 -0.4712  0.1854 -0.2531
    3TMC1    C4   37   4.082   4.487  10.419  0.5274 -0.5888  0.3735
    3TMC1    C5   38   4.170   4.382  10.437 -0.2308  0.5618  0.5351
    3TMC1    C6   39   4.170   4.268  10.364  0.1668  0.2938 -0.5208
    3TMC1     C   40   3.853   4.533  10.338  0.4453 -0.5868  0.1556
    3TMC1     O   41   3.757   4.465  10.309  0.4603 -0.0257  0.4473
    3TMC1     H   42   3.885   4.338  10.191 -0.3877  1.6479  1.1897
    3TMC1    H1   43   4.067   4.564  10.494 -0.5041 -0.7097  0.2940
    3TMC1    H2   44   4.244   4.192  10.384  0.6535  0.5189 -1.4891
    3TMC1    C7   45   4.265   4.406  10.543  0.6842 -0.0269  0.8370
    3TMC1    C8   46   4.097   4.172  10.153  0.0403 -0.4746 -0.1428
    3TMC1    O1   47   4.326   4.309  10.589  1.3082 -0.4210 -1.1607
    3TMC1    O2   48   4.184   4.088  10.145  0.2363 -0.1793  0.3541
    3TMC1    O3   49   4.306   4.531  10.530 -0.5106 -0.1228 -0.3695
    3TMC1    H3   50   4.263   4.572  10.452 -1.5741 -0.4555  0.0410
    3TMC1    O5   51   4.039   4.222  10.045  0.4796 -0.0161 -0.5821
    3TMC1    H5   52   3.955   4.272  10.056  1.6414  2.1177 -1.4787
    4MPD2     C   53   3.566   0.157  10.562  0.3200  0.0288  0.2871
    4MPD2    C1   54   3.704   0.188  10.573  0.3115  0.2363  1.2337
    4MPD2    C2   55   3.796   0.104  10.527 -0.0654 -0.3191  0.3823
    4MPD2    C3   56   3.759   4.723  10.466  1.2149 -0.4939  0.7221
    4MPD2    C4   57   3.625   4.688  10.450 -1.2435  0.1804  0.3407
    4MPD2    C5   58   3.530   0.032  10.512 -0.4611 -0.3162 -0.6223
    4MPD2     H   59   3.900   0.132  10.537 -0.1764  1.0189 -2.2731
    4MPD2    H1   60   3.596   4.607  10.383 -3.3111 -1.8124  3.6106
    4MPD2    H2   61   3.479   0.217  10.588  0.0760  0.2183 -0.9594
    4MPD2    H3   62   3.424   0.007  10.508 -0.8743  1.3082  0.1884
    4MPD2     N   63   3.861   4.644  10.413  0.3195  0.3365  0.0171
    4MPD2    H5   64   3.955   4.682  10.419 -0.9337  3.0814  2.0290
    4MPD2    N1   65   3.754   0.307  10.614 -0.0393 -0.2542 -0.6780
    4MPD2    H7   66   3.853   0.321  10.593  0.1544 -0.9891 -0.2447
    5TCq1    O1   67   0.664   2.763  11.116  0.5285 -0.5497  0.0424
    5TCq1    C1   68   0.575   2.672  11.061 -0.2280 -0.3268 -0.3934
    5TCq1    O2   69   0.581   2.632  10.946  0.3654  0.2397  0.6369
    5TCq1    C2   70   0.502   2.607  11.169 -0.4787  0.6100  0.3755
    5TCq1    C3   71   0.465   2.680  11.278  0.6294 -0.0527  0.4395
    5TCq1    C4   72   0.360   2.626  11.354  0.3538  0.4144  0.0876
    5TCq1    C5   73   0.297   2.516  11.321 -0.4495  0.4515  0.3110
    5TCq1    C6   74   0.336   2.451  11.207  0.5962 -0.4114  0.2428
    5TCq1    C7   75   0.441   2.497  11.125 -0.5343  0.3863 -0.1338
    5TCq1    C8   76   0.259   2.342  11.151  0.7500 -0.0165 -0.3871
    5TCq1    O4   77   0.320   2.266  11.074 -0.3509  0.5501 -0.1715
    5TCq1    C9   78   0.287   2.715  11.437 -0.5048  0.3600 -0.0604
    5TCq1    O5   79   0.181   2.677  11.486  0.4741 -0.0671  0.1268
    5TCq1    O6   80   0.342   2.827  11.458  0.6159 -0.0782 -0.8293
    5TCq1    H1   81   0.645   2.776  11.211  1.7115 -0.1605  0.2338
    5TCq1    H2   82   0.495   2.784  11.290 -1.5892  0.5951  0.4457
    5TCq1    H3   83   0.222   2.483  11.392 -0.3449 -1.3860 -0.4347
    5TCq1    H4   84   0.471   2.451  11.032  0.3674  1.2347 -0.2664
    6MPD2     C   85   4.648   2.350  11.059  0.7303 -0.3358  0.5199
    6MPD2    C1   86   0.029   2.291  11.089 -0.3347  0.2384 -0.3788
    6MPD2    C2   87   0.047   2.155  11.055 -1.7281 -0.1532  0.7823
    6MPD2    C3   88   4.683   2.086  10.989  1.0544 -0.8121  0.0052
    6MPD2    C4   89   4.575   2.153  10.942 -0.1630  0.5098 -0.6254
    6MPD2    C5   90   4.560   2.284  10.979  0.6922  1.2715  0.0794
    6MPD2     H   91   0.140   2.106  11.081 -1.6971  0.1373  1.2313
    6MPD2    H1   92   4.503   2.111  10.873 -1.6446  2.0428 -0.0115
    6MPD2    H2   93   4.618   2.448  11.094 -0.8690 -0.8762  0.6811
    6MPD2    H3   94   4.478   2.339  10.934 -0.3144 -1.3516 -1.2666
    6MPD2     N   95   4.705   1.950  10.958 -0.3305 -0.2446 -0.0147
    6MPD2    H5   96   0.055   1.915  10.998 -0.0002  0.9873  0.3412
    6MPD2    N1   97   0.124   2.365  11.165 -0.0934 -0.0490  0.1510
    6MPD2    H7   98   0.088   2.455  11.197 -2.5496 -1.2299  0.7369
    7TCq1    O1   99   2.117   1.070  11.976 -0.3053  0.4909  0.0829
    7TCq1    C1  100   2.184   0.965  12.027  0.0738  0.1339  0.7180
    7TCq1    O2  101   2.129   0.876  12.080 -0.2220  0.2410  0.1673
    7TCq1    C2  102   2.291   1.027  12.093 -0.1850  0.0346 -0.3984
    7TCq1    C3  103   2.361   1.114  12.027  0.4186 -0.7518 -0.5965
    7TCq1    C4  104   2.475   1.167  12.079 -0.6426 -0.0303  0.1079
    7TCq1    C5  105   2.504   1.146  12.213  0.5077  0.0239  0.2228
    7TCq1    C6  106   2.419   1.061  12.285 -0.3657  0.1342 -0.0701
    7TCq1    C7  107   2.321   0.993  12.218 -0.1783  0.3649 -0.0055
    7TCq1    C8  108   2.456   1.018  12.419  0.2163  0.1055  0.6921
    7TCq1    O4  109   2.417   0.909  12.450  0.6491  0.0747  0.1956
    7TCq1    C9  110   2.573   1.238  12.000  0.5204  0.4194  0.4256
    7TCq1    O5  111   2.678   1.272  12.059 -0.0631  0.0941  1.0916
    7TCq1    O6  112   2.566   1.222  11.876  0.5900  0.3490 -0.4337
    7TCq1    H1  113   2.165   1.154  11.960  0.9848 -0.4171 -0.7335
    7TCq1    H2  114   2.334   1.129  11.923  0.6507 -2.1667 -0.8615
    7TCq1    H3  115   2.598   1.187  12.249  0.5846  1.1373 -1.2358
    7TCq1    H4  116   2.265   0.920  12.276 -1.1128  1.0127 -0.0933
    8MPD2     C  117   2.774   1.093  12.817 -0.8165 -0.1521 -0.0629
    8MPD2    C1  118   2.722   0.976  12.769  0.2793 -1.1218  0.1923
    8MPD2    C2  119   2.639   0.977  12.655  0.1066  0.7428 -0.8080
    8MPD2    C3  120   2.614   1.098  12.599  0.2323 -0.5901  0.5128
    8MPD2    C4  121   2.669   1.217  12.645  0.0150 -0.0905  0.2091
    8MPD2    C5  122   2.751   1.215  12.753  0.0591  0.3469  0.1726
    8MPD2     H  123   2.576   0.895  12.621  0.6674  0.1352 -0.3801
    8MPD2    H1  124   2.651   1.318  12.609 -1.6573 -0.3800  0.2452
    8MPD2    H2  125   2.826   1.084  12.911  1.3298 -0.4739 -1.2945
    8MPD2    H3  126   2.796   1.305  12.793 -0.8525  1.4544 -1.2993
    8MPD2     N  127   2.542   1.109  12.478 -0.5521  0.0079  0.8400
    8MPD2    H5  128   2.528   1.201  12.439 -0.5169  0.1519  1.1627
    8MPD2    N1  129   2.764   0.856  12.831  0.2921 -0.3432 -0.8012
    8MPD2    H7  130   2.824   0.867  12.913 -0.0309  1.8429 -0.8544
    9TMC1    C1  131   0.004   4.695  10.806 -1.0973 -0.4887  0.1766
    9TMC1    C2  132   4.678   4.704  10.681 -0.1944  0.1402 -0.2756
    9TMC1    C3  133   0.014   0.004  10.573 -0.1578 -0.6684  0.8109
    9TMC1    C4  134   0.135   0.005  10.822  0.2289 -0.9773  0.2692
    9TMC1    C5  135   0.198   0.043  10.704  1.1556  0.3212  0.2667
    9TMC1    C6  136   0.144   0.037  10.581  0.3299 -0.9490  0.1251
    9TMC1     C  137   4.659   4.649  10.924  0.2188  0.2686  0.1575
    9TMC1     O  138   4.536   4.638  10.918 -0.2353 -0.7913  0.2180
    9TMC1     H  139   4.572   4.682  10.671  0.2978 -2.1943 -0.3346
    9TMC1    H1  140   0.195   0.008  10.912  1.4639  0.1440 -0.5915
    9TMC1    H2  141   0.199   0.076  10.496  1.1169 -0.3992  0.8800
    9TMC1    C7  142   0.327   0.116  10.706 -0.1660 -0.1142 -0.3696
    9TMC1    C8  143   4.701   4.722  10.440  0.5554  0.1359 -0.0919
    9TMC1    O1  144   0.401   0.130  10.608 -0.3552  0.1454  0.2303
    9TMC1    O2  145   4.734   0.051  10.342  0.0802  0.1667 -0.2511
    9TMC1    O3  146   0.352   0.178  10.827  0.1237  0.6646 -0.4731
    9TMC1    H3  147   0.301   0.169  10.910  1.0187 -0.1260 -0.0058
    9TMC1    O5  148   4.638   4.599  10.436  0.1128 -0.4200 -0.4241
    9TMC1    H5  149   4.641   4.550  10.521  2.4934  0.2942 -0.0880
   10MPD2     C  150   4.555   4.592  11.197 -0.3421 -0.8596  0.2410
   10MPD2    C1  151   4.681   4.553  11.153 -0.6979  0.3461 -0.0395
   10MPD2    C2  152   0.025   4.478  11.230  0.1443  0.0102  0.0916
   10MPD2    C3  153   4.715   4.437  11.354 -0.4147 -0.2907 -0.3199
   10MPD2    C4  154   4.584   4.463  11.398  0.3631 -0.2640  0.0553
   10MPD2    C5  155   4.502   4.545  11.316  0.2441 -0.2828  0.4092
   10MPD2     H  156   0.127   4.466  11.195  0.0164 -1.5411  0.2430
   10MPD2    H1  157   4.552   4.424  11.494  0.5365  0.5323  0.4373
   10MPD2    H2  158   4.494   4.654  11.132  1.5440 -0.0446 -0.7574
   10MPD2    H3  159   4.402   4.573  11.344  1.0621  0.0282  2.9625
   10MPD2     N  160   0.063   4.366  11.440 -0.1974 -0.1254  0.1755
   10MPD2    H5  161   0.032   4.301  11.512  1.7323 -1.3851 -0.1354
   10MPD2    N1  162   0.002   4.593  11.029  0.3476  0.7607  0.0139
   10MPD2    H7  163   0.099   4.572  11.007  0.1924  0.9561 -0.8551
   11TCq1    O1  164   2.055   4.495  13.425  0.3752 -0.7302  0.0482
   11TCq1    C1  165   1.954   4.480  13.514 -0.0461 -0.2053  0.0784
   11TCq1    O2  166   1.903   4.374  13.545  0.2082 -0.0447  0.7585
   11TCq1    C2  167   1.883   4.602  13.506 -0.7508 -0.1615 -0.4207
   11TCq1    C3  168   1.954   4.722  13.496  0.0175  0.2246  1.1468
   11TCq1    C4  169   1.889   0.097  13.529  0.4301  0.2428 -0.0023
   11TCq1    C5  170   1.763   0.089  13.573  0.2807 -0.5346 -0.5075
   11TCq1    C6  171   1.697   4.710  13.590  0.5887 -0.2456 -0.6400
   11TCq1    C7  172   1.751   4.590  13.546  0.3197 -1.1146 -0.4257
   11TCq1    C8  173   1.551   4.722  13.611  0.2305 -0.5190  0.2785
   11TCq1    O4  174   1.508   0.103  13.612  0.1921 -0.0447  0.2613
   11TCq1    C9  175   1.951   0.222  13.486  0.7075 -0.6378  0.3967
   11TCq1    O5  176   2.019   0.209  13.383  0.1542  0.4319 -0.6379
   11TCq1    O6  177   1.893   0.325  13.531 -0.4959  0.3853 -0.2938
   11TCq1    H1  178   2.076   4.590  13.413 -0.0997 -0.9580 -2.6945
   11TCq1    H2  179   2.062   4.727  13.490 -0.0353 -0.9036 -0.9580
   11TCq1    H3  180   1.727   0.186  13.606  0.5120 -0.1726 -1.3136
   11TCq1    H4  181   1.701   4.494  13.550 -0.5544 -0.6393  0.1734
   12MPD2     C  182   1.258   4.669  13.572  0.2367 -0.2467  0.2586
   12MPD2    C1  183   1.354   4.578  13.569  0.0523  0.1460 -0.2371
   12MPD2    C2  184   1.323   4.445  13.546  0.1202 -1.2241 -0.3600
   12MPD2    C3  185   1.188   4.405  13.530 -0.0546  0.0227 -0.3710
   12MPD2    C4  186   1.091   4.503  13.534 -0.6914  0.3677  0.1234
   12MPD2    C5  187   1.124   4.631  13.558  0.1725 -0.5490  1.3062
   12MPD2     H  188   1.406   4.374  13.542  0.2936 -1.1431  2.0859
   12MPD2    H1  189   0.986   4.484  13.512 -0.9632  2.1671 -0.1434
   12MPD2    H2  190   1.291   0.035  13.585 -0.0957 -0.2690  1.2675
   12MPD2    H3  191   1.052   4.712  13.558 -1.0152 -1.6038  2.1294
   12MPD2     N  192   1.153   4.270  13.507  0.6837 -0.3420  0.4326
   12MPD2    H5  193   1.211   4.192  13.537 -0.9591 -2.1710 -1.0386
   12MPD2    N1  194   1.492   4.600  13.580  0.3450  0.0002 -0.1092
   12MPD2    H7  195   1.549   4.517  13.569  2.3554  1.4035 -0.2223
   13TCq1    O1  196   0.637   3.760  11.779 -0.0651 -0.2676  0.5328
   13TCq1    C1  197   0.523   3.818  11.743  0.4763 -0.5295 -0.2256
   13TCq1    O2  198   0.434   3.864  11.813  0.2625  0.8505 -0.1009
   13TCq1    C2  199   0.549   3.872  11.610  0.0280  0.6187 -0.4473
   13TCq1    C3  200   0.670   3.849  11.549 -0.2547  0.6585  0.0607
   13TCq1    C4  201   0.692   3.896  11.417  0.4704  0.0249 -0.0659
   13TCq1    C5  202   0.592   3.962  11.351  0.2141  0.9590  0.2580
   13TCq1    C6  203   0.463   3.964  11.410  0.3369 -0.0040 -0.2656
   13TCq1    C7  204   0.446   3.935  11.543 -0.1320  0.2514 -0.2767
   13TCq1    C8  205   0.347   4.008  11.331 -0.3824 -0.0178 -0.0273
   13TCq1    O4  206   0.237   3.990  11.381  0.1497  0.1193 -0.1564
   13TCq1    C9  207   0.820   3.885  11.346  0.0938 -0.2977 -0.3402
   13TCq1    O5  208   0.832   3.917  11.225 -0.6682  0.1267  0.3604
   13TCq1    O6  209   0.917   3.866  11.421  0.1677 -0.8325 -0.1085
   13TCq1    H1  210   0.675   3.700  11.712 -1.7547 -1.9103  1.0402
   13TCq1    H2  211   0.761   3.816  11.598 -0.4724  0.9405  0.6527
   13TCq1    H3  212   0.615   3.982  11.247 -1.1913 -0.2577 -0.2828
   13TCq1    H4  213   0.347   3.919  11.581  0.0145 -0.7309 -0.3277
   14MPD2     C  214   0.335   4.124  10.985  0.0697  0.3529  0.5507
   14MPD2    C1  215   0.283   4.105  11.109  0.3935  1.2077 -0.2209
   14MPD2    C2  216   0.146   4.122  11.136  0.5746 -0.2547  0.9818
   14MPD2    C3  217   0.066   4.166  11.039 -0.4330 -0.0523  0.1729
   14MPD2    C4  218   0.120   4.196  10.918 -0.4313 -0.4946  0.4904
   14MPD2    C5  219   0.252   4.176  10.892  0.2916 -0.8888  0.0704
   14MPD2     H  220   0.112   4.113  11.238 -0.1069  0.4578  0.8140
   14MPD2    H1  221   0.055   4.231  10.839 -2.5185  0.0626  2.4646
   14MPD2    H2  222   0.441   4.108  10.967  0.2118  1.2193  0.6089
   14MPD2    H3  223   0.291   4.181  10.791  0.2055 -1.7254 -0.0081
   14MPD2     N  224   4.663   4.199  11.074  0.0513 -0.1766 -0.2985
   14MPD2    H5  225   4.626   4.171  11.164 -1.9773  1.8442 -0.4992
   14MPD2    N1  226   0.377   4.062  11.208 -0.2174  0.3863  0.3973
   14MPD2    H7  227   0.474   4.055  11.179 -0.5192 -0.8261 -0.2980
   15TCq1    O1  228   2.508   3.484   2.299  0.3231 -0.2244 -0.1454
   15TCq1    C1  229   2.573   3.527   2.190  0.2165 -0.1988 -0.5758
   15TCq1    O2  230   2.672   3.602   2.197  0.4621 -0.2636  0.0047
   15TCq1    C2  231   2.483   3.539   2.075  0.1652 -0.2864  0.1270
   15TCq1    C3  232   2.347   3.549   2.104  0.0957 -0.4437 -0.4044
   15TCq1    C4  233   2.251   3.525   2.007 -0.2209  0.0882 -0.7171
   15TCq1    C5  234   2.298   3.501   1.876 -0.3037 -0.3276 -0.2988
   15TCq1    C6  235   2.435   3.485   1.852 -0.8436 -0.2462  0.1147
   15TCq1    C7  236   2.532   3.506   1.953  0.2861  1.2061  0.4639
   15TCq1    C8  237   2.491   3.450   1.724 -0.1948  0.1110  0.7026
   15TCq1    O4  238   2.600   3.405   1.722 -0.2898  0.7262  0.3128
   15TCq1    C9  239   2.109   3.515   2.045 -0.0102 -0.0087 -0.5081
   15TCq1    O5  240   2.026   3.484   1.955 -0.4537  0.2144 -0.1374
   15TCq1    O6  241   2.075   3.531   2.165 -0.3546 -0.4633  0.1023
   15TCq1    H1  242   2.438   3.418   2.279  1.7925 -1.0431 -2.7578
   15TCq1    H2  243   2.308   3.560   2.205  2.1144 -0.8477  0.4310
   15TCq1    H3  244   2.228   3.499   1.793  1.9837  0.2487 -2.2579
   15TCq1    H4  245   2.637   3.498   1.931 -0.1096  0.1514 -1.0499
   16MPD2     C  246   2.318   3.449   1.395 -0.3702  0.0727  0.1458
   16MPD2    C1  247   2.414   3.406   1.486  1.1447  0.0894  0.5664
   16MPD2    C2  248   2.508   3.305   1.452  0.9146  0.0280  0.2917
   16MPD2    C3  249   2.480   3.231   1.344  0.3877 -0.2790 -1.4748
   16MPD2    C4  250   2.385   3.270   1.251 -0.0735 -0.0920 -0.5216
   16MPD2    C5  251   2.307   3.387   1.279  0.3661  0.0196 -0.8213
   16MPD2     H  252   2.583   3.269   1.522  0.2197  0.0988  1.0664
   16MPD2    H1  253   2.366   3.218   1.158  0.3743  0.2331 -0.7953
   16MPD2    H2  254   2.247   3.531   1.404 -1.5733 -0.8198 -1.1922
   16MPD2    H3  255   2.229   3.417   1.211 -0.9965 -0.4612  0.5386
   16MPD2     N  256   2.576   3.128   1.307 -0.0959 -0.0204  1.2266
   16MPD2    H5  257   2.669   3.124   1.347 -0.1505 -1.2207  1.2311
   16MPD2    N1  258   2.403   3.466   1.616 -0.9150 -0.4530 -0.1015
   16MPD2    H7  259   2.316   3.518   1.627 -1.5428 -1.3987 -0.6016
   17TMC1    C1  260   0.057   3.746  11.609  0.5977  0.2548 -0.2185
   17TMC1    C2  261   0.001   3.800  11.494  0.1906 -0.0410  0.0344
   17TMC1    C3  262   4.645   3.902  11.521  0.0171 -0.3353 -0.2351
   17TMC1    C4  263   0.019   3.765  11.736  0.4356 -0.2056  0.2762
   17TMC1    C5  264   4.655   3.861  11.756 -0.1410  0.0918  0.2350
   17TMC1    C6  265   4.597   3.924  11.648  0.1791 -0.3257 -0.0996
   17TMC1     C  266   0.150   3.638  11.591 -0.6134 -0.0330  0.3343
   17TMC1     O  267   0.168   3.560  11.682  0.0662 -0.0305  0.7898
   17TMC1     H  268   0.024   3.758  11.397  0.7401 -0.2847  0.2710
   17TMC1    H1  269   0.075   3.713  11.813  0.4513  1.3532  1.3213
   17TMC1    H2  270   4.515   3.992  11.666  1.8051  1.6800 -0.3271
   17TMC1    C7  271   4.592   3.876  11.885 -0.6186  0.0066  0.1670
   17TMC1    C8  272   4.630   3.998  11.413 -0.0369  0.1669 -0.4823
   17TMC1    O1  273   4.512   3.967  11.919 -0.2535 -0.3091 -0.8189
   17TMC1    O2  274   4.672   3.972  11.302  0.4707  0.6142  0.1452
   17TMC1    O3  275   4.605   3.750  11.940 -0.4048  0.5272  0.6206
   17TMC1    H3  276   4.632   3.677  11.880 -0.6458 -1.8044  3.3321
   17TMC1    O5  277   4.626   4.119  11.465 -0.5210 -0.0062 -0.2579
   17TMC1    H5  278   4.615   4.123  11.562  2.8333 -0.1584  0.1325
   18MPD2     C  279   0.396   3.478  11.499  0.2256 -0.1935 -0.0556
   18MPD2    C1  280   0.345   3.597  11.444  0.0932  0.3873 -0.6552
   18MPD2    C2  281   0.409   3.652  11.326 -0.2266 -0.1245  0.9663
   18MPD2    C3  282   0.523   3.591  11.285 -0.4811  0.7330  0.2228
   18MPD2    C4  283   0.571   3.472  11.337  0.8037  0.1449  0.4717
   18MPD2    C5  284   0.510   3.424  11.450  0.5260  0.1023 -0.3957
   18MPD2     H  285   0.374   3.746  11.284  0.5841 -0.2749 -0.0260
   18MPD2    H1  286   0.655   3.415  11.298  0.9520 -0.5212  1.7896
   18MPD2    H2  287   0.365   3.431  11.592 -1.4519  0.4872 -0.2663
   18MPD2    H3  288   0.549   3.327  11.480 -1.1338 -1.1568 -2.3025
   18MPD2     N  289   0.607   3.640  11.175  0.0679 -0.7453 -0.3028
   18MPD2    H5  290   0.691   3.587  11.152 -1.0925 -1.8474 -2.0072
   18MPD2    N1  291   0.231   3.667  11.489 -0.8355  0.1382 -0.1789
   18MPD2    H7  292   0.205   3.748  11.433 -0.8894 -0.0876 -0.4800
   19TMC2    C1  293   2.369   4.345  13.916 -0.8430 -0.4896 -0.5479
   19TMC2    C2  294   2.352   4.468  13.861  0.1297 -0.0151 -0.2170
   19TMC2    C3  295   2.230   4.508  13.814  0.6845  0.1343  0.2353
   19TMC2    C4  296   2.262   4.262  13.942  0.4099 -0.4830 -0.1876
   19TMC2    C5  297   2.137   4.305  13.903 -0.1670  0.5678 -1.0227
   19TMC2    C6  298   2.120   4.425  13.832  0.3294 -0.0562  0.0548
   19TMC2     C  299   2.506   4.316  13.958 -0.7087  0.4926  0.4973
   19TMC2     O  300   2.578   4.416  13.972 -0.1755  0.0961 -0.2594
   19TMC2     H  301   2.429   4.543  13.846 -0.3795  0.3514 -0.9878
   19TMC2    H1  302   2.270   4.169  13.997  0.4260 -0.2050  0.2828
   19TMC2    H2  303   2.021   4.459  13.807  0.1216  0.9550  2.2229
   19TMC2    C7  304   2.029   4.208  13.922  0.4067 -0.1654  0.4653
   19TMC2    C8  305   2.220   4.625  13.740  0.2093 -0.1682 -0.0321
   19TMC2    O1  306   2.064   4.095  13.949 -0.3524 -0.1192  0.1693
   19TMC2    O2  307   2.110   4.677  13.725  0.0778 -0.0946 -0.0781
   19TMC2    O5  308   2.304   4.610  13.642 -0.7685 -0.5357  0.3243
   19TMC2    H5  309   2.393   4.581  13.672  0.1402  2.1181  0.1800
   20MPD2     C  310   2.730   4.223  14.131 -0.2063 -0.0397  0.5356
   20MPD2    C1  311   2.653   4.143  14.048  0.2969 -0.2653 -0.6127
   20MPD2    C2  312   2.677   4.005  14.043  0.0016 -0.5609  0.5841
   20MPD2    C3  313   2.784   3.945  14.116 -0.4009  0.0698 -0.0662
   20MPD2    C4  314   2.868   4.031  14.180  0.1113  0.6293  0.1728
   20MPD2    C5  315   2.836   4.166  14.191  0.0911 -0.3219  0.6856
   20MPD2     H  316   2.612   3.948  13.979 -0.5860  1.1674 -0.3617
   20MPD2    H1  317   2.956   3.986  14.226  0.2961 -1.0699 -1.8427
   20MPD2    H2  318   2.710   4.327  14.153 -2.6088 -0.9667  2.7278
   20MPD2    H3  319   2.896   4.230  14.255  1.2877  2.0671 -2.8340
   20MPD2     N  320   2.803   3.805  14.130 -0.5585  0.3969 -0.3128
   20MPD2    H5  321   2.880   3.769  14.187 -0.0680  0.4320 -0.9532
   20MPD2    N1  322   2.538   4.186  13.976 -0.2570 -0.0298 -0.1556
   20MPD2    H7  323   2.490   4.118  13.919  0.6360 -1.7945  1.1975
   21TMC2    C1  324   0.199   0.142  14.342  0.1663  0.8967  0.7524
   21TMC2    C2  325   0.162   0.165  14.212 -0.3985 -1.1638  0.2628
   21TMC2    C3  326   0.027   0.143  14.170  0.2975  0.3718 -0.2566
   21TMC2    C4  327   0.103   0.097  14.430  0.2482  1.1954  0.5180
   21TMC2    C5  328   4.707   0.083  14.394  0.9510  0.1309 -0.0033
   21TMC2    C6  329   4.671   0.120  14.267  0.3718  0.4699 -0.0151
   21TMC2     C  330   0.325   0.177  14.387 -0.5694 -0.3923  0.2417
   21TMC2     O  331   0.386   0.244  14.303 -0.2003 -0.2474  0.2501
   21TMC2     H  332   0.236   0.194  14.138  0.5619 -2.6304  0.6482
   21TMC2    H1  333   0.134   0.089  14.534  1.1646 -1.9196  0.0055
   21TMC2    H2  334   4.564   0.114  14.249  0.2085  2.1297  0.3734
   21TMC2    C7  335   4.618   0.105  14.505 -0.0444  0.1710  0.2655
   21TMC2    C8  336   4.733   0.112  14.032 -0.8860 -0.2526 -0.2780
   21TMC2    O1  337   4.667   0.135  14.613 -0.1285 -0.6367 -0.0111
   21TMC2    O2  338   0.086   0.088  13.956  0.5817 -0.5487 -0.0085
   21TMC2    O5  339   4.604   0.137  14.000 -0.2405 -0.5340  0.1471
   21TMC2    H5  340   4.576   0.216  14.052  1.5615  1.9677 -2.6912
   22MPD2     C  341   0.705   0.215  14.721 -0.3286 -0.6849  0.2011
   22MPD2    C1  342   0.703   0.252  14.588 -0.1630 -0.0038  0.3913
   22MPD2    C2  343   0.585   0.244  14.515  0.5195  0.2522 -0.5001
   22MPD2    C3  344   0.480   0.177  14.576  0.0108  0.3597 -0.2112
   22MPD2    C4  345   0.487   0.127  14.710  0.1121 -0.2720 -0.7612
   22MPD2    C5  346   0.597   0.154  14.780  0.2402  0.4810 -0.0233
   22MPD2     H  347   0.589   0.274  14.411  0.2102 -2.0664 -1.1869
   22MPD2    H1  348   0.408   0.072  14.759  1.7509 -3.0845 -1.2923
   22MPD2    H2  349   0.788   0.235  14.787  0.5078 -3.6632  0.0599
   22MPD2    H3  350   0.600   0.116  14.882 -1.2723 -0.3621 -0.2932
   22MPD2     N  351   0.360   0.139  14.510 -0.2538 -0.0823  0.0738
   22MPD2    H5  352   0.301   0.072  14.557  0.3819 -0.2406  0.6534
   22MPD2    N1  353   0.818   0.299  14.519  0.9772 -0.3666  0.2233
   22MPD2    H7  354   0.812   0.326  14.422 -0.4009  1.5825  0.8436
   23TMC2    C1  355   1.208   1.089  14.533  0.0848  0.2499 -0.0817
   23TMC2    C2  356   1.306   1.112  14.436  0.1902 -0.1526  0.4907
   23TMC2    C3  357   1.268   1.152  14.312  0.3109 -0.4837  0.0299
   23TMC2    C4  358   1.077   1.080  14.501 -0.1403 -1.2928  0.2171
   23TMC2    C5  359   1.050   1.109  14.369 -0.1834  1.0458  0.3098
   23TMC2    C6  360   1.138   1.147  14.271  0.4737 -0.7319 -0.3387
   23TMC2     C  361   1.247   1.098  14.673  0.0343  0.5624  0.0355
   23TMC2     O  362   1.176   1.035  14.751  0.1152 -0.2262 -0.1084
   23TMC2     H  363   1.405   1.138  14.472  0.2135 -0.3000  0.5335
   23TMC2    H1  364   0.999   1.066  14.576 -1.4975  1.6536 -0.6642
   23TMC2    H2  365   1.110   1.186  14.174 -0.8316 -0.2982  0.2116
   23TMC2    C7  366   0.935   1.043  14.311  1.1445  0.0398  0.6895
   23TMC2    C8  367   1.360   1.140  14.203 -0.4885  0.6237  0.0890
   23TMC2    O1  368   0.958   0.963  14.223  0.6637  0.0957  0.1828
   23TMC2    O2  369   1.339   1.186  14.092  0.0797 -0.4349  0.5757
   23TMC2    O5  370   1.475   1.077  14.247 -0.3760  0.1420  0.4811
   23TMC2    H5  371   1.533   1.042  14.176  2.7870 -0.0116  3.1135
   24MPD2     C  372   1.470   1.340  15.059 -0.3071 -0.2453 -0.4668
   24MPD2    C1  373   1.426   1.211  15.047  0.2528  0.2932  0.1981
   24MPD2    C2  374   1.387   1.165  14.919  0.2635  0.7024  0.3919
   24MPD2    C3  375   1.378   1.245  14.813 -0.5135 -0.6997 -0.4041
   24MPD2    C4  376   1.426   1.375  14.822 -0.8610 -0.3915  0.3676
   24MPD2    C5  377   1.460   1.428  14.948  0.4476  0.2542  0.2176
   24MPD2     H  378   1.347   1.064  14.908 -2.1991  1.7088  0.0725
   24MPD2    H1  379   1.432   1.433  14.730  2.4182 -0.5303  0.5036
   24MPD2    H2  380   1.512   1.378  15.151 -0.5543 -0.3506 -0.3111
   24MPD2    H3  381   1.490   1.531  14.960  1.1510 -0.0522  1.1353
   24MPD2     N  382   1.324   1.206  14.690 -0.2609  0.5452  0.1006
   24MPD2    H5  383   1.348   1.261  14.608 -2.6737 -1.4412 -1.9679
   24MPD2    N1  384   1.429   1.117  15.154 -0.3131 -0.5673 -0.5570
   24MPD2    H7  385   1.394   1.024  15.134 -1.2334 -0.6720  1.4535
   25TMC2    C1  386   0.494   2.414  11.835 -0.4607 -0.2841  0.6441
   25TMC2    C2  387   0.609   2.468  11.878 -0.1244 -0.3560  0.3053
   25TMC2    C3  388   0.605   2.525  12.004  0.4702 -0.1700 -0.0073
   25TMC2    C4  389   0.371   2.420  11.905 -0.4100  0.4230 -0.0951
   25TMC2    C5  390   0.377   2.476  12.031  0.4635 -0.5945  0.8648
   25TMC2    C6  391   0.497   2.518  12.084  0.1928  0.1641  0.8095
   25TMC2     C  392   0.493   2.360  11.702  0.0434 -0.6785 -1.3206
   25TMC2     O  393   0.597   2.357  11.644  0.1542 -0.0929  0.0676
   25TMC2     H  394   0.704   2.453  11.829 -0.4125 -2.7289  0.4920
   25TMC2    H1  395   0.282   2.374  11.864 -0.3884 -0.0844  0.4309
   25TMC2    H2  396   0.507   2.567  12.180  0.5951 -0.8418  1.2870
   25TMC2    C7  397   0.253   2.492  12.102  0.1350 -0.2114 -0.5824
   25TMC2    C8  398   0.729   2.570  12.064 -0.0504  0.2557 -0.0806
   25TMC2    O1  399   0.262   2.465  12.221  0.3789 -0.6356  0.3772
   25TMC2    O2  400   0.747   2.589  12.182 -0.4816  0.0393  0.3108
   25TMC2    O5  401   0.793   2.635  11.965  0.0394  0.4421  0.0387
   25TMC2    H5  402   0.734   2.660  11.890  1.4707 -0.5162 -1.4065
   26MPD2     C  403   0.248   2.032  11.389 -1.1145  1.0787  0.0066
   26MPD2    C1  404   0.150   2.123  11.429  0.4126  0.1970  0.7510
   26MPD2    C2  405   0.191   2.228  11.510 -0.8363 -0.1034  0.0321
   26MPD2    C3  406   0.322   2.242  11.554  0.1330  0.7239 -0.0259
   26MPD2    C4  407   0.412   2.140  11.515  0.5731  0.2285  0.3537
   26MPD2    C5  408   0.378   2.041  11.436 -0.1297 -0.2767 -0.1447
   26MPD2     H  409   0.116   2.290  11.557  0.4994  0.7915  0.9917
   26MPD2    H1  410   0.508   2.129  11.564  0.2295 -1.6067  0.6323
   26MPD2    H2  411   0.218   1.947  11.329 -1.6900  1.9143 -0.9022
   26MPD2    H3  412   0.442   1.956  11.415 -0.6635 -0.3341 -1.5450
   26MPD2     N  413   0.362   2.334  11.653  0.0077  0.5061  0.0487
   26MPD2    H5  414   0.280   2.376  11.697  0.1285  1.1352 -0.3256
   26MPD2    N1  415   0.015   2.103  11.408  0.3119  0.3201  0.0702
   26MPD2    H7  416   4.731   2.016  11.359  3.4491 -1.1503  1.3764
   27TMC2    C1  417   4.013   0.785  11.833 -0.1805  0.6238 -0.0088
   27TMC2    C2  418   4.126   0.758  11.771 -0.4460  0.2006 -0.4990
   27TMC2    C3  419   4.237   0.734  11.846  0.1565  0.6092  0.2062
   27TMC2    C4  420   4.007   0.803  11.973  0.3820  0.1611  0.6100
   27TMC2    C5  421   4.118   0.782  12.047 -0.1152  0.0374  0.5962
   27TMC2    C6  422   4.235   0.739  11.985  0.4547 -0.2597 -0.1514
   27TMC2     C  423   3.894   0.828  11.757  0.1348  0.4451 -0.3296
   27TMC2     O  424   3.897   0.852  11.636  0.1051  0.0594  0.8562
   27TMC2     H  425   4.134   0.746  11.663  0.3105 -1.6373 -0.2516
   27TMC2    H1  426   3.925   0.826  12.039 -1.1217  1.3541 -1.6818
   27TMC2    H2  427   4.326   0.714  12.039  0.5229  0.6975  0.1835
   27TMC2    C7  428   4.111   0.755  12.191 -0.4694 -0.0162 -0.0484
   27TMC2    C8  429   4.359   0.751  11.771 -0.6290 -0.0312 -0.1910
   27TMC2    O1  430   4.002   0.727  12.241 -0.2561 -0.1648 -0.4085
   27TMC2    O2  431   4.347   0.771  11.649  0.2846  0.0775 -0.6070
   27TMC2    O5  432   4.474   0.737  11.844 -0.5544 -0.6421  0.5186
   27TMC2    H5  433   4.470   0.681  11.925 -1.2548 -1.0192  0.2174
   28MPD2     C  434   3.379   0.858  11.735  0.5146 -0.0015 -0.4904
   28MPD2    C1  435   3.424   0.802  11.851  0.2523  0.6714  0.0772
   28MPD2    C2  436   3.553   0.777  11.890  0.1046 -0.1304  0.4125
   28MPD2    C3  437   3.651   0.825  11.801  0.5698  0.6142  0.6324
   28MPD2    C4  438   3.610   0.892  11.687  0.4597  0.3550 -1.0932
   28MPD2    C5  439   3.475   0.901  11.655 -0.1798 -0.4558  0.0323
   28MPD2     H  440   3.580   0.711  11.971 -0.5436 -1.8242 -0.7657
   28MPD2    H1  441   3.685   0.930  11.619  0.9530  1.9281  0.3143
   28MPD2    H2  442   3.275   0.873  11.709 -0.0447 -1.6701  0.7614
   28MPD2    H3  443   3.444   0.943  11.560 -0.3387 -2.6004 -0.8451
   28MPD2     N  444   3.784   0.810  11.835 -0.4262  0.1482  0.2895
   28MPD2    H5  445   3.797   0.797  11.935 -1.4500 -0.7789  0.2933
   28MPD2    N1  446   3.331   0.757  11.949 -0.5166 -0.3966 -0.5383
   28MPD2    H7  447   3.371   0.731  12.038 -0.3356 -0.0349 -0.5153
   29TMC2    C1  448   3.465   3.208  14.002  0.3731 -0.7171  0.1024
   29TMC2    C2  449   3.387   3.224  14.112  0.6382  0.2536  0.0055
   29TMC2    C3  450   3.409   3.331  14.198 -0.5455  0.1374 -0.3634
   29TMC2    C4  451   3.573   3.286  13.983  0.6002  0.4347 -0.6419
   29TMC2    C5  452   3.604   3.378  14.081  0.6069 -0.3204 -0.0087
   29TMC2    C6  453   3.524   3.401  14.188 -0.1143 -0.1350 -0.1895
   29TMC2     C  454   3.466   3.087  13.941 -0.3409 -0.0932 -0.3535
   29TMC2     O  455   3.568   3.047  13.889  0.1884 -0.1597 -0.1225
   29TMC2     H  456   3.309   3.153  14.138  0.7005  0.6537  1.2863
   29TMC2    H1  457   3.631   3.267  13.893  0.9458  0.7200 -0.4773
   29TMC2    H2  458   3.555   3.477  14.259 -2.3087  1.4381 -0.9155
   29TMC2    C7  459   3.725   3.459  14.070 -0.6503 -0.2910  0.3829
   29TMC2    C8  460   3.357   3.324  14.325 -1.1445  0.4764  0.3887
   29TMC2    O1  461   3.740   3.538  14.161  0.1625  0.1613 -0.3487
   29TMC2    O2  462   3.239   3.307  14.353  0.3818 -0.9335 -0.1371
   29TMC2    O5  463   3.449   3.243  14.372 -0.3289 -0.0230 -0.4390
   29TMC2    H5  464   3.537   3.260  14.331 -1.2089  3.2882 -0.9569
   30MPD2     C  465   3.241   2.652  13.797 -0.2223 -0.3321  0.0404
   30MPD2    C1  466   3.369   2.672  13.835 -0.6923 -0.0648 -0.3588
   30MPD2    C2  467   3.410   2.798  13.868  0.1084  0.5536 -0.1063
   30MPD2    C3  468   3.316   2.900  13.874  0.3421 -0.5684 -0.2689
   30MPD2    C4  469   3.187   2.880  13.840 -0.2675  0.3286  0.2612
   30MPD2    C5  470   3.155   2.755  13.795  0.0732  0.0389  0.8683
   30MPD2     H  471   3.516   2.813  13.884  0.2611 -1.0082  0.3465
   30MPD2    H1  472   3.113   2.958  13.848  0.0587  0.8304 -1.6866
   30MPD2    H2  473   3.208   2.554  13.765  1.2366 -0.5267 -0.8665
   30MPD2    H3  474   3.054   2.734  13.761  0.2682  2.2219 -1.0570
   30MPD2     N  475   3.341   3.033  13.924  0.0141 -0.1900  0.4584
   30MPD2    H5  476   3.261   3.093  13.941 -0.2787  0.4595 -3.2832
   30MPD2    N1  477   3.460   2.565  13.852 -0.6814  0.1274  0.7031
   30MPD2    H7  478   3.550   2.579  13.896 -0.1176  1.0781 -0.7381
   31TMC2    C1  479   1.104   1.531  15.090 -0.6077  0.1019 -0.0324
   31TMC2    C2  480   0.985   1.482  15.052  0.3074  0.9369  1.1972
   31TMC2    C3  481   0.919   1.386  15.127 -0.3169  0.1055  0.2021
   31TMC2    C4  482   1.166   1.488  15.199  0.3493  0.2548 -0.2689
   31TMC2    C5  483   1.105   1.389  15.274 -0.4851  0.4392  0.3960
   31TMC2    C6  484   0.988   1.331  15.237 -0.0174  0.1050  0.0615
   31TMC2     C  485   1.170   1.622  14.994  0.0690 -0.1232 -0.3956
   31TMC2     O  486   1.125   1.615  14.878 -0.0799 -0.4806  0.1837
   31TMC2     H  487   0.932   1.536  14.975 -2.9809  0.7507  3.3147
   31TMC2    H1  488   1.269   1.519  15.210  0.4876 -0.7215  1.2963
   31TMC2    H2  489   0.944   1.252  15.296  1.9662 -0.4270  0.8135
   31TMC2    C7  490   1.167   1.341  15.397  0.1585 -0.3860  0.4631
   31TMC2    C8  491   0.777   1.355  15.098  0.2085  0.1748  1.0045
   31TMC2    O1  492   1.181   1.216  15.403 -0.0642  0.3000  0.1835
   31TMC2    O2  493   0.715   1.406  15.003 -0.4352  0.4902  0.3905
   31TMC2    O5  494   0.712   1.298  15.202  0.3124  0.4368  0.1179
   31TMC2    H5  495   0.772   1.288  15.280  0.1914 -0.4205  0.0969
   32MPD2     C  496   1.564   1.934  14.891  0.1379 -0.1086  0.1192
   32MPD2    C1  497   1.470   1.889  14.799  0.8929 -0.2683  1.0814
   32MPD2    C2  498   1.367   1.807  14.852 -0.2166  0.3860 -0.0886
   32MPD2    C3  499   1.359   1.783  14.990 -0.1032  0.2535 -0.8352
   32MPD2    C4  500   1.460   1.830  15.069  0.3705 -0.0749 -0.5089
   32MPD2    C5  501   1.559   1.909  15.027 -0.3226 -0.5666  0.1429
   32MPD2     H  502   1.284   1.778  14.788  0.7494  0.4596 -1.3673
   32MPD2    H1  503   1.452   1.819  15.177 -1.2693 -1.2649 -0.7583
   32MPD2    H2  504   1.643   2.000  14.856  0.6416 -1.2032 -0.8296
   32MPD2    H3  505   1.638   1.949  15.090 -0.6490  1.1174 -0.5218
   32MPD2     N  506   1.269   1.694  15.053 -0.1917 -0.0471 -0.3301
   32MPD2    H5  507   1.292   1.662  15.147 -1.2011  0.4390  0.0784
   32MPD2    N1  508   1.468   1.939  14.667  0.7659  0.2692 -0.2995
   32MPD2    H7  509   1.550   1.983  14.625  0.9649 -0.1045 -0.3004
   33TMC2    C1  510   0.496   4.531  10.305 -0.4723 -0.8838  0.0081
   33TMC2    C2  511   0.360   4.514  10.281 -0.1097  0.4622  0.6163
   33TMC2    C3  512   0.305   4.606  10.198  0.0962 -0.1950 -0.1504
   33TMC2    C4  513   0.563   4.644  10.258  0.7662 -0.1683 -0.7680
   33TMC2    C5  514   0.489   0.005  10.197  0.1291  0.0774 -0.6613
   33TMC2    C6  515   0.359   4.722  10.148 -0.2998  0.1500  0.2272
   33TMC2     C  516   0.557   4.436  10.396 -0.2942 -0.1108 -0.1709
   33TMC2     O  517   0.476   4.361  10.453  0.0898  0.0177  0.1786
   33TMC2     H  518   0.306   4.432  10.327 -2.0960  1.3720 -0.0733
   33TMC2    H1  519   0.665   4.660  10.291  0.4424 -1.5348  0.8624
   33TMC2    H2  520   0.290   0.046  10.089  0.4211  3.0792  2.3886
   33TMC2    C7  521   0.548   0.139  10.180 -0.1071  0.4258 -0.6967
   33TMC2    C8  522   0.173   4.569  10.156 -0.3302  0.3148 -0.1865
   33TMC2    O1  523   0.668   0.149  10.197 -0.0566  0.1971 -0.0678
   33TMC2    O2  524   0.105   4.486  10.212 -0.3058 -0.4496  0.0775
   33TMC2    O5  525   0.149   4.611  10.030  0.1463  0.3565 -0.0622
   33TMC2    H5  526   0.227   4.659   9.993 -0.9254  1.6670 -0.6444
   34MPD2     C  527   0.960   4.239  10.658  0.2316  0.5771 -0.0178
   34MPD2    C1  528   0.834   4.191  10.642 -0.4062 -0.0264 -0.2571
   34MPD2    C2  529   0.743   4.263  10.567  0.7296  0.0539 -0.0818
   34MPD2    C3  530   0.781   4.390  10.509 -0.0927 -0.1051 -0.9025
   34MPD2    C4  531   0.904   4.440  10.532  0.3199  0.1396  0.5444
   34MPD2    C5  532   0.990   4.360  10.607  0.1336  0.4036  0.5631
   34MPD2     H  533   0.648   4.215  10.544 -0.0972  1.3241  0.6759
   34MPD2    H1  534   0.936   4.540  10.505 -0.2900  0.3238  0.5052
   34MPD2    H2  535   1.041   4.179  10.697  0.6122  1.2968  0.3068
   34MPD2    H3  536   1.092   4.392  10.627  0.1789 -0.8467  2.3311
   34MPD2     N  537   0.692   4.457  10.421 -0.3366 -0.1279 -0.2522
   34MPD2    H5  538   0.728   4.534  10.366  1.3549 -1.4931 -1.0811
   34MPD2    N1  539   0.807   4.060  10.689  0.0426 -0.0515 -0.2242
   34MPD2    H7  540   0.892   4.010  10.714  0.9634  0.2290 -2.8118
   35TMC2    C1  541   1.952   0.648  11.333  0.3477 -0.2446 -0.1817
   35TMC2    C2  542   1.836   0.642  11.268 -0.4126  0.1779  0.3357
   35TMC2    C3  543   1.735   0.565  11.312 -0.4641 -0.0545  0.5459
   35TMC2    C4  544   1.985   0.568  11.440  1.0530  0.1606  0.2190
   35TMC2    C5  545   1.877   0.484  11.482 -0.1299  0.2615 -0.2898
   35TMC2    C6  546   1.754   0.481  11.415 -0.1627 -0.2941 -0.3356
   35TMC2     C  547   2.040   0.761  11.303 -0.4832  0.2372 -0.5244
   35TMC2     O  548   1.994   0.857  11.241 -0.3594  0.3089  0.9520
   35TMC2     H  549   1.814   0.708  11.185 -0.3677  1.2633  1.1888
   35TMC2    H1  550   2.080   0.588  11.488  0.3063  0.2109  1.6640
   35TMC2    H2  551   1.673   0.415  11.445  1.5563 -1.9703  0.6701
   35TMC2    C7  552   1.906   0.380  11.578 -0.0774  0.0360 -0.6328
   35TMC2    C8  553   1.602   0.599  11.273  1.0940 -0.7423  0.2474
   35TMC2    O1  554   1.810   0.341  11.637  0.2766 -0.0033  0.1110
   35TMC2    O2  555   1.561   0.625  11.163 -0.0401 -0.4222  0.1656
   35TMC2    O5  556   1.526   0.621  11.383 -0.4202  0.4452 -0.1399
   35TMC2    H5  557   1.575   0.648  11.464  1.7749 -1.4666 -0.8464
   36MPD2     C  558   2.484   1.009  11.399  0.4794 -0.5677  0.4987
   36MPD2    C1  559   2.507   0.874  11.397 -0.3581 -0.2059  0.2313
   36MPD2    C2  560   2.399   0.786  11.376 -1.4988  0.1502  0.0096
   36MPD2    C3  561   2.278   0.839  11.340 -0.5057  0.5412  0.1695
   36MPD2    C4  562   2.255   0.974  11.325 -0.4409 -0.2254  0.0267
   36MPD2    C5  563   2.362   1.058  11.363  0.6392  0.0985  0.7784
   36MPD2     H  564   2.412   0.678  11.383  2.3635  0.7950  2.8324
   36MPD2    H1  565   2.160   1.017  11.297 -0.2892  0.5655  0.7275
   36MPD2    H2  566   2.571   1.072  11.411  0.0686 -0.2531  1.8307
   36MPD2    H3  567   2.359   1.167  11.359 -1.5201  0.0524  0.9318
   36MPD2     N  568   2.173   0.740  11.325 -0.4806  0.3093  0.1164
   36MPD2    H5  569   2.202   0.647  11.354 -0.2005  0.2538 -0.3535
   36MPD2    N1  570   2.638   0.824  11.439 -0.1404 -0.7139  0.7763
   36MPD2    H7  571   2.707   0.892  11.469 -0.2017 -0.0698 -0.5596
   37TMC2    C1  572   4.063   0.460  11.353 -0.3428  0.0155  0.3513
   37TMC2    C2  573   3.951   0.504  11.285  0.4215 -0.2945 -0.0235
   37TMC2    C3  574   3.967   0.546  11.157 -0.3782  0.1492 -0.0546
   37TMC2    C4  575   4.181   0.445  11.292  0.3192  0.1651  0.5964
   37TMC2    C5  576   4.194   0.492  11.164 -0.6585  0.7220  0.4870
   37TMC2    C6  577   4.089   0.544  11.093  0.8623  0.6059  0.0938
   37TMC2     C  578   4.065   0.432  11.491  0.0072  0.5388  0.0722
   37TMC2     O  579   4.158   0.370  11.537  0.3659  0.4547 -0.2147
   37TMC2     H  580   3.855   0.510  11.334  0.8629 -0.2472  0.8342
   37TMC2    H1  581   4.264   0.404  11.349 -0.9640 -2.9135  0.2826
   37TMC2    H2  582   4.093   0.566  10.987 -1.1296 -0.6231 -0.2380
   37TMC2    C7  583   4.322   0.501  11.103  0.3632 -0.0290  0.2823
   37TMC2    C8  584   3.857   0.616  11.096  0.3874  0.4828 -0.0964
   37TMC2    O1  585   4.344   0.592  11.021 -0.1430 -0.1068  0.1205
   37TMC2    O2  586   3.787   0.577  11.007 -0.3977  0.5837 -0.8528
   37TMC2    O5  587   3.897   0.743  11.108  0.0684 -0.0789  0.2150
   37TMC2    H5  588   3.977   0.742  11.164 -0.3779  1.6897  0.9013
   38MPD2     C  589   3.872   0.436  11.970 -0.0610 -0.8483  0.0906
   38MPD2    C1  590   3.998   0.409  11.918 -0.1671 -0.0142  0.6554
   38MPD2    C2  591   4.032   0.425  11.786 -0.2368 -0.0959 -0.5177
   38MPD2    C3  592   3.938   0.473  11.697 -0.2133 -0.2943  0.6447
   38MPD2    C4  593   3.812   0.510  11.750  0.2243  0.3584  0.1538
   38MPD2    C5  594   3.783   0.488  11.882  0.1974 -0.1928 -0.5312
   38MPD2     H  595   4.133   0.395  11.761 -0.8713 -1.1342 -1.8304
   38MPD2    H1  596   3.739   0.550  11.680 -2.6933 -0.5558  2.6722
   38MPD2    H2  597   3.842   0.427  12.073 -4.2461  2.8825 -0.8064
   38MPD2    H3  598   3.693   0.525  11.928 -0.3565 -3.0901  0.7445
   38MPD2     N  599   3.964   0.495  11.561 -0.0826  0.4166 -0.0264
   38MPD2    H5  600   3.900   0.552  11.507  2.9137 -0.1863 -4.1784
   38MPD2    N1  601   4.105   0.368  12.001 -0.1247  0.0692 -0.3689
   38MPD2    H7  602   4.192   0.359  11.949 -1.0811  0.7447 -2.1044
   39TMC2    C1  603   3.567   2.452   1.746  0.3425  0.4208  0.5220
   39TMC2    C2  604   3.550   2.420   1.879 -0.0752 -0.3666 -0.0073
   39TMC2    C3  605   3.667   2.423   1.962 -0.5980  0.8474 -0.5194
   39TMC2    C4  606   3.690   2.492   1.701 -0.0492  0.4685  0.3572
   39TMC2    C5  607   3.799   2.498   1.788 -0.3938 -0.2332 -0.4549
   39TMC2    C6  608   3.788   2.450   1.914  1.3629 -0.1590  0.0704
   39TMC2     C  609   3.454   2.456   1.665 -0.1185  0.2824  0.1938
   39TMC2     O  610   3.352   2.486   1.727  0.0848 -0.5747 -0.0125
   39TMC2     H  611   3.461   2.366   1.909 -2.6109  3.4435 -0.6063
   39TMC2    H1  612   3.694   2.528   1.598  0.7163 -1.3065 -0.2446
   39TMC2    H2  613   3.870   2.440   1.984 -0.1616  1.8606  2.1574
   39TMC2    C7  614   3.935   2.536   1.735  0.2268 -0.1016  0.6118
   39TMC2    C8  615   3.662   2.339   2.081  0.3588  0.0654 -0.5940
   39TMC2    O1  616   4.036   2.513   1.800 -0.1755 -0.1385  0.2556
   39TMC2    O2  617   3.748   2.260   2.110  0.1140  0.6710 -0.0578
   39TMC2    O5  618   3.533   2.344   2.126  0.0060 -0.3689 -0.3803
   39TMC2    H5  619   3.476   2.419   2.101 -0.4238 -1.0301 -1.3566
   40MPD2     C  620   3.459   2.335   1.312  0.5797 -0.2854  0.0931
   40MPD2    C1  621   3.400   2.387   1.428  0.2862 -0.9700  0.3681
   40MPD2    C2  622   3.269   2.422   1.420 -0.2552 -0.8535 -0.5213
   40MPD2    C3  623   3.199   2.420   1.300 -0.0442  0.8375  0.0948
   40MPD2    C4  624   3.258   2.363   1.195 -0.5474  0.4971 -0.5374
   40MPD2    C5  625   3.390   2.326   1.194 -1.0777 -0.3453  0.6792
   40MPD2     H  626   3.224   2.473   1.505  1.9213 -0.7939  0.5941
   40MPD2    H1  627   3.219   2.355   1.095 -1.9562 -1.6547  0.2000
   40MPD2    H2  628   3.560   2.296   1.319  1.4682  1.6834 -1.6744
   40MPD2    H3  629   3.430   2.276   1.107  0.4829  0.3933  0.9672
   40MPD2     N  630   3.067   2.467   1.283  0.3758  0.3196  0.2062
   40MPD2    H5  631   3.019   2.441   1.197  1.0587  0.0292 -0.0831
   40MPD2    N1  632   3.481   2.399   1.540  0.1360 -0.0745  0.3300
   40MPD2    H7  633   3.580   2.376   1.532 -0.4431 -1.4466 -2.8436
   41TMC2    C1  634   2.398   1.210  13.070  0.2931 -0.1214 -0.0561
   41TMC2    C2  635   2.321   1.303  13.130 -0.2117  0.6308  0.1764
   41TMC2    C3  636   2.236   1.372  13.046  0.3802 -0.2070  0.1416
   41TMC2    C4  637   2.399   1.195  12.934  0.1265 -0.0317  0.1601
   41TMC2    C5  638   2.315   1.271  12.857 -0.1354 -0.1042  0.4707
   41TMC2    C6  639   2.230   1.364  12.912  0.0012 -0.1716 -0.7460
   41TMC2     C  640   2.503   1.154  13.149 -0.4913  0.1063  0.3298
   41TMC2     O  641   2.606   1.121  13.088 -0.2672  0.5588  0.5455
   41TMC2     H  642   2.311   1.330  13.234 -1.1191  1.8670 -0.2397
   41TMC2    H1  643   2.460   1.118  12.887 -1.3259 -0.2146 -1.4491
   41TMC2    H2  644   2.174   1.439  12.857  1.9648 -0.4536 -3.0920
   41TMC2    C7  645   2.298   1.241  12.716 -0.3146 -0.0139  0.3680
   41TMC2    C8  646   2.164   1.485  13.105  0.2438 -0.2613 -0.1577
   41TMC2    O1  647   2.271   1.343  12.651 -0.1584 -0.4342 -0.9385
   41TMC2    O2  648   2.148   1.599  13.058  0.1483 -0.5224  0.1891
   41TMC2    O5  649   2.064   1.424  13.173 -0.2707 -0.2083 -0.4170
   41TMC2    H5  650   2.098   1.334  13.195  0.2233  0.2682  0.8321
   42MPD2     C  651   2.668   1.014  13.362 -0.1899 -0.5588  0.5735
   42MPD2    C1  652   2.540   1.067  13.379  0.0627  0.9573 -0.3325
   42MPD2    C2  653   2.485   1.081  13.508 -0.3092  0.4443  0.0134
   42MPD2    C3  654   2.553   1.012  13.614  0.1895 -0.3129  0.1092
   42MPD2    C4  655   2.674   0.944  13.588 -0.2077 -0.4236  0.1964
   42MPD2    C5  656   2.731   0.952  13.468  0.2412  0.1176 -0.6959
   42MPD2     H  657   2.396   1.140  13.527  1.7843  4.2325 -1.9174
   42MPD2    H1  658   2.717   0.877  13.662 -2.3730 -1.6145  0.3854
   42MPD2    H2  659   2.726   1.006  13.271 -2.6621 -0.1819 -1.0128
   42MPD2    H3  660   2.823   0.897  13.455  0.5428  0.2749  0.7930
   42MPD2     N  661   2.506   1.004  13.748 -0.3869 -0.6177 -0.3572
   42MPD2    H5  662   2.558   0.950  13.817  0.2857 -0.4165 -0.7045
   42MPD2    N1  663   2.474   1.138  13.278  0.7250 -0.1428  0.0331
   42MPD2    H7  664   2.392   1.179  13.323  1.0922 -0.1994  0.7658
   43TMC2    C1  665   3.485   3.518   1.227  0.1647 -0.2025  0.4147
   43TMC2    C2  666   3.411   3.407   1.270 -0.3700  0.1937 -0.2794
   43TMC2    C3  667   3.343   3.431   1.384 -0.1392 -0.1010  0.5332
   43TMC2    C4  668   3.494   3.641   1.293  0.0445  0.4144 -0.0149
   43TMC2    C5  669   3.417   3.649   1.405 -0.4941 -0.6106 -0.4899
   43TMC2    C6  670   3.353   3.544   1.458  0.2915 -0.6012 -0.8451
   43TMC2     C  671   3.554   3.495   1.106 -0.2634  0.7108  0.6090
   43TMC2     O  672   3.567   3.384   1.059  0.0389 -0.2206  0.3158
   43TMC2     H  673   3.413   3.308   1.225  0.5576  0.4363 -0.7781
   43TMC2    H1  674   3.549   3.728   1.260 -0.2412  0.2087 -1.0321
   43TMC2    H2  675   3.322   3.554   1.561  1.0571  0.1648 -0.6915
   43TMC2    C7  676   3.411   3.785   1.458  0.1188  0.1607  0.2146
   43TMC2    C8  677   3.265   3.320   1.437  0.2609 -1.0025  0.4216
   43TMC2    O1  678   3.502   3.855   1.427 -0.0462  0.3032  0.7311
   43TMC2    O2  679   3.281   3.204   1.396  0.3799 -0.2116  0.0630
   43TMC2    O5  680   3.167   3.369   1.521 -0.5964  0.0010  0.1561
   43TMC2    H5  681   3.160   3.467   1.522  0.8868  0.0999  0.3919
   44MPD2     C  682   3.824   3.664   0.700  0.3731 -0.0250 -0.1042
   44MPD2    C1  683   3.761   3.539   0.721 -0.6801  0.0223 -0.2110
   44MPD2    C2  684   3.696   3.509   0.844 -0.6427  0.6759 -0.3432
   44MPD2    C3  685   3.695   3.616   0.938  0.4453  0.5872 -0.0958
   44MPD2    C4  686   3.761   3.733   0.918 -0.5797  0.0626 -0.2634
   44MPD2    C5  687   3.830   3.751   0.805  0.3143 -0.6863 -0.4159
   44MPD2     H  688   3.643   3.415   0.851  1.8755 -0.7362 -0.0281
   44MPD2    H1  689   3.753   3.814   0.990  2.4195 -0.4426  0.6290
   44MPD2    H2  690   3.874   3.690   0.608 -1.1197 -1.9259 -1.4562
   44MPD2    H3  691   3.891   3.840   0.795  1.0528 -1.2573 -1.0408
   44MPD2     N  692   3.618   3.608   1.060  0.3470  0.4515  0.4141
   44MPD2    H5  693   3.613   3.693   1.115  1.4201  0.8152 -0.0643
   44MPD2    N1  694   3.764   3.439   0.616 -0.0465  0.0159  0.4733
   44MPD2    H7  695   3.710   3.355   0.635 -0.1968  0.1737  0.7503
   45TMC2    C1  696   3.654   1.173   9.484 -0.3089  0.0302 -0.5898
   45TMC2    C2  697   3.625   1.200   9.361  0.7189  0.4325  0.1689
   45TMC2    C3  698   3.637   1.329   9.320 -0.0162  0.6285 -0.2948
   45TMC2    C4  699   3.719   1.256   9.568 -0.5183  0.7358  0.0056
   45TMC2    C5  700   3.732   1.387   9.526 -0.4802 -0.7655 -1.0659
   45TMC2    C6  701   3.700   1.421   9.399  0.2790 -0.2900  0.8546
   45TMC2     C  702   3.597   1.057   9.557 -0.4024  0.2364 -0.8863
   45TMC2     O  703   3.641   1.031   9.665  0.0684  0.0177 -0.1050
   45TMC2     H  704   3.578   1.135   9.288  0.1464  0.3930  0.5700
   45TMC2    H1  705   3.737   1.237   9.673 -2.2230 -0.1391  0.1448
   45TMC2    H2  706   3.712   1.522   9.364  1.7955 -0.9450 -0.4787
   45TMC2    C7  707   3.790   1.488   9.619  0.2313 -0.6170  0.1432
   45TMC2    C8  708   3.605   1.383   9.185 -0.3523  0.4908  0.0556
   45TMC2    O1  709   3.760   1.491   9.735 -0.3955 -0.2755 -0.2148
   45TMC2    O2  710   3.696   1.442   9.125  0.4859  0.0672 -0.5254
   45TMC2    O5  711   3.518   1.303   9.125 -0.1526 -0.0413  0.0688
   45TMC2    H5  712   3.456   1.253   9.183 -1.0622 -0.3533 -1.1777
   46MPD2     C  713   3.459   0.808   9.643  0.4085  0.0626 -0.0562
   46MPD2    C1  714   3.415   0.893   9.544 -0.2425 -0.2469  0.2862
   46MPD2    C2  715   3.301   0.865   9.477  0.2454 -0.3622 -0.0716
   46MPD2    C3  716   3.218   0.764   9.516  0.2222 -0.4222 -0.0082
   46MPD2    C4  717   3.264   0.680   9.615  0.5699  0.1818 -0.3206
   46MPD2    C5  718   3.380   0.695   9.681 -0.2487 -0.3021  0.5700
   46MPD2     H  719   3.270   0.922   9.391 -1.4476 -2.3376 -0.8002
   46MPD2    H1  720   3.203   0.596   9.647  0.1348  0.5855 -0.1020
   46MPD2    H2  721   3.556   0.814   9.692  0.2548 -0.3053  0.2906
   46MPD2    H3  722   3.415   0.623   9.755  1.7339  1.3840  1.2587
   46MPD2     N  723   3.086   0.752   9.460 -0.5829 -0.5909 -0.2281
   46MPD2    H5  724   3.046   0.833   9.414  0.4367 -0.5253 -1.0194
   46MPD2    N1  725   3.487   1.005   9.495  0.0127  0.5835 -0.2185
   46MPD2    H7  726   3.454   1.044   9.408 -1.1393 -0.0286 -0.0645
   47TMC2    C1  727   0.822   1.992   9.645 -0.0140  0.5002 -0.2195
   47TMC2    C2  728   0.824   1.859   9.683 -0.3346 -0.5654  0.6935
   47TMC2    C3  729   0.721   1.824   9.762 -0.0268 -0.3104  0.0728
   47TMC2    C4  730   0.720   2.079   9.681 -0.0444 -0.2993 -0.5722
   47TMC2    C5  731   0.618   2.031   9.753  0.0869 -0.6352  0.2295
   47TMC2    C6  732   0.616   1.902   9.803 -0.2192 -0.7006 -0.0214
   47TMC2     C  733   0.946   2.049   9.594 -0.4115 -1.0791 -0.2189
   47TMC2     O  734   0.952   2.173   9.592  0.2576 -0.1498 -0.1435
   47TMC2     H  735   0.908   1.791   9.672 -0.0151 -0.2704  1.3086
   47TMC2    H1  736   0.729   2.183   9.653 -1.1996 -0.4904 -1.6565
   47TMC2    H2  737   0.531   1.860   9.856  0.4693  0.1047  1.7347
   47TMC2    C7  738   0.509   2.120   9.784 -0.2150  0.0100  0.3345
   47TMC2    C8  739   0.686   1.684   9.761 -0.3306  0.5733 -0.3883
   47TMC2    O1  740   0.461   2.103   9.895  0.2436  0.1936  0.2080
   47TMC2    O2  741   0.621   1.634   9.850  0.4107  0.0560 -0.2493
   47TMC2    O5  742   0.766   1.610   9.674  0.2199  0.2529 -0.3111
   47TMC2    H5  743   0.792   1.654   9.590 -0.8515  0.0524 -0.7368
   48MPD2     C  744   1.219   2.103   9.504 -0.4006  0.1012  0.2651
   48MPD2    C1  745   1.168   1.976   9.521 -0.9385  0.1206 -0.0896
   48MPD2    C2  746   1.248   1.866   9.492  0.1187  0.4917  0.2643
   48MPD2    C3  747   1.377   1.873   9.439  0.4220 -0.7538  0.7709
   48MPD2    C4  748   1.430   2.002   9.424  0.9802 -0.0818  0.6308
   48MPD2    C5  749   1.349   2.108   9.455  0.8121 -0.1231 -0.4453
   48MPD2     H  750   1.199   1.770   9.503  1.0118 -0.1716 -1.5403
   48MPD2    H1  751   1.531   2.017   9.388  1.6931  0.3741  2.8198
   48MPD2    H2  752   1.166   2.195   9.523 -1.6747 -0.1940 -1.8100
   48MPD2    H3  753   1.398   2.204   9.442  0.8792  0.0820  1.3788
   48MPD2     N  754   1.449   1.760   9.406 -0.2701  0.1245  0.0294
   48MPD2    H5  755   1.390   1.680   9.428 -1.6461  0.9123 -0.7729
   48MPD2    N1  756   1.041   1.956   9.574  0.0665 -0.2625 -0.2230
   48MPD2    H7  757   1.024   1.857   9.589 -2.5115  0.3528  0.8065
   49TMC2    C1  758   0.459   3.720   9.862 -0.6656  0.0624 -0.0874
   49TMC2    C2  759   0.440   3.595   9.809  0.6139 -0.5977  0.1390
   49TMC2    C3  760   0.530   3.545   9.721 -0.6519 -0.3169  0.3243
   49TMC2    C4  761   0.561   3.796   9.806  0.2247 -0.0654  0.4415
   49TMC2    C5  762   0.635   3.747   9.712  0.0875 -0.2830  0.1023
   49TMC2    C6  763   0.623   3.618   9.666  0.1302 -0.3014 -0.2734
   49TMC2     C  764   0.403   3.753   9.989  0.6957 -0.5552 -0.2042
   49TMC2     O  765   0.486   3.809  10.059  0.3966  0.2677  0.2789
   49TMC2     H  766   0.368   3.530   9.857  3.8744 -3.9948  0.4847
   49TMC2    H1  767   0.573   3.895   9.849 -1.1421 -0.3398  1.4798
   49TMC2    H2  768   0.699   3.571   9.606 -0.2685  1.6993 -2.3533
   49TMC2    C7  769   0.763   3.809   9.688 -0.2608  0.0946  0.1502
   49TMC2    C8  770   0.519   3.404   9.686  0.1118 -0.8032 -0.5656
   49TMC2    O1  771   0.846   3.728   9.653  0.4166  0.5662 -0.6295
   49TMC2    O2  772   0.609   3.322   9.655  0.6469  0.3732  0.1351
   49TMC2    O5  773   0.394   3.379   9.660  0.3873  0.2126 -0.1025
   49TMC2    H5  774   0.330   3.454   9.658  1.5671  1.2171 -0.4627
   50MPD2     C  775   0.248   3.844  10.218  0.7877  0.2806 -0.3402
   50MPD2    C1  776   0.217   3.735  10.144 -0.4378  0.1290  0.4809
   50MPD2    C2  777   0.109   3.653  10.181  0.0176  0.0817 -0.6274
   50MPD2    C3  778   0.027   3.693  10.283  0.8277  0.1514  0.3679
   50MPD2    C4  779   0.055   3.806  10.348  0.3258  0.2805  0.0508
   50MPD2    C5  780   0.159   3.886  10.311 -0.5227  0.0263 -0.8281
   50MPD2     H  781   0.092   3.563  10.124 -0.8273 -0.1649  0.0160
   50MPD2    H1  782   4.724   3.844  10.425 -1.2706  0.7789 -1.5889
   50MPD2    H2  783   0.334   3.907  10.200 -0.2576  1.4688 -1.1484
   50MPD2    H3  784   0.176   3.979  10.363  0.5624 -0.8367  0.3519
   50MPD2     N  785   4.651   3.618  10.330 -0.2015 -0.8210  0.3465
   50MPD2    H5  786   4.608   3.657  10.414  0.0790  0.1072  0.0576
   50MPD2    N1  787   0.286   3.697  10.026 -0.3281  0.2215  0.0976
   50MPD2    H7  788   0.247   3.619   9.973 -0.1358  0.2104 -0.0260
   51TMC2    C1  789   0.385   2.165   1.664 -0.3897  0.7369 -0.2898
   51TMC2    C2  790   0.289   2.072   1.693  0.2142 -0.2735  0.3274
   51TMC2    C3  791   0.162   2.098   1.641  0.2053 -0.7641 -0.2323
   51TMC2    C4  792   0.364   2.283   1.598 -0.0358  0.2151  0.0658
   51TMC2    C5  793   0.252   2.283   1.525  0.4098 -0.2705  0.8021
   51TMC2    C6  794   0.146   2.198   1.550  0.0916 -0.5067  0.0970
   51TMC2     C  795   0.524   2.133   1.677  0.7645 -0.1064 -0.6140
   51TMC2     O  796   0.598   2.183   1.593 -0.0115  0.4063 -0.0988
   51TMC2     H  797   0.306   1.972   1.731  3.1057 -0.9854 -2.9377
   51TMC2    H1  798   0.435   2.365   1.597  0.3003 -0.0857 -1.2673
   51TMC2    H2  799   0.052   2.210   1.498 -0.5694  1.0759  1.6606
   51TMC2    C7  800   0.215   2.413   1.475  0.4916  0.2760 -0.0630
   51TMC2    C8  801   0.089   1.976   1.616 -0.2569 -0.5408 -0.1552
   51TMC2    O1  802   0.098   2.423   1.447  0.5892 -0.0876  0.0655
   51TMC2    O2  803   0.134   1.869   1.581  0.1511 -0.2281 -0.6265
   51TMC2    O5  804   4.694   2.001   1.628  0.0324 -0.1840  0.6278
   51TMC2    H5  805   4.668   2.090   1.661 -0.2678 -0.2882  0.6729
   52MPD2     C  806   0.917   1.861   1.874 -0.2912  0.2398 -0.4001
   52MPD2    C1  807   0.904   1.936   1.758 -0.0153 -0.1090 -0.5250
   52MPD2    C2  808   0.786   1.991   1.721 -0.1972 -0.8011  0.7010
   52MPD2    C3  809   0.675   1.981   1.806  0.0073 -0.0036  0.6618
   52MPD2    C4  810   0.687   1.903   1.923 -0.0486  0.0924  0.2933
   52MPD2    C5  811   0.806   1.845   1.947 -1.1081  0.2619  0.3122
   52MPD2     H  812   0.775   2.052   1.632  2.4492  2.1525  2.3894
   52MPD2    H1  813   0.600   1.889   1.987 -0.8574  2.0558 -0.3797
   52MPD2    H2  814   1.008   1.805   1.894  0.4301  1.0350 -1.4901
   52MPD2    H3  815   0.818   1.772   2.026  2.3895  0.0696 -0.3755
   52MPD2     N  816   0.552   2.048   1.781  0.1314  0.5421  0.0224
   52MPD2    H5  817   0.473   2.035   1.844 -1.7005 -1.9241 -2.7951
   52MPD2    N1  818   1.017   1.966   1.676 -0.6946  0.1410 -0.3775
   52MPD2    H7  819   1.003   2.013   1.587 -0.7178  0.2807 -0.3007
   53TMC2    C1  820   0.246   0.760  11.038  0.0693 -0.0459 -0.5405
   53TMC2    C2  821   0.151   0.848  11.001 -0.2836 -0.4538 -0.9694
   53TMC2    C3  822   0.138   0.966  11.079  0.4748  0.0935 -0.2860
   53TMC2    C4  823   0.337   0.782  11.140 -0.0835 -0.0726 -0.6636
   53TMC2    C5  824   0.316   0.895  11.221 -0.6167 -0.1841 -0.1821
   53TMC2    C6  825   0.213   0.988  11.193  1.1264  0.1574  0.5405
   53TMC2     C  826   0.222   0.617  11.013 -0.3970  0.1992  0.0523
   53TMC2     O  827   0.311   0.538  11.033  0.0810 -0.3558 -0.3213
   53TMC2     H  828   0.098   0.846  10.906  0.6369  3.4207 -1.5412
   53TMC2    H1  829   0.406   0.703  11.168  0.5647  0.2659 -1.3170
   53TMC2    H2  830   0.214   1.084  11.243  2.0845  0.7657 -0.6653
   53TMC2    C7  831   0.351   0.891  11.357 -0.0920 -0.0446 -0.3206
   53TMC2    C8  832   0.089   1.073  11.001 -0.0682  0.0975  1.0158
   53TMC2    O1  833   0.307   0.985  11.425 -0.0537 -0.1220 -0.5441
   53TMC2    O2  834   0.090   1.083  10.881 -0.2448  0.2748 -0.4354
   53TMC2    O5  835   0.006   1.139  11.084 -0.1950  0.3498 -0.0591
   53TMC2    H5  836   4.733   1.105  11.175 -0.4311 -0.9333 -0.5578
   54MPD2     C  837   0.072   0.362  11.008  0.1850  0.2586 -0.0198
   54MPD2    C1  838   0.014   0.486  11.022  0.5688  0.0733 -0.5052
   54MPD2    C2  839   4.615   0.494  11.046 -0.9104 -0.1711 -0.1565
   54MPD2    C3  840   4.542   0.381  11.077 -0.1696 -0.1470  0.5295
   54MPD2    C4  841   4.601   0.260  11.089 -0.0765  0.4477 -0.6958
   54MPD2    C5  842   0.002   0.252  11.053  0.1575  0.6952  0.9367
   54MPD2     H  843   4.566   0.588  11.066  0.9680  0.6477  0.5695
   54MPD2    H1  844   4.553   0.170  11.125 -0.5178  0.8785 -0.2134
   54MPD2    H2  845   0.177   0.344  10.987 -0.5148 -3.1251 -0.5878
   54MPD2    H3  846   0.051   0.155  11.058  1.0979  1.1441  0.3078
   54MPD2     N  847   4.407   0.397  11.129 -0.5289 -0.0430  0.2998
   54MPD2    H5  848   4.368   0.318  11.180  0.3749 -1.7324 -1.6068
   54MPD2    N1  849   0.087   0.603  11.009 -0.5264  0.4241 -0.2755
   54MPD2    H7  850   0.031   0.688  11.015 -0.7463  0.3666 -1.4535
   55TMC2    C1  851   1.645   3.737  17.364 -0.5748  0.1112  0.1075
   55TMC2    C2  852   1.601   3.669  17.254 -0.3710  0.5514  0.0084
   55TMC2    C3  853   1.617   3.535  17.251  0.2328  0.3414 -0.5912
   55TMC2    C4  854   1.685   3.664  17.475  0.5983 -0.3065  0.7604
   55TMC2    C5  855   1.678   3.528  17.478  0.1247 -0.3400 -0.2249
   55TMC2    C6  856   1.645   3.463  17.365  0.6381  0.0119 -0.2867
   55TMC2     C  857   1.584   3.857  17.413  0.2128 -0.1985 -0.8494
   55TMC2     O  858   1.569   3.882  17.530 -0.0981  0.2678 -0.2341
   55TMC2     H  859   1.556   3.716  17.167 -1.1740  0.2741  0.2744
   55TMC2    H1  860   1.715   3.714  17.567  1.6219  0.7267 -0.1319
   55TMC2    H2  861   1.619   3.358  17.371  0.2565  0.2187  1.4874
   55TMC2    C7  862   1.693   3.456  17.599 -0.8083  0.7615  0.4975
   55TMC2    C8  863   1.565   3.471  17.137  0.3647  0.5434 -0.5883
   55TMC2    O1  864   1.743   3.347  17.588  0.0495  0.1414  0.1293
   55TMC2    O2  865   1.523   3.536  17.045  0.2223  0.1324 -0.9834
   55TMC2    O5  866   1.606   3.346  17.142  0.7007  0.6263  0.0236
   55TMC2    H5  867   1.660   3.319  17.219  1.0533  1.7415  0.1718
   56MPD2     C  868   1.510   4.149  17.205 -0.0307 -0.0238 -0.0421
   56MPD2    C1  869   1.512   4.079  17.323 -0.2111  0.0021  0.4397
   56MPD2    C2  870   1.446   4.128  17.433 -0.5955  0.4607 -0.3167
   56MPD2    C3  871   1.380   4.248  17.422 -0.8577 -0.2478 -1.2170
   56MPD2    C4  872   1.390   4.325  17.306 -0.4737 -0.4116  0.6367
   56MPD2    C5  873   1.452   4.271  17.200 -0.8636 -0.3001  0.4694
   56MPD2     H  874   1.447   4.076  17.528  2.7912  0.8156 -0.1334
   56MPD2    H1  875   1.356   4.427  17.304 -0.3813 -0.3913  0.1453
   56MPD2    H2  876   1.570   4.117  17.120 -0.5700 -0.1346 -0.3874
   56MPD2    H3  877   1.457   4.330  17.109 -0.5258 -0.9921  0.0414
   56MPD2     N  878   1.311   4.290  17.538 -0.0735 -0.2566  0.5172
   56MPD2    H5  879   1.310   4.231  17.621 -0.4690  0.7088  1.2041
   56MPD2    N1  880   1.578   3.950  17.314  0.5647 -0.3910 -0.5021
   56MPD2    H7  881   1.612   3.923  17.222 -0.6809 -1.4787 -0.6514
   57TMC2    C1  882   0.571   4.615  13.500  0.8364 -0.2874 -0.3545
   57TMC2    C2  883   0.570   4.508  13.589  0.4644 -0.0133  0.5018
   57TMC2    C3  884   0.612   4.393  13.532 -0.5482 -0.4963  0.2909
   57TMC2    C4  885   0.621   4.613  13.372  0.3994 -0.0484 -0.4700
   57TMC2    C5  886   0.664   4.488  13.327 -0.0447  0.1342 -0.0310
   57TMC2    C6  887   0.660   4.375  13.407 -0.2342 -0.4281 -0.4007
   57TMC2     C  888   0.481   4.722  13.538 -0.2447 -0.5489 -0.8921
   57TMC2     O  889   0.424   0.049  13.447  0.4136 -0.1911  0.6086
   57TMC2     H  890   0.504   4.506  13.675 -1.6348  3.0598 -0.9995
   57TMC2    H1  891   0.625   4.702  13.311  0.4112 -0.5139 -1.1561
   57TMC2    H2  892   0.684   4.275  13.375 -0.1310 -0.4114 -0.3761
   57TMC2    C7  893   0.706   4.469  13.188  0.1989 -0.1088  0.1810
   57TMC2    C8  894   0.661   4.291  13.628  0.0942 -0.2150 -0.3277
   57TMC2    O1  895   0.645   4.536  13.103 -0.0116 -0.4234 -0.1000
   57TMC2    O2  896   0.671   4.177  13.591  0.1478 -0.1176 -0.3913
   57TMC2    O5  897   0.658   4.346  13.754  0.3788 -0.8347  1.0139
   57TMC2    H5  898   0.646   4.443  13.743 -0.0892 -0.8891  1.0492
   58MPD2     C  899   0.283   0.304  13.878  0.6526  0.5744  0.9390
   58MPD2    C1  900   0.251   0.291  13.745  0.3857 -1.3584 -0.0180
   58MPD2    C2  901   0.321   0.195  13.673  0.4954  0.0356  0.3864
   58MPD2    C3  902   0.409   0.114  13.734  1.2270 -0.2660 -0.0992
   58MPD2    C4  903   0.450   0.135  13.867  0.5941 -0.2819  0.3294
   58MPD2    C5  904   0.386   0.236  13.930 -0.5805 -0.1556  0.7016
   58MPD2     H  905   0.294   0.171  13.571  0.2319  0.6252  0.3228
   58MPD2    H1  906   0.522   0.076  13.922  1.2148  0.8531  0.7209
   58MPD2    H2  907   0.237   0.368  13.952  2.4339  0.2810  2.3194
   58MPD2    H3  908   0.414   0.257  14.032  0.8123  1.6470 -0.0628
   58MPD2     N  909   0.488   0.015  13.673 -0.3790  0.6968 -0.6806
   58MPD2    H5  910   0.555   4.702  13.732 -1.7807  0.1708  0.4783
   58MPD2    N1  911   0.146   0.355  13.678  0.2920 -0.1157 -0.0125
   58MPD2    H7  912   0.143   0.337  13.578 -0.0843 -0.2925  0.0333
   59TMC2    C1  913   3.389   0.389  12.452 -0.3066  0.4011  0.3510
   59TMC2    C2  914   3.315   0.275  12.476  1.1490  0.2014 -0.3203
   59TMC2    C3  915   3.271   0.204  12.361  0.2669 -0.1446 -0.0724
   59TMC2    C4  916   3.419   0.435  12.335 -0.1299 -0.1718 -0.2033
   59TMC2    C5  917   3.386   0.354  12.223  0.3859 -0.3226  0.4281
   59TMC2    C6  918   3.324   0.237  12.236  0.0231 -0.9125 -0.1012
   59TMC2     C  919   3.439   0.469  12.565  0.2244  0.1851 -0.3834
   59TMC2     O  920   3.478   0.585  12.554  0.9436  0.2664  0.5284
   59TMC2     H  921   3.256   0.262  12.566  0.7755  1.0635 -0.4364
   59TMC2    H1  922   3.467   0.531  12.322  1.0282 -0.7024  0.1435
   59TMC2    H2  923   3.287   0.172  12.157  0.5226 -2.6822  1.1327
   59TMC2    C7  924   3.430   0.385  12.087  0.0422  1.0886 -0.5108
   59TMC2    C8  925   3.190   0.077  12.369  0.2892 -0.1534 -0.8107
   59TMC2    O1  926   3.538   0.444  12.073  0.3985  0.4618 -0.0090
   59TMC2    O2  927   3.123   0.024  12.283  0.7002 -0.3209  0.1522
   59TMC2    O5  928   3.229   0.020  12.483  0.4446  0.4506  0.5425
   59TMC2    H5  929   3.297   0.071  12.532  2.7509 -0.2912 -1.8837
   60MPD2     C  930   3.514   0.557  12.849  0.0212 -0.2307 -0.1995
   60MPD2    C1  931   3.483   0.432  12.802  0.6534  0.5874  0.4558
   60MPD2    C2  932   3.482   0.329  12.894 -0.4771  0.1770 -0.1089
   60MPD2    C3  933   3.496   0.354  13.032 -0.5255  0.4596  0.5041
   60MPD2    C4  934   3.524   0.483  13.067 -0.6843  0.0939  0.4972
   60MPD2    C5  935   3.535   0.588  12.980  0.5149  0.4585 -0.0095
   60MPD2     H  936   3.475   0.229  12.853  0.6228  0.7771 -1.7658
   60MPD2    H1  937   3.537   0.507  13.172 -2.7626 -1.7966  1.1917
   60MPD2    H2  938   3.530   0.630  12.771 -0.2542  0.1206  0.0759
   60MPD2    H3  939   3.561   0.687  13.015 -1.4205  0.9654  0.0008
   60MPD2     N  940   3.493   0.258  13.135  0.4311  0.0756 -0.2183
   60MPD2    H5  941   3.518   0.295  13.227  1.6340 -0.8410 -0.1755
   60MPD2    N1  942   3.446   0.396  12.672  0.2966  0.5824 -0.0874
   60MPD2    H7  943   3.425   0.298  12.656  2.9105  0.3957 -2.4679
   61TMC2    C1  944   1.781   1.787  15.899  0.1764 -0.2003  0.0531
   61TMC2    C2  945   1.775   1.799  16.034  0.2025 -0.4296  0.0457
   61TMC2    C3  946   1.768   1.927  16.088 -0.4821  0.3639 -0.0704
   61TMC2    C4  947   1.793   1.898  15.819  0.8105 -0.2001 -0.4195
   61TMC2    C5  948   1.788   2.027  15.878 -0.2768 -0.1344 -0.4392
   61TMC2    C6  949   1.777   2.041  16.011  0.3442 -0.0069  0.0824
   61TMC2     C  950   1.793   1.650  15.850 -0.2469 -0.2824  0.1253
   61TMC2     O  951   1.826   1.562  15.926 -0.0975  0.5211  0.1360
   61TMC2     H  952   1.757   1.714  16.099 -1.7335  0.6286  0.8688
   61TMC2    H1  953   1.794   1.899  15.711 -1.8332 -0.1551 -0.4478
   61TMC2    H2  954   1.765   2.137  16.059  0.9028 -0.2401  0.6834
   61TMC2    C7  955   1.833   2.140  15.799 -0.9919 -0.0906  0.0235
   61TMC2    C8  956   1.722   1.932  16.222  0.5949 -0.3335  0.9613
   61TMC2    O1  957   1.792   2.151  15.680  0.1228  0.0681 -0.0618
   61TMC2    O2  958   1.754   1.848  16.309 -0.3151  0.0814  0.4281
   61TMC2    O5  959   1.647   2.045  16.250  0.1473 -0.1593 -0.0557
   61TMC2    H5  960   1.599   2.097  16.182  1.5198  1.2997  0.1010
   62MPD2     C  961   1.798   1.396  15.691 -0.1012 -0.2808 -0.3360
   62MPD2    C1  962   1.773   1.518  15.640 -0.3018  0.3242 -0.4922
   62MPD2    C2  963   1.766   1.528  15.508  0.4556 -0.0905 -0.0638
   62MPD2    C3  964   1.773   1.423  15.419  0.2345 -0.5517 -0.2320
   62MPD2    C4  965   1.791   1.294  15.471  0.2256 -0.3826  0.1652
   62MPD2    C5  966   1.804   1.292  15.606  0.1648 -0.4484 -0.1735
   62MPD2     H  967   1.769   1.633  15.482  0.0208 -0.1450 -0.3244
   62MPD2    H1  968   1.785   1.212  15.400  0.4603 -2.3478  2.4359
   62MPD2    H2  969   1.819   1.385  15.797 -2.3305  0.0842  0.1331
   62MPD2    H3  970   1.838   1.200  15.652  0.5338  0.5901  1.6244
   62MPD2     N  971   1.770   1.436  15.276  0.3812 -0.4672 -0.3198
   62MPD2    H5  972   1.796   1.358  15.217  0.9968 -0.2803 -0.3037
   62MPD2    N1  973   1.776   1.635  15.714 -0.2712 -0.7690 -0.1974
   62MPD2    H7  974   1.742   1.719  15.668 -3.0639 -0.6374  2.0722
   63TMC2    C1  975   1.655   1.506  10.930 -0.1738  0.2688  0.8198
   63TMC2    C2  976   1.751   1.555  11.015  0.2264  0.0424 -0.3076
   63TMC2    C3  977   1.872   1.582  10.966  0.0965  0.1272  0.1943
   63TMC2    C4  978   1.666   1.501  10.794  0.3369  1.1250 -0.6244
   63TMC2    C5  979   1.793   1.531  10.751  0.5823  0.1825 -0.1710
   63TMC2    C6  980   1.899   1.569  10.832 -0.2893 -0.9603  0.0868
   63TMC2     C  981   1.526   1.479  10.993  0.7700  0.0125 -0.0871
   63TMC2     O  982   1.508   1.554  11.087  0.1952 -0.1888  0.8327
   63TMC2     H  983   1.725   1.563  11.119  0.8323  1.7742 -0.2877
   63TMC2    H1  984   1.584   1.477  10.727  1.0347 -1.2514 -0.6584
   63TMC2    H2  985   2.001   1.568  10.796 -0.2117 -1.1243  0.3098
   63TMC2    C7  986   1.807   1.549  10.607 -0.1071  0.2541 -0.2643
   63TMC2    C8  987   1.970   1.601  11.064 -0.0616  0.4042  0.1072
   63TMC2    O1  988   1.724   1.491  10.541 -0.1150  0.0486 -0.1649
   63TMC2    O2  989   1.950   1.579  11.179 -0.1877  0.3954  0.0827
   63TMC2    O5  990   2.055   1.694  11.016 -0.2990  0.1191  0.5019
   63TMC2    H5  991   2.048   1.716  10.921 -2.9728 -1.7025  0.2807
   64MPD2     C  992   1.054   1.278  10.991  0.6827 -0.3655  0.7262
   64MPD2    C1  993   1.135   1.203  10.902 -0.7704  0.2920  0.0822
   64MPD2    C2  994   1.270   1.241  10.892 -0.8371 -0.3605 -0.1450
   64MPD2    C3  995   1.312   1.357  10.957 -0.6421 -0.2647  0.1036
   64MPD2    C4  996   1.229   1.428  11.036 -0.1343 -0.3424  0.4064
   64MPD2    C5  997   1.098   1.396  11.052 -0.4258 -0.6800 -0.1184
   64MPD2     H  998   1.341   1.185  10.832  0.1294  0.0204  0.6369
   64MPD2    H1  999   1.267   1.518  11.083  0.3812  0.6789 -1.9681
   64MPD2    H2 1000   0.953   1.250  11.017  0.6144 -0.0101  0.8452
   64MPD2    H3 1001   1.039   1.461  11.115  1.1094 -1.0405  1.6818
   64MPD2     N 1002   1.439   1.397  10.921 -0.5170 -1.2298 -0.6359
   64MPD2    H5 1003   1.480   1.335  10.852  1.4696 -0.5579 -0.0887
   64MPD2    N1 1004   1.105   1.074  10.847  0.2180 -0.0609  0.1330
   64MPD2    H7 1005   1.177   1.031  10.790 -0.7575 -3.5833  1.5575
   65TMC2    C1 1006   3.282   1.313  15.313  0.1209 -0.1047 -0.2160
   65TMC2    C2 1007   3.243   1.253  15.202 -0.3478 -0.1712 -0.5386
   65TMC2    C3 1008   3.210   1.331  15.097  0.1032 -0.0329  0.2899
   65TMC2    C4 1009   3.297   1.444  15.327  0.6183 -0.3484 -0.0425
   65TMC2    C5 1010   3.267   1.523  15.222 -0.8688 -0.0862 -0.7422
   65TMC2    C6 1011   3.221   1.475  15.106  0.1720  0.3377  0.3152
   65TMC2     C 1012   3.299   1.238  15.437  0.8318  0.2695  0.7391
   65TMC2     O 1013   3.343   1.290  15.537 -0.1960  0.6825  0.4056
   65TMC2     H 1014   3.267   1.149  15.184 -0.0720  0.1369 -1.9032
   65TMC2    H1 1015   3.322   1.484  15.425 -0.1496  2.6249 -1.0880
   65TMC2    H2 1016   3.186   1.550  15.036 -0.9107 -2.5328 -2.2108
   65TMC2    C7 1017   3.199   1.640  15.263 -0.4978 -0.4010 -0.5025
   65TMC2    C8 1018   3.124   1.264  14.993  0.9297  1.5390  0.5125
   65TMC2    O1 1019   3.190   1.732  15.181 -0.1188 -0.1278  0.5689
   65TMC2    O2 1020   3.125   1.144  14.978  0.1214  0.6929 -0.4919
   65TMC2    O5 1021   3.028   1.347  14.946 -0.9286 -0.4969  0.2901
   65TMC2    H5 1022   3.026   1.443  14.962 -0.4970 -0.5278  0.5263
   66MPD2     C 1023   3.239   1.037  15.655 -0.3911  0.3832 -0.7002
   66MPD2    C1 1024   3.245   1.003  15.517  0.7172 -0.6373 -0.1447
   66MPD2    C2 1025   3.226   0.870  15.476 -0.0886  0.3205 -0.2954
   66MPD2    C3 1026   3.195   0.776  15.574 -0.6890 -0.2137 -0.6089
   66MPD2    C4 1027   3.193   0.807  15.710  0.1263 -0.3484 -1.1700
   66MPD2    C5 1028   3.218   0.935  15.742 -0.1570 -0.0248  0.9177
   66MPD2     H 1029   3.233   0.842  15.371 -0.5406 -0.0433 -0.2325
   66MPD2    H1 1030   3.169   0.726  15.778 -0.1357  0.8716  0.1794
   66MPD2    H2 1031   3.249   1.136  15.697 -0.2264 -0.2780  0.8143
   66MPD2    H3 1032   3.230   0.942  15.850 -3.3509 -1.9070  1.4073
   66MPD2     N 1033   3.169   0.638  15.538 -0.2685 -0.1658 -0.0239
   66MPD2    H5 1034   3.151   0.577  15.618 -0.4351  0.6324  0.5420
   66MPD2    N1 1035   3.265   1.102  15.421 -0.1062  0.0115 -0.4335
   66MPD2    H7 1036   3.245   1.069  15.327 -3.3567 -1.2856  0.7241
   67TMC2    C1 1037   3.347   4.609  14.065  0.1429 -1.1527  0.3314
   67TMC2    C2 1038   3.223   4.567  14.124 -0.5894 -0.6407  0.7799
   67TMC2    C3 1039   3.214   4.556  14.256  0.2557 -0.2238  0.1109
   67TMC2    C4 1040   3.450   4.637  14.146  0.7710  0.1165  0.0863
   67TMC2    C5 1041   3.430   4.631  14.282 -0.1894  0.7518 -0.8299
   67TMC2    C6 1042   3.314   4.598  14.335  0.6143  0.1331  0.0061
   67TMC2     C 1043   3.349   4.652  13.924 -0.2133  1.0693  0.2320
   67TMC2     O 1044   3.455   4.622  13.863 -0.7416 -0.7676 -0.3784
   67TMC2     H 1045   3.156   4.524  14.050 -0.6077 -0.0039  0.4173
   67TMC2    H1 1046   3.537   4.684  14.102  2.1048 -1.2618  1.2960
   67TMC2    H2 1047   3.299   4.588  14.442  0.4680  1.7308  0.1369
   67TMC2    C7 1048   3.541   4.673  14.365  0.1653 -0.5714 -0.2384
   67TMC2    C8 1049   3.100   4.492  14.316  0.1774 -0.4061  0.4688
   67TMC2    O1 1050   3.652   4.642  14.325 -0.0742 -0.3171 -0.2355
   67TMC2    O2 1051   3.064   4.513  14.431 -0.3249 -0.5855  0.7367
   67TMC2    O5 1052   3.091   4.369  14.265 -0.5061  0.3669 -1.2385
   67TMC2    H5 1053   3.155   4.345  14.195 -0.0041 -1.0585 -0.2925
   68MPD2     C 1054   3.245   4.690  13.643 -0.3879 -0.5379  0.4741
   68MPD2    C1 1055   3.179   4.723  13.762  0.5610  0.4967  0.1449
   68MPD2    C2 1056   3.067   0.061  13.743  0.6658 -0.3816  0.2536
   68MPD2    C3 1057   3.008   0.106  13.626  0.5862 -0.2095 -0.2682
   68MPD2    C4 1058   3.078   0.075  13.510 -0.6128 -0.2606 -0.6538
   68MPD2    C5 1059   3.183   4.730  13.527  0.0499 -0.6102 -0.2033
   68MPD2     H 1060   3.013   0.079  13.835  0.4688 -2.0787  0.4676
   68MPD2    H1 1061   3.040   0.117  13.418 -1.1567  0.1049 -0.2624
   68MPD2    H2 1062   3.340   4.639  13.631  1.3587  2.7664  0.1703
   68MPD2    H3 1063   3.230   4.708  13.432  1.2398  0.7331  0.0745
   68MPD2     N 1064   2.894   0.195  13.626 -0.2626  0.4455  0.5398
   68MPD2    H5 1065   2.835   0.205  13.545 -0.9154  1.1165  1.0986
   68MPD2    N1 1066   3.229   4.701  13.889 -0.0965  0.4602 -0.0585
   68MPD2    H7 1067   3.162   4.718  13.963  1.2006  0.0050  1.2114
   69TMC2    C1 1068   4.548   1.161  12.560 -0.3558  0.2145  0.6532
   69TMC2    C2 1069   4.431   1.179  12.493  0.0968 -0.0128 -0.4405
   69TMC2    C3 1070   4.433   1.203  12.358  0.3845 -0.2251 -0.5885
   69TMC2    C4 1071   4.671   1.180  12.494  0.1686 -0.5404 -0.0716
   69TMC2    C5 1072   4.674   1.203  12.355 -0.1292  0.2635 -0.1451
   69TMC2    C6 1073   4.553   1.212  12.288 -0.1693  0.2911  0.7417
   69TMC2     C 1074   4.544   1.100  12.696 -0.0274  0.2310  0.1484
   69TMC2     O 1075   4.468   1.150  12.776  0.1945  0.0241  0.3480
   69TMC2     H 1076   4.334   1.185  12.540  0.7532  0.8138  0.8098
   69TMC2    H1 1077   0.023   1.184  12.557 -1.2578 -2.2719  2.0439
   69TMC2    H2 1078   4.552   1.213  12.180 -1.2114  1.3362  0.7621
   69TMC2    C7 1079   0.054   1.175  12.278  0.5801 -0.8867  0.0927
   69TMC2    C8 1080   4.307   1.242  12.304 -0.2307  0.2028  0.0970
   69TMC2    O1 1081   0.045   1.202  12.160 -0.3315  0.1765  0.1246
   69TMC2    O2 1082   4.199   1.244  12.361  0.0918 -0.1992  0.0541
   69TMC2    O5 1083   4.330   1.309  12.193  0.5494  0.3147  0.0630
   69TMC2    H5 1084   4.420   1.348  12.184  0.5654  0.3147  0.2315
   70MPD2     C 1085   0.102   0.951  12.819  0.3251  0.5991  0.2213
   70MPD2    C1 1086   4.712   0.990  12.834 -0.0471  0.3243  0.1662
   70MPD2    C2 1087   4.657   1.005  12.958 -0.6894 -0.0589 -0.3949
   70MPD2    C3 1088   0.001   0.991  13.065 -0.2478  0.5635 -0.4315
   70MPD2    C4 1089   0.130   0.943  13.044  0.1979  0.8951  0.2945
   70MPD2    C5 1090   0.179   0.919  12.923 -0.7476 -0.3145  0.4609
   70MPD2     H 1091   4.553   1.032  12.970 -0.8226 -0.3744 -0.8321
   70MPD2    H1 1092   0.205   0.923  13.119 -1.6040  0.5368  1.9866
   70MPD2    H2 1093   0.138   0.939  12.717 -1.4661 -1.0076 -0.2174
   70MPD2    H3 1094   0.284   0.903  12.902 -0.6101  1.0080  0.1295
   70MPD2     N 1095   4.699   1.019  13.200 -0.1144 -0.4869  0.4637
   70MPD2    H5 1096   0.023   0.995  13.278  1.8265 -1.5383 -1.3471
   70MPD2    N1 1097   4.650   1.021  12.713  0.5812  0.3190  0.7881
   70MPD2    H7 1098   4.698   0.998  12.627 -1.7907 -1.5011 -0.0328
   71TMC2    C1 1099   3.018   2.214   1.585 -0.0698  0.5020  0.0360
   71TMC2    C2 1100   3.120   2.239   1.679  0.0361  0.9767 -0.3078
   71TMC2    C3 1101   3.094   2.294   1.798 -0.5368  0.2303 -0.9693
   71TMC2    C4 1102   2.889   2.249   1.628 -0.3388  0.0195 -0.1478
   71TMC2    C5 1103   2.869   2.299   1.754  0.2097  0.1827  0.1258
   71TMC2    C6 1104   2.968   2.311   1.842  0.0241 -0.3333 -0.2416
   71TMC2     C 1105   3.045   2.140   1.460 -0.2456  0.4176 -0.0162
   71TMC2     O 1106   2.939   2.108   1.404  0.3812 -0.6758  0.2845
   71TMC2     H 1107   3.225   2.216   1.663 -0.3035 -0.6975 -0.1307
   71TMC2    H1 1108   2.806   2.239   1.558  0.6366  2.5257 -1.6673
   71TMC2    H2 1109   2.936   2.344   1.940 -1.1377 -1.6492 -0.1825
   71TMC2    C7 1110   2.736   2.362   1.785  0.2427  0.5838 -1.1556
   71TMC2    C8 1111   3.204   2.279   1.889  0.5608  0.2967  0.5415
   71TMC2    O1 1112   2.742   2.463   1.850  0.0702  0.7154  0.2819
   71TMC2    O2 1113   3.264   2.171   1.894  0.2458 -0.9388 -0.2505
   71TMC2    O5 1114   3.161   2.342   2.003  0.4769  0.3739  0.7141
   71TMC2    H5 1115   3.120   2.427   1.976 -0.0555  0.7526  2.6696
   72MPD2     C 1116   3.325   1.918   1.085 -0.1323  0.5330  0.9389
   72MPD2    C1 1117   3.190   1.945   1.094  0.7467  0.2649  0.3206
   72MPD2    C2 1118   3.139   2.008   1.205 -0.1279 -0.1998 -0.0442
   72MPD2    C3 1119   3.225   2.042   1.313  0.3123  0.2687 -0.1294
   72MPD2    C4 1120   3.357   2.015   1.297  0.0623  0.2236  0.0604
   72MPD2    C5 1121   3.415   1.956   1.182 -0.0308  0.3493  1.0696
   72MPD2     H 1122   3.035   2.035   1.216  0.2332  1.0775  0.1723
   72MPD2    H1 1123   3.429   2.051   1.369 -0.5872  0.5855  0.5324
   72MPD2    H2 1124   3.366   1.872   0.996  1.1073 -0.7282  2.1426
   72MPD2    H3 1125   3.522   1.947   1.167 -0.2466 -0.6163  0.0919
   72MPD2     N 1126   3.174   2.104   1.432  0.1535 -0.7246 -1.0459
   72MPD2    H5 1127   3.247   2.127   1.499 -1.0703 -1.5205  0.5581
   72MPD2    N1 1128   3.104   1.931   0.984 -0.0122 -0.3000  0.3495
   72MPD2    H7 1129   3.004   1.950   0.989 -0.3605 -2.5148  1.9500
   73TMC2    C1 1130   2.459   3.632  13.669 -0.7165  0.1309 -0.8296
   73TMC2    C2 1131   2.401   3.600  13.788  0.6047  0.4885 -0.1244
   73TMC2    C3 1132   2.456   3.505  13.865 -0.1322  0.6801  0.0591
   73TMC2    C4 1133   2.582   3.597  13.638 -0.0166 -1.0779 -0.3816
   73TMC2    C5 1134   2.644   3.516  13.723 -0.0962  0.2319  0.4806
   73TMC2    C6 1135   2.583   3.467  13.832 -0.2380 -0.8879 -0.4362
   73TMC2     C 1136   2.462   3.777  13.652  0.3491 -0.0322 -0.4795
   73TMC2     O 1137   2.572   3.826  13.633 -0.3082  0.5326  0.3710
   73TMC2     H 1138   2.310   3.649  13.822  0.2080  0.5463 -1.2948
   73TMC2    H1 1139   2.637   3.622  13.548 -0.8755 -0.7055 -0.7998
   73TMC2    H2 1140   2.652   3.409  13.892 -1.6675 -0.6532  1.4520
   73TMC2    C7 1141   2.778   3.543  13.748  0.2503 -0.1923 -0.1958
   73TMC2    C8 1142   2.395   3.479  13.990 -0.3703 -0.4327  0.4892
   73TMC2    O1 1143   2.853   3.462  13.804  0.4457 -0.2109 -0.4097
   73TMC2    O2 1144   2.329   3.563  14.052 -0.1170  0.2863  0.3386
   73TMC2    O5 1145   2.463   3.380  14.043 -0.0250 -0.1150  0.5361
   73TMC2    H5 1146   2.512   3.328  13.976 -1.7499 -0.6578 -0.2740
   74MPD2     C 1147   2.309   4.257  13.557 -0.9997  0.6049  0.7177
   74MPD2    C1 1148   2.433   4.210  13.597 -0.2016  0.1812  0.0105
   74MPD2    C2 1149   2.438   4.073  13.624  0.1319  0.1084  0.1337
   74MPD2    C3 1150   2.331   3.983  13.625 -0.3444 -0.1436  0.3891
   74MPD2    C4 1151   2.208   4.041  13.604  0.1112  0.3631  0.4863
   74MPD2    C5 1152   2.199   4.172  13.576  0.3825  0.8001  0.3952
   74MPD2     H 1153   2.534   4.029  13.649 -0.5005  0.1326  2.6122
   74MPD2    H1 1154   2.116   3.987  13.627 -0.3577  0.8018 -0.3324
   74MPD2    H2 1155   2.287   4.358  13.524  1.5576  1.6652  2.3496
   74MPD2    H3 1156   2.104   4.218  13.550 -0.5519 -1.5978 -0.4578
   74MPD2     N 1157   2.343   3.845  13.659  0.7720  0.0171 -0.6828
   74MPD2    H5 1158   2.265   3.791  13.696  1.7561 -0.7745  0.2580
   74MPD2    N1 1159   2.538   4.296  13.603 -0.3551 -0.2347  0.1270
   74MPD2    H7 1160   2.530   4.394  13.576  1.3755 -1.3000 -4.1765
   75TMC2    C1 1161   2.746   0.364  13.706 -0.3074  0.0719  0.4663
   75TMC2    C2 1162   2.741   0.480  13.786  0.5561 -0.8491 -0.0351
   75TMC2    C3 1163   2.661   0.589  13.754  0.4308  0.6764  0.1289
   75TMC2    C4 1164   2.686   0.357  13.585  0.0359  0.3508  0.2906
   75TMC2    C5 1165   2.627   0.480  13.547  0.2641  0.0389 -0.0635
   75TMC2    C6 1166   2.615   0.591  13.625 -0.2288 -0.4133  0.8864
   75TMC2     C 1167   2.853   0.269  13.738  0.2648  1.0552 -0.1035
   75TMC2     O 1168   2.897   0.272  13.851 -0.1611  0.7628  0.3894
   75TMC2     H 1169   2.786   0.475  13.884  0.4450  1.0292  0.1232
   75TMC2    H1 1170   2.695   0.281  13.508 -1.1848  0.5876 -0.0803
   75TMC2    H2 1171   2.560   0.677  13.587  1.6201  0.5071  0.3236
   75TMC2    C7 1172   2.572   0.486  13.411 -0.9057  0.0342  0.6748
   75TMC2    C8 1173   2.674   0.700  13.834  0.6700 -0.0356  0.6158
   75TMC2    O1 1174   2.562   0.373  13.364 -0.3568 -0.0037 -0.3144
   75TMC2    O2 1175   2.778   0.754  13.870 -0.0134  0.4924 -0.1230
   75TMC2    O5 1176   2.551   0.722  13.884 -0.0573 -0.2090 -0.0552
   75TMC2    H5 1177   2.495   0.645  13.860 -0.9014 -0.0040  1.2228
   76TMC2    C1 1178   0.876   0.190  11.980 -0.2421 -0.0765 -0.3671
   76TMC2    C2 1179   0.772   0.103  11.945  0.4941  0.2320 -0.5883
   76TMC2    C3 1180   0.765   4.718  12.006  0.5913 -0.2459  0.1799
   76TMC2    C4 1181   0.959   0.165  12.080 -0.3550  0.4591  0.4997
   76TMC2    C5 1182   0.958   0.036  12.123 -1.1956  0.2910 -0.6553
   76TMC2    C6 1183   0.858   4.682  12.097 -0.0323  0.4353 -0.0213
   76TMC2     C 1184   0.866   0.322  11.933  0.0451 -0.4436 -0.5635
   76TMC2     O 1185   0.755   0.350  11.892 -0.5783  0.1567 -0.0117
   76TMC2     H 1186   0.696   0.137  11.876 -0.6411  1.0731  1.0662
   76TMC2    H1 1187   1.021   0.239  12.128  0.1607  0.6209 -0.4051
   76TMC2    H2 1188   0.858   4.584  12.143  2.1309  0.0551 -0.8065
   76TMC2    C7 1189   1.054   0.001  12.231  0.0246 -0.0713  0.0372
   76TMC2    C8 1190   0.643   4.648  11.972 -0.0981 -0.1488  0.3334
   76TMC2    O1 1191   1.020   4.640  12.294 -0.0614  0.0960  0.5240
   76TMC2    O2 1192   0.549   4.706  11.915 -0.2926 -0.0971 -0.0373
   76TMC2    O5 1193   0.612   4.577  12.081 -0.0733 -0.4912 -0.1436
   76TMC2    H5 1194   0.700   4.540  12.102 -0.5584 -0.9213  1.1417
   77MPD2     C 1195   1.054   0.749  11.725  0.0233 -0.2114  0.3950
   77MPD2    C1 1196   0.928   0.711  11.751  0.1645  0.2865 -0.6170
   77MPD2    C2 1197   0.904   0.598  11.829 -0.1488 -0.1155  0.4716
   77MPD2    C3 1198   1.010   0.518  11.872 -0.0191 -0.3245 -0.4068
   77MPD2    C4 1199   1.140   0.558  11.847 -0.3292  0.0093  0.0120
   77MPD2    C5 1200   1.163   0.669  11.770 -0.0813  0.2152  0.1490
   77MPD2     H 1201   0.801   0.571  11.847 -0.4621  0.0633 -0.9994
   77MPD2    H1 1202   1.224   0.491  11.864 -1.4758 -2.1297 -2.7160
   77MPD2    H2 1203   1.069   0.841  11.671 -1.0142  0.2583  0.9239
   77MPD2    H3 1204   1.260   0.709  11.743  0.1019  0.1794  0.7675
   77MPD2     N 1205   0.988   0.392  11.934 -0.2883 -0.2377  1.1511
   77MPD2    H5 1206   1.072   0.347  11.969  1.3843  0.5245 -1.8282
   77MPD2    N1 1207   0.818   0.785  11.701 -1.1292 -0.0687 -0.8399
   77MPD2    H7 1208   0.727   0.762  11.740 -0.4372 -1.8014 -0.2153
   78TMC2    C1 1209   3.113   2.050   2.184 -0.1763 -0.0856 -0.5186
   78TMC2    C2 1210   3.091   2.148   2.278 -0.2873  0.5288 -0.0951
   78TMC2    C3 1211   3.205   2.203   2.342 -1.0445 -0.8237 -0.0606
   78TMC2    C4 1212   3.240   2.003   2.151  0.6309  0.1905  0.6308
   78TMC2    C5 1213   3.344   2.057   2.221 -0.8951  0.3826 -0.5658
   78TMC2    C6 1214   3.329   2.153   2.312 -0.5359 -0.4092  0.3376
   78TMC2     C 1215   3.001   2.018   2.095  1.0077 -0.5322 -1.0706
   78TMC2     O 1216   2.889   2.053   2.135 -0.1058  0.2818  0.2238
   78TMC2     H 1217   2.994   2.194   2.283 -1.1997 -1.5235  1.0908
   78TMC2    H1 1218   3.269   1.925   2.082 -5.3013 -0.8309 -0.7123
   78TMC2    H2 1219   3.416   2.205   2.351 -0.1024 -0.7290 -0.1976
   78TMC2    C7 1220   3.471   2.018   2.170  0.4223 -0.7216  0.8058
   78TMC2    C8 1221   3.194   2.323   2.420 -0.0691 -0.3313 -0.0898
   78TMC2    O1 1222   3.475   1.987   2.052 -0.5132 -0.1708  0.2378
   78TMC2    O2 1223   3.265   2.424   2.412  0.0819 -0.5447  0.1602
   78TMC2    O5 1224   3.065   2.311   2.465 -0.0004  0.1411 -0.7702
   78TMC2    H5 1225   3.045   2.216   2.479  1.6775 -0.0267  0.5197
   79MPD1     C 1226   2.840   1.913   1.634 -0.1162 -0.1263  0.2393
   79MPD1    C1 1227   2.767   1.958   1.739 -0.2482 -1.0528 -0.2741
   79MPD1    C2 1228   2.837   1.975   1.865  0.1018  0.2255  1.0509
   79MPD1    C3 1229   2.969   1.931   1.873  0.3687 -0.2806  0.2239
   79MPD1    C4 1230   3.029   1.872   1.766  0.8253  0.6481  0.1113
   79MPD1    C5 1231   2.967   1.858   1.645 -0.1952  0.4020 -0.5827
   79MPD1     H 1232   2.778   2.020   1.945  1.3535 -0.7144  2.5009
   79MPD1    H1 1233   3.132   1.837   1.771 -0.7680 -4.2437 -1.0441
   79MPD1    H2 1234   2.800   1.918   1.533  0.1896  1.1831  0.1778
   79MPD1    H3 1235   3.011   1.811   1.557 -3.4923 -2.2037 -0.8183
   79MPD1     N 1236   3.048   1.954   1.982 -0.4217  0.2662 -0.3224
   79MPD1    H5 1237   3.149   1.948   1.966 -0.5325 -0.7623 -0.6901
   79MPD1    N1 1238   2.649   2.018   1.711  0.1990  0.0692  0.3930
   79MPD1    H6 1239   2.590   2.013   1.794 -1.0992 -1.3632 -0.6146
   79MPD1    H7 1240   2.593   1.971   1.640  1.5979 -0.6038 -0.2594
   80TMC2    C1 1241   0.176   0.389  11.605  0.4063 -0.3876  0.4112
   80TMC2    C2 1242   0.118   0.510  11.558  0.4525  0.1218 -0.3431
   80TMC2    C3 1243   0.024   0.497  11.453  0.3556 -0.5309 -0.0855
   80TMC2    C4 1244   0.129   0.269  11.562 -0.4907  0.1679  0.2941
   80TMC2    C5 1245   0.026   0.266  11.470  0.0320 -0.1622  0.0640
   80TMC2    C6 1246   4.714   0.374  11.406  0.4880  0.1779 -0.1766
   80TMC2     C 1247   0.226   0.377  11.734 -0.5024  0.2859  0.6699
   80TMC2     O 1248   0.323   0.307  11.763  0.4212 -0.4294  0.1369
   80TMC2     H 1249   0.156   0.600  11.604 -1.7534  1.0213 -0.3128
   80TMC2    H1 1250   0.163   0.194  11.633  2.3148  2.1538  1.0828
   80TMC2    H2 1251   4.636   0.364  11.331 -0.3874 -1.6118  0.9794
   80TMC2    C7 1252   4.668   0.149  11.490 -0.1090  0.1433  0.0099
   80TMC2    C8 1253   4.728   0.611  11.372  0.2253 -0.0622  0.5342
   80TMC2    O1 1254   4.547   0.170  11.476 -0.2407  0.3383 -0.1891
   80TMC2    O2 1255   4.620   0.652  11.332 -0.2659 -0.0523 -0.5110
   80TMC2    O5 1256   0.098   0.689  11.390 -0.5449  0.4667  0.0695
   80TMC2    H5 1257   0.170   0.625  11.411 -0.0201  0.6397 -1.1651
   81MPD2     C 1258   0.260   0.421  12.031 -0.4954 -0.6637 -0.5637
   81MPD2    C1 1259   0.145   0.437  11.959  0.1123 -0.0911 -0.0046
   81MPD2    C2 1260   0.029   0.464  12.029  1.0622  0.6693 -0.1958
   81MPD2    C3 1261   0.020   0.462  12.163 -0.4979 -0.1501  0.1156
   81MPD2    C4 1262   0.129   0.420  12.231  0.5025 -0.7927  0.2119
   81MPD2    C5 1263   0.250   0.396  12.165 -0.3498 -0.0594 -0.0444
   81MPD2     H 1264   4.679   0.476  11.964  0.9757  0.1156 -0.1848
   81MPD2    H1 1265   0.127   0.396  12.336  0.6162  0.6254  0.5448
   81MPD2    H2 1266   0.355   0.397  11.984 -0.2069 -0.2309 -0.2039
   81MPD2    H3 1267   0.337   0.360  12.217 -0.6448  1.1905  1.3243
   81MPD2     N 1268   4.640   0.488  12.231  0.5658 -0.0047 -0.4886
   81MPD2    H5 1269   4.633   0.451  12.326  0.9552 -0.7500 -0.7510
   81MPD2    N1 1270   0.139   0.446  11.817  0.5792  0.0804 -0.5520
   81MPD2    H7 1271   0.047   0.468  11.781  0.0437  0.3217  0.9443
   82TMC2    C1 1272   3.229   4.661  10.791 -0.3901  0.5791 -0.1284
   82TMC2    C2 1273   3.365   4.671  10.794  0.3088  0.2375  0.2875
   82TMC2    C3 1274   3.423   4.576  10.873  0.5105  0.7770 -0.1953
   82TMC2    C4 1275   3.159   4.553  10.837 -0.3048 -0.3610 -0.1058
   82TMC2    C5 1276   3.224   4.458  10.902  0.4869 -0.2169  0.0451
   82TMC2    C6 1277   3.357   4.470  10.930 -0.2917 -0.5643 -0.2565
   82TMC2     C 1278   3.155   0.031  10.728  0.8750  0.3373 -1.1476
   82TMC2     O 1279   3.043   4.732  10.704  0.3032 -0.3694  0.0172
   82TMC2     H 1280   3.428   4.735  10.734  2.8578 -1.8231  0.7803
   82TMC2    H1 1281   3.051   4.565  10.841 -0.1434  1.2702 -0.5195
   82TMC2    H2 1282   3.407   4.389  10.981 -0.3200 -1.0044 -0.9300
   82TMC2    C7 1283   3.137   4.356  10.962 -0.5880  0.2853  0.3512
   82TMC2    C8 1284   3.565   4.565  10.877 -0.6042 -0.3808  0.4843
   82TMC2    O1 1285   3.169   4.288  11.064  0.0348 -0.0037 -0.0450
   82TMC2    O2 1286   3.630   4.468  10.911  0.4784  0.8813 -0.5428
   82TMC2    O5 1287   3.615   4.688  10.891 -0.0430 -0.1360 -0.2519
   82TMC2    H5 1288   3.547   0.022  10.876 -1.1821 -1.3966 -0.9936
   83MPD2     C 1289   3.056   0.515  10.597  0.3028  1.3480  1.0335
   83MPD2    C1 1290   2.975   0.409  10.584  0.3844 -1.0482 -0.3436
   83MPD2    C2 1291   3.023   0.283  10.632 -0.3391 -0.0858  0.3318
   83MPD2    C3 1292   3.155   0.269  10.677 -0.2206 -0.7842 -0.4558
   83MPD2    C4 1293   3.236   0.380  10.664 -0.1509 -0.8642  0.6007
   83MPD2    C5 1294   3.188   0.501  10.627  0.9236 -0.4120  0.4789
   83MPD2     H 1295   2.955   0.199  10.623 -0.6690  0.3767 -1.3976
   83MPD2    H1 1296   3.339   0.371  10.695 -0.3932 -0.5273  1.5175
   83MPD2    H2 1297   3.021   0.616  10.579  1.0497  1.4226 -0.0084
   83MPD2    H3 1298   3.257   0.584  10.627 -0.4858  0.7508 -2.6948
   83MPD2     N 1299   3.212   0.149  10.729 -0.1614 -0.4640 -0.0404
   83MPD2    H5 1300   3.305   0.148  10.770  1.0477 -0.9844 -2.7949
   83MPD2    N1 1301   2.847   0.433  10.538  0.3253  0.2153 -0.1349
   83MPD2    H7 1302   2.811   0.527  10.532  0.2345  0.1832 -0.0921
   84TMC2    C1 1303   4.296   3.504  10.488 -0.0385  0.6274 -0.4324
   84TMC2    C2 1304   4.227   3.392  10.440  0.0866  0.1605  0.3826
   84TMC2    C3 1305   4.299   3.313  10.351 -0.1730 -0.4523 -0.4765
   84TMC2    C4 1306   4.430   3.526  10.459  0.0629 -0.2294 -0.3269
   84TMC2    C5 1307   4.500   3.443  10.374 -0.3668  0.3421 -0.6674
   84TMC2    C6 1308   4.432   3.333  10.324  0.5437 -0.6838  0.2057
   84TMC2     C 1309   4.234   3.591  10.585  0.9168 -0.0472 -0.4088
   84TMC2     O 1310   4.299   3.691  10.612 -0.2814 -0.5940  0.5911
   84TMC2     H 1311   4.120   3.382  10.456  0.2478 -2.2772 -0.0388
   84TMC2    H1 1312   4.484   3.611  10.502  1.0983 -0.5444 -1.0139
   84TMC2    H2 1313   4.479   3.268  10.252 -0.3954 -1.2188  0.0688
   84TMC2    C7 1314   4.608   3.495  10.294 -0.0118  0.0092 -0.2563
   84TMC2    C8 1315   4.241   3.190  10.311 -0.4153 -0.1520 -0.2150
   84TMC2    O1 1316   4.643   3.426  10.201  0.4322 -0.1729 -0.3003
   84TMC2    O2 1317   4.221   3.158  10.196  0.2224  0.6075  0.3016
   84TMC2    O5 1318   4.198   3.126  10.418  0.2353 -0.0338  0.2416
   84TMC2    H5 1319   4.245   3.152  10.500  0.9434 -2.2841  0.5514
   85TMC2    C1 1320   0.449   2.497  16.023 -0.6765 -0.3027 -0.2498
   85TMC2    C2 1321   0.364   2.591  15.969 -0.3497  0.0030  0.5521
   85TMC2    C3 1322   0.385   2.622  15.837  0.1090 -0.2347 -0.1158
   85TMC2    C4 1323   0.528   2.420  15.943  0.0681 -0.0630  0.3617
   85TMC2    C5 1324   0.552   2.457  15.816 -0.1349  0.2304  0.9674
   85TMC2    C6 1325   0.479   2.560  15.760 -0.0711 -0.2228  0.0236
   85TMC2     C 1326   0.420   2.436  16.148 -0.1776 -0.5141  0.6139
   85TMC2     O 1327   0.355   2.504  16.221  0.1232 -0.1012  0.0282
   85TMC2     H 1328   0.298   2.650  16.030  0.6370  1.4502  0.2347
   85TMC2    H1 1329   0.595   2.348  15.990  0.7495 -0.0684 -0.6274
   85TMC2    H2 1330   0.488   2.581  15.654  1.9107  2.1519  0.6886
   85TMC2    C7 1331   0.666   2.390  15.744  0.4145 -0.0493  0.0218
   85TMC2    C8 1332   0.289   2.695  15.764  0.0438  0.1141 -0.2289
   85TMC2    O1 1333   0.709   2.292  15.797  0.4925 -0.0597 -0.0111
   85TMC2    O2 1334   0.310   2.724  15.649 -0.2668  0.1603 -0.5595
   85TMC2    O5 1335   0.172   2.664  15.811  0.1521 -0.1615 -0.0134
   85TMC2    H5 1336   0.173   2.631  15.903  2.1094 -0.9766 -0.3239
   86MPD2     C 1337   0.271   2.034  16.422 -1.0943 -0.8591  0.1747
   86MPD2    C1 1338   0.289   1.991  16.295  0.0536  0.2377  0.7591
   86MPD2    C2 1339   0.356   2.082  16.208  0.0255 -0.3264 -1.2793
   86MPD2    C3 1340   0.389   2.212  16.241 -0.1676 -0.2364  0.2486
   86MPD2    C4 1341   0.365   2.253  16.371 -0.1917  0.4201  0.2046
   86MPD2    C5 1342   0.320   2.159  16.466 -0.5260 -0.0564  0.6808
   86MPD2     H 1343   0.366   2.053  16.104  2.0332 -1.7179 -0.6784
   86MPD2    H1 1344   0.404   2.345  16.412  0.5928  0.2590 -0.1701
   86MPD2    H2 1345   0.230   1.973  16.501 -1.2325  0.2943  1.0071
   86MPD2    H3 1346   0.313   2.189  16.570  0.6213  1.1197  0.4148
   86MPD2     N 1347   0.437   2.299  16.143 -0.8424 -0.5141 -0.5412
   86MPD2    H5 1348   0.469   2.254  16.058  2.4263 -1.2001  1.0581
   86MPD2    N1 1349   0.236   1.860  16.269 -0.1570  0.4804 -0.3784
   86MPD2    H7 1350   0.219   1.803  16.351 -1.2107  1.8376  0.3613
   87TMC2    C1 1351   3.109   4.646   0.864 -0.4301  0.1237 -0.6903
   87TMC2    C2 1352   3.234   4.618   0.917 -0.8955 -0.1240  0.6104
   87TMC2    C3 1353   3.273   4.680   1.035  1.1357  0.5005 -0.4888
   87TMC2    C4 1354   3.033   0.009   0.909  0.3177  0.2519 -0.3602
   87TMC2    C5 1355   3.078   0.073   1.021  0.2661 -0.0397 -0.8834
   87TMC2    C6 1356   3.195   0.041   1.081  0.2814 -0.2242  0.0655
   87TMC2     C 1357   3.069   4.585   0.737  0.0743 -0.6843  1.0141
   87TMC2     O 1358   2.984   4.643   0.666  0.7600 -0.1110 -0.5130
   87TMC2     H 1359   3.296   4.547   0.863  0.2332 -1.2511  3.4315
   87TMC2    H1 1360   2.942   0.031   0.854 -1.2697  0.8530  2.4850
   87TMC2    H2 1361   3.231   0.088   1.172 -0.7864 -2.5787  1.7081
   87TMC2    C7 1362   2.989   0.175   1.064 -0.8127 -0.1036  0.6117
   87TMC2    C8 1363   3.354   4.596   1.112 -0.3831  0.1361  0.2517
   87TMC2    O1 1364   2.886   0.183   0.998  0.6880  0.1754  0.2657
   87TMC2    O2 1365   3.446   4.533   1.069  0.0155 -0.0295 -0.1190
   87TMC2    O5 1366   3.311   4.591   1.240  0.4445  0.0963  0.1683
   87TMC2    H5 1367   3.255   4.669   1.262  2.3960  0.9528  2.0528
   88MPD2     C 1368   3.001   0.373   1.377  0.0824 -0.5062  0.3454
   88MPD2    C1 1369   2.956   0.333   1.249 -0.7820  0.1414 -0.3002
   88MPD2    C2 1370   2.859   0.412   1.177  0.3371  0.3140  0.3530
   88MPD2    C3 1371   2.810   0.520   1.238 -0.0555  0.2025  0.4699
   88MPD2    C4 1372   2.852   0.556   1.363  0.0061 -0.2837 -0.1043
   88MPD2    C5 1373   2.947   0.480   1.431 -0.2784  0.6534 -0.3436
   88MPD2     H 1374   2.832   0.380   1.077 -0.1013  0.1321  0.5292
   88MPD2    H1 1375   2.819   0.647   1.412 -0.4438 -0.6794  0.3274
   88MPD2    H2 1376   3.078   0.320   1.433  0.5156  2.0600  2.1952
   88MPD2    H3 1377   2.978   0.524   1.525 -0.7490  0.1823  0.0295
   88MPD2     N 1378   2.726   0.604   1.168  0.5957 -0.1329  0.0419
   88MPD2    H5 1379   2.709   0.701   1.193 -1.7059 -0.7458  0.9461
   88MPD2    N1 1380   3.016   0.215   1.195  0.3890  0.3157 -0.4218
   88MPD2    H7 1381   3.085   0.170   1.254 -1.3602 -0.4878  0.9842
   89TMC2    C1 1382   4.046   3.065   1.083 -0.5782  0.7014  0.3462
   89TMC2    C2 1383   4.099   3.087   0.960  0.2498  0.1800  0.4304
   89TMC2    C3 1384   4.065   3.201   0.898  0.2756  0.0132 -0.1547
   89TMC2    C4 1385   3.964   3.155   1.151 -0.3203 -0.3349 -0.6712
   89TMC2    C5 1386   3.941   3.273   1.090  0.7547  0.4652 -0.3653
   89TMC2    C6 1387   3.980   3.295   0.959 -0.0991  0.0306  0.7586
   89TMC2     C 1388   4.116   2.965   1.160  0.2539  0.1683 -0.1426
   89TMC2     O 1389   4.230   2.941   1.122  0.5605  0.5672 -0.2858
   89TMC2     H 1390   4.153   3.006   0.912 -2.0004 -0.3874 -1.1501
   89TMC2    H1 1391   3.947   3.146   1.258 -0.5878  0.0878 -0.6801
   89TMC2    H2 1392   3.945   3.370   0.889 -0.4626 -0.4504  0.4248
   89TMC2    C7 1393   3.899   3.377   1.183 -0.1609 -0.6422 -0.7348
   89TMC2    C8 1394   4.108   3.230   0.761  0.7065  0.1293  0.1835
   89TMC2    O1 1395   3.839   3.352   1.290 -0.3014 -0.3251  0.3719
   89TMC2    O2 1396   4.110   3.345   0.713 -0.6401  0.2821 -0.4334
   89TMC2    O5 1397   4.075   3.122   0.687 -0.0782  0.5823  0.9934
   89TMC2    H5 1398   4.056   3.040   0.738  0.5385  0.4051  0.9372
   90MPD2     C 1399   4.157   2.656   1.571  0.3306 -0.3600 -0.5009
   90MPD2    C1 1400   4.024   2.688   1.557 -0.5976  0.1557 -0.0452
   90MPD2    C2 1401   3.993   2.789   1.463  0.0401  0.0275  0.2038
   90MPD2    C3 1402   4.082   2.841   1.375  0.0451 -0.0197  0.6263
   90MPD2    C4 1403   4.214   2.816   1.395 -0.0760 -0.0714 -0.4006
   90MPD2    C5 1404   4.249   2.734   1.501  0.5273  0.0502 -0.5105
   90MPD2     H 1405   3.886   2.808   1.453 -0.2403 -1.9482 -0.4684
   90MPD2    H1 1406   4.288   2.878   1.346 -0.5765  1.3148  0.6130
   90MPD2    H2 1407   4.195   2.583   1.641  0.2116  0.9505  0.9223
   90MPD2    H3 1408   4.352   2.711   1.524  0.6104  1.8221  0.8817
   90MPD2     N 1409   4.042   2.924   1.267 -0.1793  0.1067  0.2094
   90MPD2    H5 1410   3.943   2.944   1.262 -0.3912 -1.1115 -0.4979
   90MPD2    N1 1411   3.919   2.631   1.629  0.5045  0.7228 -0.0636
   90MPD2    H7 1412   3.824   2.652   1.600  0.7160  2.4456  0.4909
   91TMC2    C1 1413   0.180   3.191  16.348  0.2512  0.3276 -0.2420
   91TMC2    C2 1414   0.235   3.180  16.468  0.5027 -0.5649  0.1828
   91TMC2    C3 1415   0.163   3.136  16.575 -0.3247  0.4244 -0.5608
   91TMC2    C4 1416   0.049   3.150  16.335 -0.1888 -1.4218  0.4550
   91TMC2    C5 1417   4.710   3.101  16.444 -0.3130  0.5653 -0.2912
   91TMC2    C6 1418   0.032   3.093  16.568  0.1164 -0.4459  0.2244
   91TMC2     C 1419   0.248   3.225  16.228  0.0020 -0.2028 -0.7300
   91TMC2     O 1420   0.177   3.258  16.135  0.2214  0.6489 -0.3293
   91TMC2     H 1421   0.336   3.210  16.493 -1.0235  3.6876  1.1068
   91TMC2    H1 1422   0.011   3.139  16.233 -3.1731  0.5224  1.3492
   91TMC2    H2 1423   4.695   3.079  16.647  1.0461 -0.5882  1.0553
   91TMC2    C7 1424   4.580   3.038  16.427 -0.1786  0.4922 -0.4825
   91TMC2    C8 1425   0.226   3.132  16.705  0.6893 -0.0967  0.3377
   91TMC2    O1 1426   4.552   2.947  16.507  0.1952  0.0007 -0.0262
   91TMC2    O2 1427   0.160   3.132  16.805 -0.7713  0.4347  0.2245
   91TMC2    O5 1428   0.342   3.057  16.692  0.0581 -0.1525 -0.3925
   91TMC2    H5 1429   0.370   3.064  16.598  1.7035  0.9615  0.1971
   92MPD2     C 1430   0.462   3.308  16.033  0.3098  0.1055  0.1801
   92MPD2    C1 1431   0.482   3.238  16.149  0.4109  0.0893 -0.7840
   92MPD2    C2 1432   0.609   3.215  16.191 -0.7736  0.6268 -0.1809
   92MPD2    C3 1433   0.719   3.277  16.122  0.5399  0.1786  0.7679
   92MPD2    C4 1434   0.693   3.328  15.991 -0.2880 -0.6046  0.1830
   92MPD2    C5 1435   0.564   3.340  15.950 -0.1403  0.1163  0.0050
   92MPD2     H 1436   0.620   3.177  16.292 -0.3408  0.5102 -0.2714
   92MPD2    H1 1437   0.774   3.359  15.926  0.7378  1.4086  2.3826
   92MPD2    H2 1438   0.359   3.325  16.002  0.6275  0.3634 -0.7238
   92MPD2    H3 1439   0.547   3.375  15.849 -1.3092 -1.1377 -0.2355
   92MPD2     N 1440   0.848   3.259  16.175  0.1144 -0.2482 -0.0542
   92MPD2    H5 1441   0.848   3.222  16.269 -0.8675  0.7318  0.3254
   92MPD2    N1 1442   0.381   3.196  16.237 -0.2516  0.6149 -0.2757
   92MPD2    H7 1443   0.412   3.140  16.316  1.7148  1.4979 -0.4252
   93TMC2    C1 1444   2.781   2.847  13.682 -0.0783 -0.2286 -0.2526
   93TMC2    C2 1445   2.738   2.887  13.805 -0.3072  0.3866 -0.4705
   93TMC2    C3 1446   2.782   3.011  13.851 -0.3291  0.5059  0.2829
   93TMC2    C4 1447   2.858   2.916  13.600 -0.4248 -0.2799  0.2268
   93TMC2    C5 1448   2.897   3.040  13.656  0.0558 -0.8117  0.3614
   93TMC2    C6 1449   2.861   3.095  13.777  0.7124 -0.4572  0.6235
   93TMC2     C 1450   2.691   2.750  13.618 -0.2244 -0.0643  0.6427
   93TMC2     O 1451   2.734   2.690  13.521  0.3855 -0.3711  0.0002
   93TMC2     H 1452   2.696   2.817  13.876 -0.7171  1.0105 -0.0934
   93TMC2    H1 1453   2.900   2.868  13.512 -0.7295 -2.2653  1.1656
   93TMC2    H2 1454   2.898   3.181  13.831 -0.6429 -0.7406  2.0104
   93TMC2    C7 1455   3.023   3.082  13.605 -0.1261  0.0094 -0.0369
   93TMC2    C8 1456   2.775   3.045  13.990  0.2407  0.2865 -0.0050
   93TMC2    O1 1457   3.102   3.005  13.554  0.3516  0.0014  0.5966
   93TMC2    O2 1458   2.842   3.131  14.042  0.0995 -0.0185 -0.0956
   93TMC2    O5 1459   2.656   2.996  14.033 -0.3254 -0.2288 -0.3902
   93TMC2    H5 1460   2.595   2.970  13.961 -1.2260 -0.6076  0.5116
   94MPD2     C 1461   2.472   2.568  13.536  0.2641  0.5916 -0.2569
   94MPD2    C1 1462   2.458   2.696  13.594  0.1233  0.8764 -0.3044
   94MPD2    C2 1463   2.336   2.735  13.628 -0.0100  0.5164 -0.1619
   94MPD2    C3 1464   2.221   2.670  13.603  0.1391  0.2756 -0.0105
   94MPD2    C4 1465   2.231   2.549  13.537 -0.4959 -0.3060 -0.0560
   94MPD2    C5 1466   2.353   2.496  13.509 -0.1279  0.0910  0.3719
   94MPD2     H 1467   2.324   2.832  13.674 -2.5198 -0.0568  0.3945
   94MPD2    H1 1468   2.148   2.488  13.504  0.0167 -0.5854 -0.8322
   94MPD2    H2 1469   2.567   2.526  13.506 -0.1675 -0.4203 -0.1984
   94MPD2    H3 1470   2.364   2.400  13.460  0.9613  0.2433  0.3114
   94MPD2     N 1471   2.086   2.721  13.614  0.4750 -0.1889 -0.2348
   94MPD2    H5 1472   2.016   2.647  13.609 -0.5801  0.6032  2.3149
   94MPD2    N1 1473   2.562   2.769  13.652 -0.3582 -0.7059 -0.4200
   94MPD2    H7 1474   2.538   2.846  13.714 -0.5512 -0.1004 -1.2595
   95TMC2    C1 1475   2.446   4.553  15.912  0.2706 -0.6508  0.0180
   95TMC2    C2 1476   2.439   4.516  16.044  0.5081 -0.4924  0.0932
   95TMC2    C3 1477   2.366   4.401  16.063 -0.5816 -0.6710 -0.3741
   95TMC2    C4 1478   2.374   4.497  15.817  0.4029 -0.4877 -0.0147
   95TMC2    C5 1479   2.298   4.392  15.838  0.3744 -0.4767 -0.3181
   95TMC2    C6 1480   2.292   4.344  15.965  0.4872 -0.1493  0.4225
   95TMC2     C 1481   2.539   4.652  15.865  0.4550 -0.0915  0.2750
   95TMC2     O 1482   2.581   4.641  15.748 -0.6321  0.2098 -0.4981
   95TMC2     H 1483   2.507   4.561  16.115 -1.8051 -0.8796  2.5345
   95TMC2    H1 1484   2.385   4.527  15.713 -2.8076  2.5752  0.5204
   95TMC2    H2 1485   2.233   4.257  15.994 -0.3842  0.8294  1.5950
   95TMC2    C7 1486   2.179   4.370  15.752  0.4417 -0.4399  0.1473
   95TMC2    C8 1487   2.316   4.379  16.198  0.0243 -0.0253  0.1793
   95TMC2    O1 1488   2.083   4.329  15.814 -0.5174  0.0038  0.1392
   95TMC2    O2 1489   2.304   4.264  16.244  0.2416 -0.1828 -0.2594
   95TMC2    O5 1490   2.357   4.485  16.274  0.2137  0.4984  0.2903
   95TMC2    H5 1491   2.355   4.562  16.212 -0.2697  0.5088  0.3158
   96MPD2     C 1492   2.762   0.365  15.901  0.5505  0.2843 -0.4114
   96MPD2    C1 1493   2.783   0.268  15.807  0.2558 -0.7115 -0.6385
   96MPD2    C2 1494   2.721   0.147  15.823  0.8766  0.1229  0.4038
   96MPD2    C3 1495   2.634   0.131  15.932  0.6963  0.6113 -1.0251
   96MPD2    C4 1496   2.630   0.228  16.030 -0.2092 -0.1936 -0.0522
   96MPD2    C5 1497   2.698   0.345  16.016  0.0921  0.8068  0.3356
   96MPD2     H 1498   2.745   0.064  15.758  2.7590 -1.1675  2.7321
   96MPD2    H1 1499   2.570   0.220  16.120 -0.6259 -1.8657 -0.4877
   96MPD2    H2 1500   2.801   0.462  15.874  0.3128  0.3032 -0.6921
   96MPD2    H3 1501   2.703   0.413  16.100  0.2541  0.7180  0.3981
   96MPD2     N 1502   2.560   0.016  15.953 -0.4195 -0.1010  0.4663
   96MPD2    H5 1503   2.488   0.021  16.023 -0.5923 -0.5876  0.3257
   96MPD2    N1 1504   2.863   0.295  15.693  0.2488  0.2103  0.4332
   96MPD2    H7 1505   2.905   0.386  15.688  0.7142  0.0437  1.4515
   97TMC2    C1 1506   4.686   2.819   0.163 -0.1152  0.4122 -0.6775
   97TMC2    C2 1507   4.568   2.749   0.145 -0.0434 -0.1021  0.7843
   97TMC2    C3 1508   4.473   2.801   0.060  0.6592 -0.5950  0.2150
   97TMC2    C4 1509   4.721   2.934   0.093  0.4138 -0.7436 -0.4660
   97TMC2    C5 1510   4.627   2.975   0.004 -0.6286 -0.6682  0.2729
   97TMC2    C6 1511   4.502   2.913  17.736  0.3851 -0.0900 -0.7263
   97TMC2     C 1512   0.043   2.770   0.268 -0.3900 -0.0692  0.8032
   97TMC2     O 1513   4.734   2.685   0.349 -0.2878 -0.1384 -0.1562
   97TMC2     H 1514   4.546   2.664   0.208  1.0701  0.1295  1.4806
   97TMC2    H1 1515   0.084   2.977   0.099  0.1650 -0.0564 -1.4283
   97TMC2    H2 1516   4.418   2.949  17.678 -0.6850 -0.2665  0.7240
   97TMC2    C7 1517   4.656   3.097  17.669 -0.3979 -0.3306  0.3198
   97TMC2    C8 1518   4.347   2.733   0.025  0.1781  0.2867  0.7225
   97TMC2    O1 1519   0.030   3.149  17.686 -0.1223 -0.5888  0.3612
   97TMC2    O2 1520   4.242   2.795   0.020  0.0692 -0.1351  0.0112
   97TMC2    O5 1521   4.351   2.599   0.045 -0.1044  0.0027 -0.7481
   97TMC2    H5 1522   4.442   2.565   0.032  0.7866  2.3906 -0.6336
   98MPD2     C 1523   0.446   2.844   0.580  0.5628  0.3598  0.8233
   98MPD2    C1 1524   0.311   2.820   0.612 -0.2431 -0.3879  0.1902
   98MPD2    C2 1525   0.213   2.807   0.508 -0.1368 -0.6782 -0.1356
   98MPD2    C3 1526   0.249   2.846   0.384 -0.4508  0.2189 -0.2694
   98MPD2    C4 1527   0.379   2.890   0.364 -0.6660 -0.3811  0.4178
   98MPD2    C5 1528   0.480   2.882   0.451 -0.3958  1.0904 -0.0302
   98MPD2     H 1529   0.114   2.768   0.532 -0.4793 -1.2409 -2.5232
   98MPD2    H1 1530   0.407   2.911   0.261  1.6681  0.5420  1.2227
   98MPD2    H2 1531   0.526   2.825   0.651  0.5364  3.6814  1.7395
   98MPD2    H3 1532   0.586   2.882   0.426 -0.1337  0.1544  1.1238
   98MPD2     N 1533   0.161   2.841   0.268 -0.7379 -0.5944  0.8463
   98MPD2    H5 1534   0.197   2.875   0.180  0.0514 -2.1980  0.5595
   98MPD2    N1 1535   0.297   2.761   0.737  0.4380 -0.1436  0.0200
   98MPD2    H7 1536   0.374   2.753   0.803  0.3528 -3.7414 -0.3072
   99TMC2    C1 1537   2.942   4.055   2.130  0.4456 -0.3734 -0.1352
   99TMC2    C2 1538   2.954   4.087   2.260  0.1398  0.2891 -0.4876
   99TMC2    C3 1539   2.856   4.076   2.353 -0.0605 -0.0321 -0.0617
   99TMC2    C4 1540   2.828   4.005   2.086 -0.6469 -0.0400  0.0469
   99TMC2    C5 1541   2.732   3.980   2.184  0.6176 -0.1294  0.4391
   99TMC2    C6 1542   2.738   4.019   2.320  0.8740  0.2052  0.1462
   99TMC2     C 1543   3.050   4.082   2.035 -0.3022  0.0622  0.5496
   99TMC2     O 1544   3.133   4.154   2.087  0.5141  0.1170 -0.6746
   99TMC2     H 1545   3.051   4.116   2.301  0.6943 -1.8714 -0.2602
   99TMC2    H1 1546   2.821   3.983   1.980 -0.3922 -1.3319  0.3070
   99TMC2    H2 1547   2.657   3.995   2.388  1.5678  1.5597  1.4415
   99TMC2    C7 1548   2.601   3.939   2.137  0.6395 -0.6271 -0.0239
   99TMC2    C8 1549   2.875   4.121   2.486  0.1578 -0.5586  0.0936
   99TMC2    O1 1550   2.505   3.966   2.210 -0.6050  0.2115 -0.0340
   99TMC2    O2 1551   2.987   4.148   2.533  0.2869 -0.4135 -0.4720
   99TMC2    O5 1552   2.761   4.178   2.522  0.3327  0.4761 -0.8656
   99TMC2    H5 1553   2.678   4.150   2.479 -0.2099 -4.8627  3.6632
  100MPD2     C 1554   3.274   4.109   1.842  0.6062 -0.0183  0.2673
  100MPD2    C1 1555   3.171   4.016   1.829 -0.1735  0.3000 -0.6246
  100MPD2    C2 1556   3.187   3.908   1.739 -0.0864  0.6715  0.9624
  100MPD2    C3 1557   3.292   3.913   1.644  0.1938  0.0177  0.5912
  100MPD2    C4 1558   3.379   4.016   1.644  0.1860  0.3175  0.3647
  100MPD2    C5 1559   3.369   4.110   1.739  0.6979 -0.0594  0.1384
  100MPD2     H 1560   3.116   3.827   1.740  0.7266 -0.0501 -1.6426
  100MPD2    H1 1561   3.465   4.028   1.580 -0.0640 -0.4282 -0.1108
  100MPD2    H2 1562   3.285   4.188   1.915  0.8583  2.4127 -2.4168
  100MPD2    H3 1563   3.437   4.195   1.728  1.7480 -0.6605  1.9572
  100MPD2     N 1564   3.304   3.808   1.546  0.0653 -0.0580 -0.3166
  100MPD2    H5 1565   3.230   3.741   1.562  1.0844 -1.0665  0.2265
  100MPD2    N1 1566   3.060   4.006   1.924  0.2052  0.4441 -0.2523
  100MPD2    H7 1567   2.991   3.934   1.904  0.2751  0.2545  0.2099
  101TMC2    C1 1568   4.334   0.459  13.082  0.1564  0.1135  0.5953
  101TMC2    C2 1569   4.349   0.566  13.161  0.1294  0.0191  0.4978
  101TMC2    C3 1570   4.437   0.670  13.136  0.7404 -0.5180  0.8297
  101TMC2    C4 1571   4.418   0.451  12.975  0.5766  0.3962 -1.1598
  101TMC2    C5 1572   4.514   0.543  12.962  0.2896 -0.4526 -0.6415
  101TMC2    C6 1573   4.531   0.653  13.042 -0.2498 -0.7162  0.6057
  101TMC2     C 1574   4.262   0.347  13.131  0.3256  0.1534 -0.0958
  101TMC2     O 1575   4.188   0.372  13.225 -0.3496  0.0787 -0.3584
  101TMC2     H 1576   4.300   0.562  13.258  0.3585 -5.7827  0.3646
  101TMC2    H1 1577   4.405   0.369  12.906  1.2211 -1.0189  0.4170
  101TMC2    H2 1578   4.593   0.736  13.013 -0.4703 -1.3630 -1.6825
  101TMC2    C7 1579   4.604   0.522  12.857  0.3841 -0.1012 -0.5460
  101TMC2    C8 1580   4.484   0.738  13.255 -0.3761  0.2093  0.6607
  101TMC2    O1 1581   4.562   0.451  12.768  0.8939  0.6192 -0.5700
  101TMC2    O2 1582   4.606   0.741  13.283 -0.0150 -0.4881 -0.1587
  101TMC2    O5 1583   4.382   0.761  13.338 -0.0433 -0.4421  0.2958
  101TMC2    H5 1584   4.292   0.743  13.305  0.8960 -2.2576 -1.3236
  102MPD2     C 1585   4.262   0.002  13.015  0.2668 -0.2752  0.5986
  102MPD2    C1 1586   4.215   0.108  13.089  0.4289 -0.5750 -0.1141
  102MPD2    C2 1587   4.100   0.098  13.177 -0.0122  0.2226 -0.2713
  102MPD2    C3 1588   4.032   4.714  13.184 -0.3749  0.1189 -0.0834
  102MPD2    C4 1589   4.082   4.607  13.110  0.0673 -0.2761 -0.2432
  102MPD2    C5 1590   4.187   4.619  13.020 -0.7063 -0.0256 -0.2605
  102MPD2     H 1591   4.069   0.183  13.236  1.7493 -0.7857  2.0823
  102MPD2    H1 1592   4.033   4.510  13.116 -1.4496  0.5921  1.3966
  102MPD2    H2 1593   4.340   0.021  12.942  2.0484 -2.7464  1.8640
  102MPD2    H3 1594   4.223   4.527  12.976 -0.9827 -0.2563 -0.0008
  102MPD2     N 1595   3.920   4.700  13.260  0.0097 -0.3308  0.3347
  102MPD2    H5 1596   3.892   0.043  13.318 -0.8482  0.9415 -1.7904
  102MPD2    N1 1597   4.278   0.231  13.056 -0.6768  0.5282  0.4997
  102MPD2    H7 1598   4.334   0.241  12.972  0.0210 -4.0030  0.4147
  103TMC2    C1 1599   1.743   0.397  12.362 -0.2135 -0.1888  0.4347
  103TMC2    C2 1600   1.862   0.325  12.368 -0.9253 -0.4148  0.2242
  103TMC2    C3 1601   1.978   0.386  12.401 -0.0237 -0.1644 -0.1436
  103TMC2    C4 1602   1.744   0.532  12.363 -0.4782 -0.7003  0.1323
  103TMC2    C5 1603   1.861   0.587  12.397 -0.2421  0.3085  0.6097
  103TMC2    C6 1604   1.974   0.519  12.427 -0.3547 -0.1963 -0.2039
  103TMC2     C 1605   1.609   0.341  12.343 -0.9433 -0.7709 -0.0478
  103TMC2     O 1606   1.517   0.408  12.290  0.3810 -0.0468 -0.0085
  103TMC2     H 1607   1.864   0.224  12.330 -0.3592  0.0445 -0.9813
  103TMC2    H1 1608   1.659   0.597  12.345 -0.8678 -1.0756  0.6291
  103TMC2    H2 1609   2.069   0.569  12.437 -0.7171  0.2425  1.0144
  103TMC2    C7 1610   1.862   0.736  12.403  0.1156  0.0056  0.1030
  103TMC2    C8 1611   2.093   0.311  12.454  0.8225  0.3064 -0.1056
  103TMC2    O1 1612   1.786   0.800  12.332  0.3283  0.9829  0.4339
  103TMC2    O2 1613   2.106   0.192  12.436  0.6008  0.2979  0.2084
  103TMC2    O5 1614   2.108   0.366  12.576 -0.0649  0.1299 -0.5114
  103TMC2    H5 1615   2.090   0.462  12.568 -1.8175 -0.1398  0.1389
  104MPD2     C 1616   1.528   4.718  12.419 -0.0246 -0.2698 -0.4427
  104MPD2    C1 1617   1.515   0.110  12.367  0.6398  0.3544  0.1972
  104MPD2    C2 1618   1.390   0.144  12.316 -0.1153  1.0758 -0.6638
  104MPD2    C3 1619   1.283   0.054  12.312  0.1692  0.0877 -0.7268
  104MPD2    C4 1620   1.298   4.671  12.381 -0.2503 -0.0080  0.4945
  104MPD2    C5 1621   1.419   4.637  12.430 -0.2358 -0.4620  0.0489
  104MPD2     H 1622   1.379   0.234  12.256  2.8253  1.1212 -1.1436
  104MPD2    H1 1623   1.223   4.593  12.385 -0.4834  0.4088  3.9915
  104MPD2    H2 1624   1.618   4.673  12.460 -0.7590 -0.0430  1.4064
  104MPD2    H3 1625   1.445   4.541  12.472 -0.3504 -0.2083  0.7113
  104MPD2     N 1626   1.165   0.083  12.232  0.1725  0.2175 -0.3199
  104MPD2    H5 1627   1.166   0.159  12.165  1.6135  1.2573  0.8888
  104MPD2    N1 1628   1.615   0.205  12.365  0.2580  0.4556  0.3111
  104MPD2    H7 1629   1.699   0.171  12.411  1.2096  1.6556 -0.5531
  105TMC2    C1 1630   3.193   4.483  17.602  0.3567 -0.7259  0.1016
  105TMC2    C2 1631   3.154   4.616  17.613 -0.4298 -0.0014 -0.3444
  105TMC2    C3 1632   3.068   4.655  17.713  0.0775  0.7013  0.0495
  105TMC2    C4 1633   3.151   4.391  17.692  0.3339  0.2608  0.5587
  105TMC2    C5 1634   3.069   4.431   0.048 -0.0264  0.4084 -0.3340
  105TMC2    C6 1635   3.024   4.561   0.059  0.3821 -0.1133 -0.2481
  105TMC2     C 1636   3.319   4.450  17.532 -0.1710 -0.3968 -0.0800
  105TMC2     O 1637   3.352   4.333  17.531  0.7478  0.3735  0.3275
  105TMC2     H 1638   3.213   4.696  17.572 -0.9948  0.2103 -0.7517
  105TMC2    H1 1639   3.182   4.287  17.693  1.0560  0.4703 -0.3875
  105TMC2    H2 1640   2.939   4.584   0.122  0.8555 -1.0939  0.7361
  105TMC2    C7 1641   3.039   4.331   0.150  0.0808  0.3359  0.5951
  105TMC2    C8 1642   3.015   0.056  17.731 -0.1672 -0.1122 -0.0957
  105TMC2    O1 1643   3.061   4.214   0.122 -0.7691  0.1727 -0.2800
  105TMC2    O2 1644   2.955   0.095   0.087  0.4488 -0.6872 -0.2454
  105TMC2    O5 1645   3.027   0.120  17.616 -0.0501 -0.1798  0.1870
  105TMC2    H5 1646   3.068   0.070  17.542  0.5092 -0.1929  0.5076
  106MPD2     C 1647   3.706   4.553  17.219  0.2156 -0.2412  1.0581
  106MPD2    C1 1648   3.620   4.664  17.210  0.3232  0.0474 -0.3736
  106MPD2    C2 1649   3.521   4.665  17.298  0.3538 -0.3199 -0.4175
  106MPD2    C3 1650   3.481   4.560  17.378  0.4395 -0.2558 -0.1882
  106MPD2    C4 1651   3.573   4.456  17.386  0.2962  0.0916  0.6340
  106MPD2    C5 1652   3.682   4.453  17.313 -0.4274  0.0045  0.4771
  106MPD2     H 1653   3.452   0.013  17.294  0.3894 -0.2844 -0.3004
  106MPD2    H1 1654   3.554   4.374  17.455 -3.0955 -0.6883 -1.2115
  106MPD2    H2 1655   3.784   4.530  17.148 -0.1065 -0.1646  0.6790
  106MPD2    H3 1656   3.738   4.361  17.299  0.4344  0.2121  2.4775
  106MPD2     N 1657   3.359   4.557  17.454 -0.0894 -0.6975 -0.5714
  106MPD2    H5 1658   3.304   4.642  17.455  1.7856  0.5106 -0.1096
  106MPD2    N1 1659   3.639   0.033  17.119 -0.0662  0.8502 -0.2858
  106MPD2    H7 1660   3.578   0.114  17.120 -1.0431  0.0875  2.9795
  107TMC2    C1 1661   3.905   4.277  11.155  0.5516 -0.1667  0.3025
  107TMC2    C2 1662   3.900   4.335  11.031 -0.0323  0.0899  0.0348
  107TMC2    C3 1663   3.911   4.260  10.920 -0.5104 -0.1949  0.2756
  107TMC2    C4 1664   3.951   4.143  11.165  0.2427 -0.0009  0.1773
  107TMC2    C5 1665   3.970   4.071  11.055  0.4886 -0.3639  0.3312
  107TMC2    C6 1666   3.939   4.126  10.932  0.1349  0.0894 -0.6179
  107TMC2     C 1667   3.845   4.347  11.269  0.1342 -0.1703 -0.3431
  107TMC2     O 1668   3.892   4.307  11.378  0.3267  0.2838  0.2346
  107TMC2     H 1669   3.888   4.442  11.018 -2.7011 -0.0917  1.1096
  107TMC2    H1 1670   3.958   4.100  11.265 -1.9145 -1.6517 -0.3802
  107TMC2    H2 1671   3.947   4.068  10.841  0.8691 -1.3902  0.3888
  107TMC2    C7 1672   3.962   3.927  11.068  0.0883 -0.3733  0.6453
  107TMC2    C8 1673   3.952   4.325  10.796  0.2417  0.0387  0.6699
  107TMC2    O1 1674   3.935   3.877  11.176  0.0343  0.0953  0.0197
  107TMC2    O2 1675   4.024   4.266  10.718 -0.0986 -0.2878  0.1088
  107TMC2    O5 1676   3.861   4.424  10.771 -0.2772 -0.0598 -0.0827
  107TMC2    H5 1677   3.779   4.419  10.824  0.0332 -2.8485  0.1574
  108MPD2     C 1678   3.560   4.581  11.276  0.1942 -0.8553  0.1957
  108MPD2    C1 1679   3.660   4.501  11.325  0.4559  0.2993 -0.1796
  108MPD2    C2 1680   3.674   4.503  11.458 -0.8541  0.9543 -0.1333
  108MPD2    C3 1681   3.604   4.589  11.541  0.4819 -1.1252  0.3726
  108MPD2    C4 1682   3.511   4.674  11.489  0.3224  0.7874  0.0919
  108MPD2    C5 1683   3.489   4.673  11.354  0.4764  0.0252  0.4195
  108MPD2     H 1684   3.749   4.441  11.506  0.2976  0.2799 -2.8318
  108MPD2    H1 1685   3.453   0.009  11.547  0.9659  1.5764 -0.2361
  108MPD2    H2 1686   3.532   4.576  11.171 -3.0128  1.8091  0.9263
  108MPD2    H3 1687   3.423   0.009  11.309 -0.5059 -0.5546  0.9320
  108MPD2     N 1688   3.609   4.582  11.682 -0.0924  0.2634  0.1571
  108MPD2    H5 1689   3.532   4.633  11.725  0.7560  2.1681 -0.5491
  108MPD2    N1 1690   3.737   4.429  11.230  0.7518  0.2736  0.0743
  108MPD2    H7 1691   3.714   4.433  11.131  0.8833 -0.2712  0.0222
  109TMC2    C1 1692   4.229   2.163   0.762 -0.1690 -0.7770 -0.1294
  109TMC2    C2 1693   4.230   2.163   0.619 -1.1651 -0.0632 -0.2505
  109TMC2    C3 1694   4.350   2.182   0.554 -0.1572 -0.0194  0.2242
  109TMC2    C4 1695   4.339   2.178   0.834 -0.1931 -0.2680 -0.2315
  109TMC2    C5 1696   4.457   2.209   0.760  0.0493 -0.0692  0.1994
  109TMC2    C6 1697   4.459   2.212   0.624  0.0966  0.3014 -0.2687
  109TMC2     C 1698   4.104   2.177   0.830 -0.2816  0.0292  0.0208
  109TMC2     O 1699   4.015   2.236   0.768 -0.2298 -0.0318 -0.0429
  109TMC2     H 1700   4.137   2.155   0.564 -0.5930 -0.4212 -1.1730
  109TMC2    H1 1701   4.340   2.215   0.936  0.8223  0.2544 -0.4321
  109TMC2    H2 1702   4.547   2.251   0.573  1.4742 -2.7669 -0.2267
  109TMC2    C7 1703   4.588   2.207   0.830 -1.1895 -0.1423 -0.0916
  109TMC2    C8 1704   4.329   2.236   0.420  0.3353  0.0003  0.6789
  109TMC2    O1 1705   4.682   2.233   0.758  0.3518  0.4986 -0.2947
  109TMC2    O2 1706   4.222   2.273   0.376  0.2023 -0.0917  0.1104
  109TMC2    O5 1707   4.447   2.206   0.357  0.1530 -0.1461 -0.5996
  109TMC2    H5 1708   4.491   2.132   0.404  0.9821  0.0481 -1.0538
  110MPD2     C 1709   3.798   2.077   1.227  0.2971  0.1699  0.8968
  110MPD2    C1 1710   3.924   2.041   1.269 -0.8014 -0.2716  0.2809
  110MPD2    C2 1711   4.031   2.062   1.179  0.3043  0.5162  0.3027
  110MPD2    C3 1712   4.002   2.122   1.056 -1.4809 -0.0916 -0.1652
  110MPD2    C4 1713   3.871   2.147   1.016  0.9426 -0.0300 -0.6841
  110MPD2    C5 1714   3.769   2.139   1.110  0.4987 -0.7388 -0.3737
  110MPD2     H 1715   4.132   2.062   1.218  1.1050 -2.0354 -1.7528
  110MPD2    H1 1716   3.857   2.172   0.912  0.1712 -1.8263 -1.0135
  110MPD2    H2 1717   3.711   2.048   1.285 -0.4899 -0.9190 -0.8717
  110MPD2    H3 1718   3.662   2.151   1.101  0.7871  0.9209 -1.5172
  110MPD2     N 1719   4.105   2.127   0.961 -0.3085 -0.1219  0.6172
  110MPD2    H5 1720   4.192   2.088   0.998  0.3999  0.7867 -0.0797
  110MPD2    N1 1721   3.944   1.976   1.398 -0.8070  0.3887 -0.1101
  110MPD2    H7 1722   3.863   1.962   1.459 -0.7602  2.8843  0.5249
  111TMC2    C1 1723   3.675   1.171  11.952  0.0382 -0.2982  0.1626
  111TMC2    C2 1724   3.613   1.090  12.047  0.6369 -0.5106 -0.4878
  111TMC2    C3 1725   3.681   1.045  12.156  0.2681  0.4760 -0.1410
  111TMC2    C4 1726   3.812   1.181  11.966 -0.0743 -0.0350 -0.2921
  111TMC2    C5 1727   3.887   1.138  12.071  0.0107 -0.4060 -0.7674
  111TMC2    C6 1728   3.816   1.068  12.167  0.1592 -0.6597  0.1500
  111TMC2     C 1729   3.611   1.213  11.828  0.7377 -0.3145 -0.7068
  111TMC2     O 1730   3.692   1.269  11.754 -0.5591  0.3939  0.3422
  111TMC2     H 1731   3.506   1.072  12.043  0.3238  0.8291  2.1381
  111TMC2    H1 1732   3.866   1.251  11.904 -1.2447  0.1529 -1.0899
  111TMC2    H2 1733   3.864   1.034  12.258  2.1851  1.6145 -0.0607
  111TMC2    C7 1734   4.028   1.122  12.059 -0.1045  0.2287  0.4365
  111TMC2    C8 1735   3.636   0.914  12.177 -0.1011 -0.3150 -0.1147
  111TMC2    O1 1736   4.080   1.053  12.145 -0.2516  0.3958 -0.6972
  111TMC2    O2 1737   3.715   0.819  12.158 -0.1592 -0.2592 -0.8225
  111TMC2    O5 1738   3.509   0.912  12.226 -0.1812  0.1309 -0.0783
  111TMC2    H5 1739   3.503   1.000  12.268 -0.1291 -0.2237  0.6648
  112MPD2     C 1740   3.237   1.294  11.491  0.0087 -0.5295  0.9770
  112MPD2    C1 1741   3.371   1.312  11.477 -0.9596 -0.0360 -0.1747
  112MPD2    C2 1742   3.457   1.292  11.590  0.4013 -0.1935 -0.7556
  112MPD2    C3 1743   3.403   1.252  11.711  0.1295 -0.8151  1.0054
  112MPD2    C4 1744   3.266   1.223  11.718  0.0904  0.4140  0.4707
  112MPD2    C5 1745   3.190   1.246  11.606  0.3809 -0.5240 -0.9151
  112MPD2     H 1746   3.563   1.312  11.577 -0.2235  1.7965 -2.7977
  112MPD2    H1 1747   3.215   1.184  11.805  3.0925  2.6547  3.2029
  112MPD2    H2 1748   3.161   1.313  11.416  0.3467 -2.3806  0.1550
  112MPD2    H3 1749   3.085   1.221  11.604  0.7692 -2.2271 -0.4338
  112MPD2     N 1750   3.473   1.210  11.825 -0.0584 -0.7435 -0.0283
  112MPD2    H5 1751   3.417   1.166  11.898 -3.0249 -1.4110 -2.6957
  112MPD2    N1 1752   3.419   1.362  11.351  0.3659 -0.3926 -0.5467
  112MPD2    H7 1753   3.518   1.382  11.355  0.5487 -1.7882  1.8479
  113TMC2    C1 1754   2.451   3.888   0.678  0.7259 -0.0501 -0.0031
  113TMC2    C2 1755   2.434   3.989   0.586  0.1826  0.7042  0.6008
  113TMC2    C3 1756   2.312   4.003   0.526  0.7115 -0.3923  0.3197
  113TMC2    C4 1757   2.364   3.791   0.713  0.4647 -0.3917  0.5216
  113TMC2    C5 1758   2.238   3.817   0.658 -0.4847 -0.5637 -0.6870
  113TMC2    C6 1759   2.215   3.916   0.566 -0.4079 -0.0884  0.4707
  113TMC2     C 1760   2.581   3.888   0.737  0.3466 -0.0694 -0.3512
  113TMC2     O 1761   2.645   3.991   0.740 -0.1098 -0.0266 -0.5787
  113TMC2     H 1762   2.513   4.063   0.576  0.8546 -0.2513 -1.0706
  113TMC2    H1 1763   2.371   3.720   0.795  1.8274  0.7556  1.3813
  113TMC2    H2 1764   2.126   3.927   0.506 -1.5823 -0.2917  2.2042
  113TMC2    C7 1765   2.141   3.709   0.657 -0.2638  0.2420  0.1631
  113TMC2    C8 1766   2.280   4.125   0.451 -0.4965 -0.0327  0.3114
  113TMC2    O1 1767   2.077   3.694   0.550 -0.0152 -0.4355 -1.1025
  113TMC2    O2 1768   2.179   4.186   0.478 -0.6337 -0.2796 -0.3714
  113TMC2    O5 1769   2.391   4.179   0.411 -0.0525  0.6108 -0.1304
  113TMC2    H5 1770   2.445   4.107   0.373 -0.6624 -0.1850  0.5307
  114MPD2     C 1771   2.944   3.641   1.010 -0.4128  0.1575 -0.5705
  114MPD2    C1 1772   2.917   3.775   1.005  0.5643 -0.5790  0.0618
  114MPD2    C2 1773   2.813   3.817   0.925 -0.1336  0.3606 -0.4355
  114MPD2    C3 1774   2.726   3.731   0.854  0.3138  0.7061  0.1955
  114MPD2    C4 1775   2.762   3.598   0.860 -0.1616  0.8176 -0.1370
  114MPD2    C5 1776   2.865   3.554   0.935  0.3082  0.2784 -0.8315
  114MPD2     H 1777   2.804   3.924   0.912  1.8644  1.0160  3.4830
  114MPD2    H1 1778   2.692   3.531   0.812 -1.8250  1.9249  0.7442
  114MPD2    H2 1779   3.032   3.596   1.054 -0.5253 -1.4065 -1.9500
  114MPD2    H3 1780   2.881   3.447   0.926  0.3852  0.3442 -1.4786
  114MPD2     N 1781   2.614   3.764   0.777 -0.5330 -0.0149  0.3729
  114MPD2    H5 1782   2.565   3.686   0.733  0.2118 -0.4825  0.3751
  114MPD2    N1 1783   2.998   3.873   1.068  0.2145  0.2414  0.0806
  114MPD2    H7 1784   2.997   3.970   1.036  2.7549 -0.2343 -1.4912
  115TMC2    C1 1785   3.370   2.009   0.099 -0.1734 -0.5464  0.6319
  115TMC2    C2 1786   3.502   2.004   0.106 -0.2554  0.1886  0.0446
  115TMC2    C3 1787   3.576   2.117   0.069 -0.0610 -0.2213 -0.3125
  115TMC2    C4 1788   3.311   2.121   0.040  0.1031  0.2237 -0.4276
  115TMC2    C5 1789   3.388   2.234   0.015  0.2774  0.7708  0.1671
  115TMC2    C6 1790   3.522   2.231   0.029  0.0438  0.1261 -0.6891
  115TMC2     C 1791   3.295   1.888   0.088 -0.6102  0.3092  0.2687
  115TMC2     O 1792   3.202   1.887   0.010  0.4749 -0.1467  0.8498
  115TMC2     H 1793   3.548   1.914   0.145  0.9979  0.7884 -0.0349
  115TMC2    H1 1794   3.206   2.120   0.016 -0.2325  1.2537  0.9364
  115TMC2    H2 1795   3.600   2.302   0.002 -0.1851  0.6913  0.1406
  115TMC2    C7 1796   3.314   2.352  17.722  0.0696  0.6406 -0.3362
  115TMC2    C8 1797   3.717   2.111   0.043 -0.6670 -0.2224 -0.2848
  115TMC2    O1 1798   3.192   2.342  17.723  0.5645  0.2225  0.5206
  115TMC2    O2 1799   3.801   2.204   0.044 -0.0126  0.0541  0.3914
  115TMC2    O5 1800   3.748   1.980   0.059 -0.4415  0.2487  0.3647
  115TMC2    H5 1801   3.672   1.926   0.028 -0.9263 -0.1565  2.2674
  116MPD2     C 1802   3.273   1.396   0.069  0.9501  0.1439 -0.2185
  116MPD2    C1 1803   3.179   1.488   0.030 -0.0011  0.0197  0.0895
  116MPD2    C2 1804   3.193   1.618   0.070 -0.6424  0.2774  0.0816
  116MPD2    C3 1805   3.308   1.651   0.138 -0.3455 -0.1699 -0.4216
  116MPD2    C4 1806   3.396   1.555   0.177 -0.5755  0.8478 -0.6794
  116MPD2    C5 1807   3.381   1.429   0.136  0.3061 -0.0421 -0.3654
  116MPD2     H 1808   3.114   1.691   0.054 -0.5984  0.0114 -1.3114
  116MPD2    H1 1809   3.478   1.595   0.237 -0.1109  2.0321 -2.0949
  116MPD2    H2 1810   3.260   1.291   0.046 -1.3013  0.7176 -1.5996
  116MPD2    H3 1811   3.461   1.357   0.150  0.6304  0.5500  0.8441
  116MPD2     N 1812   3.345   1.785   0.161  0.0814 -0.4071  0.1819
  116MPD2    H5 1813   3.425   1.810   0.219  0.7603 -3.2113  0.4747
  116MPD2    N1 1814   3.076   1.448  17.681 -0.0419 -0.4842  0.0766
  116MPD2    H7 1815   3.079   1.350  17.654 -0.5805 -1.0825  2.2091
  117TMC2    C1 1816   1.585   3.441  14.042  0.1946 -0.1636 -0.7049
  117TMC2    C2 1817   1.688   3.351  14.062 -0.1961 -0.1463 -0.6357
  117TMC2    C3 1818   1.819   3.387  14.030 -0.1588  0.4398 -0.0606
  117TMC2    C4 1819   1.612   3.573  14.000 -1.2632  0.0726 -0.2539
  117TMC2    C5 1820   1.745   3.609  13.967 -0.1804  0.0580 -0.1832
  117TMC2    C6 1821   1.848   3.516  13.979  0.6331 -0.0660  0.3182
  117TMC2     C 1822   1.460   3.379  14.003  0.2835  0.0965 -0.5959
  117TMC2     O 1823   1.458   3.257  13.992  0.0901 -0.8724 -0.0921
  117TMC2     H 1824   1.666   3.248  14.086 -1.6374  0.3799  0.2829
  117TMC2    H1 1825   1.533   3.647  13.995 -0.4995  0.9799  1.1672
  117TMC2    H2 1826   1.944   3.536  13.932  0.3486  1.4358  0.3901
  117TMC2    C7 1827   1.779   3.741  13.915  0.3989 -0.5688  0.2264
  117TMC2    C8 1828   1.921   3.283  14.009  0.0474  0.1330  0.2438
  117TMC2    O1 1829   1.899   3.765  13.928  1.0223  0.1937  0.2155
  117TMC2    O2 1830   2.019   3.308  13.942  0.3090 -0.2903  0.3027
  117TMC2    O5 1831   1.920   3.232  14.134 -0.4165  0.7317 -0.2543
  117TMC2    H5 1832   1.841   3.253  14.189 -0.8348 -1.0585 -0.1729
  118MPD2     C 1833   1.565   4.024  13.813 -0.0941  0.3523  0.4793
  118MPD2    C1 1834   1.680   3.960  13.861 -0.3145 -0.5918  0.0330
  118MPD2    C2 1835   1.793   4.032  13.877  0.4312  0.0691  0.0314
  118MPD2    C3 1836   1.793   4.170  13.857  0.1319  0.4841 -0.4274
  118MPD2    C4 1837   1.674   4.232  13.817  0.0587 -0.2406 -0.1610
  118MPD2    C5 1838   1.560   4.160  13.797  0.2592 -0.0645  0.0497
  118MPD2     H 1839   1.882   3.983  13.915 -0.2501 -0.2908  1.1557
  118MPD2    H1 1840   1.678   4.338  13.791  1.0606 -0.0052  0.9212
  118MPD2    H2 1841   1.480   3.961  13.788  0.8269  0.7752 -3.7697
  118MPD2    H3 1842   1.462   4.197  13.769 -1.1109 -0.9324  3.7511
  118MPD2     N 1843   1.907   4.249  13.873  0.2808  0.9471 -0.2575
  118MPD2    H5 1844   1.897   4.350  13.863  1.7228  1.0723 -0.4830
  118MPD2    N1 1845   1.677   3.819  13.870  0.1633 -0.8513  0.1733
  118MPD2    H7 1846   1.590   3.769  13.853  1.8513 -2.6552 -3.1864
  119TMC2    C1 1847   4.517   4.466  13.139 -0.2714 -0.5171 -0.2997
  119TMC2    C2 1848   4.472   4.416  13.015  0.7770 -0.1249  0.2192
  119TMC2    C3 1849   4.386   4.310  13.014 -0.0102 -0.5266  0.1413
  119TMC2    C4 1850   4.471   4.402  13.254  0.1125 -0.4489  1.1433
  119TMC2    C5 1851   4.378   4.304  13.247 -0.1656  0.1493 -0.1808
  119TMC2    C6 1852   4.341   4.258  13.130  0.0499 -0.3069 -0.6582
  119TMC2     C 1853   4.545   4.603  13.160 -0.3722  0.6470  0.1630
  119TMC2     O 1854   4.507   4.656  13.262 -0.3897 -0.5445 -0.9096
  119TMC2     H 1855   4.494   4.474  12.926 -0.5810 -2.5107 -1.6765
  119TMC2    H1 1856   4.486   4.448  13.350  1.9428  0.8649  0.2259
  119TMC2    H2 1857   4.274   4.173  13.135 -2.2597  1.6273  1.3834
  119TMC2    C7 1858   4.274   4.296  13.350 -0.0162  0.9428  0.5781
  119TMC2    C8 1859   4.364   4.239  12.895 -0.5058  0.5892 -0.1028
  119TMC2    O1 1860   4.160   4.290  13.309 -0.4267  0.5841 -0.1507
  119TMC2    O2 1861   4.429   4.264  12.793 -0.0420 -0.1339  0.3640
  119TMC2    O5 1862   4.230   4.240  12.900 -0.2103  0.2477 -0.4914
  119TMC2    H5 1863   4.189   4.255  12.988 -0.2150  0.5725 -0.5475
  120MPD2     C 1864   0.078   0.272  13.068  0.1087  0.0464  0.5899
  120MPD2    C1 1865   4.705   0.254  13.149 -1.2912  0.1714 -0.2664
  120MPD2    C2 1866   4.632   0.141  13.134  0.7863  0.6207 -0.0611
  120MPD2    C3 1867   4.669   0.047  13.040 -0.2951 -0.2675 -0.8658
  120MPD2    C4 1868   0.039   0.071  12.952  0.1993 -0.8771  0.0140
  120MPD2    C5 1869   0.109   0.185  12.967  0.2841 -0.4991  0.5860
  120MPD2     H 1870   4.541   0.121  13.190  2.3501 -0.4355  2.1249
  120MPD2    H1 1871   0.076   4.731  12.884 -2.2452 -3.0882  1.1426
  120MPD2    H2 1872   0.126   0.368  13.074 -1.3256  0.8043  0.0752
  120MPD2    H3 1873   0.186   0.207  12.893 -1.5832 -0.4213 -1.3340
  120MPD2     N 1874   4.612   4.649  13.050 -0.0613  0.4211  0.2234
  120MPD2    H5 1875   4.645   4.578  12.985 -0.4853 -0.1837  0.6624
  120MPD2    N1 1876   4.685   0.352  13.256 -0.4919 -0.2859  0.5160
  120MPD2    H7 1877   0.017   0.426  13.269 -0.1558 -0.5717  0.3809
  121TMC2    C1 1878   1.473   1.711  14.253 -0.0103 -0.0517 -1.0337
  121TMC2    C2 1879   1.459   1.633  14.366  0.2254 -0.4566  0.6574
  121TMC2    C3 1880   1.328   1.592  14.392  1.0963  0.7166  0.0402
  121TMC2    C4 1881   1.372   1.748  14.169 -0.2239 -0.5971  0.2662
  121TMC2    C5 1882   1.251   1.705  14.198  0.2299 -0.1591  0.8049
  121TMC2    C6 1883   1.222   1.630  14.307  0.0837  0.7604 -0.4375
  121TMC2     C 1884   1.600   1.781  14.247  0.0101 -0.0334  0.1532
  121TMC2     O 1885   1.673   1.768  14.347  0.5383  0.0858 -0.1207
  121TMC2     H 1886   1.536   1.590  14.429  1.1298 -0.7355 -0.6215
  121TMC2    H1 1887   1.400   1.812  14.086 -1.5922  0.0275  0.2976
  121TMC2    H2 1888   1.121   1.603  14.336  0.2598  0.0783 -0.4761
  121TMC2    C7 1889   1.161   1.713  14.086  0.5567  0.4884 -0.2979
  121TMC2    C8 1890   1.326   1.463  14.459  0.3491  0.4253 -0.3161
  121TMC2    O1 1891   1.215   1.739  13.979  0.4423  0.1117  0.6905
  121TMC2    O2 1892   1.414   1.379  14.469 -0.1188 -0.4682  0.7407
  121TMC2    O5 1893   1.197   1.432  14.487 -0.0591  0.0203 -0.1540
  121TMC2    H5 1894   1.153   1.518  14.503  1.1819  0.4916  0.7592
  122MPD2     C 1895   1.817   1.974  14.195 -0.1895  0.8774 -0.5006
  122MPD2    C1 1896   1.747   1.911  14.096 -0.4616  0.5352 -0.4629
  122MPD2    C2 1897   1.768   1.957  13.966 -0.1253 -0.2761  0.3402
  122MPD2    C3 1898   1.868   2.052  13.935  0.2236  0.0019  0.3203
  122MPD2    C4 1899   1.938   2.112  14.036 -0.1230  0.2122 -0.1213
  122MPD2    C5 1900   1.912   2.070  14.165 -0.1221 -0.1335  0.1671
  122MPD2     H 1901   1.707   1.920  13.885  2.6942 -0.8714 -1.4927
  122MPD2    H1 1902   2.012   2.189  14.017 -0.1453 -0.2182 -1.9369
  122MPD2    H2 1903   1.799   1.954  14.301 -0.3917  0.9912 -0.5127
  122MPD2    H3 1904   1.963   2.126  14.243 -1.1430  1.1903 -0.1047
  122MPD2     N 1905   1.902   2.098  13.801 -0.2310 -0.1559 -0.6401
  122MPD2    H5 1906   1.972   2.171  13.792  0.6446 -0.8347  0.7438
  122MPD2    N1 1907   1.636   1.822  14.118 -0.3812  0.0600  0.6826
  122MPD2    H7 1908   1.591   1.779  14.038 -0.9319 -0.9787  1.5539
  123TMC2    C1 1909   0.024   4.658   9.662  0.9697 -0.7676 -0.0756
  123TMC2    C2 1910   0.135   4.628   9.597 -0.6522 -0.2510  0.6740
  123TMC2    C3 1911   0.194   4.508   9.620  0.0625  0.3957  0.9001
  123TMC2    C4 1912   4.700   4.572   9.751  0.6695  0.7853 -0.0309
  123TMC2    C5 1913   0.013   4.444   9.760 -0.2227 -1.0432 -0.4054
  123TMC2    C6 1914   0.131   4.407   9.695  1.2197  0.1599  1.0207
  123TMC2     C 1915   4.705   0.054   9.633  0.6725 -0.4675  0.4270
  123TMC2     O 1916   0.042   0.139   9.585  0.1359  0.1396 -0.1798
  123TMC2     H 1917   0.188   4.705   9.543  0.8126 -0.7573  1.3889
  123TMC2    H1 1918   4.604   4.600   9.794  0.0537  0.9592 -1.5001
  123TMC2    H2 1919   0.171   4.308   9.710  0.0448 -0.5783 -0.8257
  123TMC2    C7 1920   4.682   4.342   9.842 -0.2613  0.0414 -0.5037
  123TMC2    C8 1921   0.323   4.476   9.557 -0.3216 -0.1157 -0.3873
  123TMC2    O1 1922   4.683   4.228   9.798  0.6188  0.1107 -0.1156
  123TMC2    O2 1923   0.403   4.569   9.527  0.3139 -0.3538  0.1658
  123TMC2    O5 1924   0.308   4.362   9.490 -0.1246  0.7731  0.2732
  123TMC2    H5 1925   0.223   4.320   9.513 -0.1449  0.6465 -0.0380
  124MPD2     C 1926   4.319   0.401   9.606 -0.2205  0.6208  0.9407
  124MPD2    C1 1927   4.268   0.278   9.616  0.1103 -0.0821 -0.1136
  124MPD2    C2 1928   4.358   0.174   9.629 -0.2608  0.4559 -0.3194
  124MPD2    C3 1929   4.494   0.192   9.618 -0.8980  0.3160 -0.3401
  124MPD2    C4 1930   4.544   0.323   9.618 -0.5298  0.0082  0.2819
  124MPD2    C5 1931   4.456   0.423   9.599 -0.1533  0.3370  0.5387
  124MPD2     H 1932   4.325   0.074   9.656 -0.7139  0.4833 -0.7654
  124MPD2    H1 1933   4.652   0.333   9.614 -0.9074  3.1713 -2.1115
  124MPD2    H2 1934   4.248   0.483   9.596 -0.4341  0.3706  0.3966
  124MPD2    H3 1935   4.494   0.525   9.591  0.0952  0.0227 -2.1990
  124MPD2     N 1936   4.571   0.072   9.637 -0.4846  0.2747  0.1622
  124MPD2    H5 1937   4.521   4.720   9.645 -1.9857  0.9550 -1.6585
  124MPD2    N1 1938   4.127   0.263   9.632 -0.2362  0.5532 -0.0845
  124MPD2    H7 1939   4.076   0.349   9.646  1.9277  1.8136  0.0736
  125TMC2    C1 1940   4.429   2.527  10.125 -0.3584  0.0899  0.3138
  125TMC2    C2 1941   4.494   2.555  10.245 -0.2825  0.3032  0.3076
  125TMC2    C3 1942   4.635   2.568  10.235 -0.7488  0.9788  0.0048
  125TMC2    C4 1943   4.494   2.484  10.016 -0.1480  0.2021  0.0459
  125TMC2    C5 1944   4.633   2.486  10.015 -0.7909 -0.4933 -0.1059
  125TMC2    C6 1945   4.709   2.533  10.118  0.4059 -0.6626 -0.1684
  125TMC2     C 1946   4.286   2.555  10.104  0.0974  0.0075 -0.2460
  125TMC2     O 1947   4.242   2.563   9.992 -0.1550  0.6257 -0.4059
  125TMC2     H 1948   4.441   2.579  10.336  0.4470  0.1858  0.7607
  125TMC2    H1 1949   4.443   2.452   9.926  1.5828 -0.0046 -0.8483
  125TMC2    H2 1950   0.081   2.536  10.116  0.4932 -3.5409  0.0020
  125TMC2    C7 1951   4.689   2.459   9.885 -0.6339  0.1089 -0.8771
  125TMC2    C8 1952   4.700   2.637  10.345  0.6322  0.5421 -0.0288
  125TMC2    O1 1953   4.608   2.464   9.789 -0.4699 -0.0019 -0.4706
  125TMC2    O2 1954   4.661   2.644  10.463  0.2288 -0.0957 -0.1450
  125TMC2    O5 1955   0.055   2.726  10.290  0.2200 -0.6751 -0.0982
  125TMC2    H5 1956   0.049   2.734  10.192  0.4361 -0.4861 -0.0967
  126MPD1     C 1957   3.796   2.621  10.246 -0.6831 -0.6089 -0.3699
  126MPD1    C1 1958   3.874   2.638  10.360 -1.1194 -0.0085  0.7525
  126MPD1    C2 1959   4.011   2.631  10.350 -0.3560 -0.0290  0.0880
  126MPD1    C3 1960   4.074   2.609  10.231 -0.9254 -0.3794 -0.7070
  126MPD1    C4 1961   3.986   2.606  10.118  0.4388 -0.1523 -1.1185
  126MPD1    C5 1962   3.852   2.619  10.120  0.0265 -0.4710  0.4222
  126MPD1     H 1963   4.080   2.618  10.432  1.0827 -2.8210 -1.5774
  126MPD1    H1 1964   4.028   2.598  10.019 -0.3239  1.3317 -1.5763
  126MPD1    H2 1965   3.688   2.629  10.249 -0.6618 -0.0593 -0.9418
  126MPD1    H3 1966   3.789   2.612  10.032  0.2895  0.8312  0.1208
  126MPD1     N 1967   4.219   2.584  10.224  0.2974  0.2889  0.2192
  126MPD1    H5 1968   4.268   2.580  10.313  3.2858  1.2418 -1.4093
  126MPD1    N1 1969   3.813   2.644  10.485 -0.3002  0.2841 -0.7104
  126MPD1    H6 1970   3.721   2.686  10.490  0.1501  1.3631 -1.4812
  126MPD1    H7 1971   3.863   2.705  10.549 -0.8219 -2.1259  1.9783
  127TMC2    C1 1972   1.133   0.825   9.840 -0.0404  0.0495 -0.3577
  127TMC2    C2 1973   1.207   0.781   9.948 -0.4616 -0.2900  0.6118
  127TMC2    C3 1974   1.144   0.712  10.048 -1.0821 -0.0712 -0.4530
  127TMC2    C4 1975   1.003   0.797   9.831 -0.1834 -0.3322 -0.7068
  127TMC2    C5 1976   0.945   0.733   9.937  0.4908  0.4024  0.5845
  127TMC2    C6 1977   1.015   0.686  10.046 -0.5394  0.3366  0.0071
  127TMC2     C 1978   1.200   0.882   9.729 -0.0006  0.3654  0.2685
  127TMC2     O 1979   1.320   0.908   9.749 -0.3247  0.4522  0.2450
  127TMC2     H 1980   1.314   0.799   9.945 -0.5102 -0.3255 -1.4398
  127TMC2    H1 1981   0.942   0.840   9.752 -0.7111  1.2960  0.5726
  127TMC2    H2 1982   0.966   0.640  10.131 -1.4667  0.9558 -0.1923
  127TMC2    C7 1983   0.807   0.700   9.930  0.3072  0.1128  0.2500
  127TMC2    C8 1984   1.224   0.698  10.166  0.7697  0.5736  0.2562
  127TMC2    O1 1985   0.738   0.783   9.876  0.1936  0.0611  0.1668
  127TMC2    O2 1986   1.343   0.673  10.164  0.4723  0.7413 -0.3042
  127TMC2    O5 1987   1.141   0.695  10.270 -0.1301  0.3610 -0.0661
  127TMC2    H5 1988   1.049   0.711  10.240 -0.8715 -0.1095  1.9462
  128MPD2     C 1989   1.086   0.944   9.378 -0.8167  0.6801 -0.2922
  128MPD2    C1 1990   1.167   0.957   9.490 -0.0169  0.4067 -0.8942
  128MPD2    C2 1991   1.270   1.049   9.487  0.6425 -0.8025 -0.0634
  128MPD2    C3 1992   1.305   1.118   9.368  0.4891 -0.1217 -1.1668
  128MPD2    C4 1993   1.223   1.102   9.265  0.4252  0.1456 -0.6958
  128MPD2    C5 1994   1.116   1.018   9.267 -0.5563  0.3740 -0.3012
  128MPD2     H 1995   1.316   1.075   9.582 -1.5255  1.4326  0.3698
  128MPD2    H1 1996   1.240   1.153   9.170  0.2171  0.2242 -0.6896
  128MPD2    H2 1997   1.012   0.865   9.380  0.5981 -0.6225  0.9849
  128MPD2    H3 1998   1.053   1.013   9.180  1.7960  2.0483 -2.1090
  128MPD2     N 1999   1.400   1.220   9.370  0.4684 -0.7358  0.5741
  128MPD2    H5 2000   1.467   1.219   9.446  1.9779 -1.3635 -0.7614
  128MPD2    N1 2001   1.129   0.887   9.611  0.1798 -0.4567 -0.2411
  128MPD2    H7 2002   1.036   0.848   9.608  0.5968 -1.3811 -0.9223
  129TMC2    C1 2003   0.994   1.042   1.391  0.0306 -0.2953  0.0638
  129TMC2    C2 2004   0.929   1.116   1.488  0.6523 -0.4069  0.3987
  129TMC2    C3 2005   0.797   1.079   1.514 -0.3974 -0.3514  0.2297
  129TMC2    C4 2006   0.938   0.937   1.322 -0.3997  0.1064  0.0602
  129TMC2    C5 2007   0.804   0.914   1.339 -0.2029 -0.9495 -0.2493
  129TMC2    C6 2008   0.735   0.979   1.443  0.0803  0.7475  0.0222
  129TMC2     C 2009   1.124   1.092   1.352  0.0568  0.3737  0.2918
  129TMC2     O 2010   1.207   1.010   1.309 -0.0313  0.0004  0.0999
  129TMC2     H 2011   0.973   1.198   1.544 -0.3723 -0.9218  1.9526
  129TMC2    H1 2012   0.998   0.894   1.242 -0.9286 -0.1161 -0.2209
  129TMC2    H2 2013   0.629   0.960   1.451  0.2184 -0.1571 -0.2710
  129TMC2    C7 2014   0.746   0.790   1.298 -0.1633 -0.0201 -0.0573
  129TMC2    C8 2015   0.740   1.133   1.635  0.6434 -0.0559 -0.2097
  129TMC2    O1 2016   0.624   0.776   1.306 -0.3468  0.1990 -0.6120
  129TMC2    O2 2017   0.708   1.249   1.643 -0.5602  0.2408  0.1999
  129TMC2    O5 2018   0.687   1.025   1.698 -0.0243 -0.1878  0.0733
  129TMC2    H5 2019   0.739   0.943   1.683  0.5139 -0.1756  1.8130
  130MPD2     C 2020   1.386   1.247   1.327 -0.0574 -0.0436  0.3126
  130MPD2    C1 2021   1.263   1.301   1.362 -0.0703  0.1617  0.8238
  130MPD2    C2 2022   1.262   1.435   1.390  0.2969  0.0439  0.2035
  130MPD2    C3 2023   1.373   1.516   1.373 -0.4977 -0.2971  0.1249
  130MPD2    C4 2024   1.492   1.460   1.320 -0.8863 -0.1115 -0.2071
  130MPD2    C5 2025   1.495   1.331   1.292 -0.5375  0.1301 -0.5639
  130MPD2     H 2026   1.171   1.484   1.422  0.6006 -0.6876  2.2000
  130MPD2    H1 2027   1.576   1.519   1.286 -0.9205  0.3880  0.5803
  130MPD2    H2 2028   1.398   1.145   1.290 -2.0847 -0.0872 -0.2190
  130MPD2    H3 2029   1.585   1.287   1.249 -0.3170  0.6246 -0.6125
  130MPD2     N 2030   1.361   1.649   1.418  0.4759 -0.2128 -0.2067
  130MPD2    H5 2031   1.275   1.665   1.469  1.7975 -1.2947  2.3784
  130MPD2    N1 2032   1.142   1.227   1.379  0.5159 -0.2713  0.2486
  130MPD2    H7 2033   1.057   1.276   1.407 -0.0678 -0.9861 -0.2572
  131TMC2    C1 2034   3.980   1.089   9.903 -0.2503  0.0772 -0.7082
  131TMC2    C2 2035   3.904   1.182   9.974 -0.3113  0.4031 -0.7206
  131TMC2    C3 2036   3.920   1.308   9.941 -0.0850  0.5009 -0.3353
  131TMC2    C4 2037   4.067   1.122   9.804  0.2965  0.6238  0.2629
  131TMC2    C5 2038   4.071   1.254   9.770 -0.3088  0.4765  0.2369
  131TMC2    C6 2039   4.007   1.345   9.843  0.2808  0.3467 -0.2545
  131TMC2     C 2040   3.942   0.953   9.910  0.1219  0.3329 -0.0866
  131TMC2     O 2041   3.990   0.874   9.826  0.1924 -0.3315 -0.1574
  131TMC2     H 2042   3.838   1.158  10.057  0.3528 -0.6824 -0.4929
  131TMC2    H1 2043   4.117   1.043   9.748  1.2130  0.0017  1.9431
  131TMC2    H2 2044   4.004   1.445   9.800 -0.2949  0.6946  0.5896
  131TMC2    C7 2045   4.162   1.305   9.664 -0.0864 -0.1717  0.5547
  131TMC2    C8 2046   3.863   1.405  10.033 -0.1469  0.2515  1.1844
  131TMC2    O1 2047   4.167   1.237   9.566 -0.6948  0.2847 -0.2017
  131TMC2    O2 2048   3.913   1.516  10.046 -0.6725  0.2007  0.5437
  131TMC2    O5 2049   3.747   1.363  10.080  0.5198 -0.1147 -0.4548
  131TMC2    H5 2050   3.715   1.277  10.043  1.6831 -0.6383 -0.2343
  132MPD2     C 2051   3.613   0.830  10.040 -0.0209 -0.3763 -0.1823
  132MPD2    C1 2052   3.739   0.820   9.979 -0.2852 -0.0526  0.7699
  132MPD2    C2 2053   3.782   0.699   9.919  0.6587  0.5093 -0.4568
  132MPD2    C3 2054   3.700   0.589   9.925 -0.1983  0.0356 -0.0111
  132MPD2    C4 2055   3.586   0.598  10.001 -0.0437 -0.0948  0.2771
  132MPD2    C5 2056   3.538   0.714  10.058 -0.2378 -0.2395  0.6296
  132MPD2     H 2057   3.879   0.692   9.871  0.0695  1.6260 -1.8188
  132MPD2    H1 2058   3.522   0.511  10.013 -0.0053  0.1389  2.3104
  132MPD2    H2 2059   3.590   0.920  10.095 -0.7408 -1.1535  0.8152
  132MPD2    H3 2060   3.448   0.728  10.117 -0.7501 -0.7257 -0.0404
  132MPD2     N 2061   3.737   0.473   9.851 -0.1117  0.2097  0.3623
  132MPD2    H5 2062   3.820   0.478   9.793 -0.2243 -1.9857  0.0033
  132MPD2    N1 2063   3.833   0.926   9.994 -0.1056 -0.8513 -0.3208
  132MPD2    H7 2064   3.802   1.008  10.045 -1.4675 -0.8902 -1.0955
  133TMC2    C1 2065   2.952   1.650   9.136 -0.0442 -0.0393  0.3320
  133TMC2    C2 2066   3.074   1.682   9.197  1.0028  0.3570 -0.2412
  133TMC2    C3 2067   3.128   1.803   9.189 -0.7980  0.1529 -0.3300
  133TMC2    C4 2068   2.902   1.743   9.052 -0.4075 -0.2416  0.3884
  133TMC2    C5 2069   2.956   1.873   9.045  0.7033 -0.1710  0.4966
  133TMC2    C6 2070   3.075   1.903   9.109 -0.2651 -0.2510  0.5710
  133TMC2     C 2071   2.896   1.522   9.152 -0.0539 -0.0692  0.7515
  133TMC2     O 2072   2.976   1.438   9.197  0.1921  0.1012 -0.0172
  133TMC2     H 2073   3.113   1.611   9.268 -2.9908  0.4200  2.0469
  133TMC2    H1 2074   2.804   1.737   9.006 -0.1117 -0.7037 -0.1792
  133TMC2    H2 2075   3.121   2.002   9.104 -0.2348 -0.3534 -1.0615
  133TMC2    C7 2076   2.917   1.975   8.948  0.0692  0.1929  0.4440
  133TMC2    C8 2077   3.231   1.834   9.290  0.0166 -1.0081  0.5315
  133TMC2    O1 2078   3.002   2.054   8.915  1.0504  0.4498 -0.0817
  133TMC2    O2 2079   3.251   1.777   9.397 -0.3371 -0.0524  0.2802
  133TMC2    O5 2080   3.333   1.885   9.212 -0.2390 -0.3960  0.4062
  133TMC2    H5 2081   3.306   1.898   9.119  1.9148  2.0131  0.1334
  134MPD2     C 2082   2.557   1.408   9.084 -0.2879  0.0371  0.0207
  134MPD2    C1 2083   2.692   1.388   9.095 -0.3059  0.3350  0.9005
  134MPD2    C2 2084   2.740   1.267   9.140  0.1681  0.6262  0.3512
  134MPD2    C3 2085   2.655   1.162   9.145  0.2762  0.3095 -0.0895
  134MPD2    C4 2086   2.523   1.180   9.122 -0.0801  0.1492 -0.0054
  134MPD2    C5 2087   2.473   1.304   9.098 -0.1141  0.1785 -0.5444
  134MPD2     H 2088   2.841   1.239   9.169 -0.0539 -0.1500  0.3645
  134MPD2    H1 2089   2.441   1.110   9.136 -0.6879  0.7495 -0.5766
  134MPD2    H2 2090   2.511   1.505   9.065 -1.7900 -0.7642 -0.4009
  134MPD2    H3 2091   2.366   1.323   9.089 -0.4913 -1.0799  1.3775
  134MPD2     N 2092   2.685   1.024   9.181 -0.2276  0.9263  0.2889
  134MPD2    H5 2093   2.610   0.957   9.167  0.2784 -0.1696  2.8505
  134MPD2    N1 2094   2.769   1.508   9.103  0.2155  0.2511  0.0321
  134MPD2    H7 2095   2.725   1.590   9.063 -3.3020 -1.0954  1.1590
  135TMC2    C1 2096   1.037   2.356   9.809 -1.0456 -1.1417  0.1049
  135TMC2    C2 2097   1.080   2.232   9.851 -0.6561  0.6679 -0.4911
  135TMC2    C3 2098   1.000   2.167   9.937  0.9114 -0.2556 -0.0189
  135TMC2    C4 2099   0.924   2.417   9.870 -0.4683  0.3942 -0.1449
  135TMC2    C5 2100   0.848   2.349   9.958  0.1412  0.0254  0.7145
  135TMC2    C6 2101   0.889   2.219   9.989  0.1761  0.3234 -0.1463
  135TMC2     C 2102   1.125   2.438   9.742  0.5910 -0.0551  0.0277
  135TMC2     O 2103   1.082   2.545   9.700 -0.5899  0.5087  0.2502
  135TMC2     H 2104   1.149   2.164   9.803 -1.4430  0.0421 -0.7301
  135TMC2    H1 2105   0.893   2.514   9.835  1.8244  0.9219 -0.7178
  135TMC2    H2 2106   0.842   2.161  10.068 -3.1275 -0.7207 -2.9001
  135TMC2    C7 2107   0.724   2.406   9.984 -0.4562 -1.1843  0.4192
  135TMC2    C8 2108   1.019   2.025   9.968 -0.3775  0.5055 -0.0046
  135TMC2    O1 2109   0.687   2.497   9.910 -0.0595 -0.4772  0.3558
  135TMC2    O2 2110   0.920   1.951   9.989 -0.1344 -0.0621 -0.3811
  135TMC2    O5 2111   1.125   2.021  10.038 -0.1994 -0.4124 -0.0533
  135TMC2    H5 2112   1.185   2.098  10.044  0.1197 -0.7882  1.6249
  136MPD2     C 2113   1.366   2.580   9.643 -0.8073  0.0954 -0.3449
  136MPD2    C1 2114   1.361   2.449   9.672 -0.1024  0.5225  0.5015
  136MPD2    C2 2115   1.482   2.380   9.647 -0.2365 -0.4300 -0.0047
  136MPD2    C3 2116   1.591   2.443   9.583 -0.1370  0.8643 -0.6259
  136MPD2    C4 2117   1.582   2.582   9.563  0.3005 -0.0956  0.5508
  136MPD2    C5 2118   1.470   2.650   9.595  0.2133 -0.5737  0.0170
  136MPD2     H 2119   1.482   2.279   9.687  3.1070 -0.2962  0.3154
  136MPD2    H1 2120   1.670   2.637   9.531  1.4217 -1.6764  0.8930
  136MPD2    H2 2121   1.285   2.644   9.676 -0.5360  0.2032  0.1042
  136MPD2    H3 2122   1.469   2.758   9.596  3.8336 -0.5426  0.7542
  136MPD2     N 2123   1.709   2.372   9.550 -0.2152  0.3851  0.0303
  136MPD2    H5 2124   1.784   2.431   9.516 -0.5972 -0.1746 -1.7511
  136MPD2    N1 2125   1.255   2.379   9.734 -0.3937  0.2808  0.0982
  136MPD2    H7 2126   1.268   2.285   9.768 -1.9375 -0.1806 -0.5887
  137TMC2    C1 2127   0.520   1.159   9.855  0.1385 -0.1027  0.0753
  137TMC2    C2 2128   0.563   1.040   9.791  0.3173  0.1632 -0.1680
  137TMC2    C3 2129   0.597   1.040   9.659  0.7372  0.2979  0.0600
  137TMC2    C4 2130   0.509   1.275   9.780 -0.6404 -0.0086  0.0235
  137TMC2    C5 2131   0.538   1.268   9.647 -0.0652 -0.3771  0.1320
  137TMC2    C6 2132   0.584   1.158   9.584  0.2217 -0.6377 -0.3589
  137TMC2     C 2133   0.535   1.169   9.999 -0.3125 -0.3828  0.2876
  137TMC2     O 2134   0.527   1.280  10.050 -0.2770  0.3244 -0.9275
  137TMC2     H 2135   0.565   0.946   9.844 -1.6840  0.5270  0.5543
  137TMC2    H1 2136   0.479   1.369   9.826  1.4724  1.1788 -1.0087
  137TMC2    H2 2137   0.592   1.154   9.476 -1.3323 -0.6801 -0.4662
  137TMC2    C7 2138   0.508   1.370   9.559 -0.2934 -0.7846 -0.2237
  137TMC2    C8 2139   0.696   0.950   9.619 -0.3715 -0.5716 -0.4577
  137TMC2    O1 2140   0.585   1.378   9.467 -0.3550  0.0136  0.1761
  137TMC2    O2 2141   0.804   0.990   9.573 -0.5677  0.3945  0.1045
  137TMC2    O5 2142   0.634   0.847   9.574  0.1552 -0.2396 -0.0178
  137TMC2    H5 2143   0.553   0.840   9.628 -0.1164 -0.3794 -0.4416
  138MPD2     C 2144   0.492   0.888  10.241 -0.3776  0.0510  0.3857
  138MPD2    C1 2145   0.532   1.016  10.195  1.0226  0.1796 -0.6619
  138MPD2    C2 2146   0.584   1.102  10.284 -0.3164 -0.2440  0.1108
  138MPD2    C3 2147   0.611   1.077  10.414 -0.2362 -0.6183 -0.1935
  138MPD2    C4 2148   0.576   0.955  10.459 -0.1299  0.2094 -0.2746
  138MPD2    C5 2149   0.510   0.865  10.375 -0.6008  0.1839  0.0747
  138MPD2     H 2150   0.618   1.197  10.244  1.1046 -1.0493 -0.6130
  138MPD2    H1 2151   0.596   0.926  10.562  0.2475 -1.2604 -0.7693
  138MPD2    H2 2152   0.442   0.822  10.171 -0.8574 -1.4577  2.1830
  138MPD2    H3 2153   0.484   0.768  10.415  2.6662 -0.9231 -0.4672
  138MPD2     N 2154   0.684   1.173  10.485 -0.0210 -0.0532 -0.0227
  138MPD2    H5 2155   0.700   1.262  10.437 -2.1141  0.1949 -0.2315
  138MPD2    N1 2156   0.511   1.047  10.059  0.2675 -0.2956  0.6121
  138MPD2    H7 2157   0.478   0.973   9.998  2.0199 -0.0275 -0.6822
  139TMC2    C1 2158   1.670   0.091  13.232 -0.4239 -0.2029  0.0076
  139TMC2    C2 2159   1.783   0.155  13.186 -0.0135 -0.3644  0.0197
  139TMC2    C3 2160   1.776   0.295  13.186  0.9663 -0.0667 -0.2324
  139TMC2    C4 2161   1.562   0.146  13.301  0.1576 -0.1475  0.1191
  139TMC2    C5 2162   1.557   0.284  13.292  0.2214 -0.0886  0.0727
  139TMC2    C6 2163   1.659   0.359  13.233  0.2058  0.3006  0.6372
  139TMC2     C 2164   1.666   4.687  13.198  0.2991 -0.5965  0.2217
  139TMC2     O 2165   1.771   4.630  13.176 -0.4920 -0.2051  0.0457
  139TMC2     H 2166   1.868   0.107  13.139 -0.4296  0.4473 -1.5414
  139TMC2    H1 2167   1.478   0.089  13.339  0.5835 -0.9318 -0.1169
  139TMC2    H2 2168   1.659   0.467  13.227  1.3959  0.3037  0.7821
  139TMC2    C7 2169   1.428   0.349  13.318 -0.1727  0.0882 -0.3894
  139TMC2    C8 2170   1.870   0.382  13.125  0.8120 -1.2285 -0.1514
  139TMC2    O1 2171   1.414   0.467  13.291 -0.0144 -0.0169  0.7117
  139TMC2    O2 2172   1.848   0.454  13.038 -0.0875  0.0272 -0.1972
  139TMC2    O5 2173   1.989   0.357  13.176 -0.6935 -0.2752  0.2303
  139TMC2    H5 2174   1.983   0.314  13.264  2.5335 -0.9898  0.1204
  140MPD2     C 2175   1.399   4.449  13.225  0.6107 -0.2133 -0.4954
  140MPD2    C1 2176   1.521   4.497  13.250  0.5652 -0.0578  0.0287
  140MPD2    C2 2177   1.622   4.413  13.301 -0.3374  0.6061  0.2196
  140MPD2    C3 2178   1.592   4.289  13.345  0.0958  0.0571 -0.0265
  140MPD2    C4 2179   1.473   4.242  13.312 -0.9119 -0.3099 -0.6127
  140MPD2    C5 2180   1.375   4.321  13.258  0.4045  0.3656 -0.9284
  140MPD2     H 2181   1.722   4.450  13.315 -0.5196  0.6920  1.2761
  140MPD2    H1 2182   1.458   4.135  13.312 -0.5767 -0.3623  1.2585
  140MPD2    H2 2183   1.332   4.514  13.169  1.5043  1.0323 -0.1280
  140MPD2    H3 2184   1.273   4.283  13.246  1.8407 -2.5307 -3.8954
  140MPD2     N 2185   1.695   4.211  13.416  0.2678  0.4969  0.3418
  140MPD2    H5 2186   1.784   4.258  13.432 -0.8203  2.2867  1.1631
  140MPD2    N1 2187   1.546   4.635  13.214  0.0737  0.0494 -0.5117
  140MPD2    H7 2188   1.470   4.696  13.187  0.3460  0.6695  0.1053
  141TMC2    C1 2189   2.355   1.047  13.930 -0.0725  0.6666 -0.5401
  141TMC2    C2 2190   2.458   1.033  14.019  0.3952 -0.3177  0.5791
  141TMC2    C3 2191   2.429   1.044  14.148  0.5100  0.7348  0.0176
  141TMC2    C4 2192   2.225   1.045  13.971 -0.3246 -1.0718 -0.6866
  141TMC2    C5 2193   2.203   1.065  14.107  0.0172 -0.0528 -0.3168
  141TMC2    C6 2194   2.300   1.054  14.199 -0.8348 -0.7664  0.1351
  141TMC2     C 2195   2.381   1.054  13.786 -0.6976  0.2467 -0.8767
  141TMC2     O 2196   2.292   1.108  13.724  0.7214 -0.0310  0.4241
  141TMC2     H 2197   2.559   1.025  13.981 -0.5521  0.3112 -2.1217
  141TMC2    H1 2198   2.139   1.046  13.905 -1.9466 -0.3106  1.3933
  141TMC2    H2 2199   2.284   1.037  14.305  0.2208  0.5463  0.5013
  141TMC2    C7 2200   2.059   1.073  14.154 -1.0031 -0.4196 -0.6308
  141TMC2    C8 2201   2.537   1.077  14.237  0.7584  0.0067 -0.2797
  141TMC2    O1 2202   1.964   1.043  14.085 -0.0390 -0.4433  0.1014
  141TMC2    O2 2203   2.525   1.072  14.357 -0.2895  0.8064  0.4293
  141TMC2    O5 2204   2.585   1.187  14.176  0.5583  0.4393  0.4614
  141TMC2    H5 2205   2.589   1.171  14.079 -2.6833  1.8700  0.0836
  142TMC2    C1 2206   4.262   3.645  10.141  0.2184 -0.5193 -0.7631
  142TMC2    C2 2207   4.307   3.529  10.079 -0.3109 -0.2949  0.2443
  142TMC2    C3 2208   4.410   3.545   9.995  0.5618 -0.6771  0.3211
  142TMC2    C4 2209   4.327   3.768  10.124  1.1330  0.7719  0.0403
  142TMC2    C5 2210   4.452   3.762  10.056 -0.0595 -0.2728  0.3171
  142TMC2    C6 2211   4.492   3.656   9.979  0.6052  0.2745  0.0904
  142TMC2     C 2212   4.148   3.628  10.233 -0.6289 -0.2990 -0.2930
  142TMC2     O 2213   4.084   3.525  10.223 -0.0832 -0.6450  0.7460
  142TMC2     H 2214   4.268   3.430  10.100 -1.1130 -0.2221 -0.8549
  142TMC2    H1 2215   4.288   3.858  10.170 -2.0263  0.0892 -1.2832
  142TMC2    H2 2216   4.596   3.644   9.948  0.5561 -0.3538  0.1680
  142TMC2    C7 2217   4.537   3.878  10.061  0.1840  0.0624  0.4070
  142TMC2    C8 2218   4.451   3.425   9.926  0.7832  0.0194  0.2189
  142TMC2    O1 2219   4.637   3.883   9.991 -0.4887 -0.0273 -0.6198
  142TMC2    O2 2220   4.362   3.345   9.895  0.0073 -0.3935  0.2881
  142TMC2    O5 2221   4.576   3.397   9.948  0.0011 -0.5418 -0.2387
  142TMC2    H5 2222   4.603   3.433  10.035 -1.7443 -3.1078  1.3515
  143MPD2     C 2223   3.775   3.852  10.524  0.4010  0.0375 -0.2493
  143MPD2    C1 2224   3.797   3.715  10.485 -1.1251  0.1674  0.3418
  143MPD2    C2 2225   3.911   3.680  10.410  0.7228  0.0870  1.1124
  143MPD2    C3 2226   4.007   3.772  10.373 -0.7182  0.4693  0.7469
  143MPD2    C4 2227   3.983   3.902  10.415  0.9084  0.1393 -0.5321
  143MPD2    C5 2228   3.875   3.936  10.488 -0.4048  0.1487  0.7831
  143MPD2     H 2229   3.922   3.575  10.382  0.4017  0.7141 -1.3687
  143MPD2    H1 2230   4.061   3.974  10.395  0.9814 -0.0796 -1.0449
  143MPD2    H2 2231   3.695   3.881  10.592 -0.0587 -0.3470 -0.6295
  143MPD2    H3 2232   3.863   4.039  10.519  0.6917  0.6039 -0.2943
  143MPD2     N 2233   4.125   3.743  10.304 -0.0577  0.0588  0.9624
  143MPD2    H5 2234   4.185   3.824  10.293  3.3559 -2.8612 -2.0580
  143MPD2    N1 2235   3.706   3.622  10.534  0.1158 -0.5531 -0.8124
  143MPD2    H7 2236   3.631   3.666  10.587  1.8458 -2.0639  2.9069
  144TMC2    C1 2237   2.723   2.906   0.530  0.2754  0.3090  0.0516
  144TMC2    C2 2238   2.791   2.797   0.475 -0.7058  0.2172 -0.0117
  144TMC2    C3 2239   2.900   2.755   0.542  0.8953 -0.0846  0.0048
  144TMC2    C4 2240   2.757   2.966   0.650 -0.0556 -0.1350 -0.2778
  144TMC2    C5 2241   2.863   2.904   0.715 -0.7183 -0.6237  0.4726
  144TMC2    C6 2242   2.938   2.800   0.661 -1.0603 -0.1051 -0.2191
  144TMC2     C 2243   2.616   2.955   0.444 -0.0867  0.4001 -0.7027
  144TMC2     O 2244   2.595   2.890   0.346 -0.3310  0.1012  0.3901
  144TMC2     H 2245   2.761   2.752   0.381 -0.7811  0.9392 -0.3324
  144TMC2    H1 2246   2.709   3.058   0.681 -2.8117 -1.0993 -1.7327
  144TMC2    H2 2247   3.014   2.748   0.718 -0.8144  3.3394  2.5671
  144TMC2    C7 2248   2.922   2.961   0.834  0.3133  0.1170  0.9649
  144TMC2    C8 2249   2.964   2.637   0.475 -0.0989 -0.1195  0.1352
  144TMC2    O1 2250   3.044   2.946   0.836  0.1914  0.0348  0.1300
  144TMC2    O2 2251   2.898   2.561   0.404 -0.2584 -0.2412 -0.0594
  144TMC2    O5 2252   3.085   2.615   0.533 -0.4285  0.6177  0.1965
  144TMC2    H5 2253   3.122   2.701   0.560 -3.0730  0.9498  2.7560
  145MPD2     C 2254   2.258   3.298   0.295  0.5807  0.2135 -0.3016
  145MPD2    C1 2255   2.328   3.199   0.226  0.6084 -0.1937  0.5072
  145MPD2    C2 2256   2.435   3.136   0.279  0.8902 -0.1314 -0.2525
  145MPD2    C3 2257   2.461   3.157   0.413 -0.2251  0.1483  0.0597
  145MPD2    C4 2258   2.394   3.251   0.484  0.5669  0.3739 -0.4559
  145MPD2    C5 2259   2.306   3.331   0.418  0.1476 -0.1593 -0.5921
  145MPD2     H 2260   2.501   3.075   0.218  1.2126 -1.5412  1.5036
  145MPD2    H1 2261   2.432   3.284   0.580 -0.8584 -1.1370  0.6367
  145MPD2    H2 2262   2.173   3.354   0.258  1.8164  2.7150  0.6769
  145MPD2    H3 2263   2.260   3.415   0.470 -1.8744 -1.5870 -0.0435
  145MPD2     N 2264   2.561   3.075   0.482  0.3326  0.3494 -0.1332
  145MPD2    H5 2265   2.596   3.102   0.573 -1.0569  2.0400 -0.1035
  145MPD2    N1 2266   2.288   3.160   0.094 -0.5388 -0.3827  0.0243
  145MPD2    H7 2267   2.314   3.068   0.062  1.1873 -0.1542  0.7967
  146TMC2    C1 2268   3.539   1.781  12.720  0.3134 -0.3675  0.1710
  146TMC2    C2 2269   3.441   1.821  12.624 -0.7855  0.2663  0.7226
  146TMC2    C3 2270   3.470   1.786  12.498  0.2180  0.7064 -0.2500
  146TMC2    C4 2271   3.651   1.702  12.684  0.8283 -0.4151  0.8792
  146TMC2    C5 2272   3.672   1.664  12.552 -0.5477 -0.0806 -0.6278
  146TMC2    C6 2273   3.578   1.706  12.461  0.3283 -0.2696  0.4150
  146TMC2     C 2274   3.560   1.878  12.826  0.2862 -0.1945  0.4098
  146TMC2     O 2275   3.483   1.970  12.825  0.1721 -0.3483  0.1290
  146TMC2     H 2276   3.355   1.885  12.637 -0.7888  0.7948 -1.9117
  146TMC2    H1 2277   3.717   1.667  12.762  1.8314  0.2023  0.3023
  146TMC2    H2 2278   3.597   1.706  12.354 -1.5142 -0.1723  0.0858
  146TMC2    C7 2279   3.804   1.629  12.503  0.5961 -0.1241  0.2222
  146TMC2    C8 2280   3.401   1.858  12.391 -0.2259  0.2611 -0.1840
  146TMC2    O1 2281   3.819   1.625  12.381  0.6599  0.2357 -0.1296
  146TMC2    O2 2282   3.387   1.980  12.389 -0.3219  0.1521  0.2893
  146TMC2    O5 2283   3.380   1.772  12.292  0.5949 -0.0864 -0.2632
  146TMC2    H5 2284   3.364   1.683  12.331 -1.2573  0.4805  0.2517
  147MPD2     C 2285   4.314   1.553  12.556 -0.3073  0.5296 -0.5564
  147MPD2    C1 2286   4.251   1.553  12.682  0.7318 -0.8387  0.0754
  147MPD2    C2 2287   4.110   1.573  12.695 -0.3545 -0.2994  0.5249
  147MPD2    C3 2288   4.035   1.578  12.582  0.8953 -0.0150 -0.1077
  147MPD2    C4 2289   4.092   1.583  12.462  0.1864  0.4785 -0.8642
  147MPD2    C5 2290   4.232   1.562  12.446  0.3009  0.0429  0.2349
  147MPD2     H 2291   4.056   1.564  12.788 -1.7699 -1.6924 -0.4227
  147MPD2    H1 2292   4.031   1.597  12.374  0.5464 -0.7617 -1.3225
  147MPD2    H2 2293   4.421   1.552  12.541 -0.6723  0.8754 -3.1588
  147MPD2    H3 2294   4.274   1.566  12.346 -0.0086 -1.7553  0.0348
  147MPD2     N 2295   3.895   1.594  12.602 -0.0777  0.2508 -0.4845
  147MPD2    H5 2296   3.866   1.596  12.699  1.0324 -0.6609 -0.1462
  147MPD2    N1 2297   4.339   1.536  12.787  0.5190 -0.3117  0.1559
  147MPD2    H7 2298   4.437   1.559  12.770 -0.0565  2.4029  0.5886
  148TMC2    C1 2299   4.061   0.649  10.274 -0.2786 -0.0503  0.3679
  148TMC2    C2 2300   4.176   0.645  10.342 -0.4423 -0.1709 -0.0459
  148TMC2    C3 2301   4.248   0.543  10.302 -1.0773  0.4568  0.5212
  148TMC2    C4 2302   4.036   0.573  10.163  0.1418 -0.3859 -0.0843
  148TMC2    C5 2303   4.121   0.477  10.123 -0.0783 -0.0704 -0.3181
  148TMC2    C6 2304   4.227   0.453  10.198 -0.3408 -0.3184  0.4046
  148TMC2     C 2305   3.948   0.714  10.334  0.3647 -0.0616 -0.2368
  148TMC2     O 2306   3.970   0.815  10.401 -0.4884  0.1806  0.7267
  148TMC2     H 2307   4.174   0.676  10.446 -0.5724 -0.6597  0.0974
  148TMC2    H1 2308   3.944   0.578  10.105 -0.0547 -2.1448  0.0993
  148TMC2    H2 2309   4.293   0.369  10.178 -2.8298 -1.2483 -3.9149
  148TMC2    C7 2310   4.056   0.369  10.051  0.2476 -0.4769  0.0534
  148TMC2    C8 2311   4.350   0.495  10.391  0.1150  0.1484 -0.3352
  148TMC2    O1 2312   3.936   0.370  10.031  0.2479 -0.0288 -0.2862
  148TMC2    O2 2313   4.392   0.382  10.382  0.0896 -0.1239 -0.6373
  148TMC2    O5 2314   4.407   0.607  10.438 -0.2753 -0.6059  0.0497
  148TMC2    H5 2315   4.360   0.691  10.418  2.8645  0.8256 -1.3060
  149MPD2     C 2316   3.674   0.780  10.416 -0.6047 -0.0872 -0.6286
  149MPD2    C1 2317   3.703   0.662  10.351 -0.2828 -0.1841 -0.4633
  149MPD2    C2 2318   3.607   0.570  10.327 -0.0324 -0.2076 -0.0752
  149MPD2    C3 2319   3.476   0.596  10.360  0.1586  0.1247  0.7197
  149MPD2    C4 2320   3.448   0.722  10.416  0.5523 -0.3853  0.5105
  149MPD2    C5 2321   3.546   0.805  10.455 -0.3628  0.3762  0.2120
  149MPD2     H 2322   3.635   0.477  10.279 -1.0683 -1.9588  2.7287
  149MPD2    H1 2323   3.347   0.753  10.440  0.5265 -1.5314  1.8453
  149MPD2    H2 2324   3.748   0.858  10.430 -0.4064 -0.5659  0.9946
  149MPD2    H3 2325   3.520   0.901  10.498  2.7270  1.2272  0.2339
  149MPD2     N 2326   3.362   0.516  10.328 -0.0882  0.3543  0.4006
  149MPD2    H5 2327   3.272   0.557  10.353  1.1216  2.3306  1.5207
  149MPD2    N1 2328   3.836   0.636  10.308 -0.4768  0.1087 -0.2550
  149MPD2    H7 2329   3.847   0.553  10.250 -2.7891 -0.2955 -0.1245
  150TMC2    C1 2330   1.249   4.547  11.945  0.4083 -1.0560 -0.0903
  150TMC2    C2 2331   1.174   4.463  12.022 -0.4096 -0.2224  0.5657
  150TMC2    C3 2332   1.245   4.399  12.124  0.0129 -0.7728 -0.4049
  150TMC2    C4 2333   1.383   4.571  11.958  0.2938 -0.3204  0.6347
  150TMC2    C5 2334   1.440   4.518  12.073 -0.2314  0.6076 -0.9798
  150TMC2    C6 2335   1.378   4.423  12.149  0.2481 -0.5684 -0.2015
  150TMC2     C 2336   1.175   4.621  11.851  0.2324  0.0580  0.4242
  150TMC2     O 2337   1.217   4.730  11.816  0.4333  0.7002 -0.1610
  150TMC2     H 2338   1.066   4.467  12.025 -0.5008 -0.5373 -2.6882
  150TMC2    H1 2339   1.433   4.645  11.898  0.9338 -0.4829  0.9716
  150TMC2    H2 2340   1.421   4.369  12.232  0.7439  0.5188  0.2502
  150TMC2    C7 2341   1.564   4.569  12.121 -0.4500 -0.3727 -0.3102
  150TMC2    C8 2342   1.171   4.330  12.227  0.5581 -0.2301  0.3032
  150TMC2    O1 2343   1.609   4.665  12.059 -0.6022 -0.0988 -0.1661
  150TMC2    O2 2344   1.213   4.319  12.341 -0.0542 -1.0545  0.2690
  150TMC2    O5 2345   1.108   4.231  12.156  0.4954  0.2577 -0.2901
  150TMC2    H5 2346   1.091   4.236  12.060 -0.0288  5.7591  0.0896
  151MPD2     C 2347   0.740   4.678  11.574 -0.0325 -0.2115 -0.6057
  151MPD2    C1 2348   0.734   4.567  11.653  0.1241  0.8407 -0.0418
  151MPD2    C2 2349   0.839   4.531  11.733  0.4542 -0.0202  0.2841
  151MPD2    C3 2350   0.953   4.605  11.739  0.3095 -0.3728  0.0079
  151MPD2    C4 2351   0.953   4.724  11.666 -0.5065 -0.0333 -0.5047
  151MPD2    C5 2352   0.846   0.026  11.583 -0.1824  0.3443 -0.3565
  151MPD2     H 2353   0.836   4.448  11.802  1.5691  0.4950  0.9511
  151MPD2    H1 2354   1.051   0.036  11.658 -0.9285  1.0481  0.7683
  151MPD2    H2 2355   0.659   4.721  11.516  2.2196  0.4038 -3.2509
  151MPD2    H3 2356   0.853   0.113  11.518 -0.6086  1.8528  1.6144
  151MPD2     N 2357   1.060   4.559  11.812  0.4752  0.6075  1.0091
  151MPD2    H5 2358   1.050   4.468  11.857  1.7887 -1.0590 -2.0395
  151MPD2    N1 2359   0.616   4.492  11.649 -0.3164 -0.5667  0.3670
  151MPD2    H7 2360   0.541   4.535  11.595  1.2629  2.1297  0.3280
  152TMC2    C1 2361   1.107   4.446  12.693  0.3848 -0.1648  0.5472
  152TMC2    C2 2362   1.173   4.335  12.745  0.8102  0.4372  0.1463
  152TMC2    C3 2363   1.299   4.367  12.800  0.9315  0.9235 -0.9019
  152TMC2    C4 2364   1.160   4.570  12.693  0.2299 -0.0637 -0.3511
  152TMC2    C5 2365   1.285   4.592  12.748 -0.0524 -0.1010 -0.5727
  152TMC2    C6 2366   1.362   4.487  12.801  0.5273 -0.1901  0.6655
  152TMC2     C 2367   0.993   4.424  12.607  0.2354 -0.1838 -0.3268
  152TMC2     O 2368   0.929   4.522  12.563  0.3840  0.0036 -0.5146
  152TMC2     H 2369   1.126   4.237  12.749 -2.4584  1.9661 -1.0053
  152TMC2    H1 2370   1.094   4.646  12.652  1.0207 -0.1681 -1.8222
  152TMC2    H2 2371   1.457   4.501  12.851  1.2821  2.4875 -1.5511
  152TMC2    C7 2372   1.352   4.726  12.738 -0.5318  0.0398 -0.8805
  152TMC2    C8 2373   1.362   4.252  12.861 -0.0358  0.0418  0.1859
  152TMC2    O1 2374   1.288   0.085  12.697 -0.3494 -0.0821  0.2732
  152TMC2    O2 2375   1.444   4.253  12.948 -0.2748 -0.1027 -0.7598
  152TMC2    O5 2376   1.353   4.146  12.778 -0.5396 -0.2631  0.2038
  152TMC2    H5 2377   1.315   4.170  12.691 -1.9507 -1.3964  0.5103
  153MPD2     C 2378   0.943   4.115  12.423  0.0012 -0.1112 -0.3814
  153MPD2    C1 2379   0.909   4.239  12.467 -0.8499  0.0692  0.6290
  153MPD2    C2 2380   0.788   4.290  12.432 -0.6631  0.5624 -0.2882
  153MPD2    C3 2381   0.708   4.216  12.345  0.4369  0.1857  0.1182
  153MPD2    C4 2382   0.749   4.094  12.294  0.1759 -0.1426  0.2027
  153MPD2    C5 2383   0.866   4.041  12.333  0.5642 -0.5918 -0.1017
  153MPD2     H 2384   0.743   4.382  12.466  1.2908  0.6989  1.8813
  153MPD2    H1 2385   0.677   4.042  12.231 -0.5468  1.5603 -0.3675
  153MPD2    H2 2386   1.039   4.074  12.455 -1.0788 -0.2794  2.6548
  153MPD2    H3 2387   0.902   3.946  12.296  1.8730 -0.0634 -0.1912
  153MPD2     N 2388   0.584   4.278  12.312 -0.0801  0.7017 -0.5694
  153MPD2    H5 2389   0.566   4.367  12.358 -1.8712  0.0761 -0.0674
  153MPD2    N1 2390   1.000   4.301  12.559 -0.2299  0.4017 -0.3575
  153MPD2    H7 2391   1.079   4.245  12.588  0.9050  0.6203 -3.0497
  154TMC2    C1 2392   3.188   3.611   0.586 -0.3151 -0.2214  0.3624
  154TMC2    C2 2393   3.186   3.575   0.709 -0.5660  0.1036  0.5476
  154TMC2    C3 2394   3.268   3.471   0.748  0.1341  0.2067  0.5128
  154TMC2    C4 2395   3.292   3.573   0.497 -0.0477 -0.4946  0.0546
  154TMC2    C5 2396   3.365   3.464   0.537 -0.0829  0.2136 -0.4678
  154TMC2    C6 2397   3.342   3.407   0.655  0.5439 -0.4053 -0.1757
  154TMC2     C 2398   3.079   3.703   0.551  0.4659  0.1572 -0.4814
  154TMC2     O 2399   3.038   3.770   0.647 -0.3562 -0.2731  0.3999
  154TMC2     H 2400   3.102   3.607   0.769 -0.7096  1.7602 -0.5172
  154TMC2    H1 2401   3.296   3.617   0.398 -0.4673 -1.6613 -0.4736
  154TMC2    H2 2402   3.407   3.326   0.685  0.9491  0.4439  1.2555
  154TMC2    C7 2403   3.445   3.400   0.437 -0.6255  0.3578 -0.2439
  154TMC2    C8 2404   3.244   3.398   0.870 -0.2829  0.2335 -0.2995
  154TMC2    O1 2405   3.477   3.464   0.343  0.3758 -0.0194 -0.1270
  154TMC2    O2 2406   3.223   3.276   0.870 -0.0196 -0.2295  0.0706
  154TMC2    O5 2407   3.233   3.491   0.971  0.6123 -0.2742 -0.2381
  154TMC2    H5 2408   3.270   3.575   0.936 -1.3253  0.0949 -1.4289
  155MPD2     C 2409   2.899   3.723   0.236  0.7105  0.1528  0.8792
  155MPD2    C1 2410   2.939   3.767   0.358 -0.0867 -0.0612  0.3482
  155MPD2    C2 2411   2.885   3.879   0.419  0.5580 -0.5893 -0.1106
  155MPD2    C3 2412   2.795   3.956   0.350 -0.5291  0.2498 -1.1632
  155MPD2    C4 2413   2.765   3.922   0.220  0.4627  0.2292 -0.2566
  155MPD2    C5 2414   2.813   3.804   0.169 -0.0414 -0.0761  0.4258
  155MPD2     H 2415   2.909   3.908   0.521 -3.0539 -0.4369  0.6834
  155MPD2    H1 2416   2.707   3.987   0.156 -0.0236 -0.1874 -0.2374
  155MPD2    H2 2417   2.933   3.632   0.187 -1.1370 -0.7064  1.1882
  155MPD2    H3 2418   2.789   3.775   0.068 -0.1491  0.5436  0.2684
  155MPD2     N 2419   2.752   4.077   0.414 -0.3009 -0.0537 -0.1450
  155MPD2    H5 2420   2.782   4.083   0.511  0.5859  1.8739 -0.5309
  155MPD2    N1 2421   3.038   3.685   0.420 -0.2382 -0.4606  0.4646
  155MPD2    H7 2422   3.077   3.605   0.371  0.8907  1.0409 -1.0611
  156TMC2    C1 2423   1.363   1.666  11.815  0.3553  1.0984 -0.4426
  156TMC2    C2 2424   1.386   1.537  11.786  1.0207 -0.2404 -0.0009
  156TMC2    C3 2425   1.359   1.506  11.655 -0.5065  0.7044  0.2134
  156TMC2    C4 2426   1.305   1.763  11.738 -0.8737 -0.1560 -0.1204
  156TMC2    C5 2427   1.271   1.727  11.613 -0.0403 -0.8279  0.0089
  156TMC2    C6 2428   1.292   1.596  11.571  0.1363  0.5794 -0.1832
  156TMC2     C 2429   1.413   1.709  11.950 -0.0707  0.5250  0.3577
  156TMC2     O 2430   1.507   1.642  12.001  0.1136  0.1898 -0.0322
  156TMC2     H 2431   1.429   1.461  11.851  2.1372 -0.2865 -0.8022
  156TMC2    H1 2432   1.290   1.862  11.778  0.0577  0.1937 -0.6287
  156TMC2    H2 2433   1.251   1.556  11.479  2.8055 -1.2411 -0.5929
  156TMC2    C7 2434   1.181   1.818  11.540  0.4035  0.7697 -0.4376
  156TMC2    C8 2435   1.395   1.371  11.621 -0.2915  0.0173  0.0960
  156TMC2    O1 2436   1.183   1.940  11.564 -0.5176  0.4113 -0.3602
  156TMC2    O2 2437   1.386   1.277  11.698  0.4433  0.6386 -0.2283
  156TMC2    O5 2438   1.416   1.359  11.487 -0.2526  0.5360 -0.5365
  156TMC2    H5 2439   1.425   1.444  11.438 -0.7671 -0.2018 -1.9175
  157MPD2     C 2440   1.458   1.865  12.205 -0.2291 -0.0361  0.8771
  157MPD2    C1 2441   1.346   1.876  12.122  0.0181  0.4033  0.2367
  157MPD2    C2 2442   1.236   1.951  12.174 -0.2086 -0.2374 -0.2916
  157MPD2    C3 2443   1.258   2.027  12.288  0.0755  0.1943 -0.0016
  157MPD2    C4 2444   1.372   2.023  12.360  0.1681 -0.4148 -0.2692
  157MPD2    C5 2445   1.470   1.936  12.320  1.0148 -0.2364  0.2913
  157MPD2     H 2446   1.147   1.958  12.111  1.2192 -2.0139 -2.5114
  157MPD2    H1 2447   1.396   2.076  12.451 -0.0316  0.8676 -0.9541
  157MPD2    H2 2448   1.548   1.807  12.187  0.5840  1.4735  0.1123
  157MPD2    H3 2449   1.557   1.920  12.383  0.2861 -0.7294  1.1875
  157MPD2     N 2450   1.145   2.100  12.323  0.2170 -0.0188 -0.2979
  157MPD2    H5 2451   1.063   2.093  12.264  0.0632  0.2544 -0.1119
  157MPD2    N1 2452   1.328   1.804  12.001  0.1174 -0.3819 -0.1869
  157MPD2    H7 2453   1.247   1.821  11.942  0.6465  0.3504 -0.6963
  158TMC2    C1 2454   1.935   0.747  13.121 -0.0315 -0.1041 -0.4625
  158TMC2    C2 2455   2.030   0.698  13.029 -0.7519  0.3240 -0.0108
  158TMC2    C3 2456   2.001   0.699  12.896 -0.5779 -0.0453 -0.6103
  158TMC2    C4 2457   1.825   0.806  13.073 -0.1609  0.3790 -0.0143
  158TMC2    C5 2458   1.801   0.811  12.938 -0.3425  0.5148  0.3549
  158TMC2    C6 2459   1.890   0.760  12.841 -0.0663  0.2850 -0.6127
  158TMC2     C 2460   1.973   0.778  13.263  0.0519 -0.6084 -0.4059
  158TMC2     O 2461   2.089   0.759  13.296  0.3828 -0.4677  0.7264
  158TMC2     H 2462   2.129   0.663  13.056 -0.4798  0.3225 -1.0121
  158TMC2    H1 2463   1.750   0.863  13.127  0.3573  1.8871 -0.8659
  158TMC2    H2 2464   1.859   0.756  12.738 -0.7221  1.9312 -0.4692
  158TMC2    C7 2465   1.681   0.871  12.897  0.3918 -0.0587 -0.6825
  158TMC2    C8 2466   2.066   0.600  12.807 -0.3067 -0.5257 -0.2796
  158TMC2    O1 2467   1.692   0.942  12.795  0.2750 -0.0484 -0.2634
  158TMC2    O2 2468   2.057   0.619  12.683 -0.1799 -0.2677  0.0838
  158TMC2    O5 2469   2.039   0.485  12.864  0.9201 -0.1340 -0.1646
  158TMC2    H5 2470   1.984   0.483  12.946 -1.0080  1.1057 -1.4343
  159MPD2     C 2471   1.905   0.914  13.747 -0.1065 -0.5831  0.0068
  159MPD2    C1 2472   1.778   0.900  13.695 -0.6209  0.8917  0.6097
  159MPD2    C2 2473   1.777   0.876  13.557 -0.1103 -0.0846  0.4903
  159MPD2    C3 2474   1.893   0.867  13.482 -0.0132 -0.3603  0.4970
  159MPD2    C4 2475   2.017   0.866  13.545  0.3277 -1.2311 -0.4194
  159MPD2    C5 2476   2.016   0.891  13.679 -0.7885 -0.0107 -0.6343
  159MPD2     H 2477   1.683   0.872  13.505 -0.3011 -2.0535  0.9941
  159MPD2    H1 2478   2.111   0.857  13.493  1.1844  0.2742  0.8750
  159MPD2    H2 2479   1.911   0.954  13.848 -0.2096  1.7045 -0.8957
  159MPD2    H3 2480   2.111   0.906  13.730 -2.5817 -0.9372  2.9598
  159MPD2     N 2481   1.871   0.835  13.343  0.1241  0.4083 -0.3827
  159MPD2    H5 2482   1.776   0.807  13.319 -0.3198 -0.3555  2.2565
  159MPD2    N1 2483   1.661   0.900  13.785  0.0913 -0.4323 -1.1555
  159MPD2    H7 2484   1.671   0.915  13.885 -0.4101 -0.0281 -1.1672
  160TMC2    C1 2485   1.234   3.538   1.519 -0.2228 -0.5865  0.4478
  160TMC2    C2 2486   1.222   3.432   1.605  0.2430 -0.1518  0.9908
  160TMC2    C3 2487   1.313   3.328   1.591 -0.8130 -0.4154  0.8754
  160TMC2    C4 2488   1.326   3.546   1.417 -0.1273 -0.0236 -0.8187
  160TMC2    C5 2489   1.406   3.434   1.399 -0.7442 -0.1234  0.1817
  160TMC2    C6 2490   1.402   3.330   1.491  0.0640  0.2914  0.4485
  160TMC2     C 2491   1.149   3.654   1.547  0.2409  0.3075  0.3988
  160TMC2     O 2492   1.106   3.664   1.659 -0.0294 -0.4511  0.1921
  160TMC2     H 2493   1.154   3.426   1.690 -0.4625 -1.0879  0.3580
  160TMC2    H1 2494   1.330   3.631   1.350 -0.8813  0.4882 -0.2160
  160TMC2    H2 2495   1.471   3.247   1.478  1.8693  1.7121  0.9500
  160TMC2    C7 2496   1.498   3.428   1.289 -0.1613 -0.5742 -0.5736
  160TMC2    C8 2497   1.306   3.228   1.695  0.2095 -0.3185 -0.7154
  160TMC2    O1 2498   1.529   3.309   1.259 -0.0396 -0.4886  0.6180
  160TMC2    O2 2499   1.203   3.190   1.741 -0.1922  0.0563 -0.2196
  160TMC2    O5 2500   1.423   3.165   1.701  0.0922 -0.3867  0.3613
  160TMC2    H5 2501   1.500   3.209   1.660 -1.6955  1.1362 -1.3050
  161MPD2     C 2502   1.059   3.928   1.557 -0.5235 -0.0777  0.0602
  161MPD2    C1 2503   1.050   3.855   1.439 -0.1116  0.4952 -0.3872
  161MPD2    C2 2504   1.005   3.907   1.322  0.1625  0.0671 -0.3043
  161MPD2    C3 2505   0.968   4.041   1.323 -0.6705 -0.2745  0.3106
  161MPD2    C4 2506   0.975   4.116   1.436 -0.0808  0.0405  0.2537
  161MPD2    C5 2507   1.025   4.060   1.551 -0.6621 -0.7142  0.3449
  161MPD2     H 2508   1.006   3.849   1.230  0.4784  0.8433 -0.7946
  161MPD2    H1 2509   0.942   4.219   1.442 -2.1038 -0.4287 -2.6147
  161MPD2    H2 2510   1.107   3.897   1.649 -0.7366 -1.0810 -0.1652
  161MPD2    H3 2511   1.034   4.127   1.635 -1.7832 -1.0226  0.7133
  161MPD2     N 2512   0.919   4.110   1.208  0.0542  0.6162  0.0666
  161MPD2    H5 2513   0.901   4.210   1.212  0.0922  0.5902  0.8409
  161MPD2    N1 2514   1.111   3.731   1.434 -0.5877 -0.0696 -0.3129
  161MPD2    H7 2515   1.123   3.684   1.345 -2.2398 -0.4460 -0.3411
  162TMC2    C1 2516   4.361   1.040   1.243  0.4882 -0.2000 -0.5540
  162TMC2    C2 2517   4.267   1.119   1.297 -0.3329  0.4249  0.6971
  162TMC2    C3 2518   4.250   1.096   1.430 -0.2915 -0.3297  0.0705
  162TMC2    C4 2519   4.429   0.938   1.304  0.5427  0.4084  0.2104
  162TMC2    C5 2520   4.403   0.926   1.437  0.1151  0.2006  0.0771
  162TMC2    C6 2521   4.322   1.010   1.507  0.4642  0.2892 -0.9079
  162TMC2     C 2522   4.370   1.039   1.099  0.3888 -0.2212 -0.2563
  162TMC2     O 2523   4.416   0.937   1.045 -0.0540 -0.9752  0.1278
  162TMC2     H 2524   4.205   1.185   1.239 -0.6326  1.5868  2.3312
  162TMC2    H1 2525   4.502   0.885   1.245 -0.0913 -0.1231 -0.0979
  162TMC2    H2 2526   4.300   1.006   1.612  0.1109 -1.1764 -1.0422
  162TMC2    C7 2527   4.461   0.814   1.512  0.2394 -0.0788  0.7867
  162TMC2    C8 2528   4.146   1.168   1.497  0.6292  0.0414 -0.0454
  162TMC2    O1 2529   4.447   0.815   1.631 -0.7463 -0.2139 -0.1870
  162TMC2    O2 2530   4.103   1.133   1.604  0.2718  0.0950  0.7526
  162TMC2    O5 2531   4.145   1.297   1.453 -0.3484  0.4430  0.3501
  162TMC2    H5 2532   4.183   1.300   1.363 -2.3476 -2.7968 -0.6054
  163MPD2     C 2533   4.322   1.283   0.668  0.0661  0.5146 -0.0035
  163MPD2    C1 2534   4.304   1.151   0.693 -0.4227  0.8776 -0.1805
  163MPD2    C2 2535   4.321   1.107   0.822 -0.6482  0.1947 -0.5754
  163MPD2    C3 2536   4.343   1.201   0.915  0.5867  0.3464 -0.8755
  163MPD2    C4 2537   4.336   1.336   0.895  1.1490  0.5458 -0.6518
  163MPD2    C5 2538   4.331   1.377   0.767 -0.9722  0.4109 -0.6595
  163MPD2     H 2539   4.309   1.001   0.840 -1.8438  0.4343  0.0405
  163MPD2    H1 2540   4.338   1.399   0.983  1.2951  0.7956 -0.8359
  163MPD2    H2 2541   4.318   1.323   0.567 -1.9731 -1.7800 -0.8164
  163MPD2    H3 2542   4.334   1.485   0.758 -3.0529  0.4865 -0.5735
  163MPD2     N 2543   4.346   1.170   1.053 -0.2677 -0.6056  0.3166
  163MPD2    H5 2544   4.337   1.248   1.117  0.6659 -1.5242  1.5551
  163MPD2    N1 2545   4.263   1.058   0.588  0.1321  0.6578 -0.3927
  163MPD2    H7 2546   4.260   0.960   0.614  0.3843  0.8729  0.4630
  164TMC2    C1 2547   3.739   0.546  10.667 -0.0287  0.0634  0.1684
  164TMC2    C2 2548   3.871   0.549  10.654 -0.6671 -0.1205 -0.2992
  164TMC2    C3 2549   3.929   0.666  10.701 -0.0452 -0.2133 -0.1924
  164TMC2    C4 2550   3.665   0.645  10.722  0.1304 -0.5231  0.4231
  164TMC2    C5 2551   3.732   0.754  10.766  0.2162 -0.0718  0.9277
  164TMC2    C6 2552   3.866   0.774  10.758  0.3794  0.7831 -0.4085
  164TMC2     C 2553   3.677   0.415  10.655 -0.4769  0.2126 -0.0046
  164TMC2     O 2554   3.565   0.401  10.704 -0.4397 -0.6937  0.0692
  164TMC2     H 2555   3.933   0.479  10.601  1.0798  0.2085  1.3046
  164TMC2    H1 2556   3.558   0.632  10.736  0.4667 -1.2376  2.2524
  164TMC2    H2 2557   3.911   0.861  10.805  1.1032  0.1230  0.1012
  164TMC2    C7 2558   3.666   0.868  10.818 -0.0952 -0.6585  0.1460
  164TMC2    C8 2559   4.075   0.668  10.709 -0.0211 -0.1937 -0.8768
  164TMC2    O1 2560   3.610   0.942  10.742  0.2773  0.2071 -0.0906
  164TMC2    O2 2561   4.140   0.563  10.706 -0.2153  0.0452 -0.1056
  164TMC2    O5 2562   4.120   0.793  10.705  0.2735  0.6507 -0.0304
  164TMC2    H5 2563   4.055   0.862  10.679 -0.0042  0.9278  1.4402
  165TMC2    C1 2564   0.735   3.016   1.289 -0.7342  0.1841  0.7788
  165TMC2    C2 2565   0.692   3.110   1.202 -0.5428 -0.1539  0.0159
  165TMC2    C3 2566   0.779   3.197   1.150 -0.3586 -0.7333 -0.0915
  165TMC2    C4 2567   0.874   2.994   1.310 -0.3518  0.1958  0.1473
  165TMC2    C5 2568   0.954   3.085   1.251  0.2436 -0.0773 -0.2110
  165TMC2    C6 2569   0.914   3.192   1.179 -0.0523 -0.2433  0.3167
  165TMC2     C 2570   0.644   2.909   1.332  0.1683  0.4264  0.2728
  165TMC2     O 2571   0.698   2.812   1.377  0.6466  0.1097  0.0050
  165TMC2     H 2572   0.586   3.114   1.177 -0.2923 -0.9570 -1.1548
  165TMC2    H1 2573   0.908   2.894   1.332  0.4995  0.6353  0.8184
  165TMC2    H2 2574   0.975   3.279   1.159 -3.3431  1.8810 -0.5756
  165TMC2    C7 2575   1.094   3.081   1.268  0.9807 -0.9652 -0.5026
  165TMC2    C8 2576   0.722   3.324   1.111  0.4503 -0.4641  0.1175
  165TMC2    O1 2577   1.171   3.147   1.195 -0.8149 -0.1670 -0.4059
  165TMC2    O2 2578   0.608   3.330   1.074  0.4502  0.5748 -0.2389
  165TMC2    O5 2579   0.774   3.408   1.203  0.2674  0.1926  0.4017
  165TMC2    H5 2580   0.833   3.373   1.274  0.6495 -0.3666 -0.1891
  166MPD2     C 2581   0.174   2.692   1.380  0.3019  0.5114  0.4744
  166MPD2    C1 2582   0.297   2.636   1.410 -0.4181 -0.4226  1.0363
  166MPD2    C2 2583   0.414   2.719   1.396  0.1957  0.7920 -0.8922
  166MPD2    C3 2584   0.402   2.844   1.342  0.6631  0.5853  0.2159
  166MPD2    C4 2585   0.275   2.894   1.316  0.3155 -0.0992  0.3677
  166MPD2    C5 2586   0.163   2.817   1.341  0.2715 -0.1392 -1.0166
  166MPD2     H 2587   0.514   2.688   1.422 -1.0195 -0.6652  2.1165
  166MPD2    H1 2588   0.263   3.000   1.298  1.0828 -0.2914 -1.2042
  166MPD2    H2 2589   0.080   2.643   1.403 -0.7858  0.4335 -4.1987
  166MPD2    H3 2590   0.064   2.859   1.331 -0.4990 -1.9401 -1.0448
  166MPD2     N 2591   0.510   2.938   1.320  0.0731 -0.1357 -0.8527
  166MPD2    H5 2592   0.486   3.033   1.296  0.3620 -0.3351 -1.9587
  166MPD2    N1 2593   0.310   2.512   1.463  0.2903 -0.4414 -0.5670
  166MPD2    H7 2594   0.406   2.490   1.487 -0.3275 -2.4042  0.0506
  167TMC2    C1 2595   3.983   0.482  12.877  0.4489  0.3923  1.6993
  167TMC2    C2 2596   3.968   0.474  13.012 -0.0926  0.2591  0.1425
  167TMC2    C3 2597   3.887   0.378  13.062 -0.1324  0.2131 -0.2825
  167TMC2    C4 2598   3.926   0.393  12.787 -0.3207  0.6481 -0.3528
  167TMC2    C5 2599   3.853   0.296  12.846  0.8428 -0.4053 -0.3988
  167TMC2    C6 2600   3.821   0.287  12.981 -0.0293 -0.3316 -0.5732
  167TMC2     C 2601   4.094   0.564  12.829 -0.3225  0.6786  0.6324
  167TMC2     O 2602   4.166   0.621  12.909 -0.3779 -0.5210  0.3643
  167TMC2     H 2603   4.032   0.537  13.073  0.9726 -0.8484  0.1633
  167TMC2    H1 2604   3.962   0.383  12.685  0.2825  0.7914 -0.1541
  167TMC2    H2 2605   3.764   0.209  13.031  0.5577 -0.8403 -0.6964
  167TMC2    C7 2606   3.795   0.197  12.763 -0.6394 -0.5288 -0.2378
  167TMC2    C8 2607   3.857   0.367  13.200  0.2170 -0.1472  0.8492
  167TMC2    O1 2608   3.784   0.090  12.820 -0.3483 -0.2686  0.3480
  167TMC2    O2 2609   3.833   0.264  13.266  0.3012 -0.5921 -0.6691
  167TMC2    O5 2610   3.877   0.486  13.255 -0.0452  0.0770  0.0756
  167TMC2    H5 2611   3.874   0.552  13.182  1.3601 -0.5063 -0.5163
  168MPD2     C 2612   4.305   0.696  12.670 -0.0392  0.7660  0.0265
  168MPD2    C1 2613   4.187   0.659  12.613  0.0540  0.3392 -0.6938
  168MPD2    C2 2614   4.160   0.670  12.477 -0.5155 -0.1273 -0.2333
  168MPD2    C3 2615   4.250   0.733  12.396  0.5626  0.6459 -0.2658
  168MPD2    C4 2616   4.368   0.767  12.456  0.4011 -0.1530 -0.0158
  168MPD2    C5 2617   4.398   0.742  12.586 -0.3527  0.3405  0.2360
  168MPD2     H 2618   4.066   0.639  12.432 -1.3400  1.6335  0.2307
  168MPD2    H1 2619   4.442   0.828  12.405 -1.5101  1.3251 -1.0197
  168MPD2    H2 2620   4.333   0.678  12.773 -0.7246 -2.4783 -0.3659
  168MPD2    H3 2621   4.494   0.775  12.623 -0.2743 -1.7490  1.8712
  168MPD2     N 2622   4.228   0.761  12.261 -0.4749  0.2899 -0.1359
  168MPD2    H5 2623   4.305   0.804  12.212 -1.5906  1.8352 -0.5499
  168MPD2    N1 2624   4.092   0.592  12.693  0.5197  0.2341  0.7339
  168MPD2    H7 2625   4.009   0.557  12.647  0.6344  1.0119 -0.0624
  169MPD1     C 2626   4.592   0.681   9.826  0.1368  0.0968  0.0533
  169MPD1    C1 2627   4.611   0.583   9.920  0.4047  0.0138 -1.0711
  169MPD1    C2 2628   4.721   0.502   9.901 -0.0372 -0.5236  0.1295
  169MPD1    C3 2629   0.081   0.525   9.806  0.0937 -0.7002 -0.2468
  169MPD1    C4 2630   0.066   0.633   9.727  0.4590 -0.6860 -0.2802
  169MPD1    C5 2631   4.698   0.716   9.741 -0.3707 -0.3381  0.2787
  169MPD1     H 2632   0.008   0.414   9.961  1.5172 -0.1502  0.0641
  169MPD1    H1 2633   0.135   0.668   9.651 -1.0605  0.5083 -1.1089
  169MPD1    H2 2634   4.502   0.742   9.832  0.6329  0.8324  0.0347
  169MPD1    H3 2635   4.686   0.799   9.672  0.6091 -1.6032 -1.3722
  169MPD1     N 2636   0.180   0.422   9.783  0.3901 -0.0776 -0.0714
  169MPD1    H5 2637   0.191   0.340   9.841 -0.9326 -1.0963 -1.2588
  169MPD1    N1 2638   4.511   0.548  10.014  0.0013  0.3108 -0.5561
  169MPD1    H6 2639   4.551   0.503  10.096  1.1391  2.0295 -0.1891
  169MPD1    H7 2640   4.456   0.627  10.046  1.9857  0.9268  1.3454
  170MPD1     C 2641   4.419   2.281  13.004  0.7787  0.2254 -0.1067
  170MPD1    C1 2642   4.478   2.248  13.119 -0.1277 -0.1545  0.0723
  170MPD1    C2 2643   4.543   2.341  13.202  0.4794 -0.0729 -0.0601
  170MPD1    C3 2644   4.536   2.475  13.169 -0.0184  0.2225 -0.3085
  170MPD1    C4 2645   4.464   2.517  13.059 -0.6907  0.7273  0.1695
  170MPD1    C5 2646   4.408   2.417  12.980 -0.0143  0.0347 -1.6528
  170MPD1     H 2647   4.599   2.318  13.291 -1.1541 -0.9699  0.7469
  170MPD1    H1 2648   4.458   2.623  13.033 -1.0480  0.7133  0.1893
  170MPD1    H2 2649   4.378   2.202  12.943 -0.3531  0.2124  0.6692
  170MPD1    H3 2650   4.346   2.443  12.895 -0.5782 -0.2494 -1.3293
  170MPD1     N 2651   4.590   2.567  13.269 -0.1940 -0.2568 -0.0406
  170MPD1    H5 2652   4.618   2.522  13.356  1.4691  2.1544  0.6563
  170MPD1    N1 2653   4.506   2.111  13.145  0.1140 -0.2101  0.0613
  170MPD1    H6 2654   4.491   2.094  13.245 -2.1397 -1.7585 -0.5480
  170MPD1    H7 2655   4.433   2.057  13.100 -1.6035  0.5293  1.9550
  171MPD1     C 2656   3.521   3.877  14.668  0.1662  0.1003 -0.3388
  171MPD1    C1 2657   3.383   3.850  14.691 -0.5999 -0.0210 -0.1499
  171MPD1    C2 2658   3.349   3.802  14.813 -0.0129  0.3858  0.4685
  171MPD1    C3 2659   3.449   3.781  14.906 -0.5758 -0.8319 -0.5991
  171MPD1    C4 2660   3.582   3.800  14.875  0.1483  1.1083  0.1345
  171MPD1    C5 2661   3.618   3.846  14.754  0.2470  0.6727  0.1826
  171MPD1     H 2662   3.243   3.779  14.826 -0.1841  0.3115 -0.9849
  171MPD1    H1 2663   3.666   3.779  14.940  0.6219 -0.2340 -0.9249
  171MPD1    H2 2664   3.558   3.911  14.571 -0.3922 -1.6373 -1.1517
  171MPD1    H3 2665   3.723   3.851  14.730  0.6967  0.0581  1.9767
  171MPD1     N 2666   3.428   3.720  15.030  0.6062  0.1376  0.0865
  171MPD1    H5 2667   3.511   3.708  15.087  1.2385  0.2588 -0.8180
  171MPD1    N1 2668   3.284   3.870  14.596 -0.6496  0.1160  0.2805
  171MPD1    H6 2669   3.203   3.890  14.654 -1.0020 -0.4436 -0.0133
  171MPD1    H7 2670   3.303   3.954  14.543  0.7305  0.9118  2.0506
  172MPD1     C 2671   2.689   3.272  17.325  0.3046  0.6642 -0.8015
  172MPD1    C1 2672   2.679   3.405  17.366  0.4707  0.3175  0.4916
  172MPD1    C2 2673   2.624   3.433  17.486 -0.4267  0.0661  0.3705
  172MPD1    C3 2674   2.584   3.331  17.573  0.0769  0.0546  0.2119
  172MPD1    C4 2675   2.613   3.200  17.536  0.0635 -0.0754 -0.5121
  172MPD1    C5 2676   2.659   3.174  17.414 -0.6484  0.0286 -0.5193
  172MPD1     H 2677   2.612   3.537  17.515  0.9681  0.4249 -0.3714
  172MPD1    H1 2678   2.606   3.112  17.600  0.1334 -1.1144 -1.9210
  172MPD1    H2 2679   2.744   3.244  17.236 -1.8461 -1.2454 -1.5270
  172MPD1    H3 2680   2.678   3.070  17.388  1.5389  0.7022 -1.5989
  172MPD1     N 2681   2.528   3.356  17.700 -1.2064 -0.0429  0.0364
  172MPD1    H5 2682   2.496   3.275   0.010 -1.2012 -0.3168 -0.3846
  172MPD1    N1 2683   2.741   3.506  17.287  0.1823  0.0202  0.5098
  172MPD1    H6 2684   2.735   3.482  17.188 -0.8686  2.6541 -0.0651
  172MPD1    H7 2685   2.694   3.596  17.294 -0.0809  0.0897 -2.1265
  173MPD1     C 2686   3.891   3.277  14.333 -0.5089 -0.7502 -0.4558
  173MPD1    C1 2687   3.854   3.187  14.239 -1.1618 -0.0651 -0.4872
  173MPD1    C2 2688   3.793   3.068  14.276  0.1230  0.5829 -0.1802
  173MPD1    C3 2689   3.757   3.048  14.409  0.4518 -0.2532 -0.0352
  173MPD1    C4 2690   3.783   3.144  14.508 -0.3391  0.1437 -0.4515
  173MPD1    C5 2691   3.860   3.253  14.463 -0.0182 -0.0276  0.4881
  173MPD1     H 2692   3.793   2.980  14.213  0.6094  1.0018 -0.7642
  173MPD1    H1 2693   3.774   3.132  14.615  1.1095 -0.1432 -0.3674
  173MPD1    H2 2694   3.934   3.372  14.303  2.3811 -2.1527 -0.6940
  173MPD1    H3 2695   3.890   3.328  14.535  2.0251 -1.7753  1.4559
  173MPD1     N 2696   3.698   2.924  14.447 -0.2995 -0.3640 -0.2209
  173MPD1    H5 2697   3.670   2.862  14.371  1.0918 -0.9053 -0.3040
  173MPD1    N1 2698   3.910   3.198  14.112 -0.2929  0.6605 -0.0232
  173MPD1    H6 2699   3.926   3.297  14.092 -1.1500  0.8751  0.3773
  173MPD1    H7 2700   3.865   3.146  14.038 -0.6580 -0.6669  1.1352
  174MPD1     C 2701   3.215   2.111  14.140  0.2628 -0.5145  0.2873
  174MPD1    C1 2702   3.256   2.233  14.087 -0.3454  0.8726  0.2461
  174MPD1    C2 2703   3.328   2.318  14.171  1.1419 -0.1717 -0.1815
  174MPD1    C3 2704   3.358   2.286  14.301 -0.2809 -0.0372  0.1148
  174MPD1    C4 2705   3.322   2.157  14.353  0.5924 -0.4301  0.4245
  174MPD1    C5 2706   3.240   2.080  14.270  0.0547 -0.6585 -0.2383
  174MPD1     H 2707   3.339   2.421  14.140  0.3224 -0.0398 -0.0384
  174MPD1    H1 2708   3.340   2.135  14.458 -2.5027 -1.7838  0.6584
  174MPD1    H2 2709   3.150   2.052  14.076 -0.6911  0.2594  0.5323
  174MPD1    H3 2710   3.209   1.986  14.315 -1.3273 -0.2961 -0.4265
  174MPD1     N 2711   3.415   2.374  14.390 -0.6434  0.3043  0.5635
  174MPD1    H5 2712   3.433   2.347  14.486 -1.7091  0.6816  0.8752
  174MPD1    N1 2713   3.187   2.272  13.966  0.1248  0.5586  0.1521
  174MPD1    H6 2714   3.171   2.193  13.904  1.0826  1.1728 -0.8802
  174MPD1    H7 2715   3.233   2.341  13.906  0.0266 -1.9920 -2.8358
  175MPD1     C 2716   2.210   4.201  15.071  0.7368 -0.3758 -0.5531
  175MPD1    C1 2717   2.329   4.159  15.124 -0.1170 -0.6179 -0.2371
  175MPD1    C2 2718   2.333   4.125  15.264 -0.0796 -0.1513 -0.0726
  175MPD1    C3 2719   2.213   4.111  15.335 -0.2621 -0.8570  0.0578
  175MPD1    C4 2720   2.098   4.157  15.279  0.8038 -0.7240  1.1268
  175MPD1    C5 2721   2.098   4.201  15.148  0.0243 -0.2527 -0.4270
  175MPD1     H 2722   2.429   4.093  15.304  0.2899  0.4877 -0.4597
  175MPD1    H1 2723   2.006   4.167  15.336  0.8133 -0.4768  1.0994
  175MPD1    H2 2724   2.205   4.235  14.968  0.0228  1.8079  0.1957
  175MPD1    H3 2725   2.009   4.253  15.115  1.2640  1.3833 -1.1579
  175MPD1     N 2726   2.205   4.073  15.471  0.2897 -0.0271  0.3207
  175MPD1    H5 2727   2.116   4.078  15.519 -0.8509 -3.4338 -1.5042
  175MPD1    N1 2728   2.446   4.171  15.049  0.4796  0.1347 -0.2878
  175MPD1    H6 2729   2.504   4.096  15.087 -0.7264 -0.4240  0.4391
  175MPD1    H7 2730   2.423   4.172  14.950  0.1993 -0.9463 -0.2325
  176MPD1     C 2731   0.356   1.824  17.263 -0.4940 -0.2015 -0.5031
  176MPD1    C1 2732   0.304   1.854  17.389 -0.1247  0.3580  0.4153
  176MPD1    C2 2733   0.180   1.800  17.422  0.1677 -0.0037  0.7100
  176MPD1    C3 2734   0.093   1.749  17.321 -0.5964  0.3813  0.0097
  176MPD1    C4 2735   0.140   1.755  17.191  0.0467 -0.0674  0.1660
  176MPD1    C5 2736   0.269   1.789  17.163  0.0984 -0.8031  0.3215
  176MPD1     H 2737   0.150   1.801  17.526  0.2598 -0.9442  0.7526
  176MPD1    H1 2738   0.089   1.715  17.104  1.3317  0.8382 -0.9972
  176MPD1    H2 2739   0.459   1.843  17.239 -0.2380 -1.8376 -0.7174
  176MPD1    H3 2740   0.300   1.782  17.059 -0.7053  0.3135  0.0078
  176MPD1     N 2741   4.695   1.738  17.363 -0.2575  0.3188  0.0595
  176MPD1    H5 2742   4.685   1.746  17.464  3.2307  2.6726  0.2144
  176MPD1    N1 2743   0.385   1.883  17.493  0.1645 -0.0873  0.3630
  176MPD1    H6 2744   0.454   1.954  17.468  0.9505 -0.9042  0.1913
  176MPD1    H7 2745   0.333   1.911  17.576 -3.2325 -0.4546 -1.6605
  177MPD1     C 2746   2.283   1.049   9.369  0.6732 -0.3873  0.3701
  177MPD1    C1 2747   2.190   0.998   9.281 -0.4177 -1.1097 -0.5277
  177MPD1    C2 2748   2.072   1.075   9.260  0.1395 -0.1651  0.5408
  177MPD1    C3 2749   2.056   1.201   9.321 -0.2607  0.0822 -0.1337
  177MPD1    C4 2750   2.162   1.255   9.390  0.7110 -0.0047  0.6653
  177MPD1    C5 2751   2.268   1.175   9.420 -0.4354  0.3754 -0.4015
  177MPD1     H 2752   1.983   1.039   9.211  0.8153 -0.8133 -0.2173
  177MPD1    H1 2753   2.161   1.354   9.435 -0.0052  0.4969 -0.4594
  177MPD1    H2 2754   2.358   0.985   9.415  0.7320  1.0811  2.2797
  177MPD1    H3 2755   2.346   1.213   9.485  0.6596  0.2194 -1.6250
  177MPD1     N 2756   1.927   1.262   9.302  0.2865 -0.1170  0.7577
  177MPD1    H5 2757   1.862   1.222   9.235 -1.0002 -2.2318  3.2557
  177MPD1    N1 2758   2.192   0.865   9.238  0.2977 -0.3587 -0.6591
  177MPD1    H6 2759   2.136   0.852   9.154 -0.4888 -0.0591 -0.1719
  177MPD1    H7 2760   2.288   0.843   9.210  0.4097 -0.1108 -0.4757
  178MPD1     C 2761   4.429   2.159   0.018  0.2327 -0.5020 -0.6716
  178MPD1    C1 2762   4.381   2.218  17.647 -0.3487 -0.3637  0.5634
  178MPD1    C2 2763   4.450   2.179  17.530 -0.2269  0.0449  0.2787
  178MPD1    C3 2764   4.570   2.114  17.531 -0.2385  0.2301 -0.3055
  178MPD1    C4 2765   4.626   2.079  17.656  0.3014  0.5357  0.1325
  178MPD1    C5 2766   4.549   2.095   0.015 -0.1623 -0.2241  0.1257
  178MPD1     H 2767   4.414   2.213  17.433  0.3887  2.6709  0.9921
  178MPD1    H1 2768   4.721   2.030  17.671  0.1017  0.3225  0.6665
  178MPD1    H2 2769   4.389   2.179   0.117 -0.1721  2.0760 -1.3570
  178MPD1    H3 2770   4.594   2.052   0.104 -0.7711  0.7628  0.9089
  178MPD1     N 2771   4.651   2.093  17.414  0.3522 -0.0543 -0.2520
  178MPD1    H5 2772   0.012   2.078  17.440  0.6299  0.9692 -0.7110
  178MPD1    N1 2773   4.245   2.272  17.646  0.3987  0.7359 -0.0410
  178MPD1    H6 2774   4.220   2.320  17.560  1.6409  0.9877 -0.2640
  178MPD1    H7 2775   4.223   2.325  17.730  0.5393  0.9071 -0.1141
  179MPD1     C 2776   3.910   0.397  15.681  0.2540 -0.6320  0.1438
  179MPD1    C1 2777   3.816   0.331  15.614  0.3817 -0.1856  0.4478
  179MPD1    C2 2778   3.838   0.201  15.570 -0.2324  0.2161 -0.6148
  179MPD1    C3 2779   3.956   0.133  15.603  0.1608 -0.1499 -0.2869
  179MPD1    C4 2780   4.054   0.206  15.672 -0.4735 -0.3825  0.3072
  179MPD1    C5 2781   4.022   0.335  15.705 -0.1214  0.3685 -0.2574
  179MPD1     H 2782   3.762   0.152  15.511 -1.1625  1.0576 -0.1082
  179MPD1    H1 2783   4.148   0.168  15.710 -0.9245 -1.7919  0.0182
  179MPD1    H2 2784   3.909   0.502  15.710 -0.7279 -1.3924  2.8592
  179MPD1    H3 2785   4.096   0.392  15.761  0.5908 -1.6617  0.8540
  179MPD1     N 2786   3.987   0.000  15.555 -0.3617  0.0072 -0.4842
  179MPD1    H5 2787   4.068   4.691  15.596 -2.2784 -1.0548  2.1832
  179MPD1    N1 2788   3.701   0.390  15.571 -0.6405  0.2034 -0.1427
  179MPD1    H6 2789   3.662   0.457  15.637 -2.9799 -0.9455 -0.3755
  179MPD1    H7 2790   3.627   0.329  15.536 -0.8942 -0.1657  1.0562
  180MPD1     C 2791   3.880   2.049  15.588 -0.3326 -0.4748 -0.8738
  180MPD1    C1 2792   3.819   2.112  15.483  0.4527  0.0010 -0.5643
  180MPD1    C2 2793   3.837   2.055  15.356 -1.1831 -0.4042  0.3249
  180MPD1    C3 2794   3.895   1.934  15.341  0.2751  0.0304 -0.9099
  180MPD1    C4 2795   3.948   1.874  15.453  0.4294 -0.4365  0.9573
  180MPD1    C5 2796   3.945   1.932  15.571 -0.0175  0.1806 -0.3613
  180MPD1     H 2797   3.795   2.097  15.265  1.2765  3.0065  0.7280
  180MPD1    H1 2798   3.978   1.770  15.447  2.1610  0.2268 -1.7736
  180MPD1    H2 2799   3.890   2.100  15.684  2.8393 -0.2317 -1.3482
  180MPD1    H3 2800   3.990   1.886  15.659 -0.2833  1.6773  0.5512
  180MPD1     N 2801   3.895   1.878  15.212 -0.3993  0.0291  0.2735
  180MPD1    H5 2802   3.866   1.940  15.137 -1.1306 -0.6912 -0.0377
  180MPD1    N1 2803   3.762   2.245  15.500  0.4879  0.3122  0.0119
  180MPD1    H6 2804   3.713   2.265  15.587 -0.9100 -2.0939 -0.2352
  180MPD1    H7 2805   3.698   2.270  15.425 -0.2904  1.1283  0.9570
  181MPD1     C 2806   0.252   3.025  10.652  0.7413 -0.5587 -0.0029
  181MPD1    C1 2807   0.295   3.016  10.522  0.1783  0.0421  0.1165
  181MPD1    C2 2808   0.400   3.091  10.475  0.4259  0.2959 -0.0003
  181MPD1    C3 2809   0.475   3.166  10.561  0.3863 -0.4959  0.4972
  181MPD1    C4 2810   0.430   3.185  10.692  0.1868  0.2116  0.1644
  181MPD1    C5 2811   0.323   3.104  10.733 -0.0416 -0.2981  0.2269
  181MPD1     H 2812   0.411   3.092  10.367 -1.9278 -0.8988 -0.2645
  181MPD1    H1 2813   0.480   3.249  10.764  1.2928 -2.5734  1.8425
  181MPD1    H2 2814   0.170   2.967  10.692 -0.3234  0.3497 -0.8561
  181MPD1    H3 2815   0.284   3.103  10.834 -1.5809 -0.3569 -0.3657
  181MPD1     N 2816   0.591   3.237  10.529  0.4907 -0.2957  0.7456
  181MPD1    H5 2817   0.623   3.303  10.600 -0.4429 -1.4192  2.2084
  181MPD1    N1 2818   0.216   2.940  10.436  0.0971  0.3719  0.2198
  181MPD1    H6 2819   0.254   2.905  10.348  2.2860 -0.1586  1.3979
  181MPD1    H7 2820   0.173   2.862  10.486 -0.0846  0.0656 -0.4090
  182MPD1     C 2821   2.425   1.954   1.322 -0.0511  0.1054 -0.0524
  182MPD1    C1 2822   2.376   1.863   1.230 -0.3253 -0.0761  0.6437
  182MPD1    C2 2823   2.293   1.908   1.135  0.2564 -0.0010 -0.1879
  182MPD1    C3 2824   2.244   2.033   1.143  0.2127  0.1013 -0.7165
  182MPD1    C4 2825   2.287   2.124   1.239  0.5310  0.4818 -0.0057
  182MPD1    C5 2826   2.384   2.085   1.323 -0.0186 -0.2828 -0.4516
  182MPD1     H 2827   2.258   1.842   1.056  0.4562 -0.0611 -0.2262
  182MPD1    H1 2828   2.248   2.225   1.244  3.3260  1.6612 -2.0808
  182MPD1    H2 2829   2.507   1.927   1.389 -0.1700 -0.6222 -0.1975
  182MPD1    H3 2830   2.420   2.150   1.401  1.0668  0.4540 -1.5661
  182MPD1     N 2831   2.140   2.085   1.063  0.1213  0.0410 -0.0044
  182MPD1    H5 2832   2.111   2.178   1.090 -2.1053 -0.4576 -0.7076
  182MPD1    N1 2833   2.436   1.735   1.227 -0.3530  0.6453 -0.4324
  182MPD1    H6 2834   2.469   1.705   1.318  3.9548 -1.9746 -2.8212
  182MPD1    H7 2835   2.375   1.666   1.184  1.0922 -0.3816 -0.8543
  183MPD1     C 2836   1.656   3.984   9.609 -0.2870 -0.3319 -0.3899
  183MPD1    C1 2837   1.574   3.901   9.540  0.6421 -0.3327  0.3618
  183MPD1    C2 2838   1.630   3.780   9.500  0.0376 -0.5836  0.6525
  183MPD1    C3 2839   1.769   3.757   9.495  0.3919  0.2761  0.1044
  183MPD1    C4 2840   1.847   3.852   9.555 -0.1566  0.4637  0.1406
  183MPD1    C5 2841   1.788   3.963   9.616 -0.7241  0.0478 -0.1998
  183MPD1     H 2842   1.563   3.701   9.468  1.0649 -1.7434  1.3951
  183MPD1    H1 2843   1.952   3.828   9.571  0.0028  1.6558  0.8653
  183MPD1    H2 2844   1.617   4.065   9.670  2.5700  1.1783 -0.5659
  183MPD1    H3 2845   1.847   4.035   9.672  2.5766 -0.2643 -3.2367
  183MPD1     N 2846   1.810   3.634   9.437  0.1526  0.1289 -0.1409
  183MPD1    H5 2847   1.734   3.582   9.395 -0.0247 -0.2952  0.7173
  183MPD1    N1 2848   1.439   3.923   9.564 -0.1148 -0.1769  0.0715
  183MPD1    H6 2849   1.422   4.023   9.557 -0.1013 -0.2420 -0.8895
  183MPD1    H7 2850   1.380   3.872   9.500 -0.2482 -1.9927  1.6265
  184MPD1     C 2851   0.964   1.014  10.353  0.0578  0.2599  0.5121
  184MPD1    C1 2852   0.892   0.971  10.239 -0.1852 -0.2373 -0.8793
  184MPD1    C2 2853   0.930   1.022  10.117  0.5147 -0.1404 -0.1786
  184MPD1    C3 2854   1.014   1.134  10.104 -0.8508 -0.1663 -0.1863
  184MPD1    C4 2855   1.073   1.177  10.219 -0.4798 -0.0012 -0.5027
  184MPD1    C5 2856   1.043   1.117  10.336 -0.9067 -0.2449  0.0880
  184MPD1     H 2857   0.872   0.989  10.031  1.8102 -0.1953 -1.0260
  184MPD1    H1 2858   1.145   1.257  10.206  0.1198 -0.3119  0.8694
  184MPD1    H2 2859   0.946   0.969  10.450 -1.3298  2.2909  1.2052
  184MPD1    H3 2860   1.091   1.159  10.424  1.4479 -2.0029 -0.3560
  184MPD1     N 2861   1.053   1.187   9.976 -0.4044  0.2447 -0.4152
  184MPD1    H5 2862   1.122   1.261   9.969 -0.0356  0.0525  1.3533
  184MPD1    N1 2863   0.821   0.850  10.239  0.4056 -0.8293  0.5404
  184MPD1    H6 2864   0.745   0.875  10.176  1.4659  0.6173 -0.1895
  184MPD1    H7 2865   0.783   0.835  10.332 -3.0251  0.6705 -0.6160
  185MPD1     C 2866   0.693   1.124   9.029 -0.3844 -0.7374 -0.4626
  185MPD1    C1 2867   0.740   1.251   9.048 -0.4858  0.1160 -0.0383
  185MPD1    C2 2868   0.790   1.286   9.175 -0.4119  0.2007 -0.2381
  185MPD1    C3 2869   0.819   1.191   9.264 -0.4855  0.0662 -0.4573
  185MPD1    C4 2870   0.773   1.057   9.243  0.3107 -0.3203 -0.2808
  185MPD1    C5 2871   0.712   1.026   9.128  0.1898 -0.5759  0.4576
  185MPD1     H 2872   0.801   1.389   9.206  0.8163  0.2628 -0.8715
  185MPD1    H1 2873   0.786   0.986   9.324  1.2704  0.0526 -0.1134
  185MPD1    H2 2874   0.639   1.089   8.943 -0.7610 -1.6962  0.1633
  185MPD1    H3 2875   0.665   0.928   9.121 -0.3139 -0.1536 -2.1846
  185MPD1     N 2876   0.877   1.227   9.389  0.7195  0.6285  0.1704
  185MPD1    H5 2877   0.881   1.151   9.456 -1.9688  1.4187  1.2230
  185MPD1    N1 2878   0.698   1.351   8.962 -0.0156 -0.0435 -0.8258
  185MPD1    H6 2879   0.752   1.437   8.956  1.1891 -0.8474 -1.5517
  185MPD1    H7 2880   0.671   1.313   8.871 -1.6173 -0.0168 -0.3727
  186MPD1     C 2881   4.509   0.186  15.405 -0.3164  0.1382 -0.0369
  186MPD1    C1 2882   4.640   0.235  15.431 -0.5850  0.5596  0.0570
  186MPD1    C2 2883   4.662   0.314  15.544 -0.2341 -0.3587  0.3140
  186MPD1    C3 2884   4.559   0.336  15.637  0.0830  0.1970 -0.1773
  186MPD1    C4 2885   4.436   0.284  15.614 -0.0848 -0.2689  0.2012
  186MPD1    C5 2886   4.409   0.211  15.494  0.9810  0.1363 -0.5501
  186MPD1     H 2887   0.021   0.365  15.553  0.0839 -1.1951  1.8371
  186MPD1    H1 2888   4.355   0.305  15.683  0.7527 -0.8878  1.3835
  186MPD1    H2 2889   4.496   0.125  15.316 -2.0423  0.4023  0.0335
  186MPD1    H3 2890   4.308   0.182  15.467  0.9353  0.9231 -1.2414
  186MPD1     N 2891   4.576   0.405  15.759  0.7115 -0.0905 -0.1837
  186MPD1    H5 2892   4.496   0.405  15.821 -0.5146 -1.4558 -1.7797
  186MPD1    N1 2893   0.001   0.228  15.329 -0.4547  0.3843 -0.1467
  186MPD1    H6 2894   0.093   0.237  15.371  1.1802 -0.8204 -3.4708
  186MPD1    H7 2895   4.731   0.136  15.284 -0.4861  0.6381 -0.6627
  187MPD1     C 2896   4.669   2.649  17.513 -0.2225 -0.0018  0.6766
  187MPD1    C1 2897   4.584   2.559  17.562 -0.2128  0.0657 -0.3976
  187MPD1    C2 2898   4.468   2.537  17.488  0.1314 -0.1145  0.3789
  187MPD1    C3 2899   4.445   2.584  17.359  0.4481 -0.1584 -0.3737
  187MPD1    C4 2900   4.544   2.667  17.302 -0.3283 -0.0475  0.6335
  187MPD1    C5 2901   4.655   2.695  17.381  0.3192  0.0925  0.2054
  187MPD1     H 2902   4.397   2.466  17.529  0.1438 -0.6174 -0.4639
  187MPD1    H1 2903   4.531   2.700  17.199  1.1603  0.2088  0.5327
  187MPD1    H2 2904   0.023   2.683  17.565 -0.1577  1.3406 -0.3295
  187MPD1    H3 2905   0.003   2.750  17.339  0.2490  1.4039  1.7863
  187MPD1     N 2906   4.328   2.568  17.289  0.0508  0.3398  0.2971
  187MPD1    H5 2907   4.314   2.610  17.198  0.4919 -0.2089 -0.0270
  187MPD1    N1 2908   4.596   2.506  17.689  0.2107 -0.3029 -0.0992
  187MPD1    H6 2909   4.693   2.501  17.720  0.4744  0.4903 -0.7741
  187MPD1    H7 2910   4.566   2.409  17.692  0.0423 -0.2668 -0.6448
  188MPD1     C 2911   2.763   2.305  10.249  0.0678  0.1469  0.1290
  188MPD1    C1 2912   2.883   2.293  10.306  0.1069  0.5714  0.5023
  188MPD1    C2 2913   2.955   2.184  10.260  0.1625  0.0539  0.0993
  188MPD1    C3 2914   2.907   2.091  10.163 -0.2254  0.6246  0.3142
  188MPD1    C4 2915   2.777   2.102  10.125  0.4030  0.2098 -0.7287
  188MPD1    C5 2916   2.710   2.215  10.159 -0.1357 -0.1047 -0.3158
  188MPD1     H 2917   3.055   2.180  10.303  0.5912 -0.7920 -0.9751
  188MPD1    H1 2918   2.732   2.046  10.044 -1.2748  1.1969 -0.4778
  188MPD1    H2 2919   2.699   2.386  10.281 -0.1090  0.0153  0.1087
  188MPD1    H3 2920   2.614   2.240  10.115  0.5881  2.0942 -0.6598
  188MPD1     N 2921   2.992   1.992  10.106 -0.1138 -0.3760  0.0309
  188MPD1    H5 2922   2.955   1.931  10.033 -0.3044 -0.0809 -0.1204
  188MPD1    N1 2923   2.914   2.381  10.411 -0.1681  0.1778  0.4401
  188MPD1    H6 2924   3.012   2.374  10.439 -0.1028  1.2141  0.4651
  188MPD1    H7 2925   2.914   2.475  10.371  3.0603 -0.1768 -0.3792
  189MPD1     C 2926   0.754   3.488   0.420  0.1132  0.2594  0.6555
  189MPD1    C1 2927   0.650   3.420   0.378  0.3389 -0.0952 -1.1325
  189MPD1    C2 2928   0.549   3.501   0.323 -0.9583 -0.3744  0.3806
  189MPD1    C3 2929   0.560   3.635   0.306  0.3047 -0.1406 -0.2366
  189MPD1    C4 2930   0.671   3.697   0.362 -0.1941 -0.3836 -0.0736
  189MPD1    C5 2931   0.766   3.625   0.415  0.1815  0.5199  0.0181
  189MPD1     H 2932   0.467   3.449   0.275 -1.6727 -1.2838  2.6218
  189MPD1    H1 2933   0.689   3.804   0.362  3.4186 -1.0105  2.1465
  189MPD1    H2 2934   0.833   3.430   0.468  0.4581  1.0850  1.0825
  189MPD1    H3 2935   0.855   3.678   0.446 -0.5952 -0.8600  4.6436
  189MPD1     N 2936   0.467   3.713   0.238 -0.5667  0.3684  0.1251
  189MPD1    H5 2937   0.499   3.807   0.220 -0.1369  0.0905 -0.5722
  189MPD1    N1 2938   0.644   3.282   0.380  0.0291  0.0310 -0.0011
  189MPD1    H6 2939   0.549   3.247   0.371  1.0478 -2.5098 -0.8239
  189MPD1    H7 2940   0.670   3.251   0.474  0.1077  0.4693  0.1219
  190MPD1     C 2941   4.448   2.511  15.256  0.1356  0.1639 -0.0363
  190MPD1    C1 2942   4.570   2.466  15.213  0.1850  0.3479 -0.1738
  190MPD1    C2 2943   4.635   2.371  15.285  0.8326  0.6228  0.1585
  190MPD1    C3 2944   4.578   2.323  15.404 -0.1045 -0.5134 -0.0105
  190MPD1    C4 2945   4.453   2.370  15.440 -0.4391  0.2206  0.1608
  190MPD1    C5 2946   4.388   2.463  15.367  0.4181  0.2297 -0.2066
  190MPD1     H 2947   4.723   2.319  15.248  1.0266 -0.3775  2.0528
  190MPD1    H1 2948   4.399   2.325  15.523 -0.7887  0.8695  0.2875
  190MPD1    H2 2949   4.391   2.585  15.202  2.2074  1.4268 -0.4872
  190MPD1    H3 2950   4.291   2.494  15.403  1.1858 -0.3948  2.4072
  190MPD1     N 2951   4.647   2.221  15.472  0.4732 -0.1285  0.2362
  190MPD1    H5 2952   4.734   2.194  15.427 -0.1713 -1.6960 -0.0531
  190MPD1    N1 2953   4.614   2.511  15.089  0.0838 -0.0403 -0.4633
  190MPD1    H6 2954   4.711   2.481  15.072  0.5280  1.3630 -0.3704
  190MPD1    H7 2955   4.596   2.610  15.080  1.7213  0.3916  0.9980
  191MPD1     C 2956   3.661   2.595  11.412 -0.0632 -0.4557 -0.5159
  191MPD1    C1 2957   3.591   2.710  11.387 -0.0599  0.0452 -0.2950
  191MPD1    C2 2958   3.613   2.815  11.471  0.0556  0.1964 -0.0148
  191MPD1    C3 2959   3.696   2.811  11.576  0.1377 -0.2443  0.1495
  191MPD1    C4 2960   3.778   2.698  11.590 -0.2462 -0.3063 -0.0856
  191MPD1    C5 2961   3.751   2.591  11.517 -0.0221 -0.6053 -0.3796
  191MPD1     H 2962   3.567   2.909  11.442  0.9241  0.3290 -0.9437
  191MPD1    H1 2963   3.853   2.685  11.667  0.6433  2.8742 -0.4440
  191MPD1    H2 2964   3.628   2.506  11.360 -1.8846 -0.2599  0.2945
  191MPD1    H3 2965   3.796   2.498  11.549 -0.4834 -0.9614 -0.7777
  191MPD1     N 2966   3.708   2.928  11.656 -0.0247  0.3540 -0.3756
  191MPD1    H5 2967   3.638   2.999  11.643  1.8143  1.6690 -2.9861
  191MPD1    N1 2968   3.501   2.719  11.281  0.5009 -0.0510 -0.2700
  191MPD1    H6 2969   3.463   2.630  11.248  0.6859  0.2109 -1.1831
  191MPD1    H7 2970   3.424   2.786  11.287  0.0797 -0.4240 -1.6314
  192MPD1     C 2971   3.333   3.678  11.500 -0.6476  0.1452 -0.5825
  192MPD1    C1 2972   3.434   3.732  11.587  0.1204  0.6035  0.5390
  192MPD1    C2 2973   3.520   3.642  11.656 -0.2090  0.4050  0.4916
  192MPD1    C3 2974   3.505   3.504  11.636 -0.4374  0.4316  0.3654
  192MPD1    C4 2975   3.410   3.461  11.545  0.0492  0.0535  0.7900
  192MPD1    C5 2976   3.322   3.545  11.482  0.2083  0.1617  0.0671
  192MPD1     H 2977   3.591   3.685  11.725  1.5889 -1.5793 -0.1397
  192MPD1    H1 2978   3.398   3.353  11.536 -0.2079  0.1513 -0.0721
  192MPD1    H2 2979   3.259   3.739  11.450  1.5163  1.0645 -2.6975
  192MPD1    H3 2980   3.254   3.509  11.405 -0.3885 -0.1152  0.7213
  192MPD1     N 2981   3.577   3.402  11.703 -0.5537  0.0518 -0.0148
  192MPD1    H5 2982   3.556   3.304  11.689  1.3542 -0.3865  0.1545
  192MPD1    N1 2983   3.447   3.872  11.610 -0.2522  0.5524  0.2607
  192MPD1    H6 2984   3.353   3.907  11.630  0.0827  0.6345  1.6847
  192MPD1    H7 2985   3.505   3.889  11.692  1.4174 -0.1192 -0.7881
  193MPD1     C 2986   3.352   3.464  16.086 -0.4890 -0.1350 -0.9296
  193MPD1    C1 2987   3.284   3.511  16.200 -0.5171 -0.2517  0.8543
  193MPD1    C2 2988   3.358   3.584  16.293  0.6016  0.0715 -0.0799
  193MPD1    C3 2989   3.492   3.612  16.267  0.7420 -0.3350 -0.4731
  193MPD1    C4 2990   3.559   3.564  16.156 -0.2380  0.1746 -0.6225
  193MPD1    C5 2991   3.489   3.487  16.066  0.1467  1.0820 -0.5883
  193MPD1     H 2992   3.315   3.616  16.387 -2.6168 -0.5874 -1.3275
  193MPD1    H1 2993   3.664   3.589  16.144  0.0089 -0.5879 -0.0345
  193MPD1    H2 2994   3.307   3.394  16.018 -0.1012 -1.2868  0.0107
  193MPD1    H3 2995   3.536   3.439  15.981  0.7832 -1.2753  1.1040
  193MPD1     N 2996   3.579   3.682  16.360  0.0991 -0.0641 -0.6486
  193MPD1    H5 2997   3.677   3.691  16.335  0.4946  0.6766  1.2265
  193MPD1    N1 2998   3.154   3.467  16.226  0.6008 -0.2361  0.2166
  193MPD1    H6 2999   3.111   3.426  16.144  1.2010 -0.3580 -0.0391
  193MPD1    H7 3000   3.097   3.538  16.272 -1.1453  0.0469 -2.3936
  194MPD1     C 3001   1.294   1.419  16.462  0.0414 -0.8930 -0.4109
  194MPD1    C1 3002   1.248   1.316  16.383  0.3134 -0.2597 -0.1974
  194MPD1    C2 3003   1.234   1.188  16.442 -0.7947 -0.0114 -0.0568
  194MPD1    C3 3004   1.285   1.160  16.566 -0.0193 -0.4139 -0.8063
  194MPD1    C4 3005   1.341   1.264  16.635 -0.1397 -0.7629 -0.1760
  194MPD1    C5 3006   1.342   1.392  16.587  0.1657  0.2235  0.3466
  194MPD1     H 3007   1.194   1.107  16.382 -0.3419  1.0461 -1.7777
  194MPD1    H1 3008   1.392   1.241  16.727 -0.0208  0.6081  0.1126
  194MPD1    H2 3009   1.281   1.522  16.434 -0.3198 -0.1742  2.3448
  194MPD1    H3 3010   1.390   1.470  16.644 -0.7800  0.0048  1.4727
  194MPD1     N 3011   1.301   1.027  16.615 -0.4900 -0.3155 -0.8417
  194MPD1    H5 3012   1.337   1.018  16.709 -0.5258 -2.9755 -1.0848
  194MPD1    N1 3013   1.220   1.350  16.249  0.1372  0.1637 -0.1140
  194MPD1    H6 3014   1.285   1.417  16.208 -0.7012  1.2786  0.4203
  194MPD1    H7 3015   1.201   1.275  16.182 -1.2648  2.0610 -1.8424
  195MPD1     C 3016   3.896   2.697  17.477  0.0657 -0.5865 -0.2059
  195MPD1    C1 3017   3.778   2.629  17.493 -0.3260 -0.5931 -0.2205
  195MPD1    C2 3018   3.768   2.568  17.619 -0.3916 -0.0883  0.3745
  195MPD1    C3 3019   3.866   2.571  17.710  0.2632  0.5055 -0.6433
  195MPD1    C4 3020   3.992   2.607  17.672  0.0898  0.1629 -0.2387
  195MPD1    C5 3021   4.005   2.672  17.554 -0.2245  0.1261  0.0844
  195MPD1     H 3022   3.671   2.521  17.632  0.5282 -1.7982  1.0419
  195MPD1    H1 3023   4.070   2.616   0.005  0.1935 -0.1891 -0.3019
  195MPD1    H2 3024   3.909   2.765  17.393  2.6202 -0.4500  0.3085
  195MPD1    H3 3025   4.097   2.724  17.529 -0.6618  0.5531 -0.6611
  195MPD1     N 3026   3.850   2.521   0.102 -0.3107  0.2308  0.7088
  195MPD1    H5 3027   3.936   2.496   0.149 -0.3954  0.2630  0.8798
  195MPD1    N1 3028   3.666   2.657  17.416 -0.5703 -0.6015 -0.5109
  195MPD1    H6 3029   3.592   2.586  17.414  0.3818 -1.6022 -0.1442
  195MPD1    H7 3030   3.683   2.689  17.321 -1.0671  0.2058 -0.3245
  196MPD1     C 3031   2.568   1.256   0.642 -0.0757  0.2672 -0.1802
  196MPD1    C1 3032   2.586   1.348   0.541 -0.0243 -0.2197 -0.2936
  196MPD1    C2 3033   2.627   1.474   0.572 -0.0471  0.0039  0.3281
  196MPD1    C3 3034   2.668   1.519   0.702 -0.0790 -0.0536  0.8313
  196MPD1    C4 3035   2.653   1.430   0.802 -0.0211 -0.1916  0.1968
  196MPD1    C5 3036   2.594   1.308   0.771  0.0254 -0.3202  0.0788
  196MPD1     H 3037   2.657   1.533   0.487  1.4260 -1.4334 -0.1466
  196MPD1    H1 3038   2.663   1.456   0.906  3.7856  0.9971 -0.4595
  196MPD1    H2 3039   2.534   1.153   0.638  2.4004 -0.5677  0.3258
  196MPD1    H3 3040   2.562   1.251   0.857 -0.6542 -3.4692 -2.2570
  196MPD1     N 3041   2.728   1.643   0.737 -0.1557 -0.2384  0.0631
  196MPD1    H5 3042   2.767   1.662   0.829 -1.1362  0.3013  0.3664
  196MPD1    N1 3043   2.538   1.316   0.411 -0.8151  0.0586 -0.8706
  196MPD1    H6 3044   2.550   1.218   0.387 -2.1563 -0.8729  2.2507
  196MPD1    H7 3045   2.569   1.375   0.334 -0.0367  2.1213  1.0340
  197MPD1     C 3046   1.886   4.429  16.593  0.3507 -0.9543 -0.0453
  197MPD1    C1 3047   1.915   4.299  16.617  0.0151  0.5159  0.4208
  197MPD1    C2 3048   2.026   4.259  16.691 -0.0856  1.0802  0.4605
  197MPD1    C3 3049   2.099   4.358  16.763  0.6670  0.2128  0.1714
  197MPD1    C4 3050   2.043   4.488  16.763 -0.2610 -0.1614 -0.2472
  197MPD1    C5 3051   1.945   4.519  16.677 -0.5745  0.0029 -0.1202
  197MPD1     H 3052   2.049   4.155  16.706 -1.4946  0.5471 -1.0229
  197MPD1    H1 3053   2.081   4.565  16.829 -1.1513 -2.1650  2.6294
  197MPD1    H2 3054   1.796   4.452  16.537  0.2079  1.8200  1.2880
  197MPD1    H3 3055   1.902   4.617  16.698  1.1863  1.1082 -1.6049
  197MPD1     N 3056   2.220   4.332  16.836 -0.3941  0.1602 -0.1957
  197MPD1    H5 3057   2.278   4.406  16.874  1.7851 -1.4622 -0.3935
  197MPD1    N1 3058   1.843   4.203  16.548 -0.2958  0.6039  0.1550
  197MPD1    H6 3059   1.745   4.228  16.555 -0.3081  0.9896 -1.3618
  197MPD1    H7 3060   1.855   4.111  16.590 -0.7502  0.2491 -0.4878
  198MPD1     C 3061   4.008   2.537  15.090  0.4837  0.2735  0.5123
  198MPD1    C1 3062   3.939   2.553  15.201 -0.3167  0.3206  0.3033
  198MPD1    C2 3063   3.969   2.654  15.285 -0.0416 -0.0436 -0.5377
  198MPD1    C3 3064   4.066   2.745  15.251 -1.2326  0.2001 -0.1101
  198MPD1    C4 3065   4.129   2.729  15.125  0.0899 -0.5735 -0.3542
  198MPD1    C5 3066   4.108   2.620  15.044 -0.2614  0.1750 -0.0026
  198MPD1     H 3067   3.919   2.663  15.381  0.3217 -0.5545 -0.2981
  198MPD1    H1 3068   4.197   2.801  15.080  0.0997 -0.4336 -0.1140
  198MPD1    H2 3069   3.987   2.453  15.025  0.1538 -0.1766  1.2162
  198MPD1    H3 3070   4.169   2.598  14.957 -3.4777  0.2283 -2.2658
  198MPD1     N 3071   4.096   2.844  15.354  0.4130 -0.5119 -0.0058
  198MPD1    H5 3072   4.051   2.838  15.444 -0.9559  0.6622 -0.6221
  198MPD1    N1 3073   3.854   2.460  15.254  0.0773 -0.0608 -0.0407
  198MPD1    H6 3074   3.808   2.387  15.199 -1.6033 -0.7951  2.3412
  198MPD1    H7 3075   3.788   2.518  15.306  1.6052  2.3217 -0.7617
  199MPD1     C 3076   1.862   4.145  10.021  0.2635 -0.2004  0.4595
  199MPD1    C1 3077   1.791   4.259  10.067  0.0887  0.0480  0.2257
  199MPD1    C2 3078   1.653   4.252  10.073  1.0466  0.0868 -0.1121
  199MPD1    C3 3079   1.586   4.148  10.007 -0.0212  0.5066  0.0880
  199MPD1    C4 3080   1.657   4.047   9.949 -0.7431  0.1798  0.3485
  199MPD1    C5 3081   1.794   4.043   9.964  0.0137  0.0853 -0.5503
  199MPD1     H 3082   1.603   4.337  10.119 -0.5366 -0.8005 -0.2258
  199MPD1    H1 3083   1.611   3.969   9.889 -1.2377  1.6098 -1.1253
  199MPD1    H2 3084   1.970   4.139  10.014  0.0781 -0.3176 -2.1230
  199MPD1    H3 3085   1.856   3.965   9.921  1.4809 -0.0166  1.7192
  199MPD1     N 3086   1.441   4.126  10.005 -0.5365 -0.0165  0.0008
  199MPD1    H5 3087   1.408   4.039   9.963 -1.2229  0.1111  0.2880
  199MPD1    N1 3088   1.855   4.365  10.136 -0.0658  0.3890  0.4777
  199MPD1    H6 3089   1.870   4.329  10.230  0.7295  0.2764  0.3016
  199MPD1    H7 3090   1.792   4.442  10.160 -1.0417  0.0943 -1.1826
  200MPD1     C 3091   2.685   4.658  14.385 -0.2889 -0.2315 -0.1632
  200MPD1    C1 3092   2.631   0.050  14.409  0.1456  0.1886  0.1481
  200MPD1    C2 3093   2.517   0.092  14.355  0.0456 -0.9899  0.0441
  200MPD1    C3 3094   2.435   0.003  14.291  0.4375  0.3005  0.6773
  200MPD1    C4 3095   2.481   4.612  14.263  0.4565  0.4462  0.0276
  200MPD1    C5 3096   2.607   4.576  14.313 -0.3537 -0.1350 -0.1150
  200MPD1     H 3097   2.472   0.187  14.382 -0.7737 -1.6893  1.0816
  200MPD1    H1 3098   2.423   4.538  14.208 -0.5162  0.4255  1.0849
  200MPD1    H2 3099   2.788   4.640  14.412 -0.5990  0.9860  1.8323
  200MPD1    H3 3100   2.629   4.472  14.291  1.5309  0.4304 -0.8517
  200MPD1     N 3101   2.308   0.045  14.244  0.8336  0.0712  0.0552
  200MPD1    H5 3102   2.279   0.136  14.277 -0.6076 -0.8594  1.3972
  200MPD1    N1 3103   2.712   0.148  14.468  0.2790  0.5132  0.3950
  200MPD1    H6 3104   2.782   0.116  14.534 -0.1428  0.0608  0.6270
  200MPD1    H7 3105   2.663   0.231  14.499 -2.5994 -1.5954  1.5536
  201MPD1     C 3106   2.632   2.288  13.826 -0.5140 -0.1519  0.4568
  201MPD1    C1 3107   2.696   2.169  13.849 -0.3705 -0.0325 -0.2057
  201MPD1    C2 3108   2.808   2.137  13.772  0.7397  0.5473  0.3075
  201MPD1    C3 3109   2.859   2.229  13.689  0.7274 -0.3276  0.5057
  201MPD1    C4 3110   2.797   2.351  13.671  0.0186  0.0064  0.5736
  201MPD1    C5 3111   2.677   2.378  13.731 -0.0306  0.4031 -0.3837
  201MPD1     H 3112   2.858   2.042  13.787 -0.6193 -0.0422  1.1246
  201MPD1    H1 3113   2.829   2.431  13.604  1.7614 -1.4059 -0.2604
  201MPD1    H2 3114   2.539   2.308  13.878 -1.6237 -0.0251 -1.5802
  201MPD1    H3 3115   2.626   2.471  13.707  0.7195  0.5689 -1.3299
  201MPD1     N 3116   2.966   2.193  13.613  0.9506  0.5595  0.3508
  201MPD1    H5 3117   2.980   2.093  13.608  2.4174  0.7351  0.9215
  201MPD1    N1 3118   2.656   2.088  13.955  0.3142  0.4626  0.2635
  201MPD1    H6 3119   2.682   1.992  13.931 -1.9393  0.5199 -2.4287
  201MPD1    H7 3120   2.556   2.098  13.971  0.4445  1.4642  0.4353
  202MPD1     C 3121   1.634   2.329   9.208  0.0053  0.3136  0.2319
  202MPD1    C1 3122   1.684   2.232   9.131 -0.4313  0.4447 -0.0420
  202MPD1    C2 3123   1.825   2.240   9.099  0.6626 -0.1107 -0.4164
  202MPD1    C3 3124   1.900   2.345   9.133 -0.9120  0.8300 -0.8956
  202MPD1    C4 3125   1.842   2.449   9.200  0.1876  0.0200 -0.3538
  202MPD1    C5 3126   1.711   2.443   9.233 -0.4460  0.1385 -0.1042
  202MPD1     H 3127   1.887   2.156   9.070  1.9106 -0.0354  1.9792
  202MPD1    H1 3128   1.900   2.528   9.247 -0.9521  1.6346 -1.6615
  202MPD1    H2 3129   1.536   2.339   9.253 -0.3808  2.4896 -1.1238
  202MPD1    H3 3130   1.663   2.522   9.289 -0.6820 -0.3592  0.3924
  202MPD1     N 3131   2.043   2.365   9.110  0.1011  0.0464  0.4690
  202MPD1    H5 3132   2.085   2.448   9.149  1.9754 -1.7250  2.2543
  202MPD1    N1 3133   1.619   2.109   9.138 -0.3729  0.5813  0.8382
  202MPD1    H6 3134   1.518   2.122   9.146 -0.7277 -0.8282 -1.4199
  202MPD1    H7 3135   1.638   2.050   9.057  1.7030  0.7176  1.2423
  203MPD1     C 3136   0.661   2.828  12.617  0.7369  0.0203 -0.4380
  203MPD1    C1 3137   0.711   2.753  12.513  0.5252 -1.0026  0.3986
  203MPD1    C2 3138   0.834   2.692  12.527 -0.0800 -0.5184 -0.0507
  203MPD1    C3 3139   0.912   2.717  12.641 -0.0989  0.3546 -0.0476
  203MPD1    C4 3140   0.858   2.796  12.737 -0.0706  0.2113  1.0617
  203MPD1    C5 3141   0.729   2.839  12.730 -0.1650  0.1795  0.2810
  203MPD1     H 3142   0.864   2.622  12.449  1.7701  1.8720 -1.5081
  203MPD1    H1 3143   0.915   2.811  12.828 -0.7212 -2.9012  1.9936
  203MPD1    H2 3144   0.563   2.876  12.621  0.8299 -0.1169  4.0669
  203MPD1    H3 3145   0.682   2.871  12.822  1.4978  1.5960  0.6470
  203MPD1     N 3146   1.049   2.676  12.643  0.2497 -0.6192 -0.4201
  203MPD1    H5 3147   1.080   2.614  12.568 -0.4753 -0.3568 -0.9323
  203MPD1    N1 3148   0.631   2.740  12.390  0.2919 -0.2564 -0.0669
  203MPD1    H6 3149   0.681   2.702  12.309 -0.2705 -1.6239  0.2202
  203MPD1    H7 3150   0.542   2.785  12.370  0.6702  1.0483  1.2586
  204MPD1     C 3151   0.634   4.494  17.329  1.1593  0.5585 -0.0376
  204MPD1    C1 3152   0.649   4.428  17.208  0.0888 -0.2319 -0.0084
  204MPD1    C2 3153   0.749   4.335  17.183  0.1798  0.2105  0.9372
  204MPD1    C3 3154   0.840   4.315  17.286  0.2600  0.0992 -0.0582
  204MPD1    C4 3155   0.828   4.384  17.404 -0.7467 -0.1110  0.1188
  204MPD1    C5 3156   0.720   4.467  17.427  0.4659  0.6271  0.0849
  204MPD1     H 3157   0.754   4.275  17.093  1.4218  0.9273  0.5367
  204MPD1    H1 3158   0.891   4.363  17.490  0.4879 -0.8706 -0.9702
  204MPD1    H2 3159   0.555   4.567  17.344 -0.3678 -0.6843 -1.9993
  204MPD1    H3 3160   0.700   4.519  17.520  2.5570 -3.1996  2.6661
  204MPD1     N 3161   0.949   4.228  17.258  0.1065  0.0609  0.3616
  204MPD1    H5 3162   0.965   4.209  17.159 -0.0394  2.8461 -0.2000
  204MPD1    N1 3163   0.574   4.481  17.106 -0.3149 -0.6845  1.0248
  204MPD1    H6 3164   0.482   4.511  17.139  0.3761  0.9144  1.4930
  204MPD1    H7 3165   0.553   4.410  17.035 -0.1312 -1.2822  1.5641
  205MPD1     C 3166   1.981   2.990   0.429 -0.6059 -0.4752 -0.3899
  205MPD1    C1 3167   1.859   2.963   0.487  0.8209  0.1969 -0.1737
  205MPD1    C2 3168   1.745   2.982   0.412  0.1128  0.6333 -0.1167
  205MPD1    C3 3169   1.744   3.018   0.281 -0.0671 -0.2631 -0.0125
  205MPD1    C4 3170   1.865   3.040   0.223  0.8444 -0.0095  0.6205
  205MPD1    C5 3171   1.978   3.027   0.297 -0.3970 -0.1019  0.9609
  205MPD1     H 3172   1.654   2.955   0.465  0.0088 -0.9277 -1.0786
  205MPD1    H1 3173   1.874   3.060   0.116 -1.4336 -0.7106  0.3033
  205MPD1    H2 3174   2.070   2.981   0.490 -1.1458 -1.3570  0.2767
  205MPD1    H3 3175   2.070   3.044   0.244 -0.4021 -1.6174  0.4495
  205MPD1     N 3176   1.633   3.038   0.199 -0.0057 -0.5224  0.7009
  205MPD1    H5 3177   1.650   3.063   0.102 -2.6524 -0.9823  0.1126
  205MPD1    N1 3178   1.855   2.947   0.623  0.3719  0.0169  0.2007
  205MPD1    H6 3179   1.939   2.912   0.669 -0.3629  0.2585  1.7583
  205MPD1    H7 3180   1.770   2.900   0.653  1.0695 -1.0106  0.5928
  206MPD1     C 3181   1.722   0.521  16.660 -0.1090  0.3369 -0.2268
  206MPD1    C1 3182   1.747   0.651  16.620  0.2227 -0.3084  0.3487
  206MPD1    C2 3183   1.673   0.703  16.514  0.3307 -0.2456  0.3250
  206MPD1    C3 3184   1.586   0.624  16.449 -0.4390  0.6524  0.5246
  206MPD1    C4 3185   1.564   0.493  16.482  0.2726 -0.1146  0.9925
  206MPD1    C5 3186   1.631   0.446  16.592 -0.0234  0.2288 -0.0652
  206MPD1     H 3187   1.707   0.802  16.489 -0.5600 -0.3332 -1.1948
  206MPD1    H1 3188   1.496   0.426  16.432  1.1681  0.2408 -0.7104
  206MPD1    H2 3189   1.771   0.473  16.744 -0.8627  1.1103  0.6487
  206MPD1    H3 3190   1.609   0.343  16.617  0.3395  0.1307 -0.1508
  206MPD1     N 3191   1.511   0.675  16.343 -0.3856 -0.5653 -0.7621
  206MPD1    H5 3192   1.449   0.616  16.288 -1.6480  0.5940 -0.5761
  206MPD1    N1 3193   1.810   0.732  16.715 -0.1164 -0.3133  1.2285
  206MPD1    H6 3194   1.890   0.682  16.754  0.1173 -1.0218 -0.1629
  206MPD1    H7 3195   1.742   0.750  16.788 -2.2825 -0.3264 -0.8229
  207MPD1     C 3196   3.066   3.549   9.915 -0.2885 -0.1062 -0.6321
  207MPD1    C1 3197   3.013   3.476  10.018 -0.8240  0.2681 -0.2684
  207MPD1    C2 3198   3.089   3.430  10.122  0.4652  0.4706  0.0890
  207MPD1    C3 3199   3.213   3.477  10.143  0.6159 -0.7034  0.0220
  207MPD1    C4 3200   3.272   3.553  10.045  0.0373 -0.1244  0.8696
  207MPD1    C5 3201   3.196   3.586   9.935  0.8624  0.1898  0.1949
  207MPD1     H 3202   3.044   3.355  10.185  0.1494 -0.2144 -0.9568
  207MPD1    H1 3203   3.374   3.586  10.055  0.0265 -0.0281  0.6662
  207MPD1    H2 3204   3.015   3.575   9.823 -0.9275  2.9879  0.6168
  207MPD1    H3 3205   3.245   3.642   9.857 -1.1240 -0.2302 -1.3650
  207MPD1     N 3206   3.294   3.455  10.252 -0.4738  0.0170 -0.6253
  207MPD1    H5 3207   3.390   3.487  10.247 -0.3399  0.1070  2.2053
  207MPD1    N1 3208   2.880   3.431  10.004  0.4026  0.7493 -0.0385
  207MPD1    H6 3209   2.834   3.438  10.095  1.0670 -1.5770  0.4786
  207MPD1    H7 3210   2.817   3.482   9.942 -0.1611 -0.1919 -0.2391
  208MPD1     C 3211   0.201   1.673   0.489 -0.2678  0.0947 -0.0810
  208MPD1    C1 3212   0.216   1.766   0.383 -0.0707  0.1640  0.0068
  208MPD1    C2 3213   0.335   1.833   0.383  0.2018  0.2739  0.1984
  208MPD1    C3 3214   0.422   1.824   0.488  0.2191 -0.2326 -0.2704
  208MPD1    C4 3215   0.411   1.727   0.583  0.6917  0.2012  0.3827
  208MPD1    C5 3216   0.295   1.655   0.585 -0.6571 -0.0679 -0.0793
  208MPD1     H 3217   0.358   1.915   0.315 -1.8475 -0.6329 -1.5668
  208MPD1    H1 3218   0.465   1.725   0.677 -0.1688 -0.0217  0.8722
  208MPD1    H2 3219   0.115   1.606   0.486  0.5234 -1.0091  1.7447
  208MPD1    H3 3220   0.271   1.590   0.669  1.4752 -0.9553 -0.1583
  208MPD1     N 3221   0.541   1.898   0.473  0.5384  0.1523  0.7033
  208MPD1    H5 3222   0.543   1.958   0.391  2.8077  2.0594  2.1426
  208MPD1    N1 3223   0.141   1.764   0.265 -0.2465 -0.1859  0.2572
  208MPD1    H6 3224   0.040   1.747   0.266 -0.5657  1.6819 -0.6759
  208MPD1    H7 3225   0.149   1.854   0.218 -3.1515 -0.2808 -0.4286
  209MPD1     C 3226   3.866   1.810  10.912 -0.0972 -0.0605  0.3365
  209MPD1    C1 3227   3.847   1.913  10.821 -0.5522  0.6620  0.4435
  209MPD1    C2 3228   3.858   2.045  10.868 -0.5445  0.5761  1.1339
  209MPD1    C3 3229   3.867   2.074  11.002 -0.4213  0.5398  0.2271
  209MPD1    C4 3230   3.863   1.975  11.095 -0.4248 -0.4817  0.2841
  209MPD1    C5 3231   3.871   1.841  11.048 -0.4785  0.2991  0.6166
  209MPD1     H 3232   3.849   2.126  10.797 -0.7214 -0.6013 -0.1933
  209MPD1    H1 3233   3.849   1.990  11.201  0.8640 -3.4055  0.8697
  209MPD1    H2 3234   3.892   1.707  10.889 -0.5404 -0.2899  0.8432
  209MPD1    H3 3235   3.870   1.761  11.121  1.5836  1.2162  1.6614
  209MPD1     N 3236   3.850   2.207  11.032  0.0406  0.3075 -0.4743
  209MPD1    H5 3237   3.830   2.271  10.957 -2.5760  0.4232  0.3226
  209MPD1    N1 3238   3.855   1.887  10.686 -0.5967 -0.0479 -0.1692
  209MPD1    H6 3239   3.828   1.973  10.639  0.9603 -0.3242 -1.5925
  209MPD1    H7 3240   3.801   1.807  10.655  2.8845 -0.8768 -4.1685
  210MPD1     C 3241   4.324   2.694  11.698  0.0005  0.5647  1.2222
  210MPD1    C1 3242   4.220   2.775  11.677 -0.3890  0.3587  0.0614
  210MPD1    C2 3243   4.161   2.776  11.553  0.7396 -0.0791  0.1879
  210MPD1    C3 3244   4.194   2.670  11.462  0.5481  0.5710  0.8403
  210MPD1    C4 3245   4.288   2.575  11.498  0.4888  0.5010 -0.0343
  210MPD1    C5 3246   4.359   2.595  11.614  0.1705  0.3465 -0.0546
  210MPD1     H 3247   4.089   2.854  11.529  2.4922  1.4152 -0.2069
  210MPD1    H1 3248   4.319   2.499  11.427  0.6376 -0.2501  0.8300
  210MPD1    H2 3249   4.390   2.714  11.781 -1.0130 -0.3369  2.2589
  210MPD1    H3 3250   4.446   2.534  11.636  0.4952  0.9192  0.2195
  210MPD1     N 3251   4.135   2.638  11.339 -0.0628 -0.3202 -0.4599
  210MPD1    H5 3252   4.172   2.557  11.291  1.5220 -0.7263  1.4408
  210MPD1    N1 3253   4.194   2.876  11.767 -0.1498  0.6792  0.4013
  210MPD1    H6 3254   4.101   2.914  11.756  0.3375  1.5615 -0.6698
  210MPD1    H7 3255   4.203   2.845  11.864  1.1594  0.5371  0.2416
  211MPD1     C 3256   1.879   2.973  16.325  0.1262  0.1820 -0.0517
  211MPD1    C1 3257   1.860   3.069  16.425  0.5307 -0.3774 -0.0397
  211MPD1    C2 3258   1.740   3.134  16.434  0.3929 -0.3382 -0.6825
  211MPD1    C3 3259   1.637   3.118  16.340  0.5028  0.0994  0.2662
  211MPD1    C4 3260   1.666   3.033  16.233 -0.3556  0.2102 -0.3030
  211MPD1    C5 3261   1.782   2.962  16.235  0.4105 -0.1203 -0.9895
  211MPD1     H 3262   1.730   3.214  16.506 -0.6352  1.9664 -3.3843
  211MPD1    H1 3263   1.587   3.005  16.164  0.1125 -1.2578 -0.2409
  211MPD1    H2 3264   1.961   2.901  16.326 -0.5715 -0.5923  1.5731
  211MPD1    H3 3265   1.790   2.887  16.157  0.2767 -1.5789  0.4167
  211MPD1     N 3266   1.515   3.190  16.345 -0.0439  0.2719  0.4326
  211MPD1    H5 3267   1.503   3.250  16.426  0.2149  0.4673  0.3285
  211MPD1    N1 3268   1.954   3.085  16.529 -0.1690 -0.6196 -0.3007
  211MPD1    H6 3269   1.941   3.168  16.585 -1.8440 -0.2279 -1.2726
  211MPD1    H7 3270   2.050   3.087  16.494  0.3688  0.1484  1.2468
  212MPD1     C 3271   0.881   1.374  16.275  0.1764  0.1378  1.0903
  212MPD1    C1 3272   0.822   1.425  16.385  0.0076  0.1032 -1.0012
  212MPD1    C2 3273   0.737   1.346  16.458  0.4914  0.1340  0.9972
  212MPD1    C3 3274   0.719   1.208  16.426  0.0648  0.5634  0.5435
  212MPD1    C4 3275   0.787   1.154  16.321  0.0714 -0.5751 -0.0247
  212MPD1    C5 3276   0.862   1.242  16.244 -0.1654  0.1482  0.9963
  212MPD1     H 3277   0.693   1.391  16.546  1.6452 -1.4854  2.3921
  212MPD1    H1 3278   0.790   1.048  16.296  3.0237 -1.1982  2.9522
  212MPD1    H2 3279   0.935   1.435  16.204 -0.0319  0.2198  1.0020
  212MPD1    H3 3280   0.928   1.193  16.174 -2.1348  0.4880 -1.0968
  212MPD1     N 3281   0.639   1.123  16.500 -0.0793  0.6418  0.2649
  212MPD1    H5 3282   0.638   1.022  16.486  0.7390  0.7956 -0.9352
  212MPD1    N1 3283   0.841   1.559  16.419 -0.4519  0.4140 -0.1067
  212MPD1    H6 3284   0.764   1.615  16.453 -0.2416  0.5300  0.1752
  212MPD1    H7 3285   0.893   1.614  16.350  1.4434 -1.0773  0.1588
  213MPD1     C 3286   3.563   1.596  15.514  0.0606  0.2190 -0.3513
  213MPD1    C1 3287   3.475   1.684  15.574  0.4129  0.4525 -0.6693
  213MPD1    C2 3288   3.455   1.800  15.491 -0.0534  0.3603  0.5265
  213MPD1    C3 3289   3.490   1.808  15.356 -0.5234  0.5788 -0.3698
  213MPD1    C4 3290   3.548   1.701  15.299  0.4252 -0.6274 -0.0402
  213MPD1    C5 3291   3.580   1.596  15.374  0.0276 -0.3287 -0.0083
  213MPD1     H 3292   3.410   1.889  15.534 -1.8109  0.4234 -1.4518
  213MPD1    H1 3293   3.559   1.695  15.192  0.0038  1.5554 -0.2144
  213MPD1    H2 3294   3.590   1.507  15.570  1.7722 -0.9292 -3.0431
  213MPD1    H3 3295   3.614   1.511  15.317  0.0088  1.0434 -2.0727
  213MPD1     N 3296   3.455   1.920  15.280 -0.4744  0.0089 -0.6295
  213MPD1    H5 3297   3.391   1.985  15.326  1.6238  0.0112  2.2892
  213MPD1    N1 3298   3.464   1.705  15.710  0.0530  0.1296 -0.2524
  213MPD1    H6 3299   3.456   1.611  15.748 -1.9190  1.3125  2.2356
  213MPD1    H7 3300   3.377   1.753  15.736 -1.0545 -0.9738 -1.9136
  214MPD1     C 3301   2.635   1.818  15.007  0.6175  0.1751 -0.9176
  214MPD1    C1 3302   2.684   1.869  14.888  0.0927  0.0211 -0.0468
  214MPD1    C2 3303   2.814   1.907  14.891  0.0117  0.1995  0.5071
  214MPD1    C3 3304   2.892   1.918  15.009  0.0089  0.2451 -0.2471
  214MPD1    C4 3305   2.834   1.866  15.121  0.4080 -0.3891  0.4539
  214MPD1    C5 3306   2.703   1.829  15.120 -0.1943  0.2825 -0.0723
  214MPD1     H 3307   2.861   1.935  14.797 -0.2066 -0.0109  0.3353
  214MPD1    H1 3308   2.892   1.861  15.213 -1.1479 -0.1592  1.4342
  214MPD1    H2 3309   2.537   1.774  15.015  1.1869 -0.5381  2.4176
  214MPD1    H3 3310   2.665   1.790  15.213  1.1535  1.5116  0.9915
  214MPD1     N 3311   3.027   1.962  15.023  0.0642  0.6843 -1.2179
  214MPD1    H5 3312   3.066   1.949  15.115 -3.5155  1.0168  0.3536
  214MPD1    N1 3313   2.613   1.851  14.765 -0.1384 -0.1693 -0.5545
  214MPD1    H6 3314   2.650   1.916  14.695  1.1025 -0.2245  0.0525
  214MPD1    H7 3315   2.515   1.879  14.772 -0.2630 -0.6748 -0.2378
  215MPD1     C 3316   2.326   2.716  11.353  0.1596 -0.4314 -0.0969
  215MPD1    C1 3317   2.442   2.673  11.421  0.5859 -0.6866  0.0525
  215MPD1    C2 3318   2.556   2.724  11.372 -0.1664  0.5793 -0.1142
  215MPD1    C3 3319   2.559   2.791  11.246  0.3607  0.3665  0.0372
  215MPD1    C4 3320   2.441   2.824  11.179 -0.4064 -0.6725 -0.2800
  215MPD1    C5 3321   2.319   2.786  11.238 -0.9316 -0.0014  1.3328
  215MPD1     H 3322   2.644   2.706  11.433 -0.9384  0.1367  0.8563
  215MPD1    H1 3323   2.444   2.889  11.092 -3.4008  0.2420  0.3027
  215MPD1    H2 3324   2.228   2.689  11.392 -0.4965  1.0327 -0.7104
  215MPD1    H3 3325   2.228   2.813  11.187 -0.6177 -1.1327  0.1754
  215MPD1     N 3326   2.685   2.823  11.201  0.1845 -0.2330 -0.3549
  215MPD1    H5 3327   2.751   2.804  11.276 -2.0838  0.9643  1.9316
  215MPD1    N1 3328   2.428   2.616  11.548  0.3245 -0.2306 -0.2730
  215MPD1    H6 3329   2.504   2.552  11.571 -0.2617 -0.3151  1.4168
  215MPD1    H7 3330   2.341   2.568  11.568  0.7188 -1.4235 -1.4433
  216MPD1     C 3331   0.925   1.111  16.708  0.6455  0.5844 -0.3641
  216MPD1    C1 3332   0.896   1.073  16.838 -0.0409  0.1538  0.3486
  216MPD1    C2 3333   0.852   0.941  16.863  0.1563  0.2942 -0.3693
  216MPD1    C3 3334   0.863   0.843  16.770  0.2015 -0.7280 -0.0729
  216MPD1    C4 3335   0.901   0.880  16.642  0.3502 -0.0820  0.1605
  216MPD1    C5 3336   0.937   1.008  16.611  0.2478  0.2219 -0.2541
  216MPD1     H 3337   0.813   0.922  16.962  0.0655 -0.0064 -0.4637
  216MPD1    H1 3338   0.916   0.804  16.566  0.8215  0.4539 -0.2884
  216MPD1    H2 3339   0.949   1.212  16.677  1.3587  0.1403 -1.2372
  216MPD1    H3 3340   0.975   1.034  16.513 -3.6835 -1.9270 -2.3598
  216MPD1     N 3341   0.845   0.708  16.804 -0.4654 -0.1875 -0.1415
  216MPD1    H5 3342   0.807   0.692  16.897 -2.2465  2.9406 -0.3490
  216MPD1    N1 3343   0.879   1.180  16.928 -0.0448 -0.1723 -0.2927
  216MPD1    H6 3344   0.919   1.272  16.910 -0.7302 -0.3667 -2.8779
  216MPD1    H7 3345   0.909   1.153  17.021  1.3917  0.1413 -0.6668
  217MPD1     C 3346   1.832   1.591   8.930  0.1075  0.3195  0.1008
  217MPD1    C1 3347   1.952   1.585   9.001  0.3038 -0.5311 -0.2742
  217MPD1    C2 3348   1.978   1.694   9.087 -0.0681  0.2048 -0.5685
  217MPD1    C3 3349   1.883   1.794   9.111 -1.4634 -0.4176  0.1344
  217MPD1    C4 3350   1.765   1.787   9.034  0.0508  0.0908 -0.1994
  217MPD1    C5 3351   1.740   1.684   8.952  0.0368 -0.2985 -0.4448
  217MPD1     H 3352   2.067   1.694   9.150  0.4410  1.0434 -1.2769
  217MPD1    H1 3353   1.686   1.858   9.053 -0.4276 -0.1838 -1.1654
  217MPD1    H2 3354   1.818   1.511   8.857  1.4618  0.0190  0.1783
  217MPD1    H3 3355   1.647   1.686   8.897 -0.8357  0.9010  1.0779
  217MPD1     N 3356   1.896   1.902   9.202  0.1470 -0.1797 -0.3051
  217MPD1    H5 3357   1.812   1.951   9.233  1.7133  2.7554 -0.6668
  217MPD1    N1 3358   2.059   1.508   8.964  0.5850  0.2224 -0.9813
  217MPD1    H6 3359   2.114   1.480   9.046  0.4883 -1.8900 -1.6295
  217MPD1    H7 3360   2.036   1.422   8.915  1.3980 -0.7950  0.4272
  218MPD1     C 3361   2.682   3.220  13.318  0.3450 -0.4193  0.6458
  218MPD1    C1 3362   2.764   3.128  13.272  0.0518  0.1220 -0.6670
  218MPD1    C2 3363   2.896   3.163  13.254  0.4073  0.5195 -0.1421
  218MPD1    C3 3364   2.939   3.287  13.291  0.0923 -0.7192 -0.5295
  218MPD1    C4 3365   2.848   3.382  13.337  0.4916  0.0393  0.6500
  218MPD1    C5 3366   2.716   3.344  13.354 -0.5440  0.3763 -0.1826
  218MPD1     H 3367   2.967   3.101  13.202 -0.7742 -0.2125 -0.8617
  218MPD1    H1 3368   2.880   3.480  13.371  0.6765  0.6261 -1.2095
  218MPD1    H2 3369   2.577   3.198  13.338 -0.0444  0.4362 -0.4949
  218MPD1    H3 3370   2.648   3.421  13.386  0.9473  2.0992 -1.1690
  218MPD1     N 3371   3.077   3.311  13.266  0.0099  0.1170 -0.0681
  218MPD1    H5 3372   3.120   3.223  13.238 -0.1684  0.2064 -0.6109
  218MPD1    N1 3373   2.711   3.006  13.224 -0.5146  0.5108  0.0568
  218MPD1    H6 3374   2.632   2.976  13.280 -0.0087 -3.0317 -1.1061
  218MPD1    H7 3375   2.782   2.933  13.231 -0.8488  0.3723  1.9073
  219MPD1     C 3376   3.697   3.899  13.806  0.0518  0.6622  0.3972
  219MPD1    C1 3377   3.769   3.791  13.761 -0.4167 -0.5715  0.1846
  219MPD1    C2 3378   3.714   3.718  13.652  0.2416  1.0377  0.2834
  219MPD1    C3 3379   3.585   3.742  13.610 -0.3159  0.7905  1.2088
  219MPD1    C4 3380   3.510   3.841  13.670  0.7864  0.5393  0.1355
  219MPD1    C5 3381   3.570   3.924  13.759 -0.0756 -0.0566  0.5694
  219MPD1     H 3382   3.774   3.639  13.608  0.2892  1.1795  0.0939
  219MPD1    H1 3383   3.407   3.844  13.639 -0.0019 -1.8743  2.4746
  219MPD1    H2 3384   3.743   3.976  13.866 -0.1758  1.2737 -0.2179
  219MPD1    H3 3385   3.513   4.009  13.796  1.3148 -0.8515  4.5208
  219MPD1     N 3386   3.525   3.641  13.528  0.0786  0.2657 -0.0082
  219MPD1    H5 3387   3.424   3.641  13.533  0.0292 -2.1899 -0.7463
  219MPD1    N1 3388   3.904   3.776  13.798 -0.2521 -0.3269  0.3609
  219MPD1    H6 3389   3.917   3.807  13.894  0.8408  0.5046 -0.0610
  219MPD1    H7 3390   3.932   3.679  13.793 -0.0570 -0.1419 -1.8338
  220MPD1     C 3391   3.510   4.083   9.819  0.0732  1.2663 -0.1056
  220MPD1    C1 3392   3.399   4.153   9.854  0.9496 -0.3922 -0.2455
  220MPD1    C2 3393   3.311   4.102   9.940 -0.7298  0.1910 -0.2414
  220MPD1    C3 3394   3.329   3.977   9.991  0.0812  0.3624  0.0015
  220MPD1    C4 3395   3.440   3.898   9.953  0.9382 -0.5367  0.6339
  220MPD1    C5 3396   3.531   3.955   9.870  0.2367  0.7565  0.1683
  220MPD1     H 3397   3.222   4.158   9.965 -1.0528 -0.9441  1.1588
  220MPD1    H1 3398   3.477   3.803   9.990 -0.7284 -1.7623 -0.8634
  220MPD1    H2 3399   3.593   4.114   9.756  0.5043 -1.5134 -0.9557
  220MPD1    H3 3400   3.613   3.889   9.841  0.1268  1.5955 -2.0551
  220MPD1     N 3401   3.237   3.923  10.083 -0.1583  0.3414  0.3747
  220MPD1    H5 3402   3.153   3.980  10.091  0.2253  0.7999  1.1959
  220MPD1    N1 3403   3.373   4.268   9.780  0.4438 -0.2212  0.3229
  220MPD1    H6 3404   3.453   4.310   9.734 -0.3938 -1.1447 -1.9362
  220MPD1    H7 3405   3.295   4.326   9.811 -1.6418 -2.0576 -1.4854
  221MPD1     C 3406   1.479   2.831  15.839 -0.3783  0.2007 -0.3502
  221MPD1    C1 3407   1.366   2.745  15.844  0.3647  0.4522 -0.0936
  221MPD1    C2 3408   1.341   2.684  15.964 -0.3226  0.3574  0.3061
  221MPD1    C3 3409   1.425   2.693  16.078  0.7115  0.2516  0.2128
  221MPD1    C4 3410   1.542   2.759  16.058 -0.2362 -0.1835 -0.5734
  221MPD1    C5 3411   1.567   2.831  15.944  0.3192  1.0235 -0.2006
  221MPD1     H 3412   1.249   2.632  15.988 -0.0748  0.3837  1.3230
  221MPD1    H1 3413   1.614   2.762  16.139  0.2629  1.4270 -1.0750
  221MPD1    H2 3414   1.514   2.887  15.753 -0.7244 -0.0545 -0.6603
  221MPD1    H3 3415   1.659   2.887  15.942  0.2471  1.1420 -0.2106
  221MPD1     N 3416   1.416   2.628  16.201 -0.3005  0.2408  0.2218
  221MPD1    H5 3417   1.498   2.637  16.261 -1.3647  0.0887  1.6946
  221MPD1    N1 3418   1.267   2.745  15.737  0.1961 -0.0195 -0.0153
  221MPD1    H6 3419   1.299   2.770  15.643  1.7913 -0.7438  0.3364
  221MPD1    H7 3420   1.235   2.649  15.726  3.6736 -0.9855 -1.6097
  222MPD1     C 3421   0.569   1.746   1.480  0.6859  0.5007  0.2768
  222MPD1    C1 3422   0.436   1.726   1.485  0.4715 -0.1933  0.4166
  222MPD1    C2 3423   0.362   1.742   1.367 -0.1445  0.3129  0.5831
  222MPD1    C3 3424   0.427   1.754   1.245 -0.1057 -0.4369 -0.1922
  222MPD1    C4 3425   0.564   1.760   1.248  0.2818  0.7539 -0.1992
  222MPD1    C5 3426   0.637   1.768   1.363 -0.5772 -0.3183 -0.7417
  222MPD1     H 3427   0.254   1.736   1.365 -0.1916  1.4559 -0.1521
  222MPD1    H1 3428   0.614   1.760   1.151  0.6644 -0.5731 -0.0037
  222MPD1    H2 3429   0.626   1.725   1.570  2.8189  0.9648 -0.9540
  222MPD1    H3 3430   0.744   1.767   1.347 -0.4301 -2.2001  0.3931
  222MPD1     N 3431   0.373   1.752   1.115 -0.0967  0.1660 -0.4346
  222MPD1    H5 3432   0.440   1.755   1.039  1.0830  0.0386  0.6020
  222MPD1    N1 3433   0.358   1.681   1.603 -0.4950 -1.6782  0.5175
  222MPD1    H6 3434   0.405   1.707   1.690  1.4551 -2.9727 -0.1464
  222MPD1    H7 3435   0.259   1.706   1.603 -0.6141 -2.1482  0.2836
  223MPD1     C 3436   4.139   1.721   0.929  0.0687  0.0567 -0.0674
  223MPD1    C1 3437   4.211   1.749   1.047  0.3045 -0.2338 -0.7825
  223MPD1    C2 3438   4.346   1.781   1.037  0.3754 -0.2519 -0.3467
  223MPD1    C3 3439   4.412   1.778   0.914 -0.2488 -0.3329  0.0372
  223MPD1    C4 3440   4.338   1.765   0.805  0.2737 -0.0522  0.2850
  223MPD1    C5 3441   4.207   1.730   0.814 -0.5337 -0.6656 -0.4886
  223MPD1     H 3442   4.406   1.808   1.123 -1.2368  2.1404  0.0326
  223MPD1    H1 3443   4.380   1.770   0.705  0.3520  2.6825  0.4614
  223MPD1    H2 3444   4.033   1.698   0.933  0.0064  0.2707 -0.4600
  223MPD1    H3 3445   4.153   1.718   0.720 -1.6160 -0.2312  0.0712
  223MPD1     N 3446   4.551   1.802   0.912  0.2963  0.0459 -0.6408
  223MPD1    H5 3447   4.602   1.788   0.998 -1.0499  1.7593  0.4189
  223MPD1    N1 3448   4.150   1.748   1.172 -0.4108 -0.0856 -0.0491
  223MPD1    H6 3449   4.056   1.711   1.177 -0.8906  1.4179  2.2214
  223MPD1    H7 3450   4.160   1.834   1.226  0.3891  0.2429 -0.7069
  224MPD1     C 3451   1.133   2.462   9.237  0.3885  0.2597  0.9533
  224MPD1    C1 3452   1.066   2.575   9.200  0.3099 -0.0045  0.5403
  224MPD1    C2 3453   1.142   2.698   9.198 -0.4605  0.1426  0.4710
  224MPD1    C3 3454   1.269   2.710   9.251 -1.0155 -0.0684 -0.3485
  224MPD1    C4 3455   1.329   2.595   9.290  0.0627  0.5801  1.0340
  224MPD1    C5 3456   1.256   2.479   9.280  1.2149 -0.0931 -0.4658
  224MPD1     H 3457   1.093   2.786   9.160 -1.1289  0.8285  2.9137
  224MPD1    H1 3458   1.430   2.596   9.330  0.5009  0.8741 -0.0853
  224MPD1    H2 3459   1.089   2.363   9.245 -1.7553  1.3394  2.6883
  224MPD1    H3 3460   1.314   2.389   9.300  2.1706  0.5088 -0.5331
  224MPD1     N 3461   1.320   2.839   9.273  0.1473  0.0333  0.0496
  224MPD1    H5 3462   1.257   2.918   9.273 -2.3719 -1.9940 -1.0692
  224MPD1    N1 3463   0.936   2.559   9.136 -0.1447 -0.1786 -0.0441
  224MPD1    H6 3464   0.881   2.642   9.158  0.3494  0.5163 -1.4161
  224MPD1    H7 3465   0.894   2.478   9.181  0.0958  1.2522  2.7389
  225MPD1     C 3466   3.506   4.057  12.049 -0.0188 -0.1292 -0.2128
  225MPD1    C1 3467   3.440   3.947  12.005 -0.3520 -0.2545 -0.0936
  225MPD1    C2 3468   3.304   3.944  12.028  0.7807  0.0374 -0.2827
  225MPD1    C3 3469   3.240   4.042  12.102  0.5334  0.3152  0.8268
  225MPD1    C4 3470   3.314   4.138  12.165 -0.2483 -0.7527  0.1613
  225MPD1    C5 3471   3.441   4.150  12.127  0.5104 -0.6447  0.3756
  225MPD1     H 3472   3.257   3.856  11.984  0.6001  0.7009 -1.4001
  225MPD1    H1 3473   3.265   4.214  12.224 -2.0342 -1.6277 -0.1873
  225MPD1    H2 3474   3.612   4.074  12.035  0.0458  0.0269  0.4636
  225MPD1    H3 3475   3.502   4.231  12.166  2.1779 -0.4387 -2.6613
  225MPD1     N 3476   3.103   4.040  12.129 -0.2733 -0.1221  0.1177
  225MPD1    H5 3477   3.069   4.111  12.192 -1.2406 -1.7897  1.4892
  225MPD1    N1 3478   3.504   3.853  11.925  0.2406  0.2793  0.1920
  225MPD1    H6 3479   3.460   3.761  11.925  0.4890  0.1454 -1.7338
  225MPD1    H7 3480   3.602   3.845  11.951  0.1503 -0.8727  0.1852
  226MPD1     C 3481   1.193   1.825   9.105  0.8391  0.2905  0.0864
  226MPD1    C1 3482   1.272   1.817   8.991 -0.2330 -0.4195  0.5297
  226MPD1    C2 3483   1.344   1.926   8.943 -0.6820 -0.6675  0.0143
  226MPD1    C3 3484   1.310   2.049   8.991  0.5948 -0.0379 -1.4630
  226MPD1    C4 3485   1.230   2.057   9.107 -0.1890 -0.1776  0.7532
  226MPD1    C5 3486   1.165   1.944   9.160  0.0200 -0.2783 -0.4919
  226MPD1     H 3487   1.413   1.921   8.859 -3.2377 -1.8974 -2.0180
  226MPD1    H1 3488   1.208   2.154   9.148  1.5064  0.9539 -0.9622
  226MPD1    H2 3489   1.145   1.740   9.151 -0.0933  1.7312  1.7966
  226MPD1    H3 3490   1.086   1.946   9.233 -0.5609 -0.4016 -1.1162
  226MPD1     N 3491   1.373   2.163   8.934 -0.0113 -0.5607 -0.1131
  226MPD1    H5 3492   1.458   2.143   8.881  0.0466  1.4292 -0.7716
  226MPD1    N1 3493   1.307   1.692   8.943  0.1794 -1.1830 -0.7352
  226MPD1    H6 3494   1.332   1.688   8.844 -0.0112 -3.3036 -0.7074
  226MPD1    H7 3495   1.233   1.627   8.968 -0.8636 -0.2652 -1.4553
  227MPD1     C 3496   2.254   2.551   8.776  0.1992 -0.2144  0.1069
  227MPD1    C1 3497   2.189   2.659   8.825 -0.1834 -0.3398 -0.6823
  227MPD1    C2 3498   2.052   2.648   8.839  0.2679 -0.1931  0.3747
  227MPD1    C3 3499   1.981   2.533   8.829 -0.1485  0.5225  0.3692
  227MPD1    C4 3500   2.055   2.418   8.781  0.1049 -0.0008 -0.3127
  227MPD1    C5 3501   2.191   2.429   8.759 -0.2549  0.1106  0.1750
  227MPD1     H 3502   2.006   2.741   8.871  1.6550 -0.2500  2.5339
  227MPD1    H1 3503   2.005   2.323   8.773 -0.5258  0.2283  0.8403
  227MPD1    H2 3504   2.353   2.563   8.732  0.0383  0.5067 -0.0515
  227MPD1    H3 3505   2.240   2.341   8.720 -0.0093 -0.1033  0.9697
  227MPD1     N 3506   1.842   2.538   8.851  0.5498  0.4785 -0.0265
  227MPD1    H5 3507   1.808   2.616   8.907 -0.1612  0.7004 -0.7655
  227MPD1    N1 3508   2.246   2.781   8.819  0.2757  0.1517  0.1673
  227MPD1    H6 3509   2.220   2.852   8.887 -0.4008  0.9649 -0.9368
  227MPD1    H7 3510   2.347   2.770   8.810  0.1492  0.4935 -1.7748
  228MPD1     C 3511   0.396   1.272  12.647  0.2271 -0.2832 -0.2711
  228MPD1    C1 3512   0.291   1.339  12.588  0.1766  0.1033 -0.4785
  228MPD1    C2 3513   0.174   1.366  12.657 -0.2531 -0.2027 -0.7027
  228MPD1    C3 3514   0.152   1.324  12.788  0.6201  0.5864  0.2869
  228MPD1    C4 3515   0.255   1.254  12.840  0.5972  0.2978 -0.0787
  228MPD1    C5 3516   0.370   1.227  12.774  0.1209 -0.1502  0.5743
  228MPD1     H 3517   0.097   1.428  12.613 -1.1070  0.0352  1.1280
  228MPD1    H1 3518   0.251   1.214  12.941 -0.5924 -0.4989 -0.4442
  228MPD1    H2 3519   0.493   1.250  12.604  1.0955  1.8323  0.6013
  228MPD1    H3 3520   0.454   1.183  12.828  1.2188 -0.4212 -1.3535
  228MPD1     N 3521   0.038   1.366  12.854 -0.5209 -0.0727 -0.4255
  228MPD1    H5 3522   4.713   1.429  12.802  0.9582  0.0773 -1.9788
  228MPD1    N1 3523   0.318   1.416  12.470  0.2356  0.0894 -0.0962
  228MPD1    H6 3524   0.235   1.422  12.411  0.6823  1.9202 -0.5427
  228MPD1    H7 3525   0.397   1.381  12.416  0.8232  2.5602 -0.8378
  229MPD1     C 3526   3.969   4.691  15.095  0.0105  0.7056 -0.3921
  229MPD1    C1 3527   4.003   4.574  15.037  0.5085 -0.5723 -0.0870
  229MPD1    C2 3528   4.136   4.527  15.022 -0.4218 -0.1264 -0.3572
  229MPD1    C3 3529   4.238   4.616  15.060  0.3384 -0.0803 -0.0857
  229MPD1    C4 3530   4.202   0.005  15.117  0.5780  0.2358  0.0908
  229MPD1    C5 3531   4.071   0.041  15.129  0.6741 -0.8966 -0.0312
  229MPD1     H 3532   4.148   4.431  14.974  1.5760  1.1830 -2.4967
  229MPD1    H1 3533   4.283   0.071  15.147  1.1781 -0.1524 -0.6548
  229MPD1    H2 3534   3.864   4.715  15.103 -0.2128 -0.4566  0.2049
  229MPD1    H3 3535   4.050   0.141  15.166  1.2155 -0.5894 -0.5608
  229MPD1     N 3536   4.375   4.570  15.062  0.2085  1.0271 -0.2369
  229MPD1    H5 3537   4.432   4.646  15.097  0.0772  0.6330  0.8227
  229MPD1    N1 3538   3.904   4.481  15.003 -0.2328 -0.3630  0.0585
  229MPD1    H6 3539   3.927   4.411  14.932  1.5518  0.6863 -0.3892
  229MPD1    H7 3540   3.822   4.536  14.980 -1.0113 -1.3665  0.4047
  230MPD1     C 3541   0.467   0.028  15.565  0.1031 -0.0203  0.0525
  230MPD1    C1 3542   0.514   4.643  15.513 -0.0570  0.9312  0.5935
  230MPD1    C2 3543   0.431   4.575  15.432 -0.5782 -0.1306  0.0471
  230MPD1    C3 3544   0.301   4.618  15.389  0.6377  0.1796 -0.6487
  230MPD1    C4 3545   0.257   4.727  15.456 -0.1002  0.2295  0.0033
  230MPD1    C5 3546   0.338   0.058  15.540  0.8774 -0.1351  0.7011
  230MPD1     H 3547   0.469   4.477  15.405 -1.8646 -0.4222 -0.7209
  230MPD1    H1 3548   0.154   0.022  15.444  0.8471  3.6007  0.4308
  230MPD1    H2 3549   0.518   0.104  15.624  2.0221  0.3107 -2.0397
  230MPD1    H3 3550   0.294   0.148  15.580 -1.0747  0.0928 -1.9865
  230MPD1     N 3551   0.223   4.543  15.295  0.3903 -0.7253  0.1089
  230MPD1    H5 3552   0.271   4.465  15.251  2.1968  0.2978  0.2694
  230MPD1    N1 3553   0.627   4.580  15.559 -0.2487 -0.4421  0.7164
  230MPD1    H6 3554   0.699   4.642  15.595  1.6626 -1.7353 -0.8799
  230MPD1    H7 3555   0.680   4.519  15.497 -0.6598  1.8909 -1.9051
  231MPD1     C 3556   2.110   1.882  15.679  0.8848 -0.2106  0.4674
  231MPD1    C1 3557   2.107   1.837  15.556  0.2720 -0.8588  0.1349
  231MPD1    C2 3558   2.179   1.894  15.456 -0.5144  0.0075  0.1022
  231MPD1    C3 3559   2.256   2.008  15.485 -1.0744 -0.0772  0.3216
  231MPD1    C4 3560   2.246   2.066  15.607  0.4601 -0.3781 -0.1894
  231MPD1    C5 3561   2.164   2.006  15.703 -0.9389  0.1792  0.0560
  231MPD1     H 3562   2.173   1.837  15.365  1.7702 -0.7387  0.4191
  231MPD1    H1 3563   2.297   2.156  15.638  0.4164 -0.6543  0.7107
  231MPD1    H2 3564   2.066   1.823  15.758 -1.2855  0.0036 -0.5612
  231MPD1    H3 3565   2.152   2.051  15.801  0.6726 -0.3481  0.5036
  231MPD1     N 3566   2.352   2.053  15.387 -0.3452 -0.0699 -0.2376
  231MPD1    H5 3567   2.364   2.002  15.300 -0.2434 -1.2476  0.4671
  231MPD1    N1 3568   2.066   1.705  15.530 -0.2725  0.8408  0.7323
  231MPD1    H6 3569   1.979   1.684  15.579  0.1387 -1.7132  0.3852
  231MPD1    H7 3570   2.042   1.701  15.431  0.8843  1.3507  0.4370
  232MPD1     C 3571   4.688   0.160   0.034 -0.7317 -0.1742 -0.1519
  232MPD1    C1 3572   4.565   0.213   0.009 -0.6462 -0.5055  0.2786
  232MPD1    C2 3573   4.460   0.129   0.007 -0.5489 -1.0713  0.5776
  232MPD1    C3 3574   4.478   4.728   0.004  0.8402 -0.6540 -0.5537
  232MPD1    C4 3575   4.599   4.676   0.040  0.0188  0.2313 -0.1743
  232MPD1    C5 3576   4.698   0.027   0.055 -0.5009  0.5410 -0.5241
  232MPD1     H 3577   4.366   0.181  17.736  0.8017  0.7498 -1.8873
  232MPD1    H1 3578   4.614   4.569   0.050 -3.3271 -0.2876 -0.8363
  232MPD1    H2 3579   0.035   0.228   0.050 -0.1162 -1.1731  0.8648
  232MPD1    H3 3580   0.061   4.722   0.073 -0.6060  0.8366  0.7048
  232MPD1     N 3581   4.366   4.642  17.723  0.2259  0.4040 -0.3450
  232MPD1    H5 3582   4.281   4.697  17.715  0.3577  0.6846  0.1321
  232MPD1    N1 3583   4.537   0.349   0.011  0.4038  0.0193 -0.1580
  232MPD1    H6 3584   4.445   0.370  17.715  0.0446  0.8324  1.1588
  232MPD1    H7 3585   4.610   0.404  17.708 -1.2342  1.7563 -0.6792
  233MPD1     C 3586   0.525   2.727   1.039 -0.1850 -0.2638 -0.2816
  233MPD1    C1 3587   0.595   2.813   0.957 -0.1231 -0.5603 -0.3285
  233MPD1    C2 3588   0.735   2.785   0.948  0.4941  0.5277  0.9378
  233MPD1    C3 3589   0.786   2.679   1.017 -0.4232 -0.2540  0.3299
  233MPD1    C4 3590   0.703   2.591   1.080 -0.1423  0.3446  0.0889
  233MPD1    C5 3591   0.576   2.617   1.099 -0.0616 -0.2695 -0.1533
  233MPD1     H 3592   0.801   2.852   0.894  0.0432 -0.1421 -0.4505
  233MPD1    H1 3593   0.738   2.500   1.127 -3.5484 -0.4040  1.1454
  233MPD1    H2 3594   0.419   2.747   1.057 -0.1027  0.5562 -0.6970
  233MPD1    H3 3595   0.516   2.555   1.165  1.9214 -3.1246 -1.0397
  233MPD1     N 3596   0.926   2.656   1.035 -0.2026 -0.1079  0.4157
  233MPD1    H5 3597   0.956   2.579   1.093 -1.5647 -1.4097 -0.6027
  233MPD1    N1 3598   0.537   2.923   0.897 -0.8749  0.0232 -0.8084
  233MPD1    H6 3599   0.599   3.002   0.880 -0.9159  0.3377  0.4976
  233MPD1    H7 3600   0.462   2.956   0.958  1.8033  2.6586  1.0354
  234MPD1     C 3601   2.949   3.082  10.332  0.4275  0.2864  0.6007
  234MPD1    C1 3602   2.866   3.189  10.314 -0.1985  0.0246  0.2783
  234MPD1    C2 3603   2.779   3.187  10.203 -0.1960  0.5894  1.0650
  234MPD1    C3 3604   2.783   3.079  10.106 -0.0334  0.3918  0.5556
  234MPD1    C4 3605   2.862   2.969  10.143  0.0357 -0.1720  0.1016
  234MPD1    C5 3606   2.947   2.974  10.247 -0.4938 -0.3127 -0.1772
  234MPD1     H 3607   2.717   3.275  10.193 -1.9539 -0.4157  3.0578
  234MPD1    H1 3608   2.877   2.880  10.083  2.9136  0.5105 -0.1812
  234MPD1    H2 3609   3.020   3.080  10.414 -0.4083  0.2288  1.3280
  234MPD1    H3 3610   3.009   2.891  10.277 -1.3936 -1.2416 -0.8870
  234MPD1     N 3611   2.709   3.084   9.983  0.3318  0.3093 -0.3682
  234MPD1    H5 3612   2.648   3.163   9.967 -0.1138  0.3356  1.4738
  234MPD1    N1 3613   2.869   3.290  10.410  0.1779  0.7441 -0.2303
  234MPD1    H6 3614   2.818   3.374  10.385  0.7091  1.0693 -0.2086
  234MPD1    H7 3615   2.966   3.320  10.416  0.7145 -1.6746  4.0100
  235MPD1     C 3616   3.174   4.426   9.546 -0.3802  0.5196  0.0633
  235MPD1    C1 3617   3.161   4.536   9.623  0.5227 -0.0977  0.2840
  235MPD1    C2 3618   3.269   4.623   9.636 -0.2090 -0.0188 -0.1153
  235MPD1    C3 3619   3.397   4.592   9.579 -0.3184 -0.3607  0.7608
  235MPD1    C4 3620   3.407   4.483   9.493 -0.0025 -1.0865 -0.0887
  235MPD1    C5 3621   3.292   4.407   9.474  0.2749  0.1071 -0.5664
  235MPD1     H 3622   3.256   4.716   9.690  0.6945  1.0758 -1.7688
  235MPD1    H1 3623   3.502   4.455   9.448  1.3328  0.7150  1.6214
  235MPD1    H2 3624   3.096   4.356   9.518 -0.5063  0.8377 -0.3769
  235MPD1    H3 3625   3.304   4.312   9.424  1.3633 -0.3107  0.4969
  235MPD1     N 3626   3.499   4.679   9.620  0.4219 -0.1810 -0.3498
  235MPD1    H5 3627   3.480   0.003   9.699  0.7789 -1.3251  0.5965
  235MPD1    N1 3628   3.036   4.574   9.668  0.6307  0.2190  0.4425
  235MPD1    H6 3629   3.022   4.627   9.754  1.2448  1.9138 -0.4999
  235MPD1    H7 3630   2.973   4.496   9.681  1.4090 -0.7492 -1.5456
  236MPD1     C 3631   2.601   0.795  10.006 -0.0913 -0.6009  0.4495
  236MPD1    C1 3632   2.603   0.661   9.985  0.0275  0.0230 -0.8714
  236MPD1    C2 3633   2.692   0.582  10.044  0.9616  0.3720  0.5706
  236MPD1    C3 3634   2.781   0.639  10.137 -0.1825  0.1588 -0.0475
  236MPD1    C4 3635   2.786   0.781  10.149  0.0594 -0.5480  0.6831
  236MPD1    C5 3636   2.699   0.856  10.077 -0.7199  1.2767  0.7119
  236MPD1     H 3637   2.698   0.479  10.011 -2.5034 -0.4725  2.5392
  236MPD1    H1 3638   2.868   0.824  10.204 -1.2515  2.3878  0.3422
  236MPD1    H2 3639   2.527   0.861   9.962 -0.6184  0.2499  2.6011
  236MPD1    H3 3640   2.687   0.964  10.085  0.9912  1.6497 -1.5375
  236MPD1     N 3641   2.883   0.562  10.200  0.4943  0.2349  0.7670
  236MPD1    H5 3642   2.974   0.600  10.226  0.3429  0.8627  0.3643
  236MPD1    N1 3643   2.495   0.608   9.911 -0.1303 -0.0905 -0.1246
  236MPD1    H6 3644   2.462   0.663   9.832 -0.9302 -0.1141  0.1888
  236MPD1    H7 3645   2.527   0.523   9.866 -1.9867 -0.3507 -0.9707
  237MPD1     C 3646   3.473   3.220  14.762  0.1525 -0.0667 -0.3122
  237MPD1    C1 3647   3.456   3.155  14.882 -0.0825 -0.0750 -0.0017
  237MPD1    C2 3648   3.380   3.211  14.978 -0.0862 -0.4615  0.2097
  237MPD1    C3 3649   3.299   3.321  14.952 -0.1652  0.4584 -0.1580
  237MPD1    C4 3650   3.312   3.393  14.834 -0.0534 -1.0173 -0.1603
  237MPD1    C5 3651   3.402   3.335  14.737  0.9117  0.0385 -1.0139
  237MPD1     H 3652   3.371   3.157  15.072  2.3620  0.2192  0.8392
  237MPD1    H1 3653   3.253   3.481  14.816  2.0233 -0.5383 -4.7503
  237MPD1    H2 3654   3.526   3.183  14.675  1.1788  2.0912 -0.6117
  237MPD1    H3 3655   3.412   3.383  14.641 -0.3595  1.7919 -0.2727
  237MPD1     N 3656   3.214   3.382  15.045  0.2149  0.5028 -0.0636
  237MPD1    H5 3657   3.158   3.462  15.017 -1.3036 -1.1981 -1.9422
  237MPD1    N1 3658   3.527   3.032  14.905 -0.2318  0.1477 -0.7910
  237MPD1    H6 3659   3.576   3.000  14.822 -1.9416 -0.6586 -1.4693
  237MPD1    H7 3660   3.604   3.045  14.971 -0.0221  0.4963 -1.1040
  238MPD1     C 3661   4.358   1.879  15.634  0.1598  0.2384 -0.5468
  238MPD1    C1 3662   4.424   1.863  15.511 -0.0866  0.1693  0.5728
  238MPD1    C2 3663   4.393   1.943  15.404  0.4182  0.0686 -0.5099
  238MPD1    C3 3664   4.294   2.043  15.428  0.4722  0.7619  0.7044
  238MPD1    C4 3665   4.229   2.052  15.547  0.4724  0.0819  0.8823
  238MPD1    C5 3666   4.262   1.969  15.652 -0.2665  0.1965  0.0118
  238MPD1     H 3667   4.420   1.915  15.303  1.0150 -0.6747 -0.1448
  238MPD1    H1 3668   4.145   2.117  15.570 -0.7064 -1.3831  0.6610
  238MPD1    H2 3669   4.374   1.805  15.712 -2.4826 -0.2085 -0.4393
  238MPD1    H3 3670   4.203   1.964  15.743  0.9292  0.1297  0.7814
  238MPD1     N 3671   4.262   2.134  15.321  0.7169  0.2470  0.4006
  238MPD1    H5 3672   4.194   2.205  15.348  0.1095  1.0503 -3.2485
  238MPD1    N1 3673   4.508   1.757  15.484 -0.1286  0.0004  0.1646
  238MPD1    H6 3674   4.576   1.783  15.412 -0.6280 -0.0123 -0.3056
  238MPD1    H7 3675   4.561   1.729  15.567 -2.5785 -1.6272  1.1824
  239MPD1     C 3676   0.337   3.155  15.018 -0.6425  0.5926 -0.3204
  239MPD1    C1 3677   0.447   3.201  14.942 -0.4136  0.3770  0.1806
  239MPD1    C2 3678   0.436   3.213  14.802  0.0190 -0.9108 -0.3216
  239MPD1    C3 3679   0.309   3.194  14.748 -0.6894 -0.0599 -0.2586
  239MPD1    C4 3680   0.207   3.152  14.824  0.6190 -0.5983  0.0530
  239MPD1    C5 3681   0.219   3.132  14.962 -0.2733 -0.3592 -0.2208
  239MPD1     H 3682   0.519   3.250  14.743 -1.7997  0.2650 -2.1295
  239MPD1    H1 3683   0.109   3.144  14.779 -0.0409  0.4197  1.3096
  239MPD1    H2 3684   0.340   3.146  15.126 -0.8183  0.2885 -0.3413
  239MPD1    H3 3685   0.133   3.096  15.017  0.7676  0.5530  1.9959
  239MPD1     N 3686   0.277   3.224  14.615 -0.2580 -0.5361 -0.1387
  239MPD1    H5 3687   0.178   3.215  14.594 -0.6170 -0.0968  1.3530
  239MPD1    N1 3688   0.578   3.217  14.996  0.0606 -0.2890  0.1004
  239MPD1    H6 3689   0.581   3.218  15.098  0.4334 -1.1888  0.0929
  239MPD1    H7 3690   0.629   3.300  14.965  0.9799 -1.4854 -1.5260
  240MPD1     C 3691   4.714   3.115  13.891  0.1553  0.3455 -0.3129
  240MPD1    C1 3692   4.578   3.119  13.883 -0.4542  0.8387  0.3175
  240MPD1    C2 3693   4.506   3.056  13.975 -0.2529 -0.0242  0.1553
  240MPD1    C3 3694   4.564   2.988  14.081  0.4072  0.4245 -0.0236
  240MPD1    C4 3695   4.703   2.997  14.097 -0.2861  0.2979  0.7418
  240MPD1    C5 3696   0.035   3.060  13.997 -0.2990 -0.2555 -0.6676
  240MPD1     H 3697   4.401   3.081  13.987  0.2067  2.1495 -0.2605
  240MPD1    H1 3698   0.021   2.954  14.181  1.3475 -1.1002 -1.0297
  240MPD1    H2 3699   0.039   3.146  13.807  0.2873  2.4269  0.5594
  240MPD1    H3 3700   0.142   3.072  14.005 -0.8935  1.2672  4.5262
  240MPD1     N 3701   4.485   2.915  14.167  0.3937  0.1377  0.6737
  240MPD1    H5 3702   4.385   2.922  14.149  0.6027 -0.8431 -0.7786
  240MPD1    N1 3703   4.533   3.213  13.784 -0.0829 -0.5712 -0.1286
  240MPD1    H6 3704   4.436   3.201  13.758  0.0582 -2.3267  0.1431
  240MPD1    H7 3705   4.591   3.196  13.702  1.5313  0.3638  0.8164
  241MPD1     C 3706   4.717   2.841  15.132  0.5676 -0.5835  0.2224
  241MPD1    C1 3707   4.580   2.845  15.126  0.1187 -0.2477 -0.1357
  241MPD1    C2 3708   4.523   2.826  15.002 -0.4742 -0.7439 -0.1874
  241MPD1    C3 3709   4.596   2.812  14.890  0.1802  0.1281  0.1291
  241MPD1    C4 3710   4.730   2.839  14.893 -0.4022  0.0803  0.0195
  241MPD1    C5 3711   0.059   2.848  15.017 -0.3893  0.1089  0.4702
  241MPD1     H 3712   4.416   2.815  14.991 -1.0970  0.2984  4.8061
  241MPD1    H1 3713   0.056   2.842  14.804 -1.6882  1.5736 -0.7986
  241MPD1    H2 3714   0.037   2.858  15.223  1.5710  0.0167 -0.5067
  241MPD1    H3 3715   0.166   2.860  15.027 -0.0275 -0.6566 -2.4765
  241MPD1     N 3716   4.542   2.802  14.758  0.1343 -0.4282  0.0721
  241MPD1    H5 3717   4.611   2.810  14.684  0.8267  0.0240  0.7785
  241MPD1    N1 3718   4.503   2.850  15.241  0.5864  0.1630  0.2442
  241MPD1    H6 3719   4.421   2.906  15.221  0.9888  1.2590  1.6392
  241MPD1    H7 3720   4.563   2.886  15.315  1.3908 -0.3714 -0.1499
  242MPD1     C 3721   3.695   1.298  15.719  0.3147  0.4375  0.6048
  242MPD1    C1 3722   3.818   1.335  15.666 -0.4283 -0.0846  0.1451
  242MPD1    C2 3723   3.906   1.242  15.608 -0.1135 -0.1375 -0.2722
  242MPD1    C3 3724   3.854   1.118  15.577 -0.3812 -0.3055  0.7468
  242MPD1    C4 3725   3.725   1.084  15.634  0.1083 -0.4849  0.3877
  242MPD1    C5 3726   3.650   1.174  15.706 -0.3944 -0.3574  0.5567
  242MPD1     H 3727   3.997   1.282  15.563 -0.1083  1.7601  1.4118
  242MPD1    H1 3728   3.678   0.989  15.609 -2.1378  0.9604 -0.9315
  242MPD1    H2 3729   3.631   1.376  15.759  0.6215  1.2129 -0.4201
  242MPD1    H3 3730   3.544   1.160  15.724 -0.8903 -0.4660 -2.5107
  242MPD1     N 3731   3.921   1.016  15.496  0.3862  0.2712 -0.3918
  242MPD1    H5 3732   3.893   0.918  15.501 -0.5138  0.5095 -0.7885
  242MPD1    N1 3733   3.868   1.462  15.701  0.2458  1.2004  0.5543
  242MPD1    H6 3734   3.792   1.530  15.707 -1.1167 -0.2950  0.5151
  242MPD1    H7 3735   3.932   1.494  15.629 -2.1979 -1.0130 -2.6446
  243MPD1     C 3736   0.828   3.809  17.490 -0.0445  0.3688  0.0996
  243MPD1    C1 3737   0.771   3.926  17.444 -1.0904  0.1180  0.7298
  243MPD1    C2 3738   0.778   3.949  17.310  1.0315  0.1679  0.4237
  243MPD1    C3 3739   0.844   3.865  17.221  0.0356 -0.3656 -0.1990
  243MPD1    C4 3740   0.907   3.752  17.274 -0.2425 -0.7143  0.5119
  243MPD1    C5 3741   0.900   3.730  17.408  0.9993 -0.1223  0.5438
  243MPD1     H 3742   0.738   4.038  17.261 -1.2521 -2.3508 -2.2471
  243MPD1    H1 3743   0.964   3.682  17.213 -0.1442  0.4803 -0.7845
  243MPD1    H2 3744   0.817   3.783  17.594 -1.9603  0.8576  0.0014
  243MPD1    H3 3745   0.958   3.646  17.443 -0.1283 -1.5369 -0.9851
  243MPD1     N 3746   0.853   3.911  17.082 -0.2094 -0.0094  0.0751
  243MPD1    H5 3747   0.787   3.984  17.056 -0.3662  0.2404  1.1765
  243MPD1    N1 3748   0.691   4.003  17.529  0.3249 -0.2538  0.7400
  243MPD1    H6 3749   0.701   4.104  17.519  2.0949 -0.4011  1.0081
  243MPD1    H7 3750   0.722   3.983  17.624 -0.3917 -1.3515  0.7467
  244MPD1     C 3751   1.415   3.570  16.318  0.5769 -0.1182  0.0882
  244MPD1    C1 3752   1.416   3.545  16.455 -0.7450 -0.2526 -0.6605
  244MPD1    C2 3753   1.310   3.593  16.527 -0.2563  0.9125  0.1011
  244MPD1    C3 3754   1.203   3.659  16.474 -0.2243  0.1665  0.1221
  244MPD1    C4 3755   1.207   3.673  16.334 -0.4792  0.3937 -0.0931
  244MPD1    C5 3756   1.310   3.630  16.262 -0.4756  0.1409 -0.0698
  244MPD1     H 3757   1.298   3.573  16.633  0.9550  1.1729  0.2835
  244MPD1    H1 3758   1.129   3.729  16.283  0.4025  0.7522 -1.0476
  244MPD1    H2 3759   1.484   3.524  16.249  0.9047  1.0965 -0.3958
  244MPD1    H3 3760   1.324   3.646  16.155 -0.1009 -0.1003 -0.0587
  244MPD1     N 3761   1.106   3.716  16.561  0.6075  0.4860  0.2718
  244MPD1    H5 3762   1.121   3.711  16.661 -0.4448 -0.8528  0.3548
  244MPD1    N1 3763   1.514   3.469  16.518  0.4457  0.0346  0.0717
  244MPD1    H6 3764   1.599   3.478  16.463  0.0587  1.5992 -0.2690
  244MPD1    H7 3765   1.525   3.514  16.608  1.0909  0.0862 -0.0353
  245MPD1     C 3766   2.480   4.565  12.797 -0.5825 -0.4202 -0.5367
  245MPD1    C1 3767   2.463   4.621  12.918 -0.3094 -0.1938 -0.2641
  245MPD1    C2 3768   2.541   4.733  12.948  0.4740 -0.6235  0.1114
  245MPD1    C3 3769   2.627   0.059  12.853 -0.2200  0.4712 -0.3649
  245MPD1    C4 3770   2.636   4.730  12.729 -1.0142  0.4279  0.5534
  245MPD1    C5 3771   2.563   4.619  12.702 -0.4371 -0.3154  0.5893
  245MPD1     H 3772   2.541   0.052  13.042 -0.0565 -0.5357  0.0585
  245MPD1    H1 3773   2.700   0.032  12.649  0.4989 -1.8512  0.6716
  245MPD1    H2 3774   2.415   4.480  12.775 -2.3708  0.2857  1.9473
  245MPD1    H3 3775   2.563   4.561  12.611 -2.8033  0.4894  0.0873
  245MPD1     N 3776   2.699   0.174  12.892 -0.7004 -0.4385 -0.0305
  245MPD1    H5 3777   2.687   0.209  12.986 -0.7445  0.0619 -0.2204
  245MPD1    N1 3778   2.397   4.553  13.025  0.5915 -0.0722 -0.1355
  245MPD1    H6 3779   2.329   4.485  12.991  0.1722  0.6139 -0.6748
  245MPD1    H7 3780   2.345   4.618  13.084  0.7313 -0.9143  0.9206
  246MPD1     C 3781   2.574   2.271   8.738  0.1134 -1.1145  0.0249
  246MPD1    C1 3782   2.521   2.144   8.744 -0.2593  0.5431  0.6017
  246MPD1    C2 3783   2.586   2.054   8.816  0.3293  0.4695  0.1444
  246MPD1    C3 3784   2.713   2.076   8.857  0.0573  0.0104  0.1630
  246MPD1    C4 3785   2.776   2.187   8.825  0.6585  0.3659 -1.3172
  246MPD1    C5 3786   2.700   2.287   8.779  0.2312 -0.3453  0.3612
  246MPD1     H 3787   2.540   1.959   8.839  0.0003  0.0771 -2.0823
  246MPD1    H1 3788   2.878   2.215   8.850  1.0246 -1.0593 -1.2157
  246MPD1    H2 3789   2.509   2.354   8.710  1.8838 -0.1199 -1.1257
  246MPD1    H3 3790   2.736   2.389   8.768 -1.2419  0.1465  0.0984
  246MPD1     N 3791   2.779   1.978   8.927 -0.0915 -0.2981 -0.2794
  246MPD1    H5 3792   2.728   1.900   8.969  0.1963 -0.4398 -0.1914
  246MPD1    N1 3793   2.386   2.128   8.721 -0.1546 -0.0536  0.0740
  246MPD1    H6 3794   2.377   2.030   8.693 -2.0456  0.4812 -1.1644
  246MPD1    H7 3795   2.346   2.176   8.640  0.4674  1.5762  0.7436
  247MPD1     C 3796   1.882   4.498  15.363  0.3616 -0.1274 -0.2869
  247MPD1    C1 3797   1.854   4.433  15.480 -0.2646  0.2248  0.2669
  247MPD1    C2 3798   1.958   4.413  15.567  0.1862 -0.8720 -0.3809
  247MPD1    C3 3799   2.094   4.439  15.530  0.3084  0.4261 -0.1749
  247MPD1    C4 3800   2.120   4.495  15.407  0.6813 -0.1843 -0.3728
  247MPD1    C5 3801   2.015   4.524  15.326 -0.4345  0.9303  0.6342
  247MPD1     H 3802   1.930   4.359  15.657  0.0078  2.5478  1.6014
  247MPD1    H1 3803   2.220   4.509  15.368  0.4089 -1.6696 -1.6559
  247MPD1    H2 3804   1.798   4.548  15.316 -0.0080  0.8010  1.3688
  247MPD1    H3 3805   2.042   4.587  15.243 -0.2154 -2.3096 -1.7612
  247MPD1     N 3806   2.199   4.420  15.625  0.0510 -0.3436  0.1857
  247MPD1    H5 3807   2.292   4.444  15.593 -0.9129  4.2422  0.8329
  247MPD1    N1 3808   1.718   4.422  15.524 -0.0634  0.1792  0.2883
  247MPD1    H6 3809   1.665   4.390  15.444  1.3197 -0.0151 -0.5569
  247MPD1    H7 3810   1.704   4.361  15.604 -0.6627  0.0731  0.0973
  248MPD1     C 3811   3.488   2.971   0.157  0.1826 -0.7858  0.2176
  248MPD1    C1 3812   3.506   2.935   0.290 -0.0810 -0.6970  0.0268
  248MPD1    C2 3813   3.478   3.026   0.388  0.2462  0.4802  0.4536
  248MPD1    C3 3814   3.472   3.163   0.354 -0.1925 -0.3905  0.4113
  248MPD1    C4 3815   3.463   3.199   0.217 -0.2534  0.2048 -0.0590
  248MPD1    C5 3816   3.472   3.100   0.120  0.5419  0.6284 -0.2669
  248MPD1     H 3817   3.481   3.003   0.494 -1.7773 -0.0840  0.3835
  248MPD1    H1 3818   3.431   3.298   0.187 -1.3362  1.1036  4.0569
  248MPD1    H2 3819   3.481   2.892   0.084  1.4398 -0.2182 -0.5192
  248MPD1    H3 3820   3.440   3.122   0.019  0.3098 -2.2072 -0.7932
  248MPD1     N 3821   3.462   3.259   0.458 -0.6281  0.3846  0.2602
  248MPD1    H5 3822   3.448   3.224   0.552  2.7151 -2.9493 -0.4928
  248MPD1    N1 3823   3.531   2.803   0.326 -0.2272 -0.2499 -0.3852
  248MPD1    H6 3824   3.575   2.740   0.260  2.1171  0.2620  0.6737
  248MPD1    H7 3825   3.573   2.804   0.419  0.8787 -0.2255 -0.8777
  249MPD1     C 3826   1.113   4.188   9.650  0.0670  0.2392 -0.5624
  249MPD1    C1 3827   0.991   4.242   9.674  1.1848  0.6451 -0.4940
  249MPD1    C2 3828   0.877   4.160   9.680 -0.0318  0.4557  0.0970
  249MPD1    C3 3829   0.884   4.022   9.667 -0.1600  0.5432 -0.3242
  249MPD1    C4 3830   1.016   3.974   9.658 -0.5512 -0.0092  0.3660
  249MPD1    C5 3831   1.126   4.054   9.648  0.0397 -0.4035  0.3867
  249MPD1     H 3832   0.776   4.196   9.696 -0.0324  0.2552  0.5389
  249MPD1    H1 3833   1.039   3.868   9.664 -3.3103 -0.6384 -0.1745
  249MPD1    H2 3834   1.204   4.245   9.636 -0.3745  0.5818 -2.0756
  249MPD1    H3 3835   1.227   4.015   9.638  0.5704  1.2585 -0.8872
  249MPD1     N 3836   0.771   3.945   9.697  0.5100 -0.5464 -0.1474
  249MPD1    H5 3837   0.683   3.991   9.718  0.5906 -0.9131  0.9859
  249MPD1    N1 3838   0.974   4.380   9.678  0.0080  0.1420 -0.3526
  249MPD1    H6 3839   1.059   4.424   9.713 -1.0997  2.8752 -1.1144
  249MPD1    H7 3840   0.901   4.417   9.738  0.2464  1.6443 -0.9897
  250MPD2     C 3841   1.499   3.329  13.134 -0.5071  0.0338 -0.9933
  250MPD2    C1 3842   1.384   3.390  13.093 -0.1589 -0.1446  0.1498
  250MPD2    C2 3843   1.261   3.335  13.130  0.0567  0.2187  0.0490
  250MPD2    C3 3844   1.253   3.220  13.202  0.0269 -1.0509 -1.0519
  250MPD2    C4 3845   1.368   3.153  13.233  0.7723  0.5359  0.5556
  250MPD2    C5 3846   1.492   3.211  13.208 -0.1540  0.0134 -0.4904
  250MPD2     H 3847   1.171   3.388  13.102 -0.0667  0.9753  1.8822
  250MPD2    H1 3848   1.370   3.056  13.281 -0.3428 -0.0207 -0.5252
  250MPD2    H2 3849   1.595   3.373  13.113  0.5425 -2.4496 -1.4412
  250MPD2    H3 3850   1.584   3.161  13.237 -0.0197  0.7879  0.4005
  250MPD2     N 3851   1.127   3.177  13.243  0.6278 -0.2100  0.2019
  250MPD2    H5 3852   1.042   3.228  13.219  0.3272 -0.6308  0.3536
  250MPD2    N1 3853   1.391   3.514  13.024  0.1104  0.4736  0.0529
  250MPD2    H7 3854   1.475   3.568  13.039  0.0341  0.6055 -0.0005
  251TMC3    C1 3855   1.315   3.716  12.942  0.0889 -0.0965  0.5068
  251TMC3    C2 3856   1.211   3.806  12.961  0.3822 -0.0907  0.9911
  251TMC3    C3 3857   1.243   3.935  12.998  0.2654  0.3149 -0.2580
  251TMC3    C4 3858   1.442   3.753  12.974  0.1971  0.1374  0.5406
  251TMC3    C5 3859   1.467   3.882  13.020 -0.3337 -0.5327 -0.1371
  251TMC3    C6 3860   1.370   3.971  13.034 -0.1181 -0.5906 -0.0175
  251TMC3     C 3861   1.284   3.579  12.956  0.1499 -0.0457  0.2029
  251TMC3     O 3862   1.173   3.542  12.915  0.2888  0.7391  0.8130
  251TMC3     H 3863   1.109   3.775  12.939  1.0567 -0.9625 -0.8269
  251TMC3    H1 3864   1.531   3.692  12.965 -0.3130 -0.6491  0.8432
  251TMC3    H2 3865   1.393   4.067  13.078 -0.9709 -0.1659 -0.5071
  251TMC3    C7 3866   1.605   3.916  13.050 -0.0060 -0.1883 -0.8424
  251TMC3    C8 3867   1.132   4.009  13.041 -0.3687  0.0504  0.2679
  251TMC3    O1 3868   1.685   3.824  13.065 -0.4832  0.4677  0.4360
  251TMC3    O2 3869   1.126   4.054  13.158  0.0299  0.3794  0.5578
  252TMC3    C1 3870   0.391   0.333   9.693 -0.1027 -0.1697 -0.1464
  252TMC3    C2 3871   0.514   0.376   9.659 -0.1710  0.4833  0.5712
  252TMC3    C3 3872   0.618   0.293   9.684  0.0068  0.9411  0.6316
  252TMC3    C4 3873   0.369   0.220   9.764  0.1653  0.1683  0.1450
  252TMC3    C5 3874   0.474   0.139   9.794 -0.0765 -0.0804 -0.0288
  252TMC3    C6 3875   0.602   0.175   9.746 -0.0816 -0.8239 -0.7438
  252TMC3     C 3876   0.289   0.441   9.695  0.0435 -0.0148  0.3266
  252TMC3     O 3877   0.319   0.544   9.638 -0.3197 -0.0561 -0.4594
  252TMC3     H 3878   0.529   0.471   9.608  0.2703 -0.3506 -0.8460
  252TMC3    H1 3879   0.270   0.177   9.780  0.4438 -0.4628  0.1737
  252TMC3    H2 3880   0.691   0.116   9.763 -0.8189 -1.1715  2.0072
  252TMC3    C7 3881   0.444   0.005   9.832 -0.4715 -0.2787  0.7331
  252TMC3    C8 3882   0.747   0.349   9.659  0.4773 -0.2408  0.9064
  252TMC3    O1 3883   0.327   4.731   9.854  0.5455  1.1395  0.2369
  252TMC3    O2 3884   0.756   0.434   9.579  0.7334 -0.2845  0.4227
  253MPD2     C 3885   2.706   3.664  15.648 -0.0730 -0.1563  0.8277
  253MPD2    C1 3886   2.586   3.619  15.596  0.8925 -0.0951  0.0666
  253MPD2    C2 3887   2.500   3.542  15.668 -0.1551  0.1119 -0.4311
  253MPD2    C3 3888   2.528   3.511  15.801 -0.1189  0.1513  0.0489
  253MPD2    C4 3889   2.645   3.564  15.857 -0.0233  0.2472  0.0543
  253MPD2    C5 3890   2.735   3.635  15.775 -0.2513  0.1043  0.6112
  253MPD2     H 3891   2.414   3.507  15.612  0.6503 -1.4011 -0.7030
  253MPD2    H1 3892   2.668   3.531  15.957  2.1518 -0.8178 -0.8027
  253MPD2    H2 3893   2.772   3.728  15.591 -0.2282  0.1819  1.0263
  253MPD2    H3 3894   2.827   3.672  15.820  0.8170 -0.7023 -0.9234
  253MPD2     N 3895   2.439   3.434  15.888 -0.5088 -0.3169 -0.8273
  253MPD2    H5 3896   2.482   3.405  15.975  0.1761  1.6389 -0.5299
  253MPD2    N1 3897   2.546   3.647  15.463  0.1962  0.5736 -0.1515
  253MPD2    H7 3898   2.458   3.608  15.431  0.9586 -0.9262 -0.3674
  254TMC3    C1 3899   2.236   3.318  15.947 -0.4028  0.8599 -0.1045
  254TMC3    C2 3900   2.107   3.283  15.913 -0.0508  1.2285  0.1900
  254TMC3    C3 3901   2.025   3.233  16.007  0.2068  0.4460  0.5284
  254TMC3    C4 3902   2.284   3.301  16.074  0.5824  0.2254 -0.0211
  254TMC3    C5 3903   2.199   3.245  16.164  0.2921 -0.6677  0.4443
  254TMC3    C6 3904   2.066   3.218  16.134  0.8615 -0.1886 -0.2604
  254TMC3     C 3905   2.314   3.390  15.848  0.1973  0.2434  0.2939
  254TMC3     O 3906   2.253   3.417  15.741  0.2145  0.1712  0.0769
  254TMC3     H 3907   2.070   3.311  15.815  1.3489  1.9120 -0.1442
  254TMC3    H1 3908   2.384   3.335  16.101  0.2080  0.8182  0.6280
  254TMC3    H2 3909   1.996   3.181  16.208  0.5210  0.3347 -0.3225
  254TMC3    C7 3910   2.238   3.219  16.301 -0.0444  0.5262 -0.0266
  254TMC3    C8 3911   1.886   3.227  15.967  0.5415  0.1951 -0.2059
  254TMC3    O1 3912   2.191   3.118  16.360 -0.3855 -0.4671  0.2358
  254TMC3    O2 3913   1.842   3.153  15.881  0.8227  0.6730 -0.0269
  255MPD2     C 3914   0.457   1.880  11.076 -0.6859 -0.4950  0.3056
  255MPD2    C1 3915   0.513   1.926  10.958 -0.4347 -1.0090  0.2395
  255MPD2    C2 3916   0.596   1.842  10.883 -0.5206 -0.3137 -0.3449
  255MPD2    C3 3917   0.624   1.714  10.928  0.0917 -0.0004  0.3434
  255MPD2    C4 3918   0.577   1.674  11.051 -0.6991 -0.1212  0.1434
  255MPD2    C5 3919   0.499   1.757  11.119 -0.2266 -0.4546 -0.1278
  255MPD2     H 3920   0.623   1.871  10.782  1.1111  2.4778  0.8953
  255MPD2    H1 3921   0.587   1.576  11.097 -0.7546 -0.1328  0.1313
  255MPD2    H2 3922   0.388   1.934  11.140  0.7706  1.0228  0.6075
  255MPD2    H3 3923   0.451   1.713  11.205  0.7820 -2.5270 -0.6107
  255MPD2     N 3924   0.708   1.637  10.845 -0.2769  0.8227 -0.3423
  255MPD2    H5 3925   0.714   1.665  10.748  0.4636  1.0514 -0.2281
  255MPD2    N1 3926   0.450   2.048  10.909  0.1753 -0.5595  0.1416
  255MPD2    H7 3927   0.379   2.091  10.968 -0.6322  0.3178 -1.4643
  256TMC3    C1 3928   0.375   2.221  10.775 -0.7421  1.2249  0.1450
  256TMC3    C2 3929   0.409   2.349  10.733 -0.1994 -0.8829  0.2237
  256TMC3    C3 3930   0.310   2.431  10.698 -0.7904 -0.6526  0.4488
  256TMC3    C4 3931   0.243   2.176  10.787 -0.1304 -0.0820 -0.5691
  256TMC3    C5 3932   0.147   2.266  10.761 -0.2622  0.7213  0.1259
  256TMC3    C6 3933   0.177   2.391  10.712  0.3328 -0.0548 -0.3722
  256TMC3     C 3934   0.479   2.119  10.795  0.5921  0.2166 -0.3885
  256TMC3     O 3935   0.571   2.103  10.724  0.0682  0.4396  0.4899
  256TMC3     H 3936   0.513   2.375  10.721 -0.4514  1.0405  2.2947
  256TMC3    H1 3937   0.222   2.077  10.826  0.3977  0.4508  1.1122
  256TMC3    H2 3938   0.105   2.452  10.658  0.1434 -0.5939 -0.7326
  256TMC3    C7 3939   0.049   2.200  10.679  0.0801 -0.0583  0.3601
  256TMC3    C8 3940   0.338   2.501  10.576 -0.5024 -0.8346 -0.0041
  256TMC3    O1 3941   0.078   2.088  10.648  0.2923 -0.0955  0.2486
  256TMC3    O2 3942   0.262   2.599  10.560 -0.2474 -0.1885 -0.0412
  257MPD2     C 3943   4.613   3.588  13.233  0.0529  0.1606  0.4198
  257MPD2    C1 3944   4.597   3.489  13.147  0.2784 -0.2172  0.2607
  257MPD2    C2 3945   4.614   3.358  13.188 -1.0004  0.1855 -0.2280
  257MPD2    C3 3946   4.643   3.321  13.318 -0.3318  0.4531  0.1527
  257MPD2    C4 3947   4.664   3.427  13.409  0.3805 -0.1433  0.1263
  257MPD2    C5 3948   4.649   3.556  13.366 -0.0682 -0.2148 -0.1841
  257MPD2     H 3949   4.601   3.270  13.127 -0.4109  0.7178 -1.1167
  257MPD2    H1 3950   4.694   3.411  13.512 -1.8294 -0.5203  0.7174
  257MPD2    H2 3951   4.592   3.690  13.203 -0.9351  0.2503  1.4198
  257MPD2    H3 3952   4.650   3.632  13.443 -0.5856 -1.6247  1.2086
  257MPD2     N 3953   4.657   3.187  13.346  0.2296  0.2363  0.0583
  257MPD2    H5 3954   4.659   3.125  13.265 -0.8601  0.1656  0.0842
  257MPD2    N1 3955   4.560   3.525  13.013  0.1634 -0.3623  0.2770
  257MPD2    H7 3956   4.582   3.620  12.984  1.9201 -1.0383 -0.6364
  258TMC3    C1 3957   4.698   2.983  13.453 -0.7540  0.0415 -0.5975
  258TMC3    C2 3958   4.630   2.914  13.359 -0.0422 -0.5562 -0.4038
  258TMC3    C3 3959   4.637   2.780  13.368 -0.3862  0.0684 -0.2806
  258TMC3    C4 3960   0.036   2.920  13.553  1.1465  0.0754 -0.3658
  258TMC3    C5 3961   0.039   2.782  13.560  0.0653  0.0096  0.0340
  258TMC3    C6 3962   4.700   2.711  13.472  0.1374 -0.2316  0.7894
  258TMC3     C 3963   4.675   3.126  13.465  0.1715 -0.2675  0.3895
  258TMC3     O 3964   4.699   3.181  13.569  0.2870 -0.3703 -0.0899
  258TMC3     H 3965   4.569   2.969  13.289 -0.5108  0.8044  1.0761
  258TMC3    H1 3966   0.085   2.979  13.628  1.6676 -0.0221 -0.6262
  258TMC3    H2 3967   4.708   2.604  13.486 -1.0090 -0.4161  0.0240
  258TMC3    C7 3968   0.065   2.723  13.689 -0.2133 -0.3326 -0.4691
  258TMC3    C8 3969   4.590   2.708  13.252  0.3230  0.1345  0.4971
  258TMC3    O1 3970   0.012   2.620  13.724  0.6791  0.1056 -0.2506
  258TMC3    O2 3971   4.533   2.772  13.169  0.0049  0.1858 -0.4777
  259MPD2     C 3972   3.914   0.570   0.500  0.4920  0.1172 -0.3167
  259MPD2    C1 3973   3.855   0.446   0.484 -0.3248  0.4809  0.4683
  259MPD2    C2 3974   3.761   0.423   0.388  0.4910 -0.6186 -0.0056
  259MPD2    C3 3975   3.738   0.528   0.299  0.0541 -0.3197  0.1030
  259MPD2    C4 3976   3.799   0.650   0.311  0.2257  0.2007  0.1315
  259MPD2    C5 3977   3.886   0.675   0.418  0.3283 -0.4328 -0.4404
  259MPD2     H 3978   3.711   0.327   0.378  0.9134 -0.6920 -1.4771
  259MPD2    H1 3979   3.769   0.740   0.258  4.2625  1.6571  0.3074
  259MPD2    H2 3980   3.993   0.591   0.570 -1.0947  1.9229  0.9264
  259MPD2    H3 3981   3.937   0.766   0.449 -0.7221 -0.3488  1.0519
  259MPD2     N 3982   3.641   0.502   0.200  0.2595 -0.2353  0.7852
  259MPD2    H5 3983   3.606   0.407   0.200  1.6844 -0.7478  1.2274
  259MPD2    N1 3984   3.891   0.338   0.570  0.2956  0.0994 -0.4406
  259MPD2    H7 3985   3.989   0.338   0.595 -0.4973  0.0960  2.6755
  260TMC3    C1 3986   3.509   0.525   0.012  0.2288  0.2669 -0.0260
  260TMC3    C2 3987   3.536   0.533  17.624 -0.3254 -0.2824 -0.6170
  260TMC3    C3 3988   3.496   0.426  17.543  0.0945 -0.2097  0.3321
  260TMC3    C4 3989   3.452   0.411   0.066 -0.6056 -0.2136  0.0885
  260TMC3    C5 3990   3.414   0.306  17.721 -0.1754  0.4288 -1.0988
  260TMC3    C6 3991   3.432   0.320  17.587 -0.3929  0.2139  0.5709
  260TMC3     C 3992   3.597   0.593   0.111  0.1406 -0.5804  0.4823
  260TMC3     O 3993   3.625   0.708   0.078  0.5907  0.1064 -0.4162
  260TMC3     H 3994   3.590   0.618  17.583  1.4351 -0.1885  1.9167
  260TMC3    H1 3995   3.421   0.412   0.170 -0.4460 -0.7519  0.1419
  260TMC3    H2 3996   3.393   0.247  17.518  0.1633 -0.5341  1.0388
  260TMC3    C7 3997   3.332   0.191   0.018 -0.6852 -0.3640 -0.2833
  260TMC3    C8 3998   3.597   0.396  17.448 -0.5186 -0.9093  0.0549
  260TMC3    O1 3999   3.319   0.107  17.676 -0.4893  0.0755 -0.1841
  260TMC3    O2 4000   3.659   0.489  17.402 -0.1516 -0.0089 -0.2558
  261MPD2     C 4001   0.560   3.477  13.032 -0.8916  0.1192 -0.1623
  261MPD2    C1 4002   0.564   3.344  12.986  0.3989 -1.0882  0.0750
  261MPD2    C2 4003   0.501   3.312  12.868  0.4409  0.7197  0.0774
  261MPD2    C3 4004   0.456   3.407  12.777 -0.3254  0.1312 -0.2167
  261MPD2    C4 4005   0.469   3.539  12.817  0.0530 -0.0377 -0.0975
  261MPD2    C5 4006   0.509   3.569  12.940 -0.7121 -0.2246 -0.0087
  261MPD2     H 4007   0.494   3.205  12.854 -1.1012  0.7950  0.2478
  261MPD2    H1 4008   0.432   3.618  12.753 -0.7879 -0.6130 -0.3220
  261MPD2    H2 4009   0.593   3.514  13.129 -1.4280  1.4014 -0.4778
  261MPD2    H3 4010   0.498   3.675  12.963 -0.9283 -0.3128  0.2993
  261MPD2     N 4011   0.407   3.368  12.649  0.0592  1.0168  0.0732
  261MPD2    H5 4012   0.371   3.274  12.641  3.4205 -0.1816 -1.3355
  261MPD2    N1 4013   0.622   3.238  13.061  0.5020 -0.2105  0.4333
  261MPD2    H7 4014   0.600   3.145  13.026  0.2796 -0.1559  0.4238
  262TMC3    C1 4015   0.287   3.403  12.449  0.1587 -1.1106  0.2731
  262TMC3    C2 4016   0.222   3.497  12.375 -0.0255 -0.3142 -0.8839
  262TMC3    C3 4017   0.170   3.468  12.256 -0.2470 -0.1277  1.0660
  262TMC3    C4 4018   0.308   3.277  12.401 -0.5755  0.1014 -0.0139
  262TMC3    C5 4019   0.252   3.248  12.273 -0.3710 -0.0491 -0.2026
  262TMC3    C6 4020   0.182   3.342  12.203  0.2120  0.4842  0.0863
  262TMC3     C 4021   0.368   3.462  12.557 -0.2915 -0.1595  0.6404
  262TMC3     O 4022   0.370   3.586  12.558  0.4922 -0.3547  0.7842
  262TMC3     H 4023   0.187   3.584  12.430  0.6223 -0.9210  0.4897
  262TMC3    H1 4024   0.355   3.197  12.456 -1.9309 -0.9893 -0.4507
  262TMC3    H2 4025   0.149   3.327  12.101 -0.6315  1.6445  0.1932
  262TMC3    C7 4026   0.303   3.130  12.207  0.6948 -0.3026 -0.5462
  262TMC3    C8 4027   0.135   3.578  12.166  1.0024  0.6810  0.5592
  262TMC3    O1 4028   0.382   3.062  12.269 -0.0703 -0.3144  0.2812
  262TMC3    O2 4029   0.157   3.563  12.043  0.0876  0.0548  0.3700
  263MPD2     C 4030   1.303   2.373  11.258  0.4332 -0.3420 -0.1403
  263MPD2    C1 4031   1.345   2.491  11.311  0.7116 -0.7585  0.1048
  263MPD2    C2 4032   1.332   2.601  11.231 -0.3773  0.0875  0.5976
  263MPD2    C3 4033   1.297   2.595  11.098  0.0835 -0.0896 -0.1365
  263MPD2    C4 4034   1.250   2.476  11.055 -0.0381  0.8815  0.3908
  263MPD2    C5 4035   1.254   2.362  11.132 -0.5941 -0.0899 -0.3347
  263MPD2     H 4036   1.361   2.696  11.272  0.4867  0.0140  0.1609
  263MPD2    H1 4037   1.201   2.452  10.961  1.5365  3.0613 -0.9821
  263MPD2    H2 4038   1.304   2.283  11.319 -1.9429  0.7721  1.5281
  263MPD2    H3 4039   1.212   2.268  11.098 -1.3925  1.5249 -3.8733
  263MPD2     N 4040   1.301   2.718  11.018 -0.8340 -0.0197 -0.4499
  263MPD2    H5 4041   1.311   2.798  11.079  3.8555 -2.1854  1.6871
  263MPD2    N1 4042   1.396   2.506  11.445 -0.1565  0.2148  0.2532
  263MPD2    H7 4043   1.408   2.601  11.479  0.0037 -0.5838  2.4751
  264TMC3    C1 4044   1.341   2.849  10.843  0.3436 -0.2395 -0.0446
  264TMC3    C2 4045   1.304   2.954  10.925 -0.3192 -0.1598 -0.5634
  264TMC3    C3 4046   1.337   3.083  10.880 -0.8326 -0.7373  0.3432
  264TMC3    C4 4047   1.404   2.866  10.715 -0.3196 -0.0255 -0.6794
  264TMC3    C5 4048   1.436   2.993  10.682 -0.3412  0.3894  0.2847
  264TMC3    C6 4049   1.395   3.105  10.760 -0.5159 -1.0867 -0.3628
  264TMC3     C 4050   1.306   2.719  10.879  0.4421  0.2581  0.6663
  264TMC3     O 4051   1.326   2.627  10.804 -0.0561 -0.3257  0.1654
  264TMC3     H 4052   1.235   2.939  11.007 -0.9100  1.0951 -0.8398
  264TMC3    H1 4053   1.433   2.777  10.661  0.8827 -1.6019  2.5283
  264TMC3    H2 4054   1.425   3.203  10.725  1.6916 -1.7229 -0.2878
  264TMC3    C7 4055   1.530   3.018  10.574  0.3761  0.5061 -0.1804
  264TMC3    C8 4056   1.296   3.210  10.944 -0.1118 -0.0575 -0.7654
  264TMC3    O1 4057   1.639   2.966  10.576 -0.2337 -0.1954 -0.0788
  264TMC3    O2 4058   1.292   3.310  10.872  0.3680 -0.1367 -0.4254
  265MPD2     C 4059   3.595   3.101  15.372  0.3471  0.1789  0.0121
  265MPD2    C1 4060   3.635   3.206  15.285 -0.3059 -0.3430 -0.3262
  265MPD2    C2 4061   3.721   3.188  15.179  0.2340 -0.3976 -0.5247
  265MPD2    C3 4062   3.767   3.059  15.150 -0.5847 -0.1631 -0.1260
  265MPD2    C4 4063   3.726   2.955  15.235 -0.6390  0.0301  0.2029
  265MPD2    C5 4064   3.646   2.973  15.342 -0.9015 -0.5105 -0.3348
  265MPD2     H 4065   3.767   3.271  15.127 -2.0378  1.5481  0.5743
  265MPD2    H1 4066   3.763   2.856  15.210 -2.8169 -0.4000 -1.3114
  265MPD2    H2 4067   3.516   3.115  15.444 -0.8923 -0.1888 -1.2760
  265MPD2    H3 4068   3.623   2.893  15.412 -3.8840 -0.4976 -1.3020
  265MPD2     N 4069   3.855   3.026  15.048 -0.8605  0.1844  0.3899
  265MPD2    H5 4070   3.882   2.929  15.035  1.0508  0.4096  2.7820
  265MPD2    N1 4071   3.583   3.337  15.304  0.7908 -0.6315  0.7393
  265MPD2    H7 4072   3.615   3.409  15.239 -1.2961 -0.5493 -0.2038
  266TMC3    C1 4073   3.446   3.515  15.375  0.2209  0.1009 -0.1718
  266TMC3    C2 4074   3.391   3.586  15.480  0.3666 -0.7160 -0.1718
  266TMC3    C3 4075   3.288   3.670  15.457  1.1055  0.0170 -0.8543
  266TMC3    C4 4076   3.423   3.554  15.242  0.2534 -0.2235 -0.2103
  266TMC3    C5 4077   3.320   3.647  15.227 -0.2964  0.1146 -0.2316
  266TMC3    C6 4078   3.247   3.700  15.325 -0.1500  0.0360  0.4374
  266TMC3     C 4079   3.494   3.383  15.402  0.4487 -1.1049  0.4071
  266TMC3     O 4080   3.457   3.334  15.507 -0.1529 -0.1426 -0.5987
  266TMC3     H 4081   3.422   3.556  15.579 -2.7124 -1.4122  0.5815
  266TMC3    H1 4082   3.468   3.507  15.156  1.4698  0.3754  0.0929
  266TMC3    H2 4083   3.169   3.770  15.299 -0.2114  0.3902  1.5703
  266TMC3    C7 4084   3.305   3.717  15.097 -0.3171 -0.7526 -0.9539
  266TMC3    C8 4085   3.213   3.726  15.565 -0.3966 -0.1978  0.4131
  266TMC3    O1 4086   3.205   3.773  15.061  0.0320 -0.4165 -0.0676
  266TMC3    O2 4087   3.097   3.753  15.542  0.0698  0.4243 -0.0542
  267MPD2     C 4088   0.798   0.112  17.610 -0.0037 -0.6679  1.0475
  267MPD2    C1 4089   0.904   0.183  17.557 -0.3489 -0.1525 -0.1270
  267MPD2    C2 4090   0.881   0.248  17.437  0.0311  0.3612  0.5240
  267MPD2    C3 4091   0.767   0.226  17.359 -0.1033 -0.3250 -0.4202
  267MPD2    C4 4092   0.663   0.155  17.415 -0.6388  0.5013  0.2974
  267MPD2    C5 4093   0.677   0.098  17.541 -0.2704 -0.3676  0.0593
  267MPD2     H 4094   0.961   0.297  17.382 -1.1048  0.3184 -1.1370
  267MPD2    H1 4095   0.568   0.151  17.363 -1.6512 -2.5617  2.3774
  267MPD2    H2 4096   0.809   0.057  17.703 -3.6429 -0.3020  1.6875
  267MPD2    H3 4097   0.594   0.049  17.592 -1.4309 -0.4053 -1.8392
  267MPD2     N 4098   0.750   0.288  17.225 -0.0149  0.2651  0.3376
  267MPD2    H5 4099   0.665   0.266  17.175  1.0037  1.6297 -2.0400
  267MPD2    N1 4100   1.025   0.180  17.622  0.4170  0.4694  0.0987
  267MPD2    H7 4101   1.026   0.144  17.717  0.7880 -1.6019 -0.6992
  268TMC3    C1 4102   1.256   0.220  17.661 -0.2476 -0.4617 -1.0843
  268TMC3    C2 4103   1.368   0.286  17.612 -0.0269  0.6764  0.2218
  268TMC3    C3 4104   1.489   0.221  17.608 -0.5466 -0.0498 -0.4626
  268TMC3    C4 4105   1.271   0.097  17.724  0.0977  0.7104  0.0628
  268TMC3    C5 4106   1.401   0.049  17.736  0.0441  0.0493 -0.7645
  268TMC3    C6 4107   1.512   0.104  17.669 -0.5458 -0.2550 -0.0686
  268TMC3     C 4108   1.138   0.244  17.577  0.4068  0.0663  0.1270
  268TMC3     O 4109   1.153   0.327  17.487  0.1366 -0.0363  0.6378
  268TMC3     H 4110   1.358   0.389  17.578  0.7815  0.5887 -0.2828
  268TMC3    H1 4111   1.180   0.042   0.003  0.0822  0.7881  0.1967
  268TMC3    H2 4112   1.607   0.053  17.671  0.3981  1.5376  0.1164
  268TMC3    C7 4113   1.427   4.695   0.113  0.1330 -0.6444 -0.3374
  268TMC3    C8 4114   1.587   0.278  17.519 -0.7767  0.2671  0.7364
  268TMC3    O1 4115   1.538   4.648   0.126 -0.1016 -0.2034  0.0970
  268TMC3    O2 4116   1.710   0.282  17.548  0.1815  0.3128  0.3196
  269MPD2     C 4117   1.657   3.955  15.371 -0.2411  0.0326  0.8847
  269MPD2    C1 4118   1.524   3.962  15.406  0.0576  0.2823 -0.6275
  269MPD2    C2 4119   1.456   4.087  15.398  0.0129  0.7599 -0.1678
  269MPD2    C3 4120   1.522   4.200  15.351  0.2777  0.2582  0.3668
  269MPD2    C4 4121   1.654   4.181  15.304  0.0424 -0.6685  0.4772
  269MPD2    C5 4122   1.719   4.062  15.314 -0.5143 -0.2581 -0.3260
  269MPD2     H 4123   1.362   4.102  15.449  0.8384  0.2953  1.5035
  269MPD2    H1 4124   1.708   4.267  15.266 -3.2919  0.8955 -0.6858
  269MPD2    H2 4125   1.714   3.862  15.374  1.5337  1.1306  0.8480
  269MPD2    H3 4126   1.824   4.054  15.289 -0.0184 -2.3213  2.4127
  269MPD2     N 4127   1.448   4.321  15.344 -0.1355  0.2139 -0.3719
  269MPD2    H5 4128   1.358   4.320  15.390  0.3394 -1.4890  0.5396
  269MPD2    N1 4129   1.463   3.843  15.458 -0.1064  0.1762 -0.0623
  269MPD2    H7 4130   1.524   3.767  15.487  0.1938  0.5523  0.2863
  270TMC3    C1 4131   1.287   3.704  15.531 -0.4237  1.0926 -0.0282
  270TMC3    C2 4132   1.171   3.644  15.488  0.2971  0.0054 -0.1773
  270TMC3    C3 4133   1.165   3.506  15.492 -1.1000 -0.0421  0.6660
  270TMC3    C4 4134   1.390   3.632  15.587  0.5843 -0.0159 -0.0514
  270TMC3    C5 4135   1.375   3.498  15.579  0.4852 -0.1598 -0.1475
  270TMC3    C6 4136   1.260   3.431  15.552 -0.2851  0.2364  0.0819
  270TMC3     C 4137   1.325   3.825  15.469 -0.0506  0.4635 -0.5295
  270TMC3     O 4138   1.237   3.895  15.439  0.0674 -0.6913 -0.0305
  270TMC3     H 4139   1.087   3.702  15.452 -0.7181  0.4528  2.9390
  270TMC3    H1 4140   1.474   3.680  15.636 -0.6227  0.5570  1.4665
  270TMC3    H2 4141   1.261   3.322  15.553 -2.5224  0.2249 -0.4039
  270TMC3    C7 4142   1.494   3.417  15.588 -0.6191  0.4700  0.1816
  270TMC3    C8 4143   1.128   3.435  15.373 -0.0766  0.5267 -0.2601
  270TMC3    O1 4144   1.588   3.462  15.653 -0.7303  0.5992 -0.2612
  270TMC3    O2 4145   1.174   3.328  15.344 -0.5110  0.3509 -0.3641
  271MPD2     C 4146   0.670   3.307  13.612  0.0385  0.1747 -0.0539
  271MPD2    C1 4147   0.680   3.383  13.729 -0.7549 -0.2818 -0.3954
  271MPD2    C2 4148   0.624   3.508  13.728  0.8644 -0.0092 -0.6961
  271MPD2    C3 4149   0.573   3.572  13.610 -0.3275 -0.5111  0.2706
  271MPD2    C4 4150   0.559   3.490  13.506 -0.0122  0.4854 -0.4952
  271MPD2    C5 4151   0.603   3.361  13.509 -0.1092 -0.1370  1.1047
  271MPD2     H 4152   0.634   3.562  13.821  0.0538  2.1332 -1.8535
  271MPD2    H1 4153   0.524   3.534  13.413 -1.6065  0.1827 -0.0468
  271MPD2    H2 4154   0.698   3.203  13.599  2.5421  1.2093 -2.7752
  271MPD2    H3 4155   0.603   3.306  13.415  0.7230  1.4769  0.1459
  271MPD2     N 4156   0.519   3.703  13.603  0.0598 -0.5420  0.3262
  271MPD2    H5 4157   0.472   3.733  13.518 -0.1974  0.2959  0.7592
  271MPD2    N1 4158   0.741   3.340  13.845 -0.2374 -0.0882 -0.6885
  271MPD2    H7 4159   0.746   3.411  13.917 -0.2438 -0.9318  0.1486
  272TMC3    C1 4160   0.856   3.197  13.998 -0.1757 -0.1679  0.8068
  272TMC3    C2 4161   0.985   3.144  14.022 -0.7708  0.6261  0.2594
  272TMC3    C3 4162   1.022   3.116  14.157  0.9704  0.0599  0.7297
  272TMC3    C4 4163   0.782   3.260  14.095 -0.0247 -0.3166 -0.9751
  272TMC3    C5 4164   0.840   3.256  14.221 -0.1461  0.6946  0.0083
  272TMC3    C6 4165   0.948   3.177  14.260 -0.7478 -0.2778  0.1040
  272TMC3     C 4166   0.805   3.214  13.865  0.4821  0.6160 -0.0690
  272TMC3     O 4167   0.844   3.140  13.778  0.2323 -0.5190  0.5081
  272TMC3     H 4168   1.058   3.116  13.947 -2.4505 -0.8388 -0.8154
  272TMC3    H1 4169   0.682   3.298  14.074  0.2170  0.0242 -1.5224
  272TMC3    H2 4170   0.972   3.172  14.366  0.2557 -0.3578 -0.1369
  272TMC3    C7 4171   0.768   3.342  14.318 -0.0812  0.0871  0.3105
  272TMC3    C8 4172   1.164   3.081  14.178 -0.4555  0.1890 -0.1062
  272TMC3    O1 4173   0.660   3.380  14.285 -0.3656 -0.2430  0.0931
  272TMC3    O2 4174   1.233   3.070  14.075 -0.2405 -0.5902 -0.4888
  273MPD2     C 4175   1.753   1.449  11.718 -0.0980 -0.3690  0.8656
  273MPD2    C1 4176   1.784   1.580  11.746  0.0743  0.4700 -0.7859
  273MPD2    C2 4177   1.806   1.674  11.643  0.9262  0.7229  0.1907
  273MPD2    C3 4178   1.805   1.634  11.513 -0.0043 -0.1450  0.0563
  273MPD2    C4 4179   1.772   1.502  11.490 -0.6327  0.2083  0.0106
  273MPD2    C5 4180   1.746   1.411  11.588 -0.9780  0.3960 -0.0768
  273MPD2     H 4181   1.835   1.777  11.660 -0.9979  1.2114  0.5119
  273MPD2    H1 4182   1.763   1.472  11.386  0.1622 -0.3714  0.1147
  273MPD2    H2 4183   1.721   1.379  11.794 -1.2921 -1.7313 -0.8947
  273MPD2    H3 4184   1.706   1.314  11.560  0.3863 -0.0033 -0.6171
  273MPD2     N 4185   1.850   1.713  11.405  0.0945 -0.2691 -0.3941
  273MPD2    H5 4186   1.849   1.670  11.313  0.7412 -0.9372 -0.0820
  273MPD2    N1 4187   1.791   1.622  11.886 -0.3046 -0.1992  0.1419
  273MPD2    H7 4188   1.787   1.555  11.961 -0.6055 -0.5226 -0.1646
  274TMC3    C1 4189   1.931   1.899  11.282  0.1269 -0.1235 -0.3868
  274TMC3    C2 4190   1.838   1.893  11.182 -0.3089 -0.5827  0.7812
  274TMC3    C3 4191   1.846   1.989  11.087  0.0733  0.7205 -0.8500
  274TMC3    C4 4192   2.030   1.998  11.292  0.0792  0.4081 -0.0097
  274TMC3    C5 4193   2.037   2.092  11.192  0.0280  0.2690 -0.5987
  274TMC3    C6 4194   1.949   2.086  11.088  0.3398 -0.4329  0.0196
  274TMC3     C 4195   1.899   1.842  11.415 -0.3106 -0.4128 -0.1199
  274TMC3     O 4196   1.923   1.911  11.514 -0.1964  0.4449 -0.4957
  274TMC3     H 4197   1.768   1.811  11.177  0.1021 -1.0125  1.9335
  274TMC3    H1 4198   2.093   1.993  11.381 -1.4481  0.0011  1.0434
  274TMC3    H2 4199   1.933   2.183  11.043  0.0171 -0.2703  0.4829
  274TMC3    C7 4200   2.058   2.223  11.246 -0.3349  0.5921  0.0245
  274TMC3    C8 4201   1.775   1.965  10.960 -0.2647  0.2453 -0.2664
  274TMC3    O1 4202   1.968   2.304  11.242  0.1884  0.4244 -0.3145
  274TMC3    O2 4203   1.687   1.880  10.963  0.6668 -0.3151  0.3372
  275MPD2     C 4204   1.911   0.020  14.437  0.4520  0.2842  0.4126
  275MPD2    C1 4205   1.956   4.628  14.410 -0.1427  0.3949 -0.5093
  275MPD2    C2 4206   1.872   4.541  14.349  0.8797 -0.1259  0.4537
  275MPD2    C3 4207   1.749   4.573  14.303 -0.2386  0.2008 -0.5275
  275MPD2    C4 4208   1.706   4.701  14.332 -0.2415  0.1944  0.0120
  275MPD2    C5 4209   1.795   0.057  14.384  0.1127 -0.2305 -0.5807
  275MPD2     H 4210   1.905   4.438  14.339  2.7253  0.4858  0.2278
  275MPD2    H1 4211   1.611   0.004  14.296 -0.9000  1.0493  2.7049
  275MPD2    H2 4212   1.976   0.090  14.488 -1.2825  1.2861  1.2561
  275MPD2    H3 4213   1.763   0.160  14.392 -2.7808 -1.2705  1.0336
  275MPD2     N 4214   1.661   4.485  14.232 -0.7112  0.7153 -0.2650
  275MPD2    H5 4215   1.574   4.526  14.198 -2.3091 -2.6571 -0.2469
  275MPD2    N1 4216   2.080   4.575  14.457  0.0103  0.2258 -0.3929
  275MPD2    H7 4217   2.100   4.478  14.435  2.5790  0.6227  0.2253
  276TMC3    C1 4218   2.300   4.578  14.556  0.0436  0.2668  0.5001
  276TMC3    C2 4219   2.316   4.440  14.535  0.3163 -0.7635 -0.2952
  276TMC3    C3 4220   2.414   4.379  14.604 -0.7137  0.0428  0.1867
  276TMC3    C4 4221   2.387   4.652  14.626  0.2344 -0.7264 -0.2497
  276TMC3    C5 4222   2.492   4.587  14.685 -0.5299 -0.0274  0.0017
  276TMC3    C6 4223   2.508   4.447  14.673 -0.0382 -0.2565  0.2972
  276TMC3     C 4224   2.179   4.648  14.524 -0.2148  0.1598  0.8510
  276TMC3     O 4225   2.182   0.034  14.549 -0.3383  0.3155 -0.7619
  276TMC3     H 4226   2.235   4.380  14.496  1.0847 -2.1956  0.3184
  276TMC3    H1 4227   2.389   0.024  14.623 -0.6991 -0.7841 -2.9105
  276TMC3    H2 4228   2.577   4.387  14.731 -0.4910 -1.8135 -0.7857
  276TMC3    C7 4229   2.592   4.659  14.765  0.3983  0.2676  0.1113
  276TMC3    C8 4230   2.387   4.240  14.658 -0.0679  0.1192 -0.2044
  276TMC3    O1 4231   2.552   0.013  14.836  0.1876  0.1903 -0.3545
  276TMC3    O2 4232   2.435   4.221  14.769  0.0674  0.3589 -0.2138
  277MPD2     C 4233   4.124   3.718  13.033  0.9370  0.6197  0.6700
  277MPD2    C1 4234   3.994   3.722  13.073  0.2779 -0.6337  0.4732
  277MPD2    C2 4235   3.953   3.631  13.172 -0.2703  0.4112 -0.1212
  277MPD2    C3 4236   4.040   3.527  13.210  0.5035  0.5128  0.9701
  277MPD2    C4 4237   4.167   3.523  13.155 -0.7796 -0.2908  0.4915
  277MPD2    C5 4238   4.208   3.618  13.067  0.1268 -0.0790  0.1438
  277MPD2     H 4239   3.855   3.638  13.218 -0.6885  0.7218 -1.0816
  277MPD2    H1 4240   4.236   3.446  13.186  2.9965  2.8367 -0.1260
  277MPD2    H2 4241   4.155   3.780  12.950 -3.8574 -0.0688 -1.6512
  277MPD2    H3 4242   4.308   3.614  13.025 -0.3050  1.9210 -1.0578
  277MPD2     N 4243   3.989   3.436  13.306  0.7056 -0.3512  0.5439
  277MPD2    H5 4244   3.897   3.467  13.336  0.8421 -0.3797  0.9982
  277MPD2    N1 4245   3.915   3.822  13.013  0.1612 -0.1566 -0.4306
  277MPD2    H7 4246   3.961   3.879  12.942  0.1079  1.4668  0.8577
  278TMC3    C1 4247   3.977   3.233  13.433 -0.2714  0.0268 -0.5598
  278TMC3    C2 4248   3.983   3.100  13.417  0.2245 -0.1947 -0.5061
  278TMC3    C3 4249   3.880   3.016  13.461  0.8678  0.2067  0.0460
  278TMC3    C4 4250   3.870   3.289  13.504 -0.2295 -0.4113 -0.4378
  278TMC3    C5 4251   3.775   3.203  13.549 -0.2214  0.7311  0.1046
  278TMC3    C6 4252   3.774   3.066  13.533 -0.3660 -0.0892 -0.3058
  278TMC3     C 4253   4.054   3.318  13.342  0.1990  0.2383  0.7907
  278TMC3     O 4254   4.160   3.269  13.305 -0.2590 -0.0538  0.0866
  278TMC3     H 4255   4.070   3.059  13.368 -0.1539 -1.4635 -0.1430
  278TMC3    H1 4256   3.846   3.392  13.528 -0.5663 -0.7229  0.6156
  278TMC3    H2 4257   3.697   3.002  13.575 -1.4628  2.1858  1.1659
  278TMC3    C7 4258   3.666   3.267  13.615 -0.2304  0.4730 -0.0141
  278TMC3    C8 4259   3.919   2.879  13.464 -0.6044 -0.4089 -0.0854
  278TMC3    O1 4260   3.707   3.354  13.690 -0.0482  0.9049  0.1953
  278TMC3    O2 4261   4.035   2.847  13.470 -0.9382  0.3119 -0.4662
  279MPD2     C 4262   2.884   3.379   0.599  0.4719 -0.0159  0.1906
  279MPD2    C1 4263   2.857   3.343   0.470  0.4150  0.1965  0.3187
  279MPD2    C2 4264   2.921   3.238   0.414 -0.2047  0.2101 -0.5766
  279MPD2    C3 4265   3.017   3.167   0.487  0.4175 -0.6378  0.2956
  279MPD2    C4 4266   3.049   3.205   0.615  0.3705  0.5484 -0.2086
  279MPD2    C5 4267   2.967   3.304   0.670  0.4018 -0.0574  0.3025
  279MPD2     H 4268   2.879   3.194   0.324 -1.2480  2.0078 -0.9647
  279MPD2    H1 4269   3.116   3.146   0.677  0.1770 -1.2213 -1.6898
  279MPD2    H2 4270   2.849   3.472   0.644 -2.8738 -1.1713  0.0196
  279MPD2    H3 4271   2.984   3.329   0.774 -1.5100 -0.7663  0.8008
  279MPD2     N 4272   3.081   3.051   0.443 -0.2874  0.7211 -0.0411
  279MPD2    H5 4273   3.129   3.000   0.516  0.5402  1.4544 -0.0710
  279MPD2    N1 4274   2.770   3.412   0.382  0.6297 -0.9500 -0.5425
  279MPD2    H7 4275   2.761   3.385   0.285 -4.7110 -0.6949 -0.0917
  280TMC3    C1 4276   2.588   3.544   0.328 -0.4430  0.0087 -0.1992
  280TMC3    C2 4277   2.569   3.467   0.215 -0.2803 -1.0550  0.1315
  280TMC3    C3 4278   2.455   3.495   0.133  0.3131  0.3063  0.0567
  280TMC3    C4 4279   2.502   3.648   0.355 -0.0163 -0.1681  0.2521
  280TMC3    C5 4280   2.417   3.692   0.259  0.1272 -0.2236 -0.1900
  280TMC3    C6 4281   2.384   3.610   0.154 -0.4098 -0.4567  0.7088
  280TMC3     C 4282   2.678   3.499   0.431  0.6768  0.5989  0.5075
  280TMC3     O 4283   2.651   3.542   0.545  0.7015  0.1220 -0.3956
  280TMC3     H 4284   2.625   3.378   0.188  0.6859 -0.2284 -0.6083
  280TMC3    H1 4285   2.537   3.717   0.431  0.5219  0.5882 -0.6751
  280TMC3    H2 4286   2.294   3.621   0.095  0.4273 -0.8691 -0.6494
  280TMC3    C7 4287   2.427   3.830   0.220  0.2579 -1.0424 -0.4122
  280TMC3    C8 4288   2.464   3.473  17.730 -0.5267  0.0615  0.2538
  280TMC3    O1 4289   2.466   3.910   0.303  0.2014 -0.0573 -0.1317
  280TMC3    O2 4290   2.442   3.577  17.667 -0.3035 -0.1643 -0.5252
  281TMC3    C1 4291   1.808   4.017  13.494  1.1537 -0.9264 -0.5158
  281TMC3    C2 4292   1.919   4.044  13.413 -0.1386 -0.5664 -0.1643
  281TMC3    C3 4293   1.985   3.938  13.358 -0.1227  0.4393  0.4898
  281TMC3    C4 4294   1.781   3.884  13.531 -0.2944 -0.3474  0.1343
  281TMC3    C5 4295   1.866   3.787  13.494 -0.7142 -0.1205 -0.0327
  281TMC3    C6 4296   1.968   3.808  13.398  0.6123  0.1391 -0.1346
  281TMC3     C 4297   1.684   4.083  13.447  0.2312 -0.1256  0.2845
  281TMC3     O 4298   1.593   4.001  13.432 -0.3473 -0.3284  0.0478
  281TMC3     H 4299   1.946   4.143  13.379  0.5837 -0.3589  1.0100
  281TMC3    H1 4300   1.695   3.862  13.593 -2.0238  1.2057 -1.7239
  281TMC3    H2 4301   2.025   3.733  13.346 -1.7322 -1.2927 -0.6519
  281TMC3    C7 4302   1.806   3.655  13.485 -0.5560  0.2525 -0.2434
  281TMC3    C8 4303   2.106   3.961  13.280 -0.0912  0.5470 -0.2485
  281TMC3    O1 4304   1.884   3.568  13.466  0.3782  0.0152  0.3262
  281TMC3    O2 4305   2.201   3.885  13.297 -0.2784  0.0451  0.6096
  282MPD2     C 4306   3.728   0.143  14.794 -0.0431  0.3917 -0.1073
  282MPD2    C1 4307   3.601   0.200  14.768 -0.6601  0.5351  0.2267
  282MPD2    C2 4308   3.534   0.153  14.661 -0.1897 -0.2855 -0.5012
  282MPD2    C3 4309   3.575   0.045  14.587 -0.1984  0.2197 -0.3393
  282MPD2    C4 4310   3.702   4.732  14.602  0.2637 -0.2359 -0.1743
  282MPD2    C5 4311   3.779   0.035  14.707 -0.0080  0.5359 -0.2825
  282MPD2     H 4312   3.438   0.196  14.638  0.1532  0.1608 -1.0961
  282MPD2    H1 4313   3.734   4.651  14.537 -1.6180 -2.1127  1.2136
  282MPD2    H2 4314   3.791   0.174  14.876 -0.1649 -1.0472  0.5386
  282MPD2    H3 4315   3.878   4.728  14.713 -0.8647 -1.7333 -2.5386
  282MPD2     N 4316   3.491   0.006  14.477 -0.3824  0.0061  0.5940
  282MPD2    H5 4317   3.396   0.041  14.468 -0.1496  0.5846  0.3224
  282MPD2    N1 4318   3.541   0.305  14.837 -0.2226  0.4365 -0.3176
  282MPD2    H7 4319   3.443   0.325  14.818 -0.9619 -2.0730  0.7798
  283TMC3    C1 4320   3.500   0.441  15.026  0.5126 -0.5060 -0.2503
  283TMC3    C2 4321   3.530   0.574  15.067 -0.0030  0.0307  0.1090
  283TMC3    C3 4322   3.502   0.614  15.195  0.5409 -0.4242 -0.6104
  283TMC3    C4 4323   3.464   0.352  15.117 -0.1722  1.3546 -0.4891
  283TMC3    C5 4324   3.445   0.391  15.251 -0.1888 -0.0367 -0.7250
  283TMC3    C6 4325   3.458   0.519  15.287  0.3755 -0.5735  0.2413
  283TMC3     C 4326   3.603   0.380  14.935 -0.4404 -0.0997 -0.1990
  283TMC3     O 4327   3.721   0.393  14.965 -0.0390 -0.3216  0.4074
  283TMC3     H 4328   3.560   0.643  14.989  0.8181 -0.5356 -0.0732
  283TMC3    H1 4329   3.464   0.249  15.081  1.2792  0.7320  1.2773
  283TMC3    H2 4330   3.427   0.542  15.388 -1.4727  2.2294 -0.9736
  283TMC3    C7 4331   3.418   0.289  15.350 -0.5431 -0.1047  0.4781
  283TMC3    C8 4332   3.546   0.745  15.242  0.6102  0.0934  0.2554
  283TMC3    O1 4333   3.429   0.324  15.466 -0.5405 -0.0624  0.3506
  283TMC3    O2 4334   3.556   0.753  15.362  0.5837 -0.0084  0.4991
  284MPD2     C 4335   2.052   3.967  12.359  0.3109 -1.0146 -0.3237
  284MPD2    C1 4336   1.956   3.978  12.265 -0.2789  0.1081 -0.6534
  284MPD2    C2 4337   1.853   3.882  12.264 -0.8205  0.8690  0.2531
  284MPD2    C3 4338   1.835   3.784  12.359  0.6310 -0.2374  0.3604
  284MPD2    C4 4339   1.930   3.770  12.453 -0.6910  0.0951  0.0543
  284MPD2    C5 4340   2.035   3.863  12.447  0.3490  0.3386  0.6958
  284MPD2     H 4341   1.784   3.887  12.181  0.4909 -0.0628 -0.8876
  284MPD2    H1 4342   1.934   3.686  12.521 -0.3936  1.7222  2.0575
  284MPD2    H2 4343   2.147   4.019  12.352 -0.1667 -0.2522 -1.1951
  284MPD2    H3 4344   2.110   3.847  12.524  0.5725  1.3442  0.6839
  284MPD2     N 4345   1.730   3.687  12.359 -0.0588 -0.7207 -0.2755
  284MPD2    H5 4346   1.731   3.625  12.440  0.9655 -3.0921 -2.0947
  284MPD2    N1 4347   1.949   4.081  12.164 -0.1189  0.0908 -0.3179
  284MPD2    H7 4348   1.877   4.079  12.093 -0.8972  1.1604  0.4440
  285TMC3    C1 4349   1.971   4.297  12.070  0.5149  0.2614 -0.2684
  285TMC3    C2 4350   1.903   4.258  11.956  0.0304  0.2167 -0.0865
  285TMC3    C3 4351   1.883   4.351  11.860 -0.7575  0.6155  0.2875
  285TMC3    C4 4352   2.006   4.423  12.094  0.3335  0.3184  0.5095
  285TMC3    C5 4353   1.976   4.511  11.994 -0.4884 -0.5499  0.2511
  285TMC3    C6 4354   1.908   4.478  11.875 -0.7418 -0.2430 -0.1123
  285TMC3     C 4355   2.026   4.196  12.155 -0.1930  0.2607 -0.3524
  285TMC3     O 4356   2.127   4.220  12.220 -0.4320 -0.0127  0.0848
  285TMC3     H 4357   1.914   4.152  11.936  1.1412 -0.1832  2.6157
  285TMC3    H1 4358   2.065   4.446  12.182  1.5003  1.5428 -0.6020
  285TMC3    H2 4359   1.896   4.549  11.794  0.2319  0.1749  0.1036
  285TMC3    C7 4360   2.055   4.632  11.984 -0.0604 -0.3761 -0.1386
  285TMC3    C8 4361   1.868   4.297  11.727 -0.4480  0.0104 -0.2145
  285TMC3    O1 4362   2.146   4.646  12.062  0.0515  0.0380  0.0267
  285TMC3    O2 4363   1.829   4.178  11.722  0.0696 -0.6407 -0.1259
  286MPD2     C 4364   2.385   3.104   1.699  0.3938  0.1632  0.6657
  286MPD2    C1 4365   2.320   3.031   1.600 -0.2798 -0.0139  0.2636
  286MPD2    C2 4366   2.380   2.922   1.547  0.4552 -0.4962  0.1201
  286MPD2    C3 4367   2.499   2.872   1.597 -0.5551  0.2701  0.4423
  286MPD2    C4 4368   2.563   2.944   1.696  0.2623 -0.2791 -0.5755
  286MPD2    C5 4369   2.509   3.064   1.733  0.0544  0.4864 -0.3105
  286MPD2     H 4370   2.329   2.877   1.462 -0.6197 -0.9352  1.0044
  286MPD2    H1 4371   2.657   2.906   1.733  1.2742  1.6465 -1.1871
  286MPD2    H2 4372   2.345   3.197   1.738 -2.9363 -0.0612 -2.1639
  286MPD2    H3 4373   2.570   3.121   1.803 -0.5991  0.8856 -0.0686
  286MPD2     N 4374   2.579   2.769   1.538 -0.2050 -0.1677 -0.2669
  286MPD2    H5 4375   2.660   2.735   1.589 -0.7559 -1.1936 -0.0664
  286MPD2    N1 4376   2.205   3.075   1.533 -0.3270  0.7945  0.0255
  286MPD2    H7 4377   2.179   3.011   1.459 -2.1805 -1.7393  2.8628
  287TMC3    C1 4378   2.633   2.578   1.402 -0.4222  0.9817  0.0035
  287TMC3    C2 4379   2.583   2.468   1.323  0.2342  0.4139 -0.5116
  287TMC3    C3 4380   2.667   2.391   1.259  0.1441 -0.8993 -0.5248
  287TMC3    C4 4381   2.765   2.600   1.416 -0.0590 -0.6831 -0.1586
  287TMC3    C5 4382   2.845   2.515   1.354 -0.2901  0.0027 -0.4619
  287TMC3    C6 4383   2.802   2.406   1.273 -0.2730  0.3998 -0.9013
  287TMC3     C 4384   2.537   2.682   1.438 -0.2309 -0.0762  0.4457
  287TMC3     O 4385   2.431   2.674   1.387 -0.1587  0.2360 -0.6594
  287TMC3     H 4386   2.475   2.457   1.320  0.1043  1.5028 -0.2174
  287TMC3    H1 4387   2.804   2.680   1.479  0.5348 -0.4184 -0.8744
  287TMC3    H2 4388   2.871   2.328   1.240  0.4577  0.0742  1.4024
  287TMC3    C7 4389   2.988   2.521   1.386 -0.1716  0.5244  0.2887
  287TMC3    C8 4390   2.622   2.298   1.154  0.6151  0.2386  0.0753
  287TMC3    O1 4391   3.017   2.591   1.482  0.6444  0.6123  0.5756
  287TMC3    O2 4392   2.698   2.201   1.133  0.0981 -0.2208  0.3924
  288TMC3    C1 4393   3.492   2.568  14.486  0.5589 -0.2805 -0.5543
  288TMC3    C2 4394   3.412   2.547  14.598 -0.0219  0.2223 -0.1888
  288TMC3    C3 4395   3.421   2.636  14.699  0.3919 -0.0785 -0.2651
  288TMC3    C4 4396   3.571   2.681  14.472 -0.4956 -0.2927 -0.3601
  288TMC3    C5 4397   3.568   2.766  14.575 -0.1868 -0.2201  0.4685
  288TMC3    C6 4398   3.500   2.750  14.691  0.0631  0.2084  0.2233
  288TMC3     C 4399   3.471   2.491  14.362 -0.0054 -0.1878  0.2006
  288TMC3     O 4400   3.526   2.524  14.257 -0.4947  0.4028 -0.3604
  288TMC3     H 4401   3.351   2.461  14.622  0.0519  0.4447  0.7850
  288TMC3    H1 4402   3.640   2.685  14.388 -2.1651 -1.8522 -1.7980
  288TMC3    H2 4403   3.493   2.820  14.773  0.2549  1.9254 -1.2242
  288TMC3    C7 4404   3.641   2.889  14.569  0.6205  0.1000  0.7133
  288TMC3    C8 4405   3.390   2.599  14.835 -0.6373  0.0740 -0.4288
  288TMC3    O1 4406   3.655   2.944  14.678  0.4553  0.7611  0.0160
  288TMC3    O2 4407   3.453   2.654  14.928  0.3776 -0.1609 -0.1256
  289MPD2     C 4408   4.194   2.161  14.399 -0.1248  0.2268 -0.1601
  289MPD2    C1 4409   4.146   2.288  14.361 -1.1686  0.5405 -0.4806
  289MPD2    C2 4410   4.044   2.296  14.274 -0.2750  0.6721 -0.1748
  289MPD2    C3 4411   3.973   2.186  14.231 -0.9378  0.6212  0.7909
  289MPD2    C4 4412   4.012   2.060  14.275 -0.0620 -0.6399 -0.1581
  289MPD2    C5 4413   4.129   2.051  14.353 -0.4938  0.2418 -0.5496
  289MPD2     H 4414   4.007   2.390  14.233 -0.0257  1.3967  1.2357
  289MPD2    H1 4415   3.968   1.965  14.247  1.8128 -2.5436  3.3818
  289MPD2    H2 4416   4.281   2.151  14.463  0.4018 -0.9670 -1.0624
  289MPD2    H3 4417   4.146   1.950  14.389  1.1872  0.6347 -0.2597
  289MPD2     N 4418   3.861   2.183  14.148  0.1346 -0.8163  0.4543
  289MPD2    H5 4419   3.817   2.094  14.132 -1.2715 -0.0177 -0.0736
  289MPD2    N1 4420   4.210   2.406  14.407 -0.0555 -0.2526 -0.2774
  289MPD2    H7 4421   4.276   2.392  14.482 -1.1265  1.6686  1.0134
  290TMC3    C1 4422   3.701   2.253  13.994 -0.3179  0.5573 -0.2495
  290TMC3    C2 4423   3.618   2.349  13.955  0.1864  0.2465  0.0926
  290TMC3    C3 4424   3.536   2.333  13.847  0.7888 -0.5509  0.4796
  290TMC3    C4 4425   3.689   2.122  13.939 -0.2276 -0.3303  0.2942
  290TMC3    C5 4426   3.608   2.112  13.830  0.0641 -0.0910  0.0592
  290TMC3    C6 4427   3.532   2.214  13.781  0.0110  0.1210  0.1544
  290TMC3     C 4428   3.806   2.292  14.084  0.2889 -0.0737  0.4530
  290TMC3     O 4429   3.834   2.413  14.084 -0.3710  0.0921 -0.5632
  290TMC3     H 4430   3.614   2.438  14.018 -0.1428  0.0782  0.3098
  290TMC3    H1 4431   3.746   2.039  13.980 -0.1862 -0.9955 -1.0765
  290TMC3    H2 4432   3.457   2.206  13.702  0.4039  0.9252 -0.2952
  290TMC3    C7 4433   3.583   1.978  13.789 -0.1380  0.0948  0.7060
  290TMC3    C8 4434   3.441   2.436  13.804 -0.6807  0.5619 -0.1035
  290TMC3    O1 4435   3.588   1.886  13.874 -0.3191  0.2144 -0.2060
  290TMC3    O2 4436   3.342   2.388  13.750 -0.1283 -0.1687  0.1997
  291MPD2     C 4437   3.014   2.117   0.321 -0.0467  0.2511 -0.0144
  291MPD2    C1 4438   3.119   2.034   0.371  0.2986 -0.2995  0.1723
  291MPD2    C2 4439   3.241   2.090   0.403 -0.0545  0.0126 -0.2788
  291MPD2    C3 4440   3.252   2.228   0.376 -0.2635  0.2863  0.2029
  291MPD2    C4 4441   3.161   2.306   0.315  0.5967 -0.0267  0.0066
  291MPD2    C5 4442   3.044   2.245   0.278 -0.3409 -1.2638  0.9705
  291MPD2     H 4443   3.320   2.031   0.448  1.2519  0.7590 -1.5977
  291MPD2    H1 4444   3.177   2.411   0.296 -1.2636  0.4845  1.2532
  291MPD2    H2 4445   2.917   2.069   0.326  0.0192  0.2435  1.2034
  291MPD2    H3 4446   2.973   2.311   0.229 -0.7495 -0.9677  1.9641
  291MPD2     N 4447   3.367   2.302   0.411  0.8856 -0.1691  0.1618
  291MPD2    H5 4448   3.356   2.403   0.404  0.6455 -0.3374 -1.9599
  291MPD2    N1 4449   3.098   1.896   0.405 -0.1179  0.5806  0.0615
  291MPD2    H7 4450   3.177   1.851   0.451  0.2952  0.7594 -0.4643
  292TMC3    C1 4451   3.026   1.681   0.369 -0.7658  0.2483  0.0057
  292TMC3    C2 4452   3.079   1.644   0.482  0.0387 -0.1852 -0.2565
  292TMC3    C3 4453   3.087   1.509   0.502  0.1879 -0.5057  0.4202
  292TMC3    C4 4454   2.963   1.599   0.280  0.2805 -0.8544 -0.7458
  292TMC3    C5 4455   2.974   1.465   0.303  0.9934  0.4979  0.5701
  292TMC3    C6 4456   3.041   1.424   0.411  0.7567 -0.8336  0.8732
  292TMC3     C 4457   3.006   1.823   0.335 -0.4120 -0.1296 -0.0120
  292TMC3     O 4458   2.938   1.857   0.237 -0.7512 -0.0617 -0.0093
  292TMC3     H 4459   3.115   1.704   0.564  0.8587 -1.6357  0.4482
  292TMC3    H1 4460   2.927   1.629   0.182 -3.7178 -1.4619  0.5257
  292TMC3    H2 4461   3.060   1.319   0.429  0.2128 -0.8213  1.4956
  292TMC3    C7 4462   2.927   1.366   0.218 -0.8804 -0.2210  0.2603
  292TMC3    C8 4463   3.096   1.468   0.634 -1.0175 -0.2958  0.5371
  292TMC3    O1 4464   2.983   1.255   0.209  0.7304 -0.2973  0.1465
  292TMC3    O2 4465   3.161   1.536   0.714  0.3718  0.0377 -0.2480
  293MPD2     C 4466   4.603   3.113  12.527 -0.2798  0.2103  0.0218
  293MPD2    C1 4467   4.601   3.032  12.636  0.4191  1.4200 -0.0437
  293MPD2    C2 4468   4.677   3.080  12.747  0.2696  0.3193  0.3813
  293MPD2    C3 4469   4.728   3.204  12.751 -0.1556 -0.6848 -0.7823
  293MPD2    C4 4470   4.734   3.278  12.636  0.5365 -0.5788 -0.0409
  293MPD2    C5 4471   4.665   3.234  12.526 -0.3364 -0.0318  0.3610
  293MPD2     H 4472   4.687   3.025  12.840  0.9821  0.6759  0.5140
  293MPD2    H1 4473   0.057   3.370  12.636  0.2609 -0.4088  1.1914
  293MPD2    H2 4474   4.559   3.080  12.433  3.1100  3.0123 -2.5671
  293MPD2    H3 4475   4.663   3.302  12.442 -0.6964  0.3323  0.6644
  293MPD2     N 4476   0.051   3.243  12.874 -0.2237 -0.3796 -0.0083
  293MPD2    H5 4477   0.040   3.180  12.953 -0.7105 -0.6008 -0.2578
  293MPD2    N1 4478   4.526   2.908  12.637  0.2695 -0.5205  0.3597
  293MPD2    H7 4479   4.469   2.881  12.557 -0.1843 -0.1877  0.5678
  294TMC3    C1 4480   4.445   2.700  12.711  0.6112  0.3163  0.1316
  294TMC3    C2 4481   4.317   2.689  12.765 -0.4074 -0.1738 -0.6134
  294TMC3    C3 4482   4.232   2.599  12.708  0.5954 -0.5063 -0.1653
  294TMC3    C4 4483   4.477   2.629  12.595 -0.0516  0.5783 -0.2459
  294TMC3    C5 4484   4.384   2.545  12.540  0.1715 -0.0034 -0.0504
  294TMC3    C6 4485   4.263   2.531  12.593  0.7264 -0.4771  0.2519
  294TMC3     C 4486   4.504   2.829  12.746 -0.1963  0.3336  0.0413
  294TMC3     O 4487   4.529   2.849  12.866  0.0918  0.3223  0.4262
  294TMC3     H 4488   4.282   2.738  12.855 -0.6361  0.1101 -0.8558
  294TMC3    H1 4489   4.577   2.641  12.554 -0.4956  2.5346 -0.7091
  294TMC3    H2 4490   4.185   2.468  12.552  0.2428  1.1411 -1.3140
  294TMC3    C7 4491   4.397   2.513  12.398 -0.6256  0.2381  0.2200
  294TMC3    C8 4492   4.090   2.619  12.739  0.6964  0.1540  0.1010
  294TMC3    O1 4493   4.290   2.500  12.337  0.0191  0.8209 -0.2368
  294TMC3    O2 4494   4.068   2.675  12.848 -0.2020 -0.3597  0.0283
  295MPD2     C 4495   1.447   2.370   0.858  0.7731  0.6993  0.4131
  295MPD2    C1 4496   1.319   2.345   0.899  0.0766 -0.2567 -0.0312
  295MPD2    C2 4497   1.298   2.273   1.018 -0.4537  0.5042 -0.0237
  295MPD2    C3 4498   1.401   2.262   1.109  0.5606 -0.5748  0.3737
  295MPD2    C4 4499   1.529   2.297   1.070  0.1228  0.3528  0.1116
  295MPD2    C5 4500   1.550   2.350   0.947  0.3039  0.7140  0.1392
  295MPD2     H 4501   1.200   2.237   1.048 -0.2273 -0.6546 -0.6837
  295MPD2    H1 4502   1.618   2.287   1.132 -0.3442 -1.5829  0.4852
  295MPD2    H2 4503   1.463   2.428   0.767 -1.1129  0.0443 -0.3520
  295MPD2    H3 4504   1.648   2.389   0.926 -0.8154  2.9116 -1.0148
  295MPD2     N 4505   1.394   2.195   1.232  0.5127  0.1000 -0.9936
  295MPD2    H5 4506   1.477   2.173   1.286 -0.1251  1.2733  0.4753
  295MPD2    N1 4507   1.202   2.370   0.816  0.4880  0.2356  0.3315
  295MPD2    H7 4508   1.116   2.322   0.840 -0.2670  1.0580 -0.7079
  296TMC3    C1 4509   1.307   2.078   1.406 -1.1868  0.0717  0.0402
  296TMC3    C2 4510   1.211   2.058   1.502 -0.7198 -0.1628 -0.2723
  296TMC3    C3 4511   1.229   1.954   1.592  0.2070  0.2372 -0.2864
  296TMC3    C4 4512   1.403   1.981   1.387  0.4226 -0.6676  0.7092
  296TMC3    C5 4513   1.398   1.874   1.464 -0.0696  0.3132 -0.5312
  296TMC3    C6 4514   1.317   1.859   1.570  0.4789 -0.6943  0.5497
  296TMC3     C 4515   1.279   2.169   1.303  0.0244 -0.1947 -0.0850
  296TMC3     O 4516   1.162   2.198   1.281  0.6144 -0.4247  0.1150
  296TMC3     H 4517   1.132   2.131   1.509  1.2247  1.9695 -0.3892
  296TMC3    H1 4518   1.465   1.989   1.299 -1.0250  2.9161  0.0159
  296TMC3    H2 4519   1.317   1.778   1.641  0.0527 -0.5467  0.7137
  296TMC3    C7 4520   1.449   1.754   1.401 -0.0078 -0.0807 -0.0975
  296TMC3    C8 4521   1.148   1.941   1.707 -0.3265  0.4183  1.0500
  296TMC3    O1 4522   1.551   1.754   1.335  0.4186  0.2106  0.2689
  296TMC3    O2 4523   1.202   1.922   1.814 -0.2926 -0.1033  0.3620
  297MPD2     C 4524   2.632   3.819  16.168  0.2806  0.5310  0.0093
  297MPD2    C1 4525   2.630   3.892  16.052  0.1208 -1.2171 -0.2358
  297MPD2    C2 4526   2.736   3.979  16.029  0.1524  0.1409 -0.1365
  297MPD2    C3 4527   2.831   4.006  16.127 -0.0550 -0.0091 -0.5810
  297MPD2    C4 4528   2.818   3.943  16.251 -0.4200  0.0468 -0.4031
  297MPD2    C5 4529   2.722   3.845  16.268  0.3812  0.3400 -0.1342
  297MPD2     H 4530   2.737   4.043  15.941 -1.4765  0.3761  0.0264
  297MPD2    H1 4531   2.885   3.960  16.335  0.3641 -0.8429 -0.8458
  297MPD2    H2 4532   2.562   3.738  16.185  0.2262  0.4455 -0.6222
  297MPD2    H3 4533   2.720   3.784  16.357  2.7004 -2.8643 -2.2922
  297MPD2     N 4534   2.935   4.097  16.111 -0.0381  0.9364  0.2224
  297MPD2    H5 4535   2.933   4.148  16.023 -2.6780  0.4758  0.0216
  297MPD2    N1 4536   2.520   3.891  15.961  0.0078  0.5495  0.1713
  297MPD2    H7 4537   2.527   3.953  15.881 -1.4366 -1.6957 -1.7081
  298TMC3    C1 4538   2.305   3.882  15.879 -1.1353 -0.2927  0.3982
  298TMC3    C2 4539   2.347   3.931  15.759 -0.3451 -0.3800 -0.6022
  298TMC3    C3 4540   2.257   4.007  15.689 -0.0250 -0.2770 -0.4771
  298TMC3    C4 4541   2.187   3.918  15.931 -0.2799 -0.1587  0.3613
  298TMC3    C5 4542   2.094   3.989  15.858 -0.0378  0.2241  0.2496
  298TMC3    C6 4543   2.132   4.036  15.736  0.1366 -0.6225 -0.1474
  298TMC3     C 4544   2.400   3.831  15.973 -0.6462  0.2091  0.3660
  298TMC3     O 4545   2.355   3.787  16.078 -0.4542 -0.0311  0.1891
  298TMC3     H 4546   2.451   3.925  15.727 -0.3447  1.6211 -0.9523
  298TMC3    H1 4547   2.156   3.874  16.026  1.6201 -0.2203  0.9522
  298TMC3    H2 4548   2.070   4.110  15.687 -0.4108 -1.5198 -0.8074
  298TMC3    C7 4549   1.972   4.044  15.921 -0.5470 -0.0026 -0.2247
  298TMC3    C8 4550   2.310   4.045  15.558 -0.1305 -0.6998 -0.0556
  298TMC3    O1 4551   1.957   4.044  16.043 -0.0285 -0.1290  0.5915
  298TMC3    O2 4552   2.416   4.000  15.515  0.4880  0.2766 -0.3055
  299MPD2     C 4553   2.811   3.438  10.803 -0.9292 -0.0865  0.8352
  299MPD2    C1 4554   2.798   3.563  10.751  0.1064 -0.5624 -0.3649
  299MPD2    C2 4555   2.707   3.590  10.646  0.3838  0.8058  0.3724
  299MPD2    C3 4556   2.634   3.485  10.594 -0.3389  0.0861 -0.7162
  299MPD2    C4 4557   2.653   3.363  10.647  0.2874  0.4369  0.6452
  299MPD2    C5 4558   2.740   3.337  10.750  0.7736  0.2167 -0.7814
  299MPD2     H 4559   2.697   3.691  10.607 -1.6088  0.9014  1.1079
  299MPD2    H1 4560   2.609   3.276  10.599 -0.9153  0.1796  2.2383
  299MPD2    H2 4561   2.881   3.409  10.880  1.7649 -0.3680 -1.7229
  299MPD2    H3 4562   2.746   3.234  10.783  1.5645  0.6786  0.4956
  299MPD2     N 4563   2.537   3.501  10.493  0.2577  0.4437  0.0485
  299MPD2    H5 4564   2.485   3.425  10.450 -0.6764  0.1594  1.6682
  299MPD2    N1 4565   2.875   3.656  10.816 -0.4790 -0.1436  0.0560
  299MPD2    H7 4566   2.920   3.632  10.903 -0.5293  1.6280  0.5652
  300TMC3    C1 4567   2.379   3.617  10.365 -0.3281 -0.3995  0.5587
  300TMC3    C2 4568   2.343   3.739  10.305  0.2216  0.2015  0.5983
  300TMC3    C3 4569   2.213   3.775  10.284 -0.2314 -0.6246 -0.7316
  300TMC3    C4 4570   2.281   3.532  10.404  0.6588 -0.5908  0.1783
  300TMC3    C5 4571   2.153   3.576  10.392  0.0889  0.5243  0.0922
  300TMC3    C6 4572   2.120   3.700  10.348  0.1906  0.1737  0.5637
  300TMC3     C 4573   2.496   3.623  10.450 -0.4082  0.7415 -0.3569
  300TMC3     O 4574   2.553   3.734  10.459 -0.4925 -0.2893 -0.4081
  300TMC3     H 4575   2.420   3.807  10.270  0.0548 -0.9520 -2.0282
  300TMC3    H1 4576   2.304   3.430  10.434  0.5351 -0.7248 -0.1841
  300TMC3    H2 4577   2.015   3.714  10.322  0.8221  0.8484 -1.6568
  300TMC3    C7 4578   2.056   3.498  10.460  0.3976 -0.2312 -0.2799
  300TMC3    C8 4579   2.204   3.923  10.292  0.7606 -0.2500  0.2562
  300TMC3    O1 4580   2.067   3.376  10.465  0.4496 -0.1460 -0.2830
  300TMC3    O2 4581   2.305   3.986  10.315  0.3152  0.2766 -0.4199
  301MPD2     C 4582   1.188   0.161   0.979 -0.0841 -0.1505  0.3474
  301MPD2    C1 4583   1.072   0.153   0.906 -0.3807 -0.4144 -0.3088
  301MPD2    C2 4584   1.013   0.026   0.898  0.4445  0.1342 -0.8014
  301MPD2    C3 4585   1.059   4.652   0.969 -0.7559 -0.4635 -0.2064
  301MPD2    C4 4586   1.185   4.658   1.027  0.8478 -0.3068  0.2303
  301MPD2    C5 4587   1.246   0.042   1.024  0.6218 -0.2456  0.8068
  301MPD2     H 4588   0.925   0.022   0.835 -0.7391  1.4036  0.7485
  301MPD2    H1 4589   1.227   4.571   1.075  0.4101  1.2386  3.4032
  301MPD2    H2 4590   1.236   0.256   1.001 -0.3790 -0.4426  2.2824
  301MPD2    H3 4591   1.331   0.052   1.090  0.2240  0.8199  1.1646
  301MPD2     N 4592   0.988   4.529   0.965  0.1329  0.3957 -0.7017
  301MPD2    H5 4593   1.030   4.452   1.016  0.6847  2.7081  2.2954
  301MPD2    N1 4594   1.011   0.265   0.849  0.0102  0.2178 -0.0617
  301MPD2    H7 4595   0.919   0.254   0.807 -0.9063 -0.9786  2.2991
  302TMC3    C1 4596   0.815   4.374   0.921 -0.2883 -0.1139 -0.2556
  302TMC3    C2 4597   0.879   4.282   1.007  0.3346  0.4276 -0.2222
  302TMC3    C3 4598   0.839   4.148   0.995 -0.1041 -0.8337 -0.0170
  302TMC3    C4 4599   0.730   4.330   0.830 -0.2936 -0.6522 -0.1601
  302TMC3    C5 4600   0.695   4.199   0.831  1.0096  0.4300  0.4832
  302TMC3    C6 4601   0.757   4.103   0.894 -0.1359 -1.0243  0.1382
  302TMC3     C 4602   0.862   4.515   0.908  0.0117 -0.2052 -0.1350
  302TMC3     O 4603   0.788   4.599   0.855  0.0293 -0.4300 -0.2392
  302TMC3     H 4604   0.963   4.301   1.073 -1.0864 -1.3649  2.1266
  302TMC3    H1 4605   0.698   4.406   0.760 -1.0249  1.9884  3.0285
  302TMC3    H2 4606   0.705   4.008   0.891 -1.6544 -0.2589  2.1439
  302TMC3    C7 4607   0.602   4.155   0.726 -0.1752 -0.1340 -0.0662
  302TMC3    C8 4608   0.893   4.048   1.086 -0.1090  0.1637  0.2500
  302TMC3    O1 4609   0.623   4.050   0.674 -0.1810 -0.1883  0.0703
  302TMC3    O2 4610   0.892   3.932   1.041  0.3054  0.2813  1.0219
  303MPD2     C 4611   0.317   3.779  10.832 -0.2920 -0.1512  0.2165
  303MPD2    C1 4612   0.291   3.646  10.837 -0.6509  0.4038  0.5367
  303MPD2    C2 4613   0.286   3.571  10.721 -0.8181  0.3373 -0.7179
  303MPD2    C3 4614   0.314   3.626  10.595 -0.0839 -0.2612  0.7414
  303MPD2    C4 4615   0.342   3.765  10.598 -0.2908  0.3820  0.5905
  303MPD2    C5 4616   0.341   3.839  10.711  0.6629  0.6353 -0.2026
  303MPD2     H 4617   0.266   3.465  10.733 -0.0608  0.3585  0.7004
  303MPD2    H1 4618   0.350   3.811  10.500 -0.5615 -1.0759 -0.1167
  303MPD2    H2 4619   0.320   3.829  10.928  0.7172  0.5046 -0.1634
  303MPD2    H3 4620   0.358   3.944  10.693 -0.7827  0.5302 -2.2071
  303MPD2     N 4621   0.309   3.550  10.476 -0.2786  0.3383  0.0350
  303MPD2    H5 4622   0.355   3.592  10.397 -0.2728  0.0870 -0.0954
  303MPD2    N1 4623   0.251   3.597  10.967  0.2164  0.6336  0.4320
  303MPD2    H7 4624   0.235   3.659  11.045  2.6975  1.0900  0.6035
  304TMC3    C1 4625   0.212   3.420  11.129 -0.1726  0.7489  0.0368
  304TMC3    C2 4626   0.107   3.481  11.178  1.1623 -0.4924 -0.4031
  304TMC3    C3 4627   0.032   3.423  11.279  0.1692 -1.2326 -0.4148
  304TMC3    C4 4628   0.253   3.290  11.168  0.0469  0.1011  0.9267
  304TMC3    C5 4629   0.171   3.231  11.259  0.4650 -0.8134 -0.4825
  304TMC3    C6 4630   0.067   3.293  11.319 -0.1782 -0.2362 -0.1717
  304TMC3     C 4631   0.272   3.463  11.002  0.2879 -0.4482  0.4118
  304TMC3     O 4632   0.335   3.380  10.937 -0.0423 -0.1147 -0.3348
  304TMC3     H 4633   0.070   3.576  11.140  0.0817 -0.0045  1.8699
  304TMC3    H1 4634   0.340   3.243  11.122  0.6597  2.2665 -0.1278
  304TMC3    H2 4635   0.002   3.246  11.392 -3.0330  1.8471 -1.3866
  304TMC3    C7 4636   0.117   3.108  11.209 -0.2049 -0.4338 -0.0086
  304TMC3    C8 4637   4.623   3.443  11.268  0.2408 -0.0619  0.3429
  304TMC3    O1 4638   4.731   3.100  11.219  0.2234 -0.2178 -0.0849
  304TMC3    O2 4639   4.581   3.554  11.257  0.0069  0.3119  0.4482
  305MPD2     C 4640   3.311   0.380  13.928 -0.3695  0.3544 -0.3088
  305MPD2    C1 4641   3.429   0.310  13.942 -0.5456  0.4595 -0.2594
  305MPD2    C2 4642   3.480   0.245  13.834  0.4045  0.3466 -0.3594
  305MPD2    C3 4643   3.422   0.254  13.709  0.0577  0.1713 -0.2074
  305MPD2    C4 4644   3.302   0.319  13.696 -0.2063 -0.3570 -0.3570
  305MPD2    C5 4645   3.251   0.387  13.803  0.1814 -0.0394 -0.0198
  305MPD2     H 4646   3.566   0.179  13.840  0.1243  0.2863  3.2673
  305MPD2    H1 4647   3.252   0.315  13.599 -0.0099 -0.9517 -0.4348
  305MPD2    H2 4648   3.272   0.424  14.019 -1.9930  0.0409 -0.8563
  305MPD2    H3 4649   3.153   0.433  13.795  0.6814  0.8616 -1.1312
  305MPD2     N 4650   3.464   0.192  13.595  0.3194  0.3251 -0.9046
  305MPD2    H5 4651   3.414   0.204  13.507 -0.8292  1.9365 -0.0401
  305MPD2    N1 4652   3.485   0.313  14.072 -0.0037  0.0540  0.2860
  305MPD2    H7 4653   3.429   0.359  14.144 -0.7175  1.8807 -1.4272
  306TMC3    C1 4654   3.656   0.272  14.250  0.1578  0.2914  0.4528
  306TMC3    C2 4655   3.777   0.211  14.278  0.9580 -0.4512 -0.3311
  306TMC3    C3 4656   3.830   0.232  14.404 -0.1650  0.1991  0.8826
  306TMC3    C4 4657   3.600   0.366  14.334  0.1454 -0.4733 -0.6122
  306TMC3    C5 4658   3.668   0.391  14.452  0.2923  0.5905  0.8681
  306TMC3    C6 4659   3.779   0.320  14.493  0.6113  0.3911  0.2805
  306TMC3     C 4660   3.608   0.257  14.112 -0.3270 -0.3493 -0.0862
  306TMC3     O 4661   3.670   0.185  14.042 -0.7296 -0.2052  0.2983
  306TMC3     H 4662   3.821   0.135  14.215  2.1873  0.0329 -0.0622
  306TMC3    H1 4663   3.503   0.410  14.316 -0.3399 -1.9549 -1.4932
  306TMC3    H2 4664   3.818   0.330  14.594 -1.1041  1.2860  0.8448
  306TMC3    C7 4665   3.623   0.512  14.524 -0.5618 -0.5274  0.3144
  306TMC3    C8 4666   3.960   0.170  14.423 -0.4145  0.0759 -0.0781
  306TMC3    O1 4667   3.510   0.558  14.511  0.0043 -0.7136 -0.1186
  306TMC3    O2 4668   4.024   0.133  14.327  0.3121 -0.4205 -0.0888
  307MPD2     C 4669   1.780   3.382   0.121  0.2412 -0.2593  0.8659
  307MPD2    C1 4670   1.682   3.477   0.095 -0.0673  0.5894 -0.1471
  307MPD2    C2 4671   1.603   3.520   0.196 -0.0278 -0.5255 -0.0440
  307MPD2    C3 4672   1.609   3.475   0.324  0.1931 -0.3128 -0.2133
  307MPD2    C4 4673   1.717   3.389   0.354  0.5465  1.0782  0.5425
  307MPD2    C5 4674   1.806   3.356   0.255  0.2689  0.4121 -0.0600
  307MPD2     H 4675   1.525   3.592   0.173  0.2741 -0.3352 -0.4622
  307MPD2    H1 4676   1.734   3.362   0.457 -0.3404 -0.8357  0.1874
  307MPD2    H2 4677   1.849   3.358   0.041  1.3948 -1.6846  2.2867
  307MPD2    H3 4678   1.891   3.299   0.289 -1.8335 -0.2900  4.1107
  307MPD2     N 4679   1.515   3.511   0.419 -0.3898  0.0387  0.3754
  307MPD2    H5 4680   1.438   3.571   0.391 -0.5174 -0.0639  0.5049
  307MPD2    N1 4681   1.655   3.526  17.708 -0.7740 -0.5784  0.1914
  307MPD2    H7 4682   1.583   3.597  17.700  0.3463  0.4536 -0.9098
  308TMC3    C1 4683   1.207   3.429   0.751  0.3051  0.0445  0.6377
  308TMC3    C2 4684   1.189   3.560   0.781  0.1121  0.3007 -0.5404
  308TMC3    C3 4685   1.254   3.655   0.706  0.0818 -0.1865 -0.0340
  308TMC3    C4 4686   1.308   3.387   0.672 -0.3066 -1.0183  1.1267
  308TMC3    C5 4687   1.392   3.488   0.616  0.2267  0.7564 -0.1951
  308TMC3    C6 4688   1.359   3.623   0.622 -0.0178 -0.1957  0.5239
  308TMC3     C 4689   1.105   3.335   0.800  0.1378  0.3848 -0.1246
  308TMC3     O 4690   1.135   3.218   0.793  0.3276 -0.6259  0.3815
  308TMC3     H 4691   1.127   3.593   0.864 -2.4976 -1.3026 -1.8416
  308TMC3    H1 4692   1.323   3.281   0.656  1.8802 -0.8955  2.4421
  308TMC3    H2 4693   1.424   3.695   0.574 -0.0940 -0.4738  0.0124
  308TMC3    C7 4694   1.496   3.436   0.531 -0.5154 -0.0667 -0.1879
  308TMC3    C8 4695   1.254   3.798   0.752  0.2411  0.5555 -0.1408
  308TMC3    O1 4696   1.512   3.315   0.538 -0.1044 -0.4623  0.5023
  308TMC3    O2 4697   1.204   3.815   0.862  0.4325  0.2997 -0.1119
  309MPD2     C 4698   0.459   4.171  17.279  0.1296 -0.1698 -0.4379
  309MPD2    C1 4699   0.354   4.135  17.205  1.2585 -0.3808  0.7377
  309MPD2    C2 4700   0.223   4.134  17.261 -0.0045 -0.0658  0.4038
  309MPD2    C3 4701   0.203   4.191  17.385  0.3477  0.1198  0.0155
  309MPD2    C4 4702   0.310   4.247  17.450  0.4216  0.2037 -0.4598
  309MPD2    C5 4703   0.435   4.232  17.396 -0.1752 -0.5466  0.0672
  309MPD2     H 4704   0.143   4.103  17.195  1.4412  0.9097 -1.8244
  309MPD2    H1 4705   0.307   4.294  17.548  0.2295  1.2347 -0.9580
  309MPD2    H2 4706   0.565   4.157  17.256  0.5793  1.6382  0.5872
  309MPD2    H3 4707   0.522   4.259  17.454 -1.2790  2.8233  0.1804
  309MPD2     N 4708   0.071   4.207  17.441 -0.4608 -0.2253 -0.3789
  309MPD2    H5 4709   0.082   4.260  17.527  0.4856 -0.8339 -0.1170
  309MPD2    N1 4710   0.361   4.087  17.077  0.0996 -0.1565  0.1888
  309MPD2    H7 4711   0.274   4.069  17.028  0.0123 -0.0939  0.3204
  310TMC3    C1 4712   0.448   3.980  16.894 -0.9752 -0.0359  0.0989
  310TMC3    C2 4713   0.393   4.041  16.788 -1.1952 -0.1274  0.1753
  310TMC3    C3 4714   0.408   3.981  16.664 -0.2948 -0.1559 -0.2274
  310TMC3    C4 4715   0.506   3.859  16.874 -0.8176 -0.1028  0.4071
  310TMC3    C5 4716   0.507   3.800  16.757 -0.5794  1.0213  0.3335
  310TMC3    C6 4717   0.465   3.864  16.642 -0.2573  0.1073  0.1486
  310TMC3     C 4718   0.477   4.039  17.023 -0.4235 -0.7175  0.3489
  310TMC3     O 4719   0.594   4.040  17.064 -0.3675 -0.1622 -0.4179
  310TMC3     H 4720   0.343   4.136  16.798 -2.8674 -1.1704  1.5800
  310TMC3    H1 4721   0.544   3.793  16.951 -2.8116 -0.0153  1.4800
  310TMC3    H2 4722   0.456   3.820  16.543  0.5127 -0.4637  0.3431
  310TMC3    C7 4723   0.606   3.696  16.730 -0.0923 -0.5998 -0.2503
  310TMC3    C8 4724   0.374   4.055  16.541  0.2990 -0.1862  0.4842
  310TMC3    O1 4725   0.649   3.711  16.619  0.1719  0.3058 -0.0404
  310TMC3    O2 4726   0.450   4.041  16.447 -0.3879 -0.0321 -0.3765
  311MPD2     C 4727   2.652   0.291  12.106  0.4855  0.0300  0.4606
  311MPD2    C1 4728   2.672   0.371  12.211 -0.2612 -0.3475  0.0721
  311MPD2    C2 4729   2.599   0.342  12.325 -0.6838  0.6538 -0.1937
  311MPD2    C3 4730   2.516   0.237  12.345  0.0934  0.5181  0.3947
  311MPD2    C4 4731   2.496   0.159  12.230  0.4109 -0.0339 -0.0708
  311MPD2    C5 4732   2.553   0.194  12.113 -0.2901 -0.3613 -0.8318
  311MPD2     H 4733   2.605   0.417  12.403  0.5115  0.9295 -0.5465
  311MPD2    H1 4734   2.430   0.073  12.223  1.2411 -1.0139  4.3471
  311MPD2    H2 4735   2.703   0.298  12.011 -0.1147  0.1870  0.1474
  311MPD2    H3 4736   2.524   0.147  12.020 -0.5535  0.7786 -1.3243
  311MPD2     N 4737   2.455   0.221  12.468 -0.2026  0.2162 -0.2420
  311MPD2    H5 4738   2.483   0.292  12.535 -0.4521  1.7476 -1.7609
  311MPD2    N1 4739   2.764   0.477  12.215  0.2888 -0.6204  0.8908
  311MPD2    H7 4740   2.763   0.531  12.302 -1.0356 -0.9195  1.0621
  312TMC3    C1 4741   2.335   0.114  12.639 -0.4947 -0.0788  0.2275
  312TMC3    C2 4742   2.226   0.025  12.655  0.1015  0.8487 -0.1412
  312TMC3    C3 4743   2.155   0.048  12.773  0.8815 -0.1650 -0.0052
  312TMC3    C4 4744   2.370   0.206  12.736 -0.1397 -0.1152 -0.6425
  312TMC3    C5 4745   2.293   0.227  12.842  0.3013  0.2695  0.4763
  312TMC3    C6 4746   2.185   0.147  12.864  0.0653 -0.4814 -0.1153
  312TMC3     C 4747   2.400   0.103  12.507 -0.3886  0.6782  0.3705
  312TMC3     O 4748   2.376   4.734  12.439  0.1970  1.4114 -0.3186
  312TMC3     H 4749   2.183   4.705  12.573 -1.2700  0.1743  1.0361
  312TMC3    H1 4750   2.460   0.266  12.732  0.0655 -0.3811 -0.0822
  312TMC3    H2 4751   2.114   0.171  12.942  0.6298 -1.3737  0.6648
  312TMC3    C7 4752   2.337   0.312  12.955  0.1116  0.5226  0.0997
  312TMC3    C8 4753   2.013   0.031  12.758  0.2460  0.6019 -0.5680
  312TMC3    O1 4754   2.298   0.285  13.067 -0.0683  0.0844  0.0092
  312TMC3    O2 4755   1.968   4.651  12.763 -0.4587  0.0024 -0.1659
  313MPD2     C 4756   1.234   4.281  11.269  0.3917  0.1326 -0.8095
  313MPD2    C1 4757   1.287   4.397  11.213 -0.2618  0.1509  0.3950
  313MPD2    C2 4758   1.342   4.381  11.091  0.1738 -0.0159  0.2117
  313MPD2    C3 4759   1.365   4.258  11.027  0.2810 -0.5162  0.6454
  313MPD2    C4 4760   1.309   4.148  11.089 -0.6488 -0.6116  0.1180
  313MPD2    C5 4761   1.243   4.161  11.206  0.0816  0.2018  0.0555
  313MPD2     H 4762   1.383   4.466  11.038  1.8899 -1.7138 -1.2273
  313MPD2    H1 4763   1.319   4.052  11.040  1.6274 -1.2939  1.9210
  313MPD2    H2 4764   1.175   4.283  11.360  2.0154  0.8716  0.2284
  313MPD2    H3 4765   1.194   4.078  11.256  1.7812  0.1835  1.6971
  313MPD2     N 4766   1.421   4.239  10.895 -0.5522 -0.0832 -0.1043
  313MPD2    H5 4767   1.402   4.144  10.863 -0.2045 -0.1142 -0.2152
  313MPD2    N1 4768   1.285   4.522  11.274  0.1244 -0.2833 -0.3646
  313MPD2    H7 4769   1.315   4.602  11.220  0.3777  1.1469  1.8751
  314TMC3    C1 4770   1.249   4.691  11.422  0.8083 -0.7460 -0.2570
  314TMC3    C2 4771   1.376   0.008  11.419  0.9118  0.2300  0.5571
  314TMC3    C3 4772   1.398   0.136  11.366 -0.1812  0.1178 -0.1653
  314TMC3    C4 4773   1.144   0.024  11.356  0.2383 -0.1205  0.7366
  314TMC3    C5 4774   1.173   0.153  11.303 -0.4649  0.3533 -0.0149
  314TMC3    C6 4775   1.294   0.211  11.310 -0.4522  0.5404  0.0569
  314TMC3     C 4776   1.233   4.553  11.399 -0.4309  0.2565  1.1595
  314TMC3     O 4777   1.161   4.487  11.473  0.2499 -0.4305 -0.0815
  314TMC3     H 4778   1.457   4.679  11.452 -0.9917 -2.7078 -0.5602
  314TMC3    H1 4779   1.053   4.702  11.345  0.0276  0.7696 -2.2319
  314TMC3    H2 4780   1.311   0.311  11.271 -0.2646  0.8397  0.8916
  314TMC3    C7 4781   1.071   0.214  11.214 -0.2266  0.5933 -0.2712
  314TMC3    C8 4782   1.531   0.183  11.341 -0.2845  0.0903 -0.0283
  314TMC3    O1 4783   0.953   0.189  11.235 -0.2437 -0.0858 -0.0374
  314TMC3    O2 4784   1.533   0.288  11.281  0.5249 -0.8562  0.0337
  315MPD2     C 4785   1.928   3.363  17.126  0.3823 -0.0052 -0.1614
  315MPD2    C1 4786   1.985   3.415  17.234 -0.3750  1.0249  0.3213
  315MPD2    C2 4787   2.019   3.544  17.238  0.4245  0.3621 -0.2165
  315MPD2    C3 4788   2.000   3.621  17.129 -0.1838 -0.0920  0.5625
  315MPD2    C4 4789   1.959   3.564  17.009 -0.0075  0.7831  0.3784
  315MPD2    C5 4790   1.923   3.432  17.006  0.2941  0.9562  1.1258
  315MPD2     H 4791   2.056   3.584  17.331  0.1816 -1.1742  0.5323
  315MPD2    H1 4792   1.951   3.625  16.920  1.2540 -0.6999 -0.7366
  315MPD2    H2 4793   1.917   3.256  17.113 -0.4863  0.2734 -1.7360
  315MPD2    H3 4794   1.881   3.383  16.919 -0.7198  0.3365  1.9569
  315MPD2     N 4795   2.040   3.757  17.139 -0.4109 -0.2306  0.2078
  315MPD2    H5 4796   2.091   3.780  17.224  0.3000 -2.3719  0.3612
  315MPD2    N1 4797   1.988   3.342  17.357  0.3474 -0.2380 -0.0311
  315MPD2    H7 4798   2.054   3.370  17.429  2.2239  0.9063 -2.1919
  316TMC3    C1 4799   2.059   3.986  17.087 -0.4136  0.3571 -0.0573
  316TMC3    C2 4800   2.162   3.995  17.178 -0.2509 -0.1715  0.2421
  316TMC3    C3 4801   2.196   4.121  17.208  0.7107 -0.8117  0.4504
  316TMC3    C4 4802   1.983   4.092  17.046  0.1129 -0.1790  0.0701
  316TMC3    C5 4803   2.024   4.221  17.072 -0.5088 -0.0357  0.3866
  316TMC3    C6 4804   2.121   4.233  17.168 -0.2965 -0.5025  0.0983
  316TMC3     C 4805   2.014   3.855  17.042  0.2172  0.0563 -0.4187
  316TMC3     O 4806   1.947   3.851  16.939 -0.5011 -0.0938 -0.0825
  316TMC3     H 4807   2.231   3.912  17.185 -0.2855 -0.1676  0.6592
  316TMC3    H1 4808   1.882   4.078  17.009  0.1457 -0.4537  0.0801
  316TMC3    H2 4809   2.143   4.330  17.212  1.9037 -0.3480 -1.3419
  316TMC3    C7 4810   1.921   4.312  17.086 -0.3032 -0.2210  0.0373
  316TMC3    C8 4811   2.276   4.158  17.319  0.1538  0.0189 -0.7016
  316TMC3    O1 4812   1.918   4.379  17.187 -0.2300  0.3425 -0.5555
  316TMC3    O2 4813   2.321   4.271  17.323  0.1553 -0.0968 -0.0920
  317MPD2     C 4814   3.672   2.062  13.035 -0.0832  0.5056 -0.5702
  317MPD2    C1 4815   3.703   1.932  13.016  0.4916 -0.4963 -1.2006
  317MPD2    C2 4816   3.779   1.871  13.111 -0.1574 -0.2144 -0.5471
  317MPD2    C3 4817   3.840   1.940  13.217  0.4498 -0.5765 -0.2114
  317MPD2    C4 4818   3.796   2.068  13.246  0.5487 -0.0699 -0.0963
  317MPD2    C5 4819   3.717   2.129  13.148 -0.0645  0.1129 -0.0265
  317MPD2     H 4820   3.823   1.773  13.098 -0.0725 -0.2266 -0.1588
  317MPD2    H1 4821   3.830   2.117  13.336  0.1729 -0.5221  0.2918
  317MPD2    H2 4822   3.593   2.114  12.981 -1.0836  0.3489  0.7331
  317MPD2    H3 4823   3.684   2.231  13.164  2.5583  0.5742  2.5255
  317MPD2     N 4824   3.934   1.868  13.297 -0.3370  0.4710 -0.4222
  317MPD2    H5 4825   3.943   1.767  13.294  2.6533  0.6486  2.4637
  317MPD2    N1 4826   3.668   1.857  12.906  0.2836 -0.1077  0.1486
  317MPD2    H7 4827   3.708   1.763  12.909  0.1065 -0.1608  0.8132
  318TMC3    C1 4828   4.091   1.831  13.463 -0.0051 -0.4366  0.4194
  318TMC3    C2 4829   4.044   1.705  13.479 -0.1992 -0.0955 -0.3595
  318TMC3    C3 4830   4.115   1.617  13.552  1.0833  0.2928  0.4624
  318TMC3    C4 4831   4.195   1.882  13.533  1.1886 -0.0795  0.3506
  318TMC3    C5 4832   4.264   1.794  13.609 -0.3543 -0.1163  0.4768
  318TMC3    C6 4833   4.233   1.658  13.607  0.4471  0.3534  0.0355
  318TMC3     C 4834   4.014   1.925  13.390 -0.1788  0.3155  0.9326
  318TMC3     O 4835   4.040   2.044  13.402  0.3420  0.3800 -0.4727
  318TMC3     H 4836   3.941   1.687  13.450  0.4751 -2.2765 -1.3957
  318TMC3    H1 4837   4.227   1.984  13.517  0.9338  0.1672  1.4396
  318TMC3    H2 4838   4.283   1.582  13.667  0.0111 -1.9638 -2.5176
  318TMC3    C7 4839   4.385   1.854  13.672  0.1446  0.6169  0.0275
  318TMC3    C8 4840   4.063   1.478  13.584  1.1431 -0.1148  1.0527
  318TMC3    O1 4841   4.408   1.970  13.651  0.3833  0.3581 -0.1490
  318TMC3    O2 4842   4.117   1.404  13.663  0.0305  0.0099  0.8435
  319MPD2     C 4843   4.575   3.392  16.583 -0.2348  0.1727  0.3331
  319MPD2    C1 4844   4.507   3.327  16.685 -0.3055  0.3684 -0.5959
  319MPD2    C2 4845   4.386   3.267  16.659 -0.4740  0.0974  0.2406
  319MPD2    C3 4846   4.335   3.281  16.530  0.2567 -0.0854  0.4393
  319MPD2    C4 4847   4.404   3.348  16.432 -0.0679  0.1029  0.0826
  319MPD2    C5 4848   4.527   3.399  16.455  0.1525 -0.2782  0.7347
  319MPD2     H 4849   4.331   3.225  16.742  0.4215 -3.2450 -0.8314
  319MPD2    H1 4850   4.368   3.361  16.331 -0.8104  0.8465  0.4397
  319MPD2    H2 4851   4.670   3.442  16.598  0.0623  0.6451 -3.2702
  319MPD2    H3 4852   4.578   3.446  16.373  0.7491 -1.1075  0.6274
  319MPD2     N 4853   4.218   3.218  16.490 -0.0550 -0.3633 -0.0813
  319MPD2    H5 4854   4.203   3.227  16.390  1.0534  0.9037 -0.1283
  319MPD2    N1 4855   4.550   3.318  16.821 -0.2694  0.5812 -0.2376
  319MPD2    H7 4856   4.493   3.256  16.878  2.5026  0.1883  2.0936
  320TMC3    C1 4857   4.034   3.070  16.475 -0.0576  0.1697 -0.0611
  320TMC3    C2 4858   4.004   3.133  16.357 -0.5063  0.6433 -0.1394
  320TMC3    C3 4859   3.954   3.058  16.253 -0.5495 -0.5455  0.0490
  320TMC3    C4 4860   4.009   2.935  16.494  0.1130 -0.3057  0.2013
  320TMC3    C5 4861   3.944   2.872  16.391  0.1134 -0.4874  0.5103
  320TMC3    C6 4862   3.918   2.928  16.270  0.4937 -0.0200  0.2339
  320TMC3     C 4863   4.143   3.127  16.557 -0.4342  0.1430 -0.4533
  320TMC3     O 4864   4.158   3.090  16.671  0.7656  0.4639  0.0623
  320TMC3     H 4865   4.023   3.237  16.332  1.4938  0.8493  2.2170
  320TMC3    H1 4866   4.037   2.887  16.587  4.0686  2.0391  0.2370
  320TMC3    H2 4867   3.864   2.865  16.201 -0.3510 -0.6826  1.4919
  320TMC3    C7 4868   3.937   2.733  16.417  0.7261  0.4404 -0.2002
  320TMC3    C8 4869   3.943   3.129  16.128 -0.3757  0.1220 -0.2159
  320TMC3    O1 4870   3.927   2.693  16.533 -0.1911  0.3631 -0.2305
  320TMC3    O2 4871   3.993   3.241  16.122 -0.5324  0.0267 -0.2603
  321TMC3    C1 4872   4.690   3.333  16.996 -0.5729  0.0638 -0.2177
  321TMC3    C2 4873   4.660   3.202  17.032  0.2048  0.4961 -0.5069
  321TMC3    C3 4874   4.650   3.177  17.172  0.7290 -0.0814 -0.2262
  321TMC3    C4 4875   4.717   3.433  17.081  0.4957  0.3192 -0.3374
  321TMC3    C5 4876   4.709   3.401  17.209 -0.5035  0.5141 -0.1332
  321TMC3    C6 4877   4.658   3.282  17.262  0.6896  0.3783  0.4424
  321TMC3     C 4878   4.670   3.376  16.860 -0.1439 -1.0351 -0.5525
  321TMC3     O 4879   4.728   3.477  16.819 -0.8643 -0.8512 -0.2203
  321TMC3     H 4880   4.663   3.118  16.964  0.3438 -1.2804  1.7023
  321TMC3    H1 4881   0.024   3.525  17.041  0.3282  1.3736  1.9345
  321TMC3    H2 4882   4.651   3.267  17.369 -0.7501 -0.6252  0.2193
  321TMC3    C7 4883   0.080   3.456  17.299 -0.0912 -0.1412  0.4356
  321TMC3    C8 4884   4.735   3.069  17.218 -0.4623 -0.3077  0.4506
  321TMC3    O1 4885   0.113   3.382  17.390  0.0345 -0.5337 -0.3392
  321TMC3    O2 4886   0.006   2.963  17.148  0.1772  0.5407 -0.0416
  322MPD2     C 4887   3.609   4.438  13.535 -0.9783  0.2751 -0.7539
  322MPD2    C1 4888   3.693   4.404  13.633  0.3301  0.0786  0.2032
  322MPD2    C2 4889   3.790   4.312  13.610 -0.4530 -0.5325  0.6223
  322MPD2    C3 4890   3.797   4.241  13.496  0.2997 -0.3625  1.0298
  322MPD2    C4 4891   3.722   4.285  13.390  0.6968  0.2793 -0.0895
  322MPD2    C5 4892   3.622   4.377  13.411  0.3455  0.6215 -0.0885
  322MPD2     H 4893   3.856   4.284  13.691 -0.8340  1.0966  1.4748
  322MPD2    H1 4894   3.719   4.239  13.292  1.2144  0.6934 -0.3006
  322MPD2    H2 4895   3.530   4.511  13.540 -0.1895  1.1571 -1.1159
  322MPD2    H3 4896   3.559   4.412  13.330  0.2026  2.4291  0.8008
  322MPD2     N 4897   3.891   4.136  13.490  1.0603  0.1070 -0.0366
  322MPD2    H5 4898   3.946   4.122  13.574 -0.1185  0.3719  0.7873
  322MPD2    N1 4899   3.685   4.483  13.748  0.0175  0.5936  0.4976
  322MPD2    H7 4900   3.629   4.567  13.743 -0.7197  0.1045  0.5214
  323TMC3    C1 4901   3.766   4.556  13.946  0.0908  0.0972 -0.3966
  323TMC3    C2 4902   3.838   4.658  13.894  0.3357 -0.8361 -0.1865
  323TMC3    C3 4903   3.933   4.715  13.976  0.2465 -0.4508  0.5210
  323TMC3    C4 4904   3.799   4.508  14.072 -0.4029  0.4602 -0.0791
  323TMC3    C5 4905   3.905   4.554  14.149 -0.3507  1.2507 -0.2800
  323TMC3    C6 4906   3.978   4.661  14.100  0.5910 -0.8582 -0.1481
  323TMC3     C 4907   3.760   4.449  13.855 -0.1060  0.2400  0.1573
  323TMC3     O 4908   3.777   4.336  13.903  0.2314  0.2414  0.2054
  323TMC3     H 4909   3.814   4.698  13.797 -1.6186 -3.6661 -0.8667
  323TMC3    H1 4910   3.739   4.423  14.104  1.9724 -1.4883 -0.7611
  323TMC3    H2 4911   4.062   4.711  14.147  0.4387 -1.0615  0.3395
  323TMC3    C7 4912   3.965   4.459  14.241  0.2305 -0.0002 -0.3022
  323TMC3    C8 4913   3.999   0.096  13.929 -0.0428 -0.1741  0.3210
  323TMC3    O1 4914   3.934   4.346  14.212  0.7363 -0.1204  0.0406
  323TMC3    O2 4915   4.118   0.085  13.910  0.2058  0.1411  0.3540
  324MPD2     C 4916   0.693   0.888  14.308  0.4016  0.8913  0.2707
  324MPD2    C1 4917   0.705   1.007  14.372 -0.1276 -0.3238 -0.1676
  324MPD2    C2 4918   0.595   1.066  14.430 -0.0204 -0.2296  0.6354
  324MPD2    C3 4919   0.470   0.999  14.420  0.2643  0.2900  0.6673
  324MPD2    C4 4920   0.464   0.871  14.368  0.0699 -0.0882 -0.0734
  324MPD2    C5 4921   0.576   0.816  14.310 -0.7457 -0.0047 -0.1379
  324MPD2     H 4922   0.601   1.156  14.490  2.0939  0.0840 -0.0712
  324MPD2    H1 4923   0.371   0.815  14.368  1.3810 -2.2759 -0.3943
  324MPD2    H2 4924   0.774   0.839  14.255 -1.3114 -1.7009  0.0637
  324MPD2    H3 4925   0.577   0.722  14.257  0.7160 -1.0162  1.6916
  324MPD2     N 4926   0.355   1.049  14.472 -0.1523 -0.4009  0.1923
  324MPD2    H5 4927   0.276   0.986  14.471 -0.7038  0.3091 -1.7091
  324MPD2    N1 4928   0.823   1.075  14.381 -0.0778 -0.1327 -0.5690
  324MPD2    H7 4929   0.813   1.160  14.435 -0.1475  0.2900 -1.2508
  325TMC3    C1 4930   0.192   1.196  14.545  0.5033 -0.2883 -0.0099
  325TMC3    C2 4931   0.102   1.096  14.578  0.5942  0.0171 -0.2523
  325TMC3    C3 4932   4.706   1.116  14.555  0.6510  0.6884  0.1158
  325TMC3    C4 4933   0.147   1.312  14.487  0.4811 -0.4940 -0.6008
  325TMC3    C5 4934   0.012   1.327  14.472  0.5356 -0.6707 -0.0063
  325TMC3    C6 4935   4.650   1.233  14.511  0.2796 -0.2229  0.0215
  325TMC3     C 4936   0.331   1.175  14.521  0.4569  0.8970  0.2774
  325TMC3     O 4937   0.398   1.275  14.514  0.0131  0.1858  0.6121
  325TMC3     H 4938   0.139   1.006  14.627  1.7260  1.1501  0.9863
  325TMC3    H1 4939   0.213   1.398  14.477 -3.0805  2.1370 -1.7233
  325TMC3    H2 4940   4.546   1.233  14.482  0.5779  0.0392 -1.0230
  325TMC3    C7 4941   4.708   1.469  14.449 -0.2628  0.1275 -0.1135
  325TMC3    C8 4942   4.615   1.000  14.567  0.7322  0.5202  0.2745
  325TMC3    O1 4943   0.059   1.546  14.408  0.0889 -0.1531 -0.3279
  325TMC3    O2 4944   4.651   0.888  14.534  0.5323  0.2277  0.0204
  326MPD2     C 4945   1.255   1.893  11.057  0.5034  0.0872  0.2489
  326MPD2    C1 4946   1.273   1.952  10.936 -0.4423 -0.4388 -0.2512
  326MPD2    C2 4947   1.371   2.050  10.935  0.0822 -0.4649  0.5777
  326MPD2    C3 4948   1.451   2.088  11.042  0.5202  0.2152 -0.1025
  326MPD2    C4 4949   1.429   2.026  11.160 -0.1986 -0.7610 -0.3130
  326MPD2    C5 4950   1.334   1.932  11.160 -0.5269  0.2314 -0.6214
  326MPD2     H 4951   1.390   2.100  10.841 -0.2073 -0.1735  0.6732
  326MPD2    H1 4952   1.481   2.029  11.255 -0.0229 -0.3372 -0.4254
  326MPD2    H2 4953   1.192   1.808  11.080  0.3591  0.0372 -0.3377
  326MPD2    H3 4954   1.305   1.885  11.254 -0.3849 -0.5567 -0.9703
  326MPD2     N 4955   1.532   2.208  11.038 -0.1565  0.2285 -0.1004
  326MPD2    H5 4956   1.580   2.240  11.121  0.3642 -0.7865 -0.0072
  326MPD2    N1 4957   1.196   1.931  10.813 -0.1142 -0.1618 -0.1659
  326MPD2    H7 4958   1.201   2.009  10.748  1.7429  1.2433  1.6671
  327TMC3    C1 4959   1.143   1.813  10.631  0.3583 -0.1474 -0.1969
  327TMC3    C2 4960   1.043   1.899  10.584  0.4204  0.0330 -0.8518
  327TMC3    C3 4961   1.073   1.959  10.464  0.4329  0.1010  0.5809
  327TMC3    C4 4962   1.264   1.785  10.570  0.9800 -0.6730  0.4166
  327TMC3    C5 4963   1.287   1.850  10.451 -0.0780  0.4569 -0.4124
  327TMC3    C6 4964   1.190   1.928  10.398 -0.6740 -0.0433 -0.0557
  327TMC3     C 4965   1.141   1.812  10.775 -0.1210  0.0977  0.4011
  327TMC3     O 4966   1.157   1.708  10.835 -0.3657 -0.0181  0.6727
  327TMC3     H 4967   0.944   1.898  10.630 -0.0787 -2.8417 -2.0119
  327TMC3    H1 4968   1.340   1.726  10.620  1.5871 -0.7666 -0.6213
  327TMC3    H2 4969   1.209   1.976  10.303 -2.0445  1.5800  0.5001
  327TMC3    C7 4970   1.420   1.881  10.414 -0.4891 -0.1427 -0.0028
  327TMC3    C8 4971   1.019   2.092  10.426 -0.2850 -0.1158  0.1548
  327TMC3    O1 4972   1.428   1.936  10.300 -0.0876  0.5410 -0.0308
  327TMC3    O2 4973   1.070   2.136  10.323 -0.0739 -0.1542  0.3064
  328MPD2     C 4974   4.236   2.222  17.089  0.1068 -0.9244  0.1983
  328MPD2    C1 4975   4.155   2.114  17.127 -0.5556  0.1919  0.7169
  328MPD2    C2 4976   4.018   2.121  17.090  0.1151  0.2245  0.2376
  328MPD2    C3 4977   3.970   2.227  17.014 -0.1652 -0.1735  0.3498
  328MPD2    C4 4978   4.054   2.337  16.987  0.6903 -0.7376 -0.5293
  328MPD2    C5 4979   4.190   2.326  17.012  0.3836 -0.2567  0.3201
  328MPD2     H 4980   3.956   2.033  17.103 -0.6663  0.7540  0.1488
  328MPD2    H1 4981   4.017   2.422  16.931 -0.2167 -0.9224 -0.2233
  328MPD2    H2 4982   4.340   2.232  17.119  0.3628  0.0289 -0.9942
  328MPD2    H3 4983   4.255   2.410  16.990 -0.6547  0.0593 -1.5840
  328MPD2     N 4984   3.838   2.230  16.967 -0.0498 -0.4972 -0.2045
  328MPD2    H5 4985   3.810   2.312  16.915 -0.3002  0.4555  1.4466
  328MPD2    N1 4986   4.215   2.007  17.200 -0.1261 -0.3758 -0.1168
  328MPD2    H7 4987   4.316   2.014  17.206 -0.0121 -1.2857 -0.8740
  329TMC3    C1 4988   4.235   1.816  17.333  0.0970  0.7986 -0.1621
  329TMC3    C2 4989   4.225   1.800  17.463  0.7612  0.3580  0.0967
  329TMC3    C3 4990   4.335   1.780  17.539  0.9098  0.6371 -0.1797
  329TMC3    C4 4991   4.356   1.809  17.268  0.4850 -0.3780 -0.5159
  329TMC3    C5 4992   4.468   1.777  17.347  0.0933 -0.3268 -0.4010
  329TMC3    C6 4993   4.457   1.756  17.481 -0.8704 -0.2004 -0.1176
  329TMC3     C 4994   4.149   1.910  17.276 -0.1582 -0.2022 -0.0649
  329TMC3     O 4995   4.032   1.908  17.297  0.2636 -0.2338  0.0823
  329TMC3     H 4996   4.126   1.824  17.501  0.6443  1.5438 -0.9491
  329TMC3    H1 4997   4.361   1.827  17.161 -2.2016  1.1661 -0.3577
  329TMC3    H2 4998   4.535   1.727  17.551 -1.4252 -0.7873  0.2537
  329TMC3    C7 4999   4.588   1.744  17.281  0.0416 -0.5227 -1.1343
  329TMC3    C8 5000   4.326   1.776  17.684 -0.0785 -0.1982  1.0167
  329TMC3    O1 5001   4.578   1.769  17.162  0.5618  0.1722  0.2640
  329TMC3    O2 5002   4.414   1.709  17.740  0.0487 -0.0581 -0.1857
  330TMC3    C1 5003   1.609   1.620   9.322 -0.2102  0.5163  0.3968
  330TMC3    C2 5004   1.509   1.533   9.302  0.1243  1.1645 -0.2444
  330TMC3    C3 5005   1.533   1.395   9.304  0.2867  0.2932 -0.0726
  330TMC3    C4 5006   1.735   1.577   9.335 -0.1480  0.1245 -0.1602
  330TMC3    C5 5007   1.760   1.440   9.322  0.0101  0.2357 -0.0891
  330TMC3    C6 5008   1.659   1.345   9.316 -0.3361  0.0391 -0.2781
  330TMC3     C 5009   1.581   1.750   9.372  0.1821  0.4180  0.3544
  330TMC3     O 5010   1.669   1.830   9.393 -0.0457 -0.0944 -0.0791
  330TMC3     H 5011   1.407   1.559   9.272  0.4557  3.1859  0.3343
  330TMC3    H1 5012   1.808   1.656   9.348  0.0900 -0.3872  1.6530
  330TMC3    H2 5013   1.677   1.239   9.305  1.0311  0.2675 -0.2954
  330TMC3    C7 5014   1.897   1.396   9.338 -0.0712  0.0956 -0.2074
  330TMC3    C8 5015   1.412   1.319   9.278 -0.1212 -0.1643 -0.1338
  330TMC3    O1 5016   1.967   1.480   9.396  0.2506 -0.4427  0.1465
  330TMC3    O2 5017   1.326   1.361   9.201 -0.2019 -0.1153  0.0502
  331MPD2     C 5018   4.379   4.625  12.542 -0.1131 -0.3021  0.0969
  331MPD2    C1 5019   4.447   4.726  12.485  0.7225  0.6812 -0.5613
  331MPD2    C2 5020   4.575   4.709  12.435  0.5903  0.3629  0.0150
  331MPD2    C3 5021   4.632   4.581  12.452  1.0422  0.1012  0.9306
  331MPD2    C4 5022   4.567   4.486  12.527 -0.0271 -0.7652 -0.8603
  331MPD2    C5 5023   4.435   4.503  12.556  0.0209 -0.1862 -0.2988
  331MPD2     H 5024   4.619   0.052  12.374 -0.8530  2.4997  1.7652
  331MPD2    H1 5025   4.600   4.383  12.528 -1.9172 -1.3425  1.6112
  331MPD2    H2 5026   4.277   4.636  12.574 -0.1256  1.3453 -0.4907
  331MPD2    H3 5027   4.391   4.419  12.607 -0.0221 -0.5348 -0.9061
  331MPD2     N 5028   0.021   4.562  12.391 -0.3934 -0.2078 -0.2302
  331MPD2    H5 5029   0.050   4.638  12.331 -1.8241 -0.5081 -1.2950
  331MPD2    N1 5030   4.381   0.111  12.471 -0.2236  0.3273 -0.2254
  331MPD2    H7 5031   4.280   0.114  12.483 -0.1629 -0.4093  0.4269
  332TMC3    C1 5032   0.195   4.435  12.290  0.3300  0.5222 -0.1809
  332TMC3    C2 5033   0.164   4.493  12.174  0.2950 -0.8993  0.0527
  332TMC3    C3 5034   0.241   4.461  12.066  0.0119  0.2032  0.3579
  332TMC3    C4 5035   0.312   4.370  12.308 -0.3693 -0.2925 -0.2085
  332TMC3    C5 5036   0.394   4.348  12.196 -0.6186  0.2925 -0.2067
  332TMC3    C6 5037   0.360   4.395  12.072  0.0700  0.3213  0.3296
  332TMC3     C 5038   0.098   4.447  12.396 -0.4980 -0.1854  0.1525
  332TMC3     O 5039   0.099   4.364  12.486 -0.0985  0.1006 -0.3890
  332TMC3     H 5040   0.078   4.555  12.156  0.1581 -0.3857  2.4428
  332TMC3    H1 5041   0.341   4.345  12.409 -2.2384 -2.4007 -0.1834
  332TMC3    H2 5042   0.423   4.392  11.983  1.3728 -0.5346  1.2813
  332TMC3    C7 5043   0.508   4.254  12.199 -0.0086  0.4911  0.7582
  332TMC3    C8 5044   0.179   4.492  11.933  0.4938  0.4842  0.0324
  332TMC3    O1 5045   0.512   4.169  12.113 -0.0825 -0.1069 -0.1329
  332TMC3    O2 5046   0.261   4.512  11.847 -0.2413  0.4096 -0.3910
  333MPD2     C 5047   4.120   0.281  10.873  0.2111  0.0768 -0.4824
  333MPD2    C1 5048   4.247   0.250  10.845 -0.0366 -0.4673 -0.3149
  333MPD2    C2 5049   4.290   0.123  10.886  0.4235 -0.4674 -0.6292
  333MPD2    C3 5050   4.208   0.034  10.955 -0.2543 -0.5301 -0.1643
  333MPD2    C4 5051   4.075   0.069  10.973 -0.0277  0.2579  0.1947
  333MPD2    C5 5052   4.033   0.187  10.923 -0.5296 -0.1035  0.3213
  333MPD2     H 5053   4.397   0.104  10.885  0.5265  0.0918  0.5641
  333MPD2    H1 5054   4.001   0.006  11.020  1.0338 -2.1359 -1.3248
  333MPD2    H2 5055   4.070   0.370  10.835  2.7715  2.0809  0.7939
  333MPD2    H3 5056   3.930   0.218  10.933 -0.5988 -0.1757 -0.1516
  333MPD2     N 5057   4.255   4.643  10.993 -0.1493  0.3314 -0.2407
  333MPD2    H5 5058   4.346   4.616  10.958  0.6658  0.7847  1.5559
  333MPD2    N1 5059   4.329   0.350  10.790 -0.9545  0.4088 -0.1799
  333MPD2    H7 5060   4.291   0.444  10.789 -0.8637  0.4772  2.2338
  334TMC3    C1 5061   4.534   0.426  10.713 -0.1176  0.4164  0.2854
  334TMC3    C2 5062   4.652   0.389  10.659  1.3419 -0.5169 -0.5438
  334TMC3    C3 5063   0.013   0.483  10.649  0.4034  0.6477 -0.4158
  334TMC3    C4 5064   4.498   0.555  10.750 -0.3060  0.6166  1.3149
  334TMC3    C5 5065   4.594   0.655  10.726 -0.0340 -0.2087 -0.4364
  334TMC3    C6 5066   4.723   0.617  10.685  0.8706  0.3920  0.1450
  334TMC3     C 5067   4.448   0.315  10.732 -0.0111  0.6372  0.5952
  334TMC3     O 5068   4.482   0.203  10.687  0.0499  0.5009 -0.1471
  334TMC3     H 5069   4.667   0.285  10.636  0.1422 -1.2182  1.7592
  334TMC3    H1 5070   4.394   0.583  10.764 -0.7628  0.6656 -2.2287
  334TMC3    H2 5071   0.051   0.702  10.664 -1.0023  1.7411 -0.0851
  334TMC3    C7 5072   4.569   0.791  10.776 -0.0116 -0.2739 -0.0465
  334TMC3    C8 5073   0.136   0.441  10.578 -0.1896  0.8754  0.5320
  334TMC3    O1 5074   4.636   0.873  10.721 -0.3417 -0.4753 -0.4194
  334TMC3    O2 5075   0.129   0.335  10.522  0.2033  0.5343 -0.2997
  335TMC3    C1 5076   4.700   2.071  17.183  0.1395 -0.2260 -0.6452
  335TMC3    C2 5077   4.656   2.019  17.066  0.7666  0.2077  0.3007
  335TMC3    C3 5078   0.011   2.008  16.964 -0.1707  0.0687 -0.2592
  335TMC3    C4 5079   0.100   2.104  17.205 -0.5005 -0.5181  0.0420
  335TMC3    C5 5080   0.187   2.092  17.096 -0.7550 -0.1902  0.7454
  335TMC3    C6 5081   0.144   2.050  16.974 -0.2491  0.7285 -0.2203
  335TMC3     C 5082   4.605   2.094  17.287  0.2631 -0.6215 -0.2125
  335TMC3     O 5083   4.485   2.086  17.252  0.4518  0.1144  0.5084
  335TMC3     H 5084   4.552   1.988  17.056  1.7814 -2.8363 -1.0649
  335TMC3    H1 5085   0.127   2.151  17.299 -0.3693 -0.1158 -0.1953
  335TMC3    H2 5086   0.209   2.020  16.892 -0.4104  1.5709 -0.6606
  335TMC3    C7 5087   0.325   2.125  17.113 -0.6963  0.3045 -0.4995
  335TMC3    C8 5088   4.706   1.929  16.847  0.2912 -0.4938 -1.2916
  335TMC3    O1 5089   0.390   2.115  17.009 -0.2013 -0.1325  0.0943
  335TMC3    O2 5090   0.031   1.957  16.745  0.4506 -0.4557  0.3714
  336MPD2     C 5091   4.104   4.394  16.014 -0.3602 -0.2988 -0.1190
  336MPD2    C1 5092   4.150   4.321  15.908  0.1586  0.1130 -0.2945
  336MPD2    C2 5093   4.242   4.221  15.932 -0.7296 -0.5653 -0.2106
  336MPD2    C3 5094   4.294   4.201  16.060  0.4973 -0.0969  0.0655
  336MPD2    C4 5095   4.254   4.287  16.166  0.0079  0.1190 -0.4433
  336MPD2    C5 5096   4.160   4.374  16.139 -0.1756 -0.5706  1.3337
  336MPD2     H 5097   4.272   4.156  15.850  1.1561  0.7112 -0.5379
  336MPD2    H1 5098   4.315   4.291  16.256  1.6978  0.9234 -1.6209
  336MPD2    H2 5099   4.029   4.469  15.994 -0.2773 -0.1453  0.1520
  336MPD2    H3 5100   4.124   4.431  16.224 -2.8895 -0.8368  0.3618
  336MPD2     N 5101   4.393   4.107  16.096  0.6327 -0.4510 -0.4307
  336MPD2    H5 5102   4.409   4.094  16.195  0.2603  0.1836 -0.2888
  336MPD2    N1 5103   4.114   4.353  15.772  0.1064 -0.0664  0.2092
  336MPD2    H7 5104   4.051   4.432  15.775 -1.2385 -1.0981 -1.2158
  337TMC3    C1 5105   4.083   4.352  15.535 -1.1124 -0.5087  0.3662
  337TMC3    C2 5106   4.032   4.268  15.447 -0.2536 -0.2741  0.1390
  337TMC3    C3 5107   3.943   4.317  15.353 -0.5865  0.4749 -0.0951
  337TMC3    C4 5108   4.057   4.483  15.544  0.4300 -0.1236  0.0876
  337TMC3    C5 5109   3.970   4.531  15.449  0.5933 -0.0113  0.2610
  337TMC3    C6 5110   3.915   4.453  15.353  0.0262 -0.4803  0.5181
  337TMC3     C 5111   4.150   4.289  15.652  1.0265 -0.5213  0.4411
  337TMC3     O 5112   4.196   4.175  15.631  0.2951  0.8462 -0.6277
  337TMC3     H 5113   4.051   4.161  15.454  1.9922  0.1529  0.7703
  337TMC3    H1 5114   4.102   4.541  15.624  2.1423  0.4856 -1.3108
  337TMC3    H2 5115   3.852   4.494  15.275  1.2467 -2.6896 -1.6277
  337TMC3    C7 5116   3.914   4.671  15.460  1.1402 -0.0023 -0.3276
  337TMC3    C8 5117   3.846   4.227  15.298 -0.0891  0.2116 -1.0835
  337TMC3    O1 5118   3.812   4.711  15.398 -0.5394 -0.1392  0.6860
  337TMC3    O2 5119   3.823   4.128  15.367  0.1062  0.0070  0.0203
  338MPD2     C 5120   0.200   4.170   1.027  0.4260 -0.1517  0.3483
  338MPD2    C1 5121   0.131   4.104   0.931  0.1659  0.0268 -0.2243
  338MPD2    C2 5122   4.727   4.118   0.915  0.2140 -0.1047  0.6098
  338MPD2    C3 5123   4.662   4.195   1.010  0.2561 -0.9548 -0.4099
  338MPD2    C4 5124   4.733   4.245   1.120  0.5344 -0.4560  0.1741
  338MPD2    C5 5125   0.133   4.234   1.128  0.0852  0.7094  0.6027
  338MPD2     H 5126   4.675   4.073   0.831  1.0551  0.3508 -0.1526
  338MPD2    H1 5127   4.692   4.291   1.209 -1.5516  1.2347 -1.6581
  338MPD2    H2 5128   0.309   4.174   1.030  0.4825 -1.0250 -0.5261
  338MPD2    H3 5129   0.188   4.267   1.215  1.7597 -0.2762 -0.0888
  338MPD2     N 5130   4.529   4.229   0.986 -0.3867 -0.0559  0.0757
  338MPD2    H5 5131   4.475   4.191   0.909  3.1527 -1.0471 -1.9030
  338MPD2    N1 5132   0.190   4.021   0.834 -0.4937  0.0426 -0.6858
  338MPD2    H7 5133   0.127   3.995   0.759 -0.8773 -2.2362  0.4288
  339TMC3    C1 5134   4.316   4.288   1.029 -0.7376 -0.4638  0.3167
  339TMC3    C2 5135   4.235   4.224   1.120 -0.0831  0.1829 -0.6248
  339TMC3    C3 5136   4.117   4.167   1.079  0.0990 -0.6043 -0.1515
  339TMC3    C4 5137   4.289   4.290   0.895  0.1004  0.4387  0.0842
  339TMC3    C5 5138   4.176   4.220   0.858 -0.1134 -0.4620  0.4378
  339TMC3    C6 5139   4.096   4.152   0.947  0.2279  0.0650  0.5059
  339TMC3     C 5140   4.449   4.299   1.077 -0.5335 -0.5627  0.1136
  339TMC3     O 5141   4.469   4.324   1.194 -0.1116 -0.9745  0.1028
  339TMC3     H 5142   4.266   4.228   1.224  3.4706 -2.2864 -1.5921
  339TMC3    H1 5143   4.352   4.340   0.823 -0.2290 -0.8791 -1.1259
  339TMC3    H2 5144   4.001   4.107   0.921  0.4906 -0.8503  1.1245
  339TMC3    C7 5145   4.154   4.215   0.718  0.2275  0.0669  0.4900
  339TMC3    C8 5146   4.052   4.082   1.177  0.3656 -0.9901 -0.9718
  339TMC3    O1 5147   4.158   4.319   0.651  0.2510 -0.0211  0.2878
  339TMC3    O2 5148   4.038   4.126   1.293 -0.2686 -0.1942 -0.4072
  340MPD2     C 5149   4.404   2.230  10.327  0.3391 -0.1263  0.9460
  340MPD2    C1 5150   4.524   2.157  10.329  0.5848 -0.8676 -0.8934
  340MPD2    C2 5151   4.609   2.177  10.436  0.2573 -0.1238  0.7861
  340MPD2    C3 5152   4.582   2.256  10.544 -0.6954 -0.4082  0.6976
  340MPD2    C4 5153   4.463   2.321  10.541 -0.0132  1.0814 -0.9128
  340MPD2    C5 5154   4.375   2.307  10.437  0.1796  0.2311  0.9769
  340MPD2     H 5155   4.709   2.137  10.427  1.4269  2.8780  0.1479
  340MPD2    H1 5156   4.438   2.397  10.615  0.6810  1.5346 -1.1372
  340MPD2    H2 5157   4.341   2.237  10.239 -1.2942 -2.9467  1.8804
  340MPD2    H3 5158   4.280   2.358  10.447  1.5273  2.1230  4.1260
  340MPD2     N 5159   4.676   2.284  10.645  0.8488  0.1977  0.2518
  340MPD2    H5 5160   4.660   2.355  10.715  0.1855  0.6532 -0.3579
  340MPD2    N1 5161   4.562   2.095  10.200 -0.8362 -0.1226 -0.0504
  340MPD2    H7 5162   4.489   2.110  10.131 -3.5411  2.6423  3.3982
  341TMC3    C1 5163   4.680   1.998  10.028  0.2076 -0.6559 -0.5313
  341TMC3    C2 5164   4.561   1.956   9.968 -0.4641 -0.2741  0.0809
  341TMC3    C3 5165   4.562   1.938   9.834 -0.1586 -0.1308 -0.0507
  341TMC3    C4 5166   0.066   2.001   9.957 -1.1643  0.3588 -0.0396
  341TMC3    C5 5167   0.058   1.965   9.825  0.0931 -0.3717  0.4781
  341TMC3    C6 5168   4.675   1.942   9.763  0.9138 -0.0268  0.0851
  341TMC3     C 5169   4.690   2.052  10.162 -0.2393 -0.1434 -0.3961
  341TMC3     O 5170   0.057   2.054  10.232  0.0433  0.7043  0.0330
  341TMC3     H 5171   4.467   1.961  10.022  0.0881 -1.5079  1.1741
  341TMC3    H1 5172   0.160   2.026  10.005 -0.7631  1.2583 -1.2881
  341TMC3    H2 5173   4.693   1.909   9.661  0.5163  0.8249 -0.2523
  341TMC3    C7 5174   0.173   1.880   9.792  0.3606  0.0825 -0.0446
  341TMC3    C8 5175   4.453   1.856   9.795  0.1073  0.3516 -0.1817
  341TMC3    O1 5176   0.221   1.817   9.888  0.2269 -0.3518  0.3330
  341TMC3    O2 5177   4.378   1.818   9.885 -0.3448 -0.0660  0.3925
  342MPD2     C 5178   2.685   0.010  17.560 -1.1099  0.3201  0.5567
  342MPD2    C1 5179   2.729   0.053  17.433 -0.6785 -0.3891  0.4188
  342MPD2    C2 5180   2.701   0.184  17.393 -0.5895 -0.6489 -0.3087
  342MPD2    C3 5181   2.641   0.278  17.476 -0.6098  0.6442  0.1894
  342MPD2    C4 5182   2.603   0.231  17.602  0.0836 -0.0771  0.1178
  342MPD2    C5 5183   2.613   0.100  17.632  0.6674  0.3109 -0.1122
  342MPD2     H 5184   2.734   0.212  17.294 -1.0916 -3.0928 -1.1627
  342MPD2    H1 5185   2.556   0.291  17.679 -2.0294 -1.5237 -0.0483
  342MPD2    H2 5186   2.704   4.646  17.599  1.3421  1.7311  2.9277
  342MPD2    H3 5187   2.577   0.058  17.726  0.6898  1.1979  0.2897
  342MPD2     N 5188   2.631   0.416  17.440  0.5028 -0.5419 -0.6201
  342MPD2    H5 5189   2.568   0.474  17.493 -0.6866 -1.7100 -0.7633
  342MPD2    N1 5190   2.792   4.705  17.336 -0.5870 -0.0908  0.2665
  342MPD2    H7 5191   2.819   0.010  17.248 -0.1295  0.1883  0.5393
  343TMC3    C1 5192   2.862   4.491  17.244  0.1609  0.0949  0.0213
  343TMC3    C2 5193   2.961   4.544  17.162 -0.0997 -0.1650 -0.0248
  343TMC3    C3 5194   3.032   4.445  17.095 -0.1799  0.4030 -0.2914
  343TMC3    C4 5195   2.816   4.363  17.267 -0.4408 -0.1544 -0.1411
  343TMC3    C5 5196   2.889   4.272  17.195  0.4689 -0.0594 -0.5580
  343TMC3    C6 5197   2.990   4.315  17.110  0.8019  0.4756  0.4752
  343TMC3     C 5198   2.820   4.570  17.359 -0.2143  0.0110 -0.5990
  343TMC3     O 5199   2.807   4.508  17.465 -0.0086 -0.0131 -0.0437
  343TMC3     H 5200   2.993   4.647  17.149 -0.5495  0.1823  1.6218
  343TMC3    H1 5201   2.743   4.327  17.339  0.1713 -2.4323 -0.6659
  343TMC3    H2 5202   3.048   4.230  17.075 -0.5205  0.0225 -0.6218
  343TMC3    C7 5203   2.843   4.132  17.203 -0.3800  0.1203 -0.5347
  343TMC3    C8 5204   3.169   4.486  17.058 -0.0605 -0.1803  0.5205
  343TMC3    O1 5205   2.836   4.071  17.097 -0.6561  0.2331  0.3115
  343TMC3    O2 5206   3.207   4.595  17.093  0.1156  0.4377 -0.6488
  344MPD2     C 5207   3.510   4.144  10.708 -0.6104  0.0303 -0.0744
  344MPD2    C1 5208   3.392   4.148  10.648  0.2965 -0.6415 -0.0615
  344MPD2    C2 5209   3.385   4.191  10.519  0.4056  0.2831 -0.0780
  344MPD2    C3 5210   3.497   4.236  10.450 -0.3641 -0.7225  0.0460
  344MPD2    C4 5211   3.615   4.225  10.518  0.1266 -0.1942 -0.1893
  344MPD2    C5 5212   3.623   4.172  10.642  0.2675 -0.0577 -0.3417
  344MPD2     H 5213   3.287   4.207  10.476 -0.7331 -2.5835  1.4537
  344MPD2    H1 5214   3.703   4.248  10.459 -1.0300  1.7678 -1.1642
  344MPD2    H2 5215   3.525   4.110  10.810 -2.9130  2.5792  1.1155
  344MPD2    H3 5216   3.720   4.168  10.689  0.3080  0.8939 -0.3588
  344MPD2     N 5217   3.500   4.293  10.325 -0.6140 -0.1912 -0.4672
  344MPD2    H5 5218   3.595   4.317  10.298 -1.0767  2.0283 -0.1860
  344MPD2    N1 5219   3.271   4.098  10.713  0.4152 -0.4983  0.2445
  344MPD2    H7 5220   3.185   4.088  10.661  0.8796 -2.2313 -0.1632
  345TMC3    C1 5221   3.440   4.385  10.106  0.5189  0.5390 -0.2742
  345TMC3    C2 5222   3.570   4.388  10.073 -0.2048  0.0297  0.0829
  345TMC3    C3 5223   3.620   4.499  10.011  0.4581  0.1327  0.2986
  345TMC3    C4 5224   3.358   4.492  10.068  0.3817  0.0486  0.1349
  345TMC3    C5 5225   3.410   4.587   9.984  1.0649 -0.2427 -0.7046
  345TMC3    C6 5226   3.547   4.594   9.966  0.1060 -0.4996  0.4994
  345TMC3     C 5227   3.400   4.312  10.233 -0.3824  0.8795  0.1622
  345TMC3     O 5228   3.286   4.291  10.255 -0.5368 -0.5473 -0.2954
  345TMC3     H 5229   3.621   4.294  10.093 -0.9998 -0.5434 -0.5891
  345TMC3    H1 5230   3.260   4.497  10.113  0.7229 -0.5566  0.9489
  345TMC3    H2 5231   3.593   4.685   9.927 -0.4216 -0.6809 -0.5439
  345TMC3    C7 5232   3.331   4.709   9.952 -0.1830  0.0442  0.5318
  345TMC3    C8 5233   3.765   4.507  10.002  0.0485 -0.6098 -0.3720
  345TMC3    O1 5234   3.388   0.061   9.889 -0.3719  0.1785 -0.6972
  345TMC3    O2 5235   3.838   4.409  10.000 -0.6624  0.5818 -1.0449
  346MPD2     C 5236   3.925   1.041  14.509 -0.6308  0.3278  0.4047
  346MPD2    C1 5237   3.905   1.158  14.438 -0.6634 -0.1340 -0.3401
  346MPD2    C2 5238   3.891   1.279  14.501  0.0392  0.1687 -0.5654
  346MPD2    C3 5239   3.884   1.282  14.639 -0.8606 -0.8895  0.2531
  346MPD2    C4 5240   3.900   1.166  14.717 -0.8579  0.1069 -0.2669
  346MPD2    C5 5241   3.914   1.047  14.643  0.2454  0.5366  0.2638
  346MPD2     H 5242   3.877   1.370  14.444 -0.3469  1.1491  1.1082
  346MPD2    H1 5243   3.895   1.160  14.825  0.1973  2.2708 -0.1118
  346MPD2    H2 5244   3.963   0.951  14.463 -2.8413 -0.8069  0.7739
  346MPD2    H3 5245   3.928   0.950  14.689 -1.2927  1.0206  1.7621
  346MPD2     N 5246   3.872   1.405  14.700 -0.0481  0.3549  0.2302
  346MPD2    H5 5247   3.850   1.481  14.636  0.0397  0.4863  0.3541
  346MPD2    N1 5248   3.909   1.151  14.295 -0.2576  0.0454 -0.2124
  346MPD2    H7 5249   3.931   1.061  14.252  0.6306  0.2175 -0.1118
  347TMC3    C1 5250   3.895   1.577  14.864  0.4502 -0.0907  0.2328
  347TMC3    C2 5251   3.961   1.655  14.774  0.1934  0.0323 -0.7501
  347TMC3    C3 5252   4.021   1.769  14.820  0.6137 -0.5140 -0.0685
  347TMC3    C4 5253   3.880   1.610  14.994  0.7619 -0.6061 -0.6978
  347TMC3    C5 5254   3.937   1.728  15.037 -0.0388  0.1230  0.7307
  347TMC3    C6 5255   4.006   1.815  14.952 -0.7146 -0.2607 -0.1091
  347TMC3     C 5256   3.882   1.437  14.835  0.2881 -0.2376  0.0249
  347TMC3     O 5257   3.898   1.357  14.928 -1.0279  0.6999 -0.0877
  347TMC3     H 5258   3.966   1.627  14.669  0.6582  2.1781 -1.3078
  347TMC3    H1 5259   3.836   1.541  15.065 -0.8299  2.9274  1.7238
  347TMC3    H2 5260   4.062   1.899  14.992 -1.3522 -0.1060  0.4814
  347TMC3    C7 5261   3.941   1.752  15.182 -0.2519  0.1637  0.0456
  347TMC3    C8 5262   4.133   1.819  14.739  0.3613  1.1095  0.1687
  347TMC3    O1 5263   3.968   1.656  15.252 -0.1912 -0.9223 -1.2131
  347TMC3    O2 5264   4.171   1.931  14.764 -0.4821 -0.3226  0.1254
  348MPD2     C 5265   2.223   0.581  11.839  0.5193  0.5203 -0.3651
  348MPD2    C1 5266   2.315   0.676  11.791 -0.3397  0.6532  0.3547
  348MPD2    C2 5267   2.269   0.778  11.713 -0.1035 -0.4532 -0.2404
  348MPD2    C3 5268   2.137   0.805  11.693 -1.1949  0.3010  0.3590
  348MPD2    C4 5269   2.043   0.709  11.741 -0.0290 -0.8383 -0.7755
  348MPD2    C5 5270   2.094   0.598  11.801  0.1392 -0.2460 -0.1278
  348MPD2     H 5271   2.349   0.847  11.690 -1.1551  0.7719 -0.1977
  348MPD2    H1 5272   1.939   0.713  11.711 -0.5357 -0.3553  1.0601
  348MPD2    H2 5273   2.263   0.498  11.897 -1.0156  0.5822  0.7611
  348MPD2    H3 5274   2.027   0.518  11.831 -0.2949  0.2522  0.2273
  348MPD2     N 5275   2.096   0.923  11.626 -0.2201  0.1777 -0.1589
  348MPD2    H5 5276   2.168   0.988  11.597 -0.7918  0.6743 -0.4607
  348MPD2    N1 5277   2.453   0.670  11.798  0.3996  0.7532  0.4402
  348MPD2    H7 5278   2.498   0.756  11.769  2.9835 -0.6493  0.3548
  349TMC3    C1 5279   2.671   0.579  11.770  0.2945 -0.6175 -0.1209
  349TMC3    C2 5280   2.726   0.459  11.741 -0.3376 -0.6906  0.0646
  349TMC3    C3 5281   2.809   0.449  11.638 -0.0741 -0.6770 -0.9311
  349TMC3    C4 5282   2.689   0.683  11.679 -0.8389  0.4600  0.4429
  349TMC3    C5 5283   2.749   0.660  11.559 -0.6971 -0.1847  0.1937
  349TMC3    C6 5284   2.814   0.541  11.540  0.0970  0.4602  1.1165
  349TMC3     C 5285   2.535   0.565  11.827 -0.3674 -0.3445  0.0094
  349TMC3     O 5286   2.505   0.455  11.867 -0.1864 -0.3467  0.2170
  349TMC3     H 5287   2.715   0.373  11.805 -0.0801 -1.6292 -1.1630
  349TMC3    H1 5288   2.651   0.784  11.689  1.1689  1.0873  1.7154
  349TMC3    H2 5289   2.864   0.523  11.446 -1.6965 -0.9329  0.4208
  349TMC3    C7 5290   2.673   0.692  11.442  0.0645  0.3174  0.5030
  349TMC3    C8 5291   2.936   0.398  11.684  0.0271 -0.3912  0.8252
  349TMC3    O1 5292   2.626   0.592  11.388  0.0221 -0.2985 -0.4632
  349TMC3    O2 5293   2.938   0.303  11.760  0.6254 -0.0605  0.3306
  350MPD2     C 5294   0.901   3.940  10.380  0.1701  0.3300  0.0708
  350MPD2    C1 5295   1.007   3.854  10.375  0.5101  0.0017 -0.4333
  350MPD2    C2 5296   1.130   3.900  10.368  0.3318 -0.2036 -0.0357
  350MPD2    C3 5297   1.152   4.031  10.352 -0.8629  0.1645 -0.9828
  350MPD2    C4 5298   1.044   4.122  10.335  0.8401  0.0441 -0.3188
  350MPD2    C5 5299   0.913   4.077  10.360  0.5667 -0.0667  0.5865
  350MPD2     H 5300   1.217   3.837  10.378 -0.1970 -0.9809 -0.3418
  350MPD2    H1 5301   1.060   4.227  10.310  0.3672 -0.3330 -2.1963
  350MPD2    H2 5302   0.803   3.905  10.411  1.2411 -2.1683  0.5624
  350MPD2    H3 5303   0.826   4.141  10.358  1.2736  0.8384 -1.8668
  350MPD2     N 5304   1.282   4.075  10.363  0.0415 -0.2726 -0.2921
  350MPD2    H5 5305   1.355   4.004  10.368 -0.2661 -0.6285 -0.8928
  350MPD2    N1 5306   0.998   3.708  10.366 -0.1361  0.0961 -0.6151
  350MPD2    H7 5307   1.089   3.662  10.367  0.4074  1.2169  2.7441
  351TMC3    C1 5308   0.899   3.487  10.392  0.3260  0.9072 -0.4761
  351TMC3    C2 5309   1.001   3.427  10.319  0.5340 -0.3416 -0.3447
  351TMC3    C3 5310   0.986   3.295  10.291 -0.1272  0.0776  0.1405
  351TMC3    C4 5311   0.789   3.417  10.436 -0.7954  0.6189 -0.1715
  351TMC3    C5 5312   0.782   3.281  10.402 -0.5579 -0.1196 -0.5605
  351TMC3    C6 5313   0.884   3.218  10.339 -0.3785 -0.1952 -0.1571
  351TMC3     C 5314   0.882   3.634  10.389 -0.4226  0.4405 -0.7749
  351TMC3     O 5315   0.766   3.674  10.407 -0.3036  0.0046  0.0022
  351TMC3     H 5316   1.072   3.481  10.258  0.4730  1.3971  1.1324
  351TMC3    H1 5317   0.713   3.472  10.491 -0.0401  0.4509  1.0542
  351TMC3    H2 5318   0.885   3.111  10.324 -1.3429  0.0729 -2.2052
  351TMC3    C7 5319   0.652   3.220  10.408 -0.3882 -0.4119 -0.0033
  351TMC3    C8 5320   1.027   3.254  10.159  0.0600  0.2177 -0.3224
  351TMC3    O1 5321   0.626   3.142  10.317 -0.1330  0.4711  0.2495
  351TMC3    O2 5322   1.138   3.300  10.122 -0.2978  0.0107  0.4002
  352MPD2     C 5323   0.676   1.231   1.115  0.0789 -0.4694  0.1697
  352MPD2    C1 5324   0.592   1.137   1.058  0.1062  0.2669 -0.0461
  352MPD2    C2 5325   0.640   1.018   1.011  0.1687 -1.1095  0.6993
  352MPD2    C3 5326   0.782   0.994   1.010 -0.4092 -0.2197 -0.4283
  352MPD2    C4 5327   0.865   1.083   1.066  0.1430 -0.9135  0.2742
  352MPD2    C5 5328   0.811   1.196   1.118  0.0386  0.1389 -0.2708
  352MPD2     H 5329   0.564   0.954   0.969 -1.8841  2.2033 -0.6904
  352MPD2    H1 5330   0.972   1.068   1.075  0.6032  2.6249  1.0415
  352MPD2    H2 5331   0.643   1.330   1.145  1.1322  0.3841 -1.4996
  352MPD2    H3 5332   0.887   1.268   1.147 -0.7026  1.6141 -2.0128
  352MPD2     N 5333   0.844   0.870   0.967 -0.0222 -0.3366 -0.3546
  352MPD2    H5 5334   0.945   0.869   0.972 -0.0415  0.9532  0.2888
  352MPD2    N1 5335   0.452   1.181   1.047 -0.1935  0.3776  0.5163
  352MPD2    H7 5336   0.417   1.260   1.100  3.2060  0.1719  3.0747
  353TMC3    C1 5337   0.851   0.695   0.802  0.4876 -0.5172 -0.6712
  353TMC3    C2 5338   0.941   0.606   0.852 -0.3623  0.6203 -0.4772
  353TMC3    C3 5339   0.956   0.481   0.799 -0.9396  0.0468  0.1664
  353TMC3    C4 5340   0.770   0.648   0.701 -0.8896  0.3804 -0.1030
  353TMC3    C5 5341   0.781   0.515   0.653  0.3671 -0.2639  0.4390
  353TMC3    C6 5342   0.874   0.433   0.712  0.3657  0.3204 -0.2985
  353TMC3     C 5343   0.778   0.769   0.898  0.6215 -0.7752 -0.1092
  353TMC3     O 5344   0.656   0.757   0.893  0.1509 -0.0463 -0.0933
  353TMC3     H 5345   0.994   0.630   0.943  3.1444  1.7156 -2.7827
  353TMC3    H1 5346   0.702   0.719   0.653 -0.8907 -0.9744 -2.1295
  353TMC3    H2 5347   0.887   0.331   0.677 -1.0847  0.1720 -0.4116
  353TMC3    C7 5348   0.658   0.451   0.638 -0.2242  0.0936 -0.1033
  353TMC3    C8 5349   1.058   0.396   0.846  0.0984  0.1618 -0.0429
  353TMC3    O1 5350   0.647   0.351   0.578 -0.3654  0.7591 -0.2195
  353TMC3    O2 5351   1.161   0.448   0.886 -0.5695  0.1863  0.5594
  354TMC3    C1 5352   1.905   2.116  13.574 -0.2624 -0.4276 -0.0987
  354TMC3    C2 5353   1.920   2.253  13.584  0.3852 -0.3891  0.3416
  354TMC3    C3 5354   1.948   2.307  13.462  0.6082 -0.6477 -0.5733
  354TMC3    C4 5355   1.942   2.029  13.475  0.4800 -0.3446 -0.5308
  354TMC3    C5 5356   1.967   2.099  13.359  0.5814 -0.7746 -0.5593
  354TMC3    C6 5357   1.970   2.234  13.352  0.0739  0.1085 -0.3218
  354TMC3     C 5358   1.843   2.049  13.688 -0.6652  0.2604  0.1360
  354TMC3     O 5359   1.767   1.960  13.659 -0.1471  0.1105  0.1905
  354TMC3     H 5360   1.866   2.304  13.663  0.7681  2.1343 -1.0222
  354TMC3    H1 5361   1.897   1.931  13.469 -1.7186  0.7391 -1.9825
  354TMC3    H2 5362   1.986   2.277  13.253  2.4846 -0.6667 -0.2527
  354TMC3    C7 5363   1.998   2.031  13.238  0.4143  0.0176 -0.9288
  354TMC3    C8 5364   1.908   2.450  13.446 -0.0142  0.6096 -1.0161
  354TMC3    O1 5365   2.081   1.943  13.259 -0.3601  0.4607  0.4113
  354TMC3    O2 5366   1.908   2.523  13.540 -0.0004 -0.2134 -0.3245
  355MPD2     C 5367   1.525   2.701  12.030 -0.2718 -0.1752 -0.6096
  355MPD2    C1 5368   1.516   2.804  11.935 -0.0815 -0.3162 -0.1662
  355MPD2    C2 5369   1.638   2.850  11.893 -0.5486  0.6432 -0.0374
  355MPD2    C3 5370   1.764   2.802  11.941  0.8926  0.2609 -1.2377
  355MPD2    C4 5371   1.764   2.702  12.034  0.1214 -0.0074 -0.3328
  355MPD2    C5 5372   1.642   2.646  12.078  0.4818 -0.1000  0.4099
  355MPD2     H 5373   1.638   2.924  11.814 -2.6887  0.1642 -0.4714
  355MPD2    H1 5374   1.850   2.654  12.079  0.9565  1.0120 -0.8443
  355MPD2    H2 5375   1.431   2.656  12.058 -0.2113  1.6217  2.4872
  355MPD2    H3 5376   1.640   2.569  12.154 -0.5472 -2.0456 -1.5987
  355MPD2     N 5377   1.892   2.852  11.896  0.3795  0.3810 -0.0888
  355MPD2    H5 5378   1.977   2.817  11.941 -0.5628 -0.5539  0.9558
  355MPD2    N1 5379   1.390   2.866  11.895 -0.0761  0.3640  0.1262
  355MPD2    H7 5380   1.307   2.813  11.920  0.4269 -0.6718 -0.3987
  356TMC3    C1 5381   2.048   3.004  11.810 -0.2889  0.4696  0.3449
  356TMC3    C2 5382   2.085   3.067  11.691 -0.4836 -0.8736  0.2317
  356TMC3    C3 5383   2.191   3.152  11.692 -0.2578 -0.8601  0.5340
  356TMC3    C4 5384   2.093   3.050  11.929 -0.8353 -0.2530  0.1823
  356TMC3    C5 5385   2.186   3.152  11.925 -0.1115 -0.6993  0.4208
  356TMC3    C6 5386   2.242   3.202  11.814 -0.3860 -0.6481 -0.3560
  356TMC3     C 5387   1.912   2.951  11.808 -0.6565  0.1122  0.2157
  356TMC3     O 5388   1.832   2.996  11.729  0.2580 -0.0062 -0.4706
  356TMC3     H 5389   2.036   3.046  11.596  0.2182  2.2264 -0.8224
  356TMC3    H1 5390   2.051   3.012  12.021 -3.8837  1.5516 -0.4786
  356TMC3    H2 5391   2.331   3.264  11.817 -0.8247 -0.0558  0.6349
  356TMC3    C7 5392   2.242   3.177  12.055 -0.4358  0.1577  0.4375
  356TMC3    C8 5393   2.217   3.225  11.567  0.5008 -0.0610  0.4331
  356TMC3    O1 5394   2.220   3.086  12.139  0.1299  0.0687  0.0109
  356TMC3    O2 5395   2.145   3.187  11.473 -0.2153 -0.6642 -0.5380
  357MPD2     C 5396   1.729   2.597   0.528  0.5262  0.0641  0.0755
  357MPD2    C1 5397   1.771   2.570   0.650  0.1616 -0.0435 -0.6892
  357MPD2    C2 5398   1.707   2.635   0.759  0.5525  0.7033  0.3400
  357MPD2    C3 5399   1.599   2.727   0.742 -0.5103  0.3484  0.4071
  357MPD2    C4 5400   1.554   2.752   0.610 -0.4063 -0.1330 -0.3252
  357MPD2    C5 5401   1.628   2.687   0.511  0.4809  0.5255 -0.1510
  357MPD2     H 5402   1.728   2.595   0.858 -0.5764  1.6351  0.9490
  357MPD2    H1 5403   1.466   2.807   0.578  0.1218  1.3648  0.8159
  357MPD2    H2 5404   1.773   2.543   0.445  1.5169  0.5278  0.2945
  357MPD2    H3 5405   1.595   2.699   0.408  0.1952 -1.6743 -0.2999
  357MPD2     N 5406   1.505   2.759   0.848 -0.0668  0.2403  0.6080
  357MPD2    H5 5407   1.411   2.781   0.816 -0.3124  0.3407  1.4165
  357MPD2    N1 5408   1.870   2.467   0.659  0.1233 -0.2345 -0.5155
  357MPD2    H7 5409   1.897   2.418   0.574 -0.6576  3.7771 -3.0462
  358TMC3    C1 5410   1.926   2.262   0.774  0.0321 -0.2243  0.2812
  358TMC3    C2 5411   1.823   2.202   0.717  0.7018  0.0628  0.3083
  358TMC3    C3 5412   1.784   2.079   0.766 -0.4950  0.2725  0.6226
  358TMC3    C4 5413   1.998   2.221   0.882  0.2734 -0.4288  0.0138
  358TMC3    C5 5414   1.968   2.091   0.913  0.7687 -0.4466  0.6760
  358TMC3    C6 5415   1.865   2.021   0.863  0.5555 -0.4251 -0.5130
  358TMC3     C 5416   1.910   2.410   0.774 -0.4929 -0.3949  0.5104
  358TMC3     O 5417   1.923   2.459   0.886  0.8065 -0.3163 -0.1968
  358TMC3     H 5418   1.752   2.258   0.656  1.0926  1.7571  1.4233
  358TMC3    H1 5419   2.072   2.280   0.934 -2.5651  0.7031  2.8148
  358TMC3    H2 5420   1.853   1.917   0.890 -1.6333 -0.0465 -0.0236
  358TMC3    C7 5421   2.069   2.012   0.973 -0.4841 -0.3408 -0.2426
  358TMC3    C8 5422   1.639   2.061   0.757  0.3897  0.4711 -0.3070
  358TMC3    O1 5423   2.079   1.897   0.931 -0.3345  0.2212 -0.8200
  358TMC3    O2 5424   1.587   2.099   0.656  0.0692 -0.0340  0.9676
  359MPD2     C 5425   1.948   1.417  12.584  0.0233  0.1174 -0.4501
  359MPD2    C1 5426   1.865   1.419  12.469 -0.4085  0.7505  0.3098
  359MPD2    C2 5427   1.775   1.313  12.447 -0.0501 -0.5308 -0.2216
  359MPD2    C3 5428   1.775   1.214  12.539  0.4067  0.0293  0.3737
  359MPD2    C4 5429   1.864   1.201  12.638  0.0764 -0.4066  0.2670
  359MPD2    C5 5430   1.942   1.308  12.671 -0.7316 -0.1007  0.1559
  359MPD2     H 5431   1.719   1.312  12.355  0.0542  3.2112 -0.3124
  359MPD2    H1 5432   1.859   1.122  12.711  1.9159 -1.5942 -0.8850
  359MPD2    H2 5433   2.007   1.500  12.621 -0.9390  1.5711 -2.1925
  359MPD2    H3 5434   2.003   1.302  12.760  1.0386 -2.6654 -1.2492
  359MPD2     N 5435   1.682   1.110  12.526 -0.3709  0.3127  0.2924
  359MPD2    H5 5436   1.692   1.035  12.593 -2.7536  0.6259  1.0160
  359MPD2    N1 5437   1.863   1.525  12.372 -0.3857  0.5474  0.0801
  359MPD2    H7 5438   1.819   1.513  12.281 -1.9640 -1.5782  1.1330
  360TMC3    C1 5439   1.944   1.717  12.260 -0.2532  0.4029 -0.0747
  360TMC3    C2 5440   2.033   1.820  12.260 -0.5394  0.5967 -0.2638
  360TMC3    C3 5441   2.061   1.868  12.141  0.2206 -0.2154  0.0094
  360TMC3    C4 5442   1.857   1.695  12.153  0.0947 -0.2840 -0.0424
  360TMC3    C5 5443   1.874   1.773  12.042  0.7701 -0.3432  1.2577
  360TMC3    C6 5444   1.982   1.852  12.030 -0.0435 -0.0580 -0.3638
  360TMC3     C 5445   1.944   1.634  12.383  0.5470 -0.2497  0.2310
  360TMC3     O 5446   2.026   1.669  12.471  0.1970  0.1107  0.7058
  360TMC3     H 5447   2.111   1.829  12.335 -0.3093 -0.2312 -0.4019
  360TMC3    H1 5448   1.767   1.637  12.162  0.8391 -1.5733 -0.9225
  360TMC3    H2 5449   1.995   1.911  11.940 -0.0484 -1.1438 -1.0754
  360TMC3    C7 5450   1.788   1.760  11.927 -0.0001  0.0402  0.0401
  360TMC3    C8 5451   2.192   1.923  12.120 -0.4984 -0.9330 -0.3705
  360TMC3    O1 5452   1.753   1.860  11.866 -0.5948  0.0989 -0.1483
  360TMC3    O2 5453   2.257   1.964  12.214 -0.4775 -0.0599  0.1356
  361MPD2     C 5454   3.685   0.579  16.354 -0.1350  0.1727 -0.3914
  361MPD2    C1 5455   3.656   0.579  16.488  0.0477  0.0911  0.1456
  361MPD2    C2 5456   3.741   0.515  16.580  0.3942  0.0913  0.2928
  361MPD2    C3 5457   3.861   0.455  16.538 -0.1264 -0.8125 -0.0645
  361MPD2    C4 5458   3.882   0.441  16.398  0.4977 -0.1331 -0.3911
  361MPD2    C5 5459   3.791   0.498  16.310 -0.4845 -0.3274 -0.4125
  361MPD2     H 5460   3.720   0.536  16.685  4.0536  1.6926  0.6862
  361MPD2    H1 5461   3.963   0.386  16.352  1.1534 -0.0306  0.6453
  361MPD2    H2 5462   3.612   0.626  16.289 -0.4570 -1.9249 -1.5635
  361MPD2    H3 5463   3.810   0.472  16.207  1.8402 -0.0516 -0.0545
  361MPD2     N 5464   3.964   0.409  16.629  0.4587  0.6325 -0.4184
  361MPD2    H5 5465   4.043   0.354  16.596 -1.1686 -1.9694  0.0787
  361MPD2    N1 5466   3.544   0.654  16.532 -0.1448 -0.1165  0.1481
  361MPD2    H7 5467   3.503   0.719  16.465  1.4986 -0.8656 -1.5936
  362TMC3    C1 5468   3.382   0.747  16.678  0.4950  0.4666 -0.1337
  362TMC3    C2 5469   3.298   0.713  16.780 -0.0640  0.2813 -0.3648
  362TMC3    C3 5470   3.182   0.784  16.798 -0.3208  0.3472  0.0783
  362TMC3    C4 5471   3.351   0.845  16.586  0.1431 -0.5024  0.3976
  362TMC3    C5 5472   3.227   0.911  16.615  0.0441 -0.2950  0.1993
  362TMC3    C6 5473   3.149   0.889  16.722  0.3611  0.1220 -0.2253
  362TMC3     C 5474   3.485   0.649  16.655  0.3642  0.6544 -0.7577
  362TMC3     O 5475   3.501   0.559  16.737 -0.3053 -0.8768 -0.4019
  362TMC3     H 5476   3.311   0.621  16.835 -0.6590 -0.0991 -0.8577
  362TMC3    H1 5477   3.415   0.865  16.501  0.2173  0.3761  0.6563
  362TMC3    H2 5478   3.060   0.948  16.735  0.4038  0.4987 -1.5820
  362TMC3    C7 5479   3.171   1.011  16.524 -0.2327  0.5455 -0.5091
  362TMC3    C8 5480   3.094   0.735  16.897 -0.5914 -0.3356 -0.6633
  362TMC3    O1 5481   3.097   1.093  16.582  0.6517 -0.1883  0.0502
  362TMC3    O2 5482   3.041   0.628  16.883 -0.0371 -0.3674 -0.3928
  363TMC3    C1 5483   1.980   3.479   9.332 -0.0711  0.7276 -0.1878
  363TMC3    C2 5484   2.100   3.428   9.353  0.0601  0.3036 -0.0053
  363TMC3    C3 5485   2.129   3.315   9.282  0.2956 -0.0273 -0.1157
  363TMC3    C4 5486   1.881   3.421   9.254  0.3373  0.6689 -0.0213
  363TMC3    C5 5487   1.916   3.323   9.165 -0.5508 -0.4121 -0.8787
  363TMC3    C6 5488   2.048   3.281   9.173 -0.4828  0.8388  0.6129
  363TMC3     C 5489   1.947   3.598   9.416  1.3176  0.6363  0.3523
  363TMC3     O 5490   2.042   3.666   9.453  0.4930  0.3321  0.1332
  363TMC3     H 5491   2.160   3.468   9.435 -0.2807 -0.8146  0.7869
  363TMC3    H1 5492   1.781   3.464   9.258  0.6213  1.4557 -1.5909
  363TMC3    H2 5493   2.089   3.212   9.100 -0.3033  0.2711  1.2468
  363TMC3    C7 5494   1.831   3.239   9.088 -0.1240 -0.1777  0.4454
  363TMC3    C8 5495   2.260   3.246   9.304  0.0542  0.3128  0.1318
  363TMC3    O1 5496   1.875   3.169   8.994  0.0309 -0.4914  0.2910
  363TMC3    O2 5497   2.347   3.306   9.367 -0.5092  0.4039 -0.3028
  364MPD2     C 5498   0.789   2.546  10.499 -1.2370  0.3368  0.1650
  364MPD2    C1 5499   0.861   2.494  10.391  0.1694  0.1720  0.5914
  364MPD2    C2 5500   0.895   2.357  10.390 -0.0628  0.1293 -0.2531
  364MPD2    C3 5501   0.878   2.282  10.505  0.2717 -0.6038 -0.4836
  364MPD2    C4 5502   0.812   2.337  10.612  0.1466 -0.9719  0.0079
  364MPD2    C5 5503   0.775   2.469  10.614 -0.3275  0.2362  0.0803
  364MPD2     H 5504   0.945   2.315  10.303  0.7025  1.4947 -0.4752
  364MPD2    H1 5505   0.807   2.282  10.705 -4.9976 -0.1876  0.1770
  364MPD2    H2 5506   0.760   2.650  10.498 -4.2243 -0.4749  2.5992
  364MPD2    H3 5507   0.737   2.523  10.700 -0.8619  0.8212 -0.5179
  364MPD2     N 5508   0.936   2.152  10.517 -0.2356  0.4995  0.2882
  364MPD2    H5 5509   0.919   2.106  10.606  1.1440  1.0538  0.8386
  364MPD2    N1 5510   0.903   2.587  10.294 -0.5349  0.5446 -0.8032
  364MPD2    H7 5511   0.850   2.673  10.301 -1.0065  0.0652  1.7147
  365TMC3    C1 5512   1.062   2.696  10.152  0.0119 -0.1807  0.0958
  365TMC3    C2 5513   1.176   2.677  10.080  0.0732  0.2366 -0.5127
  365TMC3    C3 5514   1.276   2.769  10.107 -0.0172  0.0426  0.4265
  365TMC3    C4 5515   1.047   2.802  10.243  0.0683  0.2529 -0.4266
  365TMC3    C5 5516   1.150   2.879  10.271  0.5221  0.0704 -0.5793
  365TMC3    C6 5517   1.267   2.870  10.201 -0.3103  0.3556 -0.0229
  365TMC3     C 5518   1.002   2.572  10.200 -0.3477 -0.3301  0.0720
  365TMC3     O 5519   1.061   2.472  10.159  0.2686 -0.1648  0.2725
  365TMC3     H 5520   1.187   2.603  10.003 -0.7975  0.7712 -1.1546
  365TMC3    H1 5521   0.954   2.821  10.294  0.0674  1.0783 -0.7403
  365TMC3    H2 5522   1.355   2.926  10.227 -0.4180 -0.2656  1.7249
  365TMC3    C7 5523   1.143   2.965  10.393 -1.5533 -0.5364  0.8223
  365TMC3    C8 5524   1.408   2.729  10.072  0.0466 -0.3165  0.3575
  365TMC3    O1 5525   1.186   3.081  10.393  0.4357  0.2027 -0.0928
  365TMC3    O2 5526   1.495   2.811  10.087 -0.4961  0.6461 -0.0392
  366MPD2     C 5527   4.121   3.490  15.226 -0.3511 -0.2953 -1.1862
  366MPD2    C1 5528   4.206   3.595  15.251  1.2521 -0.0900  0.1749
  366MPD2    C2 5529   4.343   3.576  15.266 -0.0529  0.2279  0.4726
  366MPD2    C3 5530   4.396   3.453  15.240 -0.1695  0.1202 -0.0459
  366MPD2    C4 5531   4.315   3.348  15.206 -0.6426 -0.2574  0.1522
  366MPD2    C5 5532   4.176   3.370  15.195  0.4936 -0.7603  0.2957
  366MPD2     H 5533   4.412   3.652  15.302 -1.4191  1.7032 -0.0407
  366MPD2    H1 5534   4.349   3.251  15.174 -3.1041 -0.1843 -2.7720
  366MPD2    H2 5535   4.015   3.501  15.202 -0.8111  1.0824  1.4669
  366MPD2    H3 5536   4.106   3.292  15.171  0.5405 -0.6041 -0.3461
  366MPD2     N 5537   4.535   3.438  15.237 -0.3110 -0.0231 -0.4949
  366MPD2    H5 5538   4.592   3.520  15.251 -1.7349  0.7652  0.6874
  366MPD2    N1 5539   4.158   3.727  15.258 -0.3523 -0.1796  0.3115
  366MPD2    H7 5540   4.225   3.804  15.253 -1.3938  0.7008 -0.1073
  367TMC3    C1 5541   4.051   3.919  15.204  0.5179  0.6254  0.7690
  367TMC3    C2 5542   4.157   3.984  15.260  0.5348  0.2937  0.6093
  367TMC3    C3 5543   4.201   4.102  15.202 -0.7254 -0.0963 -0.6714
  367TMC3    C4 5544   4.015   3.949  15.073 -0.0955 -0.1930  0.0242
  367TMC3    C5 5545   4.051   4.074  15.033  0.2846 -0.2919 -0.2167
  367TMC3    C6 5546   4.145   4.154  15.092  0.1830 -0.2497  0.5917
  367TMC3     C 5547   4.035   3.781  15.236 -0.1579 -0.5430  0.9187
  367TMC3     O 5548   3.930   3.724  15.193  0.0346 -0.6205  0.1304
  367TMC3     H 5549   4.190   3.953  15.358  1.6117 -0.7091 -0.0780
  367TMC3    H1 5550   3.921   3.907  15.037  0.5455 -1.1263 -0.5787
  367TMC3    H2 5551   4.168   4.254  15.057 -3.8458  0.7457  0.8071
  367TMC3    C7 5552   4.006   4.120  14.907  0.6458 -0.5692 -0.1519
  367TMC3    C8 5553   4.313   4.165  15.273 -0.0006 -0.1266 -0.0635
  367TMC3    O1 5554   3.974   4.235  14.895 -0.1977  0.1089  0.2409
  367TMC3    O2 5555   4.383   4.083  15.334  0.1720 -0.0083 -0.3263
  368MPD2     C 5556   0.330   0.650  13.678  0.0997  0.7381 -0.1561
  368MPD2    C1 5557   0.288   0.728  13.570  0.7860  0.2491  0.5885
  368MPD2    C2 5558   0.341   0.694  13.445 -0.2635 -0.1460 -0.1394
  368MPD2    C3 5559   0.430   0.582  13.432 -0.3724 -0.0921 -0.0944
  368MPD2    C4 5560   0.472   0.518  13.544  0.1061  0.0629 -1.1149
  368MPD2    C5 5561   0.416   0.545  13.666 -0.2068 -0.0337  0.2815
  368MPD2     H 5562   0.301   0.736  13.354 -1.3358 -1.3455 -0.2198
  368MPD2    H1 5563   0.549   0.443  13.540  0.8947  0.7977  0.3283
  368MPD2    H2 5564   0.286   0.648  13.777 -0.6808 -1.3893 -0.5317
  368MPD2    H3 5565   0.446   0.487  13.752 -2.2200 -1.3007  0.1432
  368MPD2     N 5566   0.489   0.550  13.306  0.7644  0.0608  0.9189
  368MPD2    H5 5567   0.553   0.471  13.312 -1.7113 -1.8396  2.2160
  368MPD2    N1 5568   0.180   0.810  13.592  0.2679 -0.2597  0.6000
  368MPD2    H7 5569   0.129   0.818  13.680  0.4586  1.0818  0.5805
  369TMC3    C1 5570   0.022   0.984  13.532  0.8524 -0.3643 -0.3617
  369TMC3    C2 5571   0.003   1.075  13.433  0.2089  0.3962 -0.7474
  369TMC3    C3 5572   4.602   1.089  13.402 -0.1189 -0.0969  0.4626
  369TMC3    C4 5573   4.655   0.927  13.608 -0.3683 -0.0115 -0.3281
  369TMC3    C5 5574   4.528   0.960  13.567  0.4459 -0.4669  0.0057
  369TMC3    C6 5575   4.497   1.041  13.469  0.0436  0.5379 -0.3723
  369TMC3     C 5576   0.134   0.900  13.498 -0.6636  0.3562 -0.0260
  369TMC3     O 5577   0.179   0.930  13.390  0.4097 -0.1028 -0.1681
  369TMC3     H 5578   0.083   1.128  13.382  1.2809 -2.3217 -1.8500
  369TMC3    H1 5579   4.684   0.860  13.688  2.0801  0.4093 -0.8537
  369TMC3    H2 5580   4.393   1.049  13.439  0.6038  0.2833 -2.3857
  369TMC3    C7 5581   4.428   0.904  13.658 -0.3945  0.4491  0.3189
  369TMC3    C8 5582   4.581   1.074  13.250  0.6608 -0.6727 -0.0808
  369TMC3    O1 5583   4.482   0.838  13.745 -0.3678  0.6612 -0.2383
  369TMC3    O2 5584   4.478   1.111  13.195  0.2340 -0.6118  0.2046
  370TMC3    C1 5585   0.158   1.686  16.136  0.2313 -0.0830  0.1376
  370TMC3    C2 5586   0.116   1.625  16.245  0.3119  0.1539  0.0371
  370TMC3    C3 5587   0.081   1.492  16.228 -0.4120 -0.7623 -0.5894
  370TMC3    C4 5588   0.174   1.631  16.014  0.9392 -0.2270  0.1750
  370TMC3    C5 5589   0.156   1.493  16.012  0.2795  0.9194  0.1160
  370TMC3    C6 5590   0.105   1.425  16.117  0.2601 -0.3636 -0.6893
  370TMC3     C 5591   0.214   1.818  16.140 -0.8403  0.0115 -0.4810
  370TMC3     O 5592   0.211   1.886  16.039  0.4798  0.0429 -0.0913
  370TMC3     H 5593   0.081   1.679  16.332 -0.7602 -3.0021  1.5756
  370TMC3    H1 5594   0.227   1.680  15.934  0.8982 -0.8432 -0.2351
  370TMC3    H2 5595   0.090   1.318  16.122 -2.1654  0.0659  1.0687
  370TMC3    C7 5596   0.185   1.433  15.879  0.1657 -0.3263  0.7067
  370TMC3    C8 5597   0.028   1.418  16.344 -0.0805  0.2386  0.7587
  370TMC3    O1 5598   0.211   1.510  15.787  0.1402  0.5239 -0.3943
  370TMC3    O2 5599   4.699   1.317  16.318  0.0780 -0.4020 -0.4662
  371TMC3    C1 5600   1.369   4.532  15.263  0.2270 -0.4486 -0.2923
  371TMC3    C2 5601   1.251   4.511  15.326  0.3366 -0.3334 -0.0620
  371TMC3    C3 5602   1.191   4.624  15.382 -0.1276  0.4127 -0.1070
  371TMC3    C4 5603   1.416   4.656  15.226 -0.4525  0.3000 -0.5372
  371TMC3    C5 5604   1.346   0.034  15.267  1.0282 -0.7706  0.1127
  371TMC3    C6 5605   1.239   0.016  15.356 -0.0842 -0.2234 -0.2775
  371TMC3     C 5606   1.473   4.430  15.264  0.0956 -0.2567  0.0588
  371TMC3     O 5607   1.573   4.441  15.193 -0.2950  0.0140 -0.3207
  371TMC3     H 5608   1.218   4.407  15.329  1.4151 -0.5699  3.1799
  371TMC3    H1 5609   1.514   4.671  15.184  0.0352 -1.7745 -0.1651
  371TMC3    H2 5610   1.193   0.104  15.400  3.7252  0.9830  1.3063
  371TMC3    C7 5611   1.383   0.166  15.243  0.0999 -0.3230  0.2796
  371TMC3    C8 5612   1.071   4.598  15.457  0.3064 -0.1851  0.5469
  371TMC3    O1 5613   1.329   0.250  15.311  0.7148 -0.0011 -0.6392
  371TMC3    O2 5614   1.045   4.482  15.492 -0.2363 -0.7032 -0.0439
  372MPD2     C 5615   1.397   0.945  12.837 -0.4035  0.7964  0.1994
  372MPD2    C1 5616   1.433   0.891  12.953  0.0421 -0.4939 -0.4428
  372MPD2    C2 5617   1.339   0.850  13.043 -0.1290 -0.4735 -0.3855
  372MPD2    C3 5618   1.206   0.875  13.020 -0.4470 -1.1075 -0.2357
  372MPD2    C4 5619   1.168   0.946  12.905 -0.5205  0.1277  0.4885
  372MPD2    C5 5620   1.264   0.967  12.811 -0.6243 -0.3130 -0.0107
  372MPD2     H 5621   1.364   0.804  13.138  1.6254  2.8863  0.7692
  372MPD2    H1 5622   1.066   0.978  12.890 -1.4467 -2.2234  1.9343
  372MPD2    H2 5623   1.463   0.973  12.756  0.6042 -3.2345 -0.3692
  372MPD2    H3 5624   1.226   0.988  12.712  0.5371 -0.2718 -0.4513
  372MPD2     N 5625   1.113   0.839  13.123  0.3158 -0.0318 -0.3188
  372MPD2    H5 5626   1.156   0.788  13.199 -1.7606  0.9278  1.4918
  372MPD2    N1 5627   1.571   0.856  12.980  0.3645 -0.8936  0.1643
  372MPD2    H7 5628   1.591   0.808  13.068 -0.2095 -0.4302  0.5536
  373TMC3    C1 5629   0.901   0.865  13.245  0.2761  0.0150  0.2521
  373TMC3    C2 5630   0.798   0.945  13.274  0.5270 -0.1392 -0.3515
  373TMC3    C3 5631   0.709   0.906  13.368 -0.3641  0.0965 -0.3755
  373TMC3    C4 5632   0.923   0.749  13.307 -0.7196 -0.0935  0.5314
  373TMC3    C5 5633   0.829   0.709  13.396 -0.1948  0.1777 -0.4432
  373TMC3    C6 5634   0.716   0.783  13.429 -1.2201 -0.3924 -0.8313
  373TMC3     C 5635   0.984   0.894  13.129 -0.3941 -0.3052  0.5139
  373TMC3     O 5636   0.927   0.973  13.051 -0.0620  0.4965 -0.1924
  373TMC3     H 5637   0.788   1.047  13.237 -0.6590  0.1104  0.6211
  373TMC3    H1 5638   1.019   0.703  13.283 -1.2663 -0.4669 -0.9556
  373TMC3    H2 5639   0.639   0.743  13.494  0.3255 -0.4214  0.9993
  373TMC3    C7 5640   0.858   0.600  13.487 -0.1029 -0.0823  0.6138
  373TMC3    C8 5641   0.716   1.002  13.471 -0.4831  0.2422  0.1240
  373TMC3    O1 5642   0.805   0.599  13.597  0.5334 -0.6036  0.6469
  373TMC3    O2 5643   0.805   1.085  13.463 -0.0572 -0.3567  0.5442
  374TMC3    C1 5644   1.038   1.247   9.752  0.1831 -0.0887  0.1228
  374TMC3    C2 5645   1.166   1.305   9.761 -0.2371  0.0391  0.6446
  374TMC3    C3 5646   1.214   1.373   9.657 -0.1246 -0.3956 -0.4204
  374TMC3    C4 5647   0.957   1.269   9.647  0.3139 -0.5251 -0.6687
  374TMC3    C5 5648   1.004   1.345   9.540 -0.0291 -0.0421  0.4748
  374TMC3    C6 5649   1.129   1.397   9.548  0.3544 -0.1938 -0.5674
  374TMC3     C 5650   0.990   1.157   9.853 -0.1845 -0.0015  0.0782
  374TMC3     O 5651   0.886   1.097   9.843  0.8847 -0.5033  0.8148
  374TMC3     H 5652   1.234   1.267   9.837  0.1148  0.6289  0.6197
  374TMC3    H1 5653   0.856   1.229   9.649  0.1860 -0.1245  1.3014
  374TMC3    H2 5654   1.157   1.455   9.462  1.3990 -1.9562 -1.4131
  374TMC3    C7 5655   0.947   1.345   9.410 -0.1542 -0.6672  0.2697
  374TMC3    C8 5656   1.342   1.439   9.657 -0.2018 -0.4500 -0.1215
  374TMC3    O1 5657   0.972   1.438   9.332 -0.1730 -0.3959  0.2042
  374TMC3    O2 5658   1.345   1.533   9.583  0.0024 -0.1605 -0.6096
  375MPD2     C 5659   1.655   2.073  16.908  0.2821  0.6421  0.4023
  375MPD2    C1 5660   1.537   2.047  16.849 -0.6678  0.2264 -0.0918
  375MPD2    C2 5661   1.533   1.926  16.779 -0.2386  0.4082 -0.5854
  375MPD2    C3 5662   1.645   1.843  16.762  0.3097  0.4947  0.2975
  375MPD2    C4 5663   1.755   1.867  16.843 -0.2635  0.0173  0.3946
  375MPD2    C5 5664   1.755   1.982  16.911  0.4165  0.1695  0.0384
  375MPD2     H 5665   1.446   1.901  16.720 -0.3446  0.9969 -0.6819
  375MPD2    H1 5666   1.843   1.802  16.846 -0.0421  0.2759 -0.4123
  375MPD2    H2 5667   1.680   2.159  16.968  1.9053 -0.4627  1.3082
  375MPD2    H3 5668   1.839   2.002  16.976  1.0030 -1.9626 -0.0375
  375MPD2     N 5669   1.634   1.728  16.688 -0.4174  0.1389 -0.0865
  375MPD2    H5 5670   1.549   1.713  16.634 -1.7805  0.8929  1.8532
  375MPD2    N1 5671   1.417   2.124  16.855 -0.1633  0.9118 -0.1904
  375MPD2    H7 5672   1.342   2.090  16.797  1.8490  0.9117 -2.8207
  376TMC3    C1 5673   1.697   1.536  16.568 -0.5296  0.0809  0.0470
  376TMC3    C2 5674   1.738   1.410  16.574 -0.3674 -0.2548 -0.6802
  376TMC3    C3 5675   1.745   1.348  16.451 -0.7922  0.2456 -0.1861
  376TMC3    C4 5676   1.627   1.586  16.465  0.1672  0.2537 -0.4748
  376TMC3    C5 5677   1.611   1.503  16.359  0.6410 -0.4020 -0.7100
  376TMC3    C6 5678   1.677   1.387  16.341  0.4952 -0.0352  0.2547
  376TMC3     C 5679   1.717   1.623  16.685  1.0496 -0.0348  0.5776
  376TMC3     O 5680   1.805   1.594  16.763  0.1026 -0.2223  0.5783
  376TMC3     H 5681   1.794   1.379  16.662 -3.1640  0.2244  1.2462
  376TMC3    H1 5682   1.598   1.690  16.450 -1.1219  0.0521  0.6984
  376TMC3    H2 5683   1.666   1.316  16.260  2.0979  0.7023 -0.6017
  376TMC3    C7 5684   1.528   1.554  16.258  0.3817  0.1059 -0.3696
  376TMC3    C8 5685   1.853   1.260  16.427 -0.3258  0.3576  0.9495
  376TMC3    O1 5686   1.446   1.638  16.287 -0.7155  0.8965 -0.4779
  376TMC3    O2 5687   1.859   1.156  16.494  0.1586  0.2669 -0.4703
  377MPD2     C 5688   0.327   0.619  12.654 -0.1153 -0.0848 -0.0084
  377MPD2    C1 5689   0.201   0.639  12.611  0.3956  0.2459 -0.7396
  377MPD2    C2 5690   0.089   0.622  12.686  0.3600  0.1821  0.1766
  377MPD2    C3 5691   0.106   0.580  12.816  0.0198  0.0109  0.4996
  377MPD2    C4 5692   0.234   0.574  12.867 -0.0129  0.1825  0.6703
  377MPD2    C5 5693   0.340   0.580  12.780  0.2049  0.3497 -0.3838
  377MPD2     H 5694   4.729   0.638  12.638  0.1024 -1.1969  0.2563
  377MPD2    H1 5695   0.255   0.551  12.971 -0.3659  0.9872  0.9212
  377MPD2    H2 5696   0.415   0.632  12.592 -1.6674  2.6046 -1.6600
  377MPD2    H3 5697   0.438   0.572  12.826  0.5836 -0.6389 -1.3859
  377MPD2     N 5698   4.726   0.572  12.892 -0.3802 -0.1113  0.5029
  377MPD2    H5 5699   0.001   0.581  12.992 -0.4156  0.8142  0.4248
  377MPD2    N1 5700   0.191   0.678  12.479  0.7192 -0.2713 -0.1454
  377MPD2    H7 5701   0.252   0.637  12.408  0.7909  0.7580 -0.6703
  378TMC3    C1 5702   4.675   0.863  12.120  0.1718  0.6276  0.3579
  378TMC3    C2 5703   4.695   0.846  12.254 -0.1745 -0.0602  1.0923
  378TMC3    C3 5704   0.086   0.801  12.299  0.3846  0.1321 -0.3757
  378TMC3    C4 5705   0.042   0.839  12.028  0.2718  0.3142 -0.9925
  378TMC3    C5 5706   0.166   0.788  12.076  0.0246  0.1675 -0.5804
  378TMC3    C6 5707   0.184   0.765  12.208  0.7009 -0.5340 -1.1647
  378TMC3     C 5708   4.551   0.930  12.090  0.4700 -0.6741  0.3831
  378TMC3     O 5709   4.454   0.911  12.169  0.3486  0.5337 -0.2557
  378TMC3     H 5710   4.629   0.896  12.323  1.1027  2.3717  0.5427
  378TMC3    H1 5711   0.031   0.846  11.921 -0.4446 -0.9749 -1.0018
  378TMC3    H2 5712   0.279   0.733  12.252  0.4601 -0.2640 -0.4401
  378TMC3    C7 5713   0.280   0.752  11.992  0.0003 -0.5357  0.5917
  378TMC3    C8 5714   0.107   0.781  12.445 -0.2647 -0.0743 -0.4921
  378TMC3    O1 5715   0.376   0.699  12.053  0.2385  0.1182 -0.3522
  378TMC3    O2 5716   0.030   0.847  12.513 -0.2653 -0.4110 -0.3542
  379MPD2     C 5717   4.717   4.237  16.268 -0.1897  0.4326 -0.1543
  379MPD2    C1 5718   0.110   4.218  16.224 -0.4465 -0.0184  0.3785
  379MPD2    C2 5719   0.200   4.171  16.322  0.2409  0.0077 -0.3093
  379MPD2    C3 5720   0.165   4.155  16.455  0.2113  0.3850 -0.0638
  379MPD2    C4 5721   0.034   4.174  16.487 -0.1314 -0.6504  0.3498
  379MPD2    C5 5722   4.676   4.219  16.402 -0.0918 -0.4667  0.1692
  379MPD2     H 5723   0.304   4.152  16.296  1.0131  1.8861  1.3376
  379MPD2    H1 5724   4.733   4.176  16.589 -0.3169 -1.0607  0.2922
  379MPD2    H2 5725   4.641   4.266  16.197 -1.1927  1.3250  1.2965
  379MPD2    H3 5726   4.572   4.241  16.423  0.3353  0.4820  1.2577
  379MPD2     N 5727   0.243   4.102  16.560 -0.4775 -0.5506 -0.1330
  379MPD2    H5 5728   0.191   4.091  16.647 -0.6836 -0.3214 -0.2309
  379MPD2    N1 5729   0.148   4.231  16.089 -0.2554  0.2324 -0.2239
  379MPD2    H7 5730   0.076   4.257  16.023 -2.2289 -0.5405  1.6418
  380TMC3    C1 5731   0.244   4.221  15.886 -0.2600 -0.3394 -0.1794
  380TMC3    C2 5732   0.332   4.148  15.804 -0.1719  0.4248 -0.3057
  380TMC3    C3 5733   0.318   4.163  15.663  0.3714 -0.7860 -0.0410
  380TMC3    C4 5734   0.152   4.313  15.840 -0.6568  0.1182 -0.0168
  380TMC3    C5 5735   0.144   4.321  15.702 -0.3435 -0.3841 -0.9428
  380TMC3    C6 5736   0.228   4.259  15.615  0.6031 -0.1328 -0.8874
  380TMC3     C 5737   0.266   4.209  16.026  0.0239 -0.0433 -0.3898
  380TMC3     O 5738   0.375   4.167  16.067  0.1221 -0.5497  0.4827
  380TMC3     H 5739   0.408   4.079  15.838 -2.1180 -0.6825  1.7839
  380TMC3    H1 5740   0.085   4.376  15.897 -0.6938 -0.1543  0.2380
  380TMC3    H2 5741   0.218   4.280  15.509 -2.1264 -0.1999 -0.6513
  380TMC3    C7 5742   0.051   4.420  15.647  0.9024  0.3770 -0.1874
  380TMC3    C8 5743   0.446   4.143  15.584 -0.0974  0.6763  0.3009
  380TMC3    O1 5744   0.052   4.528  15.711  0.2844  1.3325 -0.2288
  380TMC3    O2 5745   0.436   4.150  15.461  0.2240  0.2777 -0.4729
  381TMC3    C1 5746   4.665   0.572  15.899  0.5315  0.0914 -0.1612
  381TMC3    C2 5747   0.006   0.683  15.906 -0.1412  0.9784 -0.0558
  381TMC3    C3 5748   0.018   0.739  16.033  0.3754 -0.3566 -0.3095
  381TMC3    C4 5749   4.595   0.511  16.001  0.2714 -0.6218  0.6694
  381TMC3    C5 5750   4.606   0.578  16.126  0.0884 -0.6245  0.4996
  381TMC3    C6 5751   4.681   0.695  16.140 -0.0528  0.3192  0.7833
  381TMC3     C 5752   4.669   0.505  15.776  0.5588 -0.1931  0.0191
  381TMC3     O 5753   0.003   0.554  15.690  0.0416 -0.2416 -0.1189
  381TMC3     H 5754   0.048   0.738  15.822  0.5672 -0.9399 -0.9570
  381TMC3    H1 5755   4.550   0.413  16.003 -0.2274 -0.4246 -0.9113
  381TMC3    H2 5756   4.729   0.708  16.237 -1.2186 -0.5607  1.4731
  381TMC3    C7 5757   4.556   0.521  16.254  1.0849  0.0533 -0.0527
  381TMC3    C8 5758   0.136   0.824  16.055 -0.1647  0.0707  0.3054
  381TMC3    O1 5759   4.506   0.407  16.248  0.0404  0.3317  0.0472
  381TMC3    O2 5760   0.227   0.813  15.972 -0.2904 -0.7074 -0.2179
  382MPD2     C 5761   3.780   3.158  16.701 -0.7642 -0.3248  0.0333
  382MPD2    C1 5762   3.872   3.173  16.803 -0.5415  0.7200 -0.2547
  382MPD2    C2 5763   3.922   3.062  16.874  0.2916 -0.6982 -1.1745
  382MPD2    C3 5764   3.869   2.938  16.847  0.5368  0.0746 -0.7397
  382MPD2    C4 5765   3.783   2.919  16.737 -0.3534 -0.1696  0.3268
  382MPD2    C5 5766   3.730   3.030  16.668 -0.7803 -0.5236  0.1576
  382MPD2     H 5767   4.009   3.085  16.934 -1.0756  3.0172 -0.5875
  382MPD2    H1 5768   3.748   2.819  16.714  2.1078 -0.9189 -0.1606
  382MPD2    H2 5769   3.733   3.240  16.648  1.4111 -0.0863 -1.5140
  382MPD2    H3 5770   3.654   3.014  16.592  1.3779 -2.8095 -1.5432
  382MPD2     N 5771   3.904   2.823  16.919 -0.1107  0.2047 -0.4626
  382MPD2    H5 5772   3.860   2.736  16.891 -1.8988  0.4950  1.4858
  382MPD2    N1 5773   3.914   3.296  16.842  0.0063 -0.1157  0.3578
  382MPD2    H7 5774   3.969   3.293  16.927  0.5207 -1.2102 -0.0075
  383TMC3    C1 5775   4.001   2.677  17.086 -0.1211  0.3882  0.2715
  383TMC3    C2 5776   3.885   2.616  17.094  0.4264 -0.5400 -0.6610
  383TMC3    C3 5777   3.876   2.510  17.189  0.3685  0.2185  0.4701
  383TMC3    C4 5778   4.112   2.645  17.164  0.1138 -0.1178 -0.1614
  383TMC3    C5 5779   4.093   2.539  17.249  0.4336  0.0407  0.0839
  383TMC3    C6 5780   3.981   2.471  17.258  0.3274  0.5008  0.0915
  383TMC3     C 5781   4.003   2.805  17.011 -0.3018 -0.1350  0.0782
  383TMC3     O 5782   4.090   2.881  17.050 -0.1247 -0.2777  0.2720
  383TMC3     H 5783   3.800   2.637  17.030  0.4028 -0.6267 -0.6584
  383TMC3    H1 5784   4.201   2.704  17.146 -0.2716 -0.3246 -2.7549
  383TMC3    H2 5785   3.984   2.378  17.314  0.1175 -0.8230 -2.0963
  383TMC3    C7 5786   4.208   2.502  17.334 -0.1272  0.1908 -0.1419
  383TMC3    C8 5787   3.745   2.446  17.201  0.1352  0.0905 -0.0361
  383TMC3    O1 5788   4.190   2.425  17.430  0.2297 -0.4230 -0.3912
  383TMC3    O2 5789   3.659   2.504  17.133 -0.3252  0.0988  0.1586
  384MPD2     C 5790   0.464   3.576  12.037 -0.3085  0.0750  0.2553
  384MPD2    C1 5791   0.532   3.545  12.151  0.2576 -0.5154  0.3744
  384MPD2    C2 5792   0.587   3.422  12.162 -0.3592 -0.7616 -0.1826
  384MPD2    C3 5793   0.581   3.332  12.061  0.4042 -0.8252  0.1091
  384MPD2    C4 5794   0.511   3.369  11.952  0.0918 -0.0313  0.5074
  384MPD2    C5 5795   0.462   3.493  11.932 -0.3318  0.9305  0.7815
  384MPD2     H 5796   0.650   3.391  12.245 -2.0813 -0.9667  1.0487
  384MPD2    H1 5797   0.512   3.307  11.863 -0.5350 -0.4578  0.7947
  384MPD2    H2 5798   0.423   3.676  12.028  1.1227  0.7582  1.4485
  384MPD2    H3 5799   0.405   3.522  11.844 -0.5879 -2.6645 -0.2474
  384MPD2     N 5800   0.632   3.206  12.091  0.6776 -0.0231 -0.2973
  384MPD2    H5 5801   0.682   3.207  12.179 -0.6700 -0.2771  0.4676
  384MPD2    N1 5802   0.556   3.640  12.248  0.4431  0.8464 -0.0596
  384MPD2    H7 5803   0.520   3.732  12.225 -3.0250 -1.1851 -2.7258
  385TMC3    C1 5804   0.739   3.008  12.066  0.2234 -0.2907 -0.2838
  385TMC3    C2 5805   0.851   2.979  12.008  0.0734 -0.4046  0.2711
  385TMC3    C3 5806   0.951   2.938  12.087  0.1740 -0.9538 -0.1642
  385TMC3    C4 5807   0.726   2.998  12.205  0.2541 -0.4706  0.3725
  385TMC3    C5 5808   0.831   2.968  12.285  0.5914 -0.0493 -0.4520
  385TMC3    C6 5809   0.946   2.932  12.228  0.2268  0.2924  0.7060
  385TMC3     C 5810   0.649   3.104  12.000  0.0170 -0.3502 -0.3648
  385TMC3     O 5811   0.651   3.108  11.874 -0.1759  0.0432  0.0859
  385TMC3     H 5812   0.869   3.014  11.907 -0.6633 -0.2193  0.2085
  385TMC3    H1 5813   0.630   3.010  12.254 -0.9563 -0.2815 -2.0624
  385TMC3    H2 5814   1.032   2.897  12.284  1.1954 -0.0793 -1.0162
  385TMC3    C7 5815   0.836   3.089  12.360 -0.6319 -0.0641 -0.4385
  385TMC3    C8 5816   1.065   2.868  12.023 -0.1477 -0.6041 -0.4549
  385TMC3    O1 5817   0.794   3.186  12.298  0.1484  0.0409  0.7349
  385TMC3    O2 5818   1.151   2.818  12.098  0.4953  0.5788  0.5490
  386TMC3    C1 5819   0.702   0.974  11.634  0.1919 -0.6571 -0.5604
  386TMC3    C2 5820   0.669   1.055  11.534 -0.5955 -0.2943 -0.8003
  386TMC3    C3 5821   0.578   1.155  11.550 -0.5698  0.1681 -0.1939
  386TMC3    C4 5822   0.636   0.993  11.757  0.8412  0.3295 -0.5331
  386TMC3    C5 5823   0.538   1.090  11.770  0.0597 -0.0906 -0.7604
  386TMC3    C6 5824   0.510   1.170  11.668 -0.4075 -0.0311  0.0649
  386TMC3     C 5825   0.822   0.899  11.623  0.2793 -0.6143 -0.2873
  386TMC3     O 5826   0.910   0.956  11.557 -0.2564  0.1096 -0.2678
  386TMC3     H 5827   0.714   1.034  11.437  0.2746 -0.3932 -0.3672
  386TMC3    H1 5828   0.677   0.936  11.839 -1.5471  0.4765  0.7726
  386TMC3    H2 5829   0.430   1.243  11.673 -0.7303 -0.5484  2.5794
  386TMC3    C7 5830   0.452   1.101  11.891  0.1023  0.3342 -0.5004
  386TMC3    C8 5831   0.534   1.241  11.441  0.1883 -0.2560  0.5569
  386TMC3    O1 5832   0.338   1.132  11.872  0.0007  0.0334  0.1581
  386TMC3    O2 5833   0.451   1.332  11.455 -0.8495 -0.1814 -0.3355
  387MPD2     C 5834   2.952   1.460   9.580 -0.5660  0.1785 -0.3686
  387MPD2    C1 5835   2.993   1.433   9.708  0.7993 -0.8519 -0.9996
  387MPD2    C2 5836   2.964   1.312   9.764  0.0336 -0.0422  0.6002
  387MPD2    C3 5837   2.906   1.210   9.699  0.0619 -0.9137 -0.0390
  387MPD2    C4 5838   2.863   1.237   9.569 -0.1272 -1.0071 -0.2209
  387MPD2    C5 5839   2.886   1.361   9.514  0.1050 -0.7455  0.7610
  387MPD2     H 5840   3.013   1.288   9.858  1.8246  0.0007 -0.3097
  387MPD2    H1 5841   2.809   1.165   9.509 -1.8643  0.2576 -0.1753
  387MPD2    H2 5842   2.965   1.559   9.537 -1.9390  1.5378  2.3080
  387MPD2    H3 5843   2.853   1.388   9.415  1.0130 -1.1381  0.3483
  387MPD2     N 5844   2.894   1.097   9.769 -0.0136 -0.7335  0.3830
  387MPD2    H5 5845   2.916   1.109   9.868 -1.5682  0.5405  0.5727
  387MPD2    N1 5846   3.070   1.524   9.783 -0.3540 -0.1950 -0.1386
  387MPD2    H7 5847   3.093   1.489   9.876  1.4960  1.7081  0.0952
  388TMC3    C1 5848   3.179   1.724   9.871  0.5932  0.7881  0.7339
  388TMC3    C2 5849   3.134   1.840   9.930  0.0313 -0.7550 -0.1316
  388TMC3    C3 5850   3.177   1.852  10.062 -0.2893 -0.8657 -0.3366
  388TMC3    C4 5851   3.270   1.636   9.924 -0.1556 -0.1822  0.5023
  388TMC3    C5 5852   3.314   1.658  10.049 -0.5003  0.5810  0.7326
  388TMC3    C6 5853   3.266   1.763  10.124  0.2210 -0.0500  0.0304
  388TMC3     C 5854   3.092   1.658   9.768 -0.2182  0.2083 -0.2829
  388TMC3     O 5855   3.027   1.731   9.690  0.5010  0.2868 -0.2492
  388TMC3     H 5856   3.067   1.901   9.872  0.3201 -1.1102 -0.8359
  388TMC3    H1 5857   3.312   1.564   9.854  0.9619  1.4897 -0.5439
  388TMC3    H2 5858   3.294   1.774  10.229  0.1723 -4.0992  0.4482
  388TMC3    C7 5859   3.362   1.552  10.128  0.1281 -0.1221  0.4497
  388TMC3    C8 5860   3.114   1.949  10.149 -0.2324  0.6629 -0.3925
  388TMC3    O1 5861   3.393   1.566  10.248  0.2137 -0.6076 -0.1207
  388TMC3    O2 5862   3.175   1.982  10.248  1.0978 -0.6315  0.0667
  389MPD2     C 5863   2.520   4.442  11.442 -0.1752  0.5263  0.6106
  389MPD2    C1 5864   2.474   4.356  11.342 -0.6602  0.6594  0.6424
  389MPD2    C2 5865   2.420   4.232  11.364  0.4486  0.2179 -0.3096
  389MPD2    C3 5866   2.389   4.205  11.495  0.4272 -0.5714 -0.6596
  389MPD2    C4 5867   2.444   4.287  11.594  0.0864 -0.8120  0.2300
  389MPD2    C5 5868   2.499   4.405  11.567  0.2302  0.1200 -0.4597
  389MPD2     H 5869   2.370   4.170  11.291 -0.1837  0.8928 -0.4530
  389MPD2    H1 5870   2.442   4.255  11.698  0.8127 -2.4040 -0.2297
  389MPD2    H2 5871   2.557   4.542  11.422  3.1361 -0.5524  1.2418
  389MPD2    H3 5872   2.526   4.475  11.645  0.2203 -0.3551 -0.0277
  389MPD2     N 5873   2.320   4.095  11.535  0.3897  0.4091 -0.2978
  389MPD2    H5 5874   2.300   4.089  11.634  1.7191  2.3138  0.0785
  389MPD2    N1 5875   2.483   4.404  11.212  0.0723 -0.5583 -0.3128
  389MPD2    H7 5876   2.513   4.501  11.202  2.3500 -1.4015 -1.7147
  390TMC3    C1 5877   2.161   3.923  11.530  0.5049 -0.3347  1.2120
  390TMC3    C2 5878   2.205   3.883  11.652 -0.4838  0.2220 -0.5060
  390TMC3    C3 5879   2.115   3.880  11.761  0.0389 -0.7354 -1.2066
  390TMC3    C4 5880   2.031   3.949  11.504  0.0593 -0.0963 -0.3077
  390TMC3    C5 5881   1.943   3.946  11.608 -0.0665  0.0558 -0.3827
  390TMC3    C6 5882   1.986   3.909  11.734 -0.4013  0.1197 -0.3949
  390TMC3     C 5883   2.245   4.010  11.455  0.0021  0.1023 -0.0356
  390TMC3     O 5884   2.221   4.017  11.333 -0.1970 -0.1821  0.5187
  390TMC3     H 5885   2.305   3.842  11.663  0.7678  2.9746 -1.6396
  390TMC3    H1 5886   2.005   3.986  11.406  2.5187 -0.9638 -1.2834
  390TMC3    H2 5887   1.919   3.881  11.814 -1.5385  0.1063 -1.3480
  390TMC3    C7 5888   1.818   3.879  11.569  0.8000  0.1408 -0.3122
  390TMC3    C8 5889   2.116   3.747  11.812  0.2725 -0.1725  0.6526
  390TMC3    O1 5890   1.828   3.820  11.463  0.3217 -0.1956 -0.1125
  390TMC3    O2 5891   2.132   3.659  11.729  0.1930 -0.2374  0.1739
  391MPD2     C 5892   1.573   1.022  11.012  0.6676  0.3091  0.6421
  391MPD2    C1 5893   1.692   1.079  11.026  0.0348  0.1998  0.2145
  391MPD2    C2 5894   1.764   1.102  10.914  0.3447  0.2540 -0.0340
  391MPD2    C3 5895   1.713   1.091  10.784 -0.3228  0.4030  0.2067
  391MPD2    C4 5896   1.583   1.044  10.775 -0.1253  0.6116  0.1489
  391MPD2    C5 5897   1.524   0.999  10.887  0.0196 -0.3156  0.3961
  391MPD2     H 5898   1.869   1.128  10.920  0.2811  0.3710  0.5410
  391MPD2    H1 5899   1.537   1.033  10.677 -0.8685 -0.7681  0.6594
  391MPD2    H2 5900   1.524   0.990  11.103  1.5583  1.8140  1.6500
  391MPD2    H3 5901   1.427   0.951  10.890 -0.4517  0.6774  0.9262
  391MPD2     N 5902   1.799   1.132  10.672  0.2956 -0.0912  0.1831
  391MPD2    H5 5903   1.895   1.160  10.694 -0.1826  1.9851 -0.3718
  391MPD2    N1 5904   1.735   1.113  11.158 -0.0574  0.8627  0.1178
  391MPD2    H7 5905   1.674   1.100  11.239  1.6524 -0.7162  1.1418
  392TMC3    C1 5906   1.866   1.194  10.448  0.2600 -0.3813 -0.3395
  392TMC3    C2 5907   1.815   1.204  10.325  0.3323  0.1133  0.1215
  392TMC3    C3 5908   1.858   1.303  10.240  0.0332  0.0866  0.2209
  392TMC3    C4 5909   1.970   1.276  10.488  0.6673 -0.2705  0.6709
  392TMC3    C5 5910   2.024   1.362  10.388 -0.8981 -0.1032  0.5168
  392TMC3    C6 5911   1.958   1.395  10.269  0.0706 -0.2387 -0.0705
  392TMC3     C 5912   1.768   1.139  10.537  0.4484  0.1377 -0.0214
  392TMC3     O 5913   1.664   1.093  10.487  0.1892 -0.0945  0.1953
  392TMC3     H 5914   1.731   1.150  10.284  0.9306 -0.7661  0.0572
  392TMC3    H1 5915   2.018   1.262  10.584  0.3025  0.5848  0.9754
  392TMC3    H2 5916   1.975   1.479  10.202 -0.4498  0.4471  0.6628
  392TMC3    C7 5917   2.143   1.430  10.418 -0.2740  0.7718  0.2860
  392TMC3    C8 5918   1.766   1.346  10.138  0.1695 -0.1014 -1.5281
  392TMC3    O1 5919   2.191   1.414  10.529 -0.0671  0.3918  0.1403
  392TMC3    O2 5920   1.651   1.296  10.144  0.2958 -0.3724 -1.3929
  393TMC3    C1 5921   0.691   3.880  10.776 -0.0503 -0.1670 -0.1365
  393TMC3    C2 5922   0.611   3.864  10.886  0.4778  0.4382 -0.7450
  393TMC3    C3 5923   0.651   3.762  10.976  0.8041 -0.1208 -0.2678
  393TMC3    C4 5924   0.803   3.808  10.744  0.0347  0.4310 -0.2302
  393TMC3    C5 5925   0.830   3.704  10.829 -0.4506 -0.3886  0.3414
  393TMC3    C6 5926   0.757   3.678  10.946  0.6946 -0.0892  0.4224
  393TMC3     C 5927   0.686   4.008  10.715 -0.8491  0.2808  0.0413
  393TMC3     O 5928   0.570   4.050  10.698  0.2904 -0.2165  0.3216
  393TMC3     H 5929   0.529   3.934  10.895  0.9022  0.5973  1.9292
  393TMC3    H1 5930   0.873   3.828  10.663  0.3032 -0.7992 -0.2967
  393TMC3    H2 5931   0.787   3.588  10.998 -0.1808 -0.9849 -0.6499
  393TMC3    C7 5932   0.954   3.630  10.802  0.1396 -0.0899 -0.0631
  393TMC3    C8 5933   0.564   3.741  11.090  0.3358  0.3278 -0.3900
  393TMC3    O1 5934   0.955   3.512  10.828 -0.0240 -0.1541  0.0612
  393TMC3    O2 5935   0.469   3.820  11.101 -0.7358  0.5852  0.1141
  394TMC3    C1 5936   2.394   4.448  11.000 -0.6971  0.5698 -0.4743
  394TMC3    C2 5937   2.272   4.423  10.939 -0.0023  0.2086 -0.1461
  394TMC3    C3 5938   2.260   4.431  10.807  0.2144  0.1801 -0.0890
  394TMC3    C4 5939   2.500   4.494  10.930 -0.3395  0.3628 -0.3683
  394TMC3    C5 5940   2.488   4.487  10.801 -0.3987  0.1309  0.5744
  394TMC3    C6 5941   2.368   4.459  10.735 -0.3991 -0.5644  0.0707
  394TMC3     C 5942   2.427   4.351  11.102 -0.2376  0.7346 -0.4471
  394TMC3     O 5943   2.377   4.239  11.086 -0.3205  0.5269 -0.9622
  394TMC3     H 5944   2.187   4.387  10.996  0.4402 -0.5235  0.0546
  394TMC3    H1 5945   2.600   4.501  10.973  0.1050 -0.5467 -1.2548
  394TMC3    H2 5946   2.351   4.485  10.631  0.7125  1.7628  0.4836
  394TMC3    C7 5947   2.594   4.555  10.719  0.4325 -0.2501 -0.3470
  394TMC3    C8 5948   2.139   4.375  10.744 -0.2585 -0.3725 -0.3635
  394TMC3    O1 5949   2.642   4.656  10.768 -0.4791 -0.0187 -0.5432
  394TMC3    O2 5950   2.031   4.393  10.804 -0.5271  0.8043  0.1409
  395TMC3    C1 5951   1.786   1.535  15.077  0.1119 -0.1208  0.5816
  395TMC3    C2 5952   1.818   1.415  15.024 -0.5443  0.3187 -0.4700
  395TMC3    C3 5953   1.874   1.415  14.903  0.0637  0.6188 -0.3430
  395TMC3    C4 5954   1.810   1.653  15.012  0.3639 -0.1932 -0.4883
  395TMC3    C5 5955   1.864   1.651  14.894 -0.2317  0.2106 -0.1308
  395TMC3    C6 5956   1.900   1.528  14.840 -0.0974 -0.1263 -0.0910
  395TMC3     C 5957   1.738   1.554  15.212  0.3136  0.0862  0.4622
  395TMC3     O 5958   1.709   1.666  15.254 -0.0241  0.2318 -0.2396
  395TMC3     H 5959   1.790   1.316  15.057  1.8423 -0.1928  0.0505
  395TMC3    H1 5960   1.791   1.748  15.061 -1.9036 -1.1610  0.5207
  395TMC3    H2 5961   1.938   1.527  14.739  0.1852 -0.4368  0.0201
  395TMC3    C7 5962   1.952   1.762  14.884  0.2297 -0.7677 -0.0569
  395TMC3    C8 5963   1.850   1.300  14.822 -0.1796 -0.2147 -0.1265
  395TMC3    O1 5964   1.973   1.824  14.984  0.0468 -0.4719 -0.0310
  395TMC3    O2 5965   1.755   1.229  14.844  0.7976 -0.2090 -0.0682
  396MPD2     C 5966   2.176   2.161  17.273  0.1753  0.7061  0.1914
  396MPD2    C1 5967   2.248   2.243  17.360 -0.0867  0.0420  0.4414
  396MPD2    C2 5968   2.282   2.371  17.321 -0.0862  0.0059  0.0118
  396MPD2    C3 5969   2.251   2.414  17.190 -1.2389  0.0412  0.1213
  396MPD2    C4 5970   2.194   2.323  17.104 -0.2435 -0.4668  0.2223
  396MPD2    C5 5971   2.160   2.198  17.144  0.3903  0.7119 -0.0622
  396MPD2     H 5972   2.339   2.436  17.388  1.9183 -1.1237 -0.5943
  396MPD2    H1 5973   2.164   2.358  17.005 -1.0208 -0.2791  0.5264
  396MPD2    H2 5974   2.143   2.062  17.301  1.7990  0.5229  1.4447
  396MPD2    H3 5975   2.107   2.133  17.075  0.6896  0.3407  0.0569
  396MPD2     N 5976   2.297   2.546  17.154 -0.5464 -0.1696  0.4121
  396MPD2    H5 5977   2.351   2.595  17.225 -1.2477  0.9335  0.1804
  396MPD2    N1 5978   2.292   2.186  17.482  0.1431 -0.6327 -0.2771
  396MPD2    H7 5979   2.281   2.085  17.485 -1.0566 -0.4172  2.7038
  397TMC3    C1 5980   2.439   2.150  17.669 -0.3572 -0.6020  0.1603
  397TMC3    C2 5981   2.568   2.190  17.691  0.2983  0.0584  0.0855
  397TMC3    C3 5982   2.677   2.128  17.639 -0.5258 -0.3207  0.4236
  397TMC3    C4 5983   2.428   2.027  17.618  0.1060 -0.6024  0.6164
  397TMC3    C5 5984   2.542   1.951  17.593  0.1695  0.0404  0.1743
  397TMC3    C6 5985   2.665   2.001  17.593 -0.7542 -0.0443 -0.3660
  397TMC3     C 5986   2.363   2.247  17.582  0.1477  0.1203  0.8557
  397TMC3     O 5987   2.390   2.364  17.599  0.3884 -0.1222 -0.1414
  397TMC3     H 5988   2.581   2.298  17.692  0.5567  0.0283 -0.1109
  397TMC3    H1 5989   2.338   1.967  17.629  0.0735 -0.8275 -0.9988
  397TMC3    H2 5990   2.751   1.962  17.541 -1.2485 -0.1024 -1.1471
  397TMC3    C7 5991   2.530   1.818  17.653  0.3129 -0.5704 -0.8432
  397TMC3    C8 5992   2.759   2.225  17.566  0.3068  0.2637 -0.1093
  397TMC3    O1 5993   2.623   1.793  17.726  0.9895  0.4331  0.2645
  397TMC3    O2 5994   2.848   2.282  17.629  0.1590  0.2849  0.1666
  398MPD2     C 5995   0.359   4.382   0.024  0.4196 -0.5455 -0.4482
  398MPD2    C1 5996   0.444   4.270   0.023  0.2875 -0.0993  0.2895
  398MPD2    C2 5997   0.579   4.288   0.016  0.5141  0.3740  0.4159
  398MPD2    C3 5998   0.636   4.414   0.024  0.0403 -0.2596  0.5296
  398MPD2    C4 5999   0.553   4.524   0.036  0.5524 -0.0069 -0.2171
  398MPD2    C5 6000   0.419   4.508   0.030  0.7041  0.1170 -0.3910
  398MPD2     H 6001   0.639   4.200  17.737  1.0732  0.8590 -0.0585
  398MPD2    H1 6002   0.587   4.626   0.052 -0.3503 -0.0455  2.0836
  398MPD2    H2 6003   0.250   4.378   0.021  0.4062 -1.5465  1.1207
  398MPD2    H3 6004   0.362   4.598   0.049 -1.2629 -0.9603 -1.2325
  398MPD2     N 6005   0.779   4.420   0.048  0.2191 -1.1763 -0.1976
  398MPD2    H5 6006   0.820   4.327   0.051  2.1091 -0.3044  1.2416
  398MPD2    N1 6007   0.392   4.139   0.021 -0.4094 -0.5671 -0.5558
  398MPD2    H7 6008   0.458   4.062   0.029  0.8975  0.6263  0.0440
  399TMC3    C1 6009   0.242   3.955  17.739 -0.5721  1.0212 -0.6897
  399TMC3    C2 6010   0.305   3.883   0.092 -0.0672  0.2625 -0.6293
  399TMC3    C3 6011   0.267   3.751   0.116  0.0713 -0.5425  0.7930
  399TMC3    C4 6012   0.128   3.910  17.676 -1.1070 -0.2974  0.2345
  399TMC3    C5 6013   0.091   3.777  17.697 -0.0481 -0.5261 -0.5764
  399TMC3    C6 6014   0.158   3.698   0.051  0.4320  0.4105  1.0829
  399TMC3     C 6015   0.262   4.096  17.736 -0.4620 -1.0168  0.2917
  399TMC3     O 6016   0.160   4.161  17.714  0.0758 -0.2292 -0.2456
  399TMC3     H 6017   0.374   3.938   0.155 -0.3412 -0.6322  0.4629
  399TMC3    H1 6018   0.077   3.964  17.597  0.9626  0.1329 -0.8198
  399TMC3    H2 6019   0.133   3.595   0.077  0.4519 -0.1641 -1.1829
  399TMC3    C7 6020   4.716   3.730  17.610 -0.1319 -0.3845  0.0680
  399TMC3    C8 6021   0.341   3.669   0.207 -0.5992  0.8145 -0.5488
  399TMC3    O1 6022   4.667   3.803  17.526  0.2697  0.1260  0.0601
  399TMC3    O2 6023   0.283   3.576   0.264 -0.5505 -0.4268 -0.0104
  400TMC3    C1 6024   3.608   2.185  16.942 -0.6659 -0.6779  0.2846
  400TMC3    C2 6025   3.509   2.088  16.950 -0.8188  0.1699  0.1109
  400TMC3    C3 6026   3.384   2.126  16.923  0.5216  0.1716 -0.2022
  400TMC3    C4 6027   3.586   2.306  16.899  0.2020 -0.8719  0.1080
  400TMC3    C5 6028   3.453   2.338  16.867 -0.1823 -0.0293 -0.1561
  400TMC3    C6 6029   3.353   2.251  16.874  0.0871  0.2246  0.5111
  400TMC3     C 6030   3.741   2.131  16.975  0.1259 -0.7825 -0.1387
  400TMC3     O 6031   3.749   2.014  17.013 -0.0088  0.0959  0.6434
  400TMC3     H 6032   3.532   1.986  16.980 -1.3621  0.2904  0.9447
  400TMC3    H1 6033   3.654   2.390  16.898  1.1655 -1.6634 -0.4964
  400TMC3    H2 6034   3.247   2.269  16.860  0.0255 -0.8509 -0.3918
  400TMC3    C7 6035   3.416   2.476  16.839  0.5389  0.1639 -0.4201
  400TMC3    C8 6036   3.270   2.039  16.943 -0.1085  0.1320 -0.1366
  400TMC3    O1 6037   3.333   2.498  16.754  0.1859  0.7564 -0.1491
  400TMC3    O2 6038   3.265   1.970  17.043 -0.6412 -0.4740  0.4316
  401MPD2     C 6039   2.503   0.424   0.382  0.2417 -0.3886 -0.7924
  401MPD2    C1 6040   2.530   0.383   0.514 -0.0534 -0.0134 -0.0462
  401MPD2    C2 6041   2.558   0.252   0.547  0.1792 -0.7140 -0.3127
  401MPD2    C3 6042   2.564   0.152   0.453 -0.5187 -0.2847  0.5046
  401MPD2    C4 6043   2.542   0.198   0.318  0.0301  0.6861 -0.0981
  401MPD2    C5 6044   2.504   0.329   0.282  0.3288 -0.4878  0.0904
  401MPD2     H 6045   2.580   0.225   0.650  1.6953  0.9006 -0.2235
  401MPD2    H1 6046   2.555   0.125   0.239 -2.7584  0.7016 -0.5842
  401MPD2    H2 6047   2.495   0.531   0.367  1.0687 -0.2581 -0.2999
  401MPD2    H3 6048   2.501   0.359   0.178 -0.2096 -0.7649  0.0245
  401MPD2     N 6049   2.604   0.020   0.488 -0.0355  0.0064 -0.2323
  401MPD2    H5 6050   2.618   4.718   0.581  1.5295 -1.2145 -0.9746
  401MPD2    N1 6051   2.531   0.471   0.621 -0.3287 -0.1139  0.3046
  401MPD2    H7 6052   2.574   0.432   0.705  1.0060 -0.5891 -0.6019
  402TMC3    C1 6053   2.668   4.531   0.463 -0.1983  0.3998  0.2760
  402TMC3    C2 6054   2.710   4.526   0.595  0.8855 -0.3535  0.0332
  402TMC3    C3 6055   2.719   4.399   0.652  0.2570 -0.3256  0.1943
  402TMC3    C4 6056   2.653   4.414   0.391  0.4288 -0.8049  0.0344
  402TMC3    C5 6057   2.682   4.294   0.455 -0.3644 -0.3217  0.3284
  402TMC3    C6 6058   2.708   4.285   0.588  0.3175 -0.2676  0.2088
  402TMC3     C 6059   2.627   4.657   0.396  0.1563 -0.0103 -0.2235
  402TMC3     O 6060   2.614   4.644   0.277 -0.0936 -0.4160 -0.7785
  402TMC3     H 6061   2.727   4.612   0.658  0.2352  0.5589 -1.0452
  402TMC3    H1 6062   2.632   4.413   0.285 -0.8723  1.6109  0.2801
  402TMC3    H2 6063   2.728   4.188   0.633  1.4198 -0.7070 -1.2116
  402TMC3    C7 6064   2.691   4.184   0.360 -0.1343  0.0142 -0.7264
  402TMC3    C8 6065   2.782   4.383   0.785  0.1249 -0.9167 -0.4258
  402TMC3    O1 6066   2.653   4.199   0.246 -0.1097  0.1416 -0.1561
  402TMC3    O2 6067   2.839   4.281   0.818 -0.3597 -0.3087 -0.4535
  403MPD2     C 6068   0.325   3.973  13.016 -0.5298  0.1125  0.0924
  403MPD2    C1 6069   0.353   3.863  13.095  0.2951 -0.2130 -0.1628
  403MPD2    C2 6070   0.478   3.864  13.164  0.5708  0.0988 -0.3600
  403MPD2    C3 6071   0.566   3.969  13.142 -0.1083  0.0576 -0.1335
  403MPD2    C4 6072   0.532   4.073  13.064 -0.2878 -0.4399 -0.2521
  403MPD2    C5 6073   0.415   4.075  12.998  0.1920  0.0964 -0.9731
  403MPD2     H 6074   0.520   3.773  13.206 -0.0552  0.2730  0.6226
  403MPD2    H1 6075   0.593   4.160  13.045  0.1295 -1.4112 -3.2365
  403MPD2    H2 6076   0.240   3.961  12.950  1.1870  0.0488 -2.1039
  403MPD2    H3 6077   0.410   4.161  12.932 -2.1966  1.6541  1.2401
  403MPD2     N 6078   0.686   3.977  13.216 -0.5443  0.0044 -0.4433
  403MPD2    H5 6079   0.741   4.061  13.206 -1.6015  0.7595  0.1509
  403MPD2    N1 6080   0.272   3.751  13.112  0.9136 -0.2240  0.1158
  403MPD2    H7 6081   0.190   3.742  13.053  1.9527  0.3467 -1.4136
  404TMC3    C1 6082   0.216   3.539  13.192  0.5471 -0.0954 -0.1916
  404TMC3    C2 6083   0.254   3.441  13.282  0.5035 -0.2533  0.3680
  404TMC3    C3 6084   0.249   3.312  13.235 -0.4556 -0.1270  0.5748
  404TMC3    C4 6085   0.173   3.510  13.065  0.1146  0.6630  0.1537
  404TMC3    C5 6086   0.177   3.380  13.022  0.1799 -0.0685  0.1117
  404TMC3    C6 6087   0.199   3.277  13.109 -0.0279 -0.8263 -0.4514
  404TMC3     C 6088   0.286   3.661  13.214 -0.7612  0.0787 -0.2154
  404TMC3     O 6089   0.349   3.673  13.320 -0.5291 -0.1151  0.1328
  404TMC3     H 6090   0.290   3.478  13.378 -0.0936 -0.2181  0.5798
  404TMC3    H1 6091   0.140   3.593  13.003 -0.8924 -0.3655 -0.6943
  404TMC3    H2 6092   0.204   3.174  13.077  0.6380 -0.8344 -0.3233
  404TMC3    C7 6093   0.117   3.361  12.896 -0.1176  0.5158  0.0117
  404TMC3    C8 6094   0.286   3.199  13.328 -0.1091  0.1705 -0.2562
  404TMC3    O1 6095   0.119   3.460  12.823 -0.2606 -0.2062  0.2240
  404TMC3    O2 6096   0.302   3.087  13.280  0.3123 -0.6652 -0.2058
  405MPD2     C 6097   1.903   0.422  14.430 -0.2433  0.1855  0.1880
  405MPD2    C1 6098   1.847   0.400  14.304  0.3054 -0.4013  0.5273
  405MPD2    C2 6099   1.709   0.422  14.282 -0.3693 -0.9126  0.4565
  405MPD2    C3 6100   1.629   0.441  14.392  0.8282  0.7219 -0.5513
  405MPD2    C4 6101   1.683   0.461  14.512 -0.8982  0.4819 -0.4301
  405MPD2    C5 6102   1.817   0.461  14.531 -0.5675 -0.3013 -0.4324
  405MPD2     H 6103   1.655   0.417  14.188  0.8683  1.2739 -0.3625
  405MPD2    H1 6104   1.614   0.473  14.595  1.3392  0.9036  1.3748
  405MPD2    H2 6105   2.011   0.418  14.434 -0.2319  1.1574  1.0605
  405MPD2    H3 6106   1.859   0.487  14.627 -0.0898  2.0701 -1.2929
  405MPD2     N 6107   1.484   0.443  14.369 -0.6874 -0.0044  0.5633
  405MPD2    H5 6108   1.457   0.437  14.272  1.8461 -2.4209 -0.0050
  405MPD2    N1 6109   1.932   0.337  14.209  0.4208 -0.1166 -0.0398
  405MPD2    H7 6110   2.033   0.339  14.220  0.1054 -1.2332  3.1851
  406TMC3    C1 6111   1.040   0.340  14.462  0.2428 -0.0729  0.5578
  406TMC3    C2 6112   1.036   0.267  14.347  0.1611  0.8803 -0.5892
  406TMC3    C3 6113   1.138   0.279  14.254  0.5545 -0.3455  0.0056
  406TMC3    C4 6114   1.154   0.404  14.498 -0.2337  0.1255  1.0014
  406TMC3    C5 6115   1.255   0.418  14.406 -0.3425 -0.1046  0.5826
  406TMC3    C6 6116   1.246   0.357  14.287  0.1311  0.0959  1.0152
  406TMC3     C 6117   0.944   0.305  14.563  0.4425  0.4603 -0.7045
  406TMC3     O 6118   0.988   0.291  14.679 -0.1791 -0.0981 -0.2430
  406TMC3     H 6119   0.949   0.213  14.311 -0.0244  1.2507 -0.6953
  406TMC3    H1 6120   1.160   0.459  14.591 -0.4249  2.2171 -0.2150
  406TMC3    H2 6121   1.316   0.392  14.212  1.2020 -0.2795  1.8446
  406TMC3    C7 6122   1.384   0.450  14.464 -0.9380  0.1686  0.4978
  406TMC3    C8 6123   1.154   0.176  14.160  0.2378  0.5561  0.0657
  406TMC3    O1 6124   1.388   0.419  14.581  0.4312 -0.1333 -0.3695
  406TMC3    O2 6125   1.069   0.083  14.163  0.5069  0.5480  0.4802
  407MPD2     C 6126   2.401   0.881   9.719  0.3932  0.2153  0.6625
  407MPD2    C1 6127   2.509   0.933   9.649  0.2295 -0.0649  0.2798
  407MPD2    C2 6128   2.534   1.071   9.662  0.4796 -0.5905 -0.0797
  407MPD2    C3 6129   2.461   1.160   9.739  0.2814 -0.0675  0.1064
  407MPD2    C4 6130   2.356   1.103   9.810 -0.2417  0.0031 -0.4417
  407MPD2    C5 6131   2.327   0.968   9.791 -0.1538 -0.4394 -0.2218
  407MPD2     H 6132   2.615   1.112   9.603 -0.5530  2.8721  0.9556
  407MPD2    H1 6133   2.294   1.160   9.878  0.1552 -0.9819  0.7356
  407MPD2    H2 6134   2.377   0.775   9.727 -0.4097  0.2535 -1.4784
  407MPD2    H3 6135   2.243   0.921   9.841  0.3350  1.6961  2.5966
  407MPD2     N 6136   2.493   1.297   9.734  0.3987 -0.1841  0.2336
  407MPD2    H5 6137   2.555   1.338   9.664  0.4083  0.1902  0.4587
  407MPD2    N1 6138   2.591   0.860   9.566 -0.0171  0.1835 -0.0020
  407MPD2    H7 6139   2.677   0.904   9.535 -1.2643  2.1632 -0.5931
  408TMC3    C1 6140   2.664   0.699   9.419 -0.1691  0.6438  0.3305
  408TMC3    C2 6141   2.770   0.621   9.443  0.6154 -0.1098  0.2943
  408TMC3    C3 6142   2.889   0.659   9.385 -0.0385  0.2917  0.1658
  408TMC3    C4 6143   2.660   0.805   9.331  0.1288  0.3939  0.6839
  408TMC3    C5 6144   2.786   0.832   9.279 -0.0777  0.0196  0.0914
  408TMC3    C6 6145   2.897   0.767   9.301 -0.0775 -0.1458  0.4880
  408TMC3     C 6146   2.579   0.725   9.534  0.0570  0.0442 -0.8275
  408TMC3     O 6147   2.533   0.636   9.608 -0.0657  0.3794  0.5611
  408TMC3     H 6148   2.757   0.546   9.521 -0.3386 -1.0336 -0.7424
  408TMC3    H1 6149   2.574   0.869   9.313  1.0029  0.7970 -2.1625
  408TMC3    H2 6150   2.989   0.795   9.251 -1.2700 -0.4057 -1.8561
  408TMC3    C7 6151   2.803   0.971   9.232 -0.0412 -0.2415  0.3655
  408TMC3    C8 6152   3.010   0.636   9.464 -0.3847  0.0179 -0.1013
  408TMC3    O1 6153   2.904   1.036   9.255  0.0537  0.2309  0.2424
  408TMC3    O2 6154   3.028   0.531   9.516 -0.4021  0.5198  0.5630
  409MPD2     C 6155   2.463   1.792  17.263 -0.5615  0.3942 -0.4137
  409MPD2    C1 6156   2.599   1.769  17.286  0.2698 -0.7248  0.4379
  409MPD2    C2 6157   2.695   1.868  17.257  0.1920  0.3512  0.1267
  409MPD2    C3 6158   2.642   1.988  17.195 -0.2058 -0.1203  0.7112
  409MPD2    C4 6159   2.506   1.999  17.175 -0.5655  0.3414  0.3874
  409MPD2    C5 6160   2.418   1.902  17.208  0.0127  0.6175 -0.3460
  409MPD2     H 6161   2.802   1.852  17.265  0.1860  0.6705  0.8265
  409MPD2    H1 6162   2.458   2.084  17.127  0.1607 -0.0530 -1.0658
  409MPD2    H2 6163   2.380   1.734  17.302 -2.0828  0.8151 -3.0790
  409MPD2    H3 6164   2.311   1.920  17.217 -0.3868 -1.7126 -0.2945
  409MPD2     N 6165   2.725   2.092  17.145 -0.2853 -0.3185  0.0873
  409MPD2    H5 6166   2.672   2.163  17.095 -0.0783 -2.5582 -3.3118
  409MPD2    N1 6167   2.647   1.653  17.346 -0.0337  0.8410 -0.5271
  409MPD2    H7 6168   2.749   1.652  17.346 -0.0419 -0.9356 -1.0066
  410TMC3    C1 6169   2.918   2.219  17.097 -0.0938 -1.3570 -0.3752
  410TMC3    C2 6170   3.014   2.273  17.183 -0.0500 -0.3831  0.7416
  410TMC3    C3 6171   3.099   2.371  17.129  0.2823 -0.1039  0.3211
  410TMC3    C4 6172   2.903   2.252  16.964  0.2077 -0.5063  0.8043
  410TMC3    C5 6173   2.978   2.358  16.923  0.4040  0.2804  0.4431
  410TMC3    C6 6174   3.070   2.419  17.005 -1.1069  0.1335  0.1366
  410TMC3     C 6175   2.862   2.103  17.163 -0.7927 -0.4243 -0.7211
  410TMC3     O 6176   2.930   2.050  17.246  0.4280 -0.5423  0.1752
  410TMC3     H 6177   3.021   2.247  17.288 -0.2056  1.6761  1.2630
  410TMC3    H1 6178   2.831   2.216  16.890 -0.4987 -0.6200  1.5454
  410TMC3    H2 6179   3.138   2.489  16.956 -0.0116 -0.9122  0.1448
  410TMC3    C7 6180   2.976   2.395  16.784  0.8381 -0.0456 -0.2611
  410TMC3    C8 6181   3.227   2.392  17.187 -0.4017  0.2266 -0.0516
  410TMC3    O1 6182   2.929   2.314  16.713  0.1346 -0.2232  0.1271
  410TMC3    O2 6183   3.287   2.493  17.141 -0.2589 -0.1395  0.2210
  411MPD2     C 6184   3.319   2.907  14.340  0.1782 -0.2101  0.0435
  411MPD2    C1 6185   3.251   2.889  14.460 -0.0436 -0.2550 -0.2499
  411MPD2    C2 6186   3.177   2.764  14.474 -0.1861  0.1472 -0.3364
  411MPD2    C3 6187   3.179   2.675  14.368 -0.1994  0.4018 -0.5162
  411MPD2    C4 6188   3.237   2.711  14.251  0.7837 -0.4586 -0.3244
  411MPD2    C5 6189   3.309   2.826  14.234 -0.5163 -1.0385  0.3492
  411MPD2     H 6190   3.121   2.752  14.566  1.5041 -0.1825  0.6465
  411MPD2    H1 6191   3.254   2.638  14.172 -1.4680 -0.8473 -0.4644
  411MPD2    H2 6192   3.382   2.993  14.324 -2.5410  1.7362 -0.1077
  411MPD2    H3 6193   3.368   2.843  14.144 -0.1908 -0.2621  0.7113
  411MPD2     N 6194   3.107   2.556  14.378  0.4820 -0.2025  0.1880
  411MPD2    H5 6195   3.075   2.507  14.295 -2.5282 -3.8041  3.4667
  411MPD2    N1 6196   3.257   2.996  14.550 -0.1261  0.2861  0.1658
  411MPD2    H7 6197   3.293   3.088  14.526 -3.3071  1.9006  1.5499
  412TMC3    C1 6198   2.959   2.409  14.483 -0.0427  0.1377  0.1057
  412TMC3    C2 6199   2.843   2.464  14.414 -0.2381  0.0125 -0.0923
  412TMC3    C3 6200   2.727   2.421  14.455  0.4770  0.0657  0.1929
  412TMC3    C4 6201   2.953   2.320  14.575  0.0721  0.0217 -0.5281
  412TMC3    C5 6202   2.831   2.271  14.602 -0.6251 -0.6906  0.2199
  412TMC3    C6 6203   2.717   2.330  14.554  0.6856 -0.4439 -0.7347
  412TMC3     C 6204   3.066   2.503  14.502  0.4036  0.0322 -0.4192
  412TMC3     O 6205   3.106   2.522  14.615  0.9168 -0.0473 -0.2362
  412TMC3     H 6206   2.853   2.543  14.340  1.2782  0.8531  0.9937
  412TMC3    H1 6207   3.041   2.280  14.624 -0.4209  1.0062  1.1874
  412TMC3    H2 6208   2.616   2.311  14.589 -0.4076  0.9779 -3.1589
  412TMC3    C7 6209   2.812   2.135  14.574 -0.8178 -0.2793 -0.2465
  412TMC3    C8 6210   2.615   2.419  14.363 -0.1452  0.7261 -0.3005
  412TMC3    O1 6211   2.701   2.100  14.537 -0.1231  0.3698  0.2653
  412TMC3    O2 6212   2.590   2.511  14.291  0.4609  0.1051 -0.3204
  413MPD2     C 6213   4.691   0.865  15.436 -0.4787 -0.2658 -0.1766
  413MPD2    C1 6214   4.624   0.812  15.328 -0.0860  0.0895  0.5392
  413MPD2    C2 6215   4.687   0.709  15.256 -0.1798 -0.0428 -0.5400
  413MPD2    C3 6216   0.076   0.664  15.305 -0.6491 -0.6285  0.4626
  413MPD2    C4 6217   0.139   0.715  15.417  0.4121 -0.4602 -0.0521
  413MPD2    C5 6218   0.076   0.819  15.483  0.3827  0.2781 -0.2277
  413MPD2     H 6219   4.653   0.667  15.162  1.3350  1.1400 -1.6096
  413MPD2    H1 6220   0.236   0.682  15.451 -0.0784 -1.7518  0.1058
  413MPD2    H2 6221   4.644   0.946  15.490  1.7024  2.3669 -2.2590
  413MPD2    H3 6222   0.127   0.877  15.560 -0.9164  2.5948 -1.1074
  413MPD2     N 6223   0.139   0.555  15.234  0.2779 -0.3661 -0.5181
  413MPD2    H5 6224   0.103   0.513  15.149  0.5926 -0.6065 -0.5340
  413MPD2    N1 6225   4.494   0.848  15.305  0.5130  0.4414 -0.2563
  413MPD2    H7 6226   4.463   0.935  15.347 -0.8294 -0.0326 -0.2791
  414TMC3    C1 6227   0.274   0.376  15.181  0.8167  0.4976 -0.4276
  414TMC3    C2 6228   0.365   0.286  15.237  0.3388  0.2279 -0.2787
  414TMC3    C3 6229   0.355   0.155  15.189  0.5240  0.3059  0.4676
  414TMC3    C4 6230   0.180   0.345  15.083  0.2587  0.2046 -0.0250
  414TMC3    C5 6231   0.188   0.219  15.031 -0.5381 -0.3884 -0.5416
  414TMC3    C6 6232   0.265   0.123  15.087 -0.5857  0.0554 -0.5444
  414TMC3     C 6233   0.251   0.485  15.271  0.2205  1.7266  0.1788
  414TMC3     O 6234   0.308   0.477  15.382  0.0700  1.0543 -0.2505
  414TMC3     H 6235   0.438   0.307  15.314 -1.0136  1.8018  0.5646
  414TMC3    H1 6236   0.109   0.416  15.041 -0.2609 -1.9127 -2.7894
  414TMC3    H2 6237   0.260   0.024  15.043 -2.1977 -0.0888 -0.0365
  414TMC3    C7 6238   0.089   0.173  14.934  0.2137 -0.2728  1.1233
  414TMC3    C8 6239   0.481   0.079  15.168  0.0076 -0.5961  0.3364
  414TMC3    O1 6240   0.023   0.072  14.956 -0.3167 -0.1199  0.4221
  414TMC3    O2 6241   0.470   4.705  15.116  0.5583 -0.6140 -0.0527
  415TMC3    C1 6242   0.255   3.379  10.325  0.4999 -0.0621 -0.2924
  415TMC3    C2 6243   0.370   3.402  10.260  1.0817 -0.2831 -0.2656
  415TMC3    C3 6244   0.389   3.336  10.139  0.1559  0.2976  0.6137
  415TMC3    C4 6245   0.157   3.302  10.275 -0.6435  0.3238 -0.3536
  415TMC3    C5 6246   0.186   3.229  10.163  0.0302  0.2521 -0.0198
  415TMC3    C6 6247   0.296   3.245  10.088  0.4066 -0.6918  0.1191
  415TMC3     C 6248   0.215   3.456  10.445 -0.4037 -0.4262 -0.1751
  415TMC3     O 6249   0.112   3.428  10.503  0.1761 -0.1459 -0.0151
  415TMC3     H 6250   0.460   3.437  10.309  1.1222 -0.3633 -0.2816
  415TMC3    H1 6251   0.055   3.305  10.313 -0.0540  1.1868  1.1674
  415TMC3    H2 6252   0.329   3.175  10.011 -0.6552  0.4799 -1.3893
  415TMC3    C7 6253   0.084   3.131  10.119  0.3354 -0.4201 -0.3256
  415TMC3    C8 6254   0.513   3.339  10.073 -0.6379  0.1310 -0.3915
  415TMC3    O1 6255   0.072   3.080  10.008 -0.1278 -0.3894 -0.0802
  415TMC3    O2 6256   0.525   3.257   9.985  0.1037  0.0423 -0.1324
  416MPD2     C 6257   2.157   2.321  11.725  0.3422 -0.1343  0.3756
  416MPD2    C1 6258   2.062   2.376  11.640  0.5570  0.4753 -0.3728
  416MPD2    C2 6259   2.065   2.341  11.506  0.2615 -0.5257 -0.2961
  416MPD2    C3 6260   2.166   2.256  11.457 -0.0156 -0.4488 -0.0758
  416MPD2    C4 6261   2.265   2.212  11.545  0.0335 -1.0040 -0.4596
  416MPD2    C5 6262   2.261   2.247  11.677  0.1302 -0.0055 -0.0325
  416MPD2     H 6263   1.972   2.359  11.452  0.6078 -1.0062 -1.0571
  416MPD2    H1 6264   2.354   2.165  11.505  1.3663  2.0801 -1.0688
  416MPD2    H2 6265   2.162   2.352  11.829 -1.0999 -1.0652  0.7209
  416MPD2    H3 6266   2.339   2.208  11.742  0.0264  0.5042  0.4063
  416MPD2     N 6267   2.170   2.209  11.325 -0.1848 -0.5957  0.2422
  416MPD2    H5 6268   2.244   2.148  11.292  1.0242  0.6103  0.7096
  416MPD2    N1 6269   1.952   2.439  11.689 -0.0605  0.8468 -0.2813
  416MPD2    H7 6270   1.934   2.433  11.788  0.4433  0.4806 -0.2163
  417TMC3    C1 6271   1.721   2.491  11.703  0.1125 -0.3585 -0.0937
  417TMC3    C2 6272   1.705   2.409  11.817 -0.4403 -0.6674  0.1992
  417TMC3    C3 6273   1.583   2.348  11.847 -0.2079  0.5916  0.4503
  417TMC3    C4 6274   1.615   2.514  11.631  0.0897 -0.5778 -0.5701
  417TMC3    C5 6275   1.493   2.449  11.657  0.6144 -1.0098 -0.1870
  417TMC3    C6 6276   1.476   2.372  11.770 -0.6330 -0.4478 -0.2136
  417TMC3     C 6277   1.850   2.502  11.628  0.1964 -0.4217 -0.2909
  417TMC3     O 6278   1.840   2.538  11.513 -0.0709 -0.1243 -0.2615
  417TMC3     H 6279   1.786   2.402  11.888 -1.6785 -0.9272  1.5773
  417TMC3    H1 6280   1.623   2.551  11.530  0.5954  0.5032 -0.1327
  417TMC3    H2 6281   1.389   2.308  11.779 -0.8616  0.1553  1.7756
  417TMC3    C7 6282   1.424   2.401  11.532 -0.8732 -0.4889  0.8399
  417TMC3    C8 6283   1.550   2.319  11.986 -0.6299 -0.2417 -0.5408
  417TMC3    O1 6284   1.379   2.285  11.533  0.4270 -0.0543 -0.4910
  417TMC3    O2 6285   1.444   2.354  12.037  0.0054  0.1068  0.4960
  418TMC3    C1 6286   1.166   4.400  17.683  0.1640  0.3800 -0.2044
  418TMC3    C2 6287   1.050   4.467  17.687  0.0687 -0.7175 -0.2069
  418TMC3    C3 6288   0.993   4.491   0.071 -0.3480  0.2805  0.0935
  418TMC3    C4 6289   1.223   4.345   0.049  0.4728 -0.0374 -0.2136
  418TMC3    C5 6290   1.164   4.360   0.169 -0.1587  0.3639  0.5333
  418TMC3    C6 6291   1.048   4.436   0.184  0.0254  0.3319  0.1930
  418TMC3     C 6292   1.230   4.398  17.549  0.4200  0.2850 -0.6320
  418TMC3     O 6293   1.191   4.483  17.472 -0.2589 -0.6592  0.1196
  418TMC3     H 6294   0.994   4.512  17.605 -2.3487 -1.9450  0.7500
  418TMC3    H1 6295   1.319   4.295   0.046  0.4433  0.0960 -4.6998
  418TMC3    H2 6296   1.001   4.463   0.278  1.9139  3.4840  0.2597
  418TMC3    C7 6297   1.201   4.265   0.275  0.2091 -0.2268 -0.3050
  418TMC3    C8 6298   0.855   4.526   0.086  0.3426 -0.2091  0.0371
  418TMC3    O1 6299   1.276   4.173   0.246 -0.7062  0.5004  0.0671
  418TMC3    O2 6300   0.834   4.636   0.141  0.2589  0.5895  0.5843
  419MPD2     C 6301   3.798   2.037  12.596  0.1714  0.2964 -0.5617
  419MPD2    C1 6302   3.751   2.167  12.588 -0.7130 -0.2438 -0.2162
  419MPD2    C2 6303   3.783   2.259  12.684  0.3477  0.7178  0.4003
  419MPD2    C3 6304   3.851   2.220  12.797 -0.0538  0.4895  0.2654
  419MPD2    C4 6305   3.897   2.086  12.804 -0.0732 -0.2490 -0.2252
  419MPD2    C5 6306   3.872   1.999  12.706  0.0761  0.3381  0.0331
  419MPD2     H 6307   3.763   2.363  12.662 -0.0365  0.6220  0.2981
  419MPD2    H1 6308   3.957   2.062  12.891  0.5559  1.3024 -0.2373
  419MPD2    H2 6309   3.767   1.956  12.531 -1.6311  0.8179 -0.3684
  419MPD2    H3 6310   3.906   1.897  12.724 -1.5862  0.2770  2.7537
  419MPD2     N 6311   3.885   2.322  12.894  0.6384 -0.4292  0.2218
  419MPD2    H5 6312   3.829   2.406  12.898 -0.2480 -1.0635  1.0693
  419MPD2    N1 6313   3.676   2.207  12.477  0.3730 -0.2580 -0.6733
  419MPD2    H7 6314   3.659   2.307  12.467  0.2306 -0.4116 -1.8801
  420TMC3    C1 6315   3.992   2.404  13.090 -0.2311  0.0473 -0.0178
  420TMC3    C2 6316   3.894   2.498  13.085 -0.3218  0.3137 -0.1754
  420TMC3    C3 6317   3.926   2.613  13.152  0.4466  0.5596  0.4634
  420TMC3    C4 6318   4.108   2.407  13.163  1.1012 -1.0324 -0.3178
  420TMC3    C5 6319   4.134   2.531  13.221 -1.0940  0.6466  0.0186
  420TMC3    C6 6320   4.048   2.631  13.213  0.4519 -0.0753 -0.1450
  420TMC3     C 6321   3.984   2.305  12.986 -0.3501  0.2997  0.1553
  420TMC3     O 6322   4.076   2.228  12.997 -0.1614 -0.5021  0.5890
  420TMC3     H 6323   3.802   2.498  13.027  1.3033  1.8617 -2.7454
  420TMC3    H1 6324   4.188   2.338  13.138  2.0852  0.3441 -0.9422
  420TMC3    H2 6325   4.058   2.722  13.271 -0.4967  0.0753 -0.2082
  420TMC3    C7 6326   4.236   2.521  13.329  0.0271 -0.4753  0.1397
  420TMC3    C8 6327   3.863   2.739  13.120 -0.4030  1.0686 -0.6040
  420TMC3    O1 6328   4.261   2.409  13.372 -0.0192 -0.1290 -0.3602
  420TMC3    O2 6329   3.742   2.737  13.120  0.4158  0.7256  0.5567
  421TMC3    C1 6330   0.837   3.927  13.389  0.5357  0.3961 -0.0776
  421TMC3    C2 6331   0.888   4.052  13.368  0.4840 -0.0816 -0.5680
  421TMC3    C3 6332   0.995   4.090  13.445  0.7633 -0.1327  0.2511
  421TMC3    C4 6333   0.881   3.846  13.484 -0.1368  0.4209  0.2877
  421TMC3    C5 6334   0.997   3.878  13.558 -0.6745 -0.7596  0.0427
  421TMC3    C6 6335   1.046   4.002  13.540  0.4660 -0.1841  0.1352
  421TMC3     C 6336   0.739   3.875  13.292 -0.4391 -0.9133 -0.3062
  421TMC3     O 6337   0.708   3.757  13.305 -0.5547 -0.5262  0.0140
  421TMC3     H 6338   0.867   4.111  13.279  2.9300  3.3919  1.1661
  421TMC3    H1 6339   0.828   3.753  13.498 -0.4042  0.9119  2.5952
  421TMC3    H2 6340   1.132   4.027  13.601  0.3934 -0.1927  0.2408
  421TMC3    C7 6341   1.062   3.786  13.649  0.4955 -0.2400  0.1926
  421TMC3    C8 6342   1.027   4.234  13.454  0.2049  1.0197  0.7901
  421TMC3    O1 6343   1.145   3.837  13.723 -1.2319 -0.3541  0.1611
  421TMC3    O2 6344   0.952   4.305  13.390 -0.0741 -0.5621  0.4193
  422TMC3    C1 6345   3.129   0.707  12.067  0.5869 -0.1645  0.1831
  422TMC3    C2 6346   3.174   0.732  12.194 -0.7568  0.0811  0.6725
  422TMC3    C3 6347   3.082   0.712  12.293 -0.7363 -0.5066 -0.1302
  422TMC3    C4 6348   3.011   0.652  12.034 -0.2641  0.1942 -0.2699
  422TMC3    C5 6349   2.931   0.621  12.137 -0.2548 -0.2618  0.4637
  422TMC3    C6 6350   2.960   0.657  12.267 -0.1439  0.1977 -0.3355
  422TMC3     C 6351   3.198   0.769  11.956 -0.4533  0.0715  0.6745
  422TMC3     O 6352   3.130   0.831  11.873 -0.2704  0.4786  0.6021
  422TMC3     H 6353   3.275   0.766  12.209 -0.1432 -1.9750  1.1669
  422TMC3    H1 6354   2.984   0.637  11.930  1.8399 -0.4381 -0.7291
  422TMC3    H2 6355   2.892   0.642  12.350  0.0262  0.5739 -0.1278
  422TMC3    C7 6356   2.829   0.527  12.108  0.2571  0.1445  0.0502
  422TMC3    C8 6357   3.129   0.733  12.427  0.1580 -0.7761  0.2024
  422TMC3    O1 6358   2.858   0.465  12.008  0.2893 -0.4376  0.7376
  422TMC3    O2 6359   3.215   0.815  12.451 -0.2110 -0.1635 -0.0897
  423MPD2     C 6360   4.635   1.503   0.626  0.0820 -0.0327  1.0074
  423MPD2    C1 6361   4.653   1.369   0.617  0.1780 -0.0685 -0.6957
  423MPD2    C2 6362   4.627   1.308   0.500  0.2030 -0.1308  0.1234
  423MPD2    C3 6363   4.593   1.381   0.383 -0.3550 -0.8014 -0.0844
  423MPD2    C4 6364   4.588   1.518   0.397  0.3567 -0.0476  0.1656
  423MPD2    C5 6365   4.612   1.582   0.515 -0.1916  0.7549  0.9903
  423MPD2     H 6366   4.642   1.201   0.493 -1.2817 -0.3554  0.2567
  423MPD2    H1 6367   4.564   1.587   0.317  0.2225  1.4194  1.4871
  423MPD2    H2 6368   4.654   1.563   0.714  1.9810  0.0149  0.5805
  423MPD2    H3 6369   4.594   1.689   0.525 -3.8360  0.2979 -0.8635
  423MPD2     N 6370   4.573   1.313   0.257  0.0327 -0.1905  0.1164
  423MPD2    H5 6371   4.558   1.370   0.175 -1.5043  0.4628  0.8714
  423MPD2    N1 6372   4.691   1.291   0.722  0.4228 -0.0162  0.2576
  423MPD2    H7 6373   4.705   1.193   0.700  0.5044  0.7577 -3.1531
  424TMC3    C1 6374   0.005   1.228   0.948  0.3367  0.3483  0.0109
  424TMC3    C2 6375   0.134   1.199   0.909  0.2953  0.6764  0.1028
  424TMC3    C3 6376   0.224   1.155   1.006  0.0840 -0.0319 -0.1981
  424TMC3    C4 6377   4.703   1.241   1.078  0.1213  0.0794 -0.4819
  424TMC3    C5 6378   0.060   1.199   1.168 -0.4536 -0.1545  0.3843
  424TMC3    C6 6379   0.186   1.151   1.133 -0.6954 -0.3361  0.3140
  424TMC3     C 6380   4.673   1.322   0.854  0.3599 -0.4497 -0.9578
  424TMC3     O 6381   4.627   1.426   0.905 -0.2345  0.0443  0.3754
  424TMC3     H 6382   0.172   1.203   0.808  1.3629  0.4018  0.4955
  424TMC3    H1 6383   4.600   1.259   1.105 -0.1745 -0.2282 -1.4046
  424TMC3    H2 6384   0.258   1.133   1.211 -1.2905 -0.2962  0.8760
  424TMC3    C7 6385   0.025   1.211   1.311  1.0155  0.2177  0.2380
  424TMC3    C8 6386   0.358   1.121   0.968  0.3011  0.0512 -0.0372
  424TMC3    O1 6387   0.093   1.150   1.389 -0.6782  0.5148  0.4823
  424TMC3    O2 6388   0.375   1.033   0.884 -0.4008  0.5083  0.5108
  425MPD2     C 6389   3.508   0.725  17.172 -0.0308 -0.1716 -0.5067
  425MPD2    C1 6390   3.436   0.612  17.134 -0.2232 -0.2454  0.1353
  425MPD2    C2 6391   3.308   0.600  17.187  1.0064 -0.6153 -0.0636
  425MPD2    C3 6392   3.262   0.700  17.269  0.7001 -0.3672  0.4225
  425MPD2    C4 6393   3.335   0.818  17.295 -0.5498 -0.3099  0.2134
  425MPD2    C5 6394   3.462   0.823  17.249  0.2813  0.8190 -0.5795
  425MPD2     H 6395   3.244   0.514  17.169 -1.7146  1.1571  1.1006
  425MPD2    H1 6396   3.293   0.907  17.342 -0.0268 -0.5436  1.1227
  425MPD2    H2 6397   3.602   0.754  17.128 -0.0150  0.3609 -0.1255
  425MPD2    H3 6398   3.530   0.908  17.249 -0.6168  1.5427 -0.9601
  425MPD2     N 6399   3.137   0.677  17.334 -0.5390  0.2568  0.0089
  425MPD2    H5 6400   3.080   0.598  17.308 -1.7433  1.2150 -0.2386
  425MPD2    N1 6401   3.495   0.512  17.057  0.6755  0.1952 -0.0279
  425MPD2    H7 6402   3.596   0.508  17.052  0.6748  1.7540 -1.1148
  426TMC3    C1 6403   3.511   0.304  16.939  0.4334  0.2926  0.7015
  426TMC3    C2 6404   3.469   0.247  16.814  0.4511  0.8572 -0.5073
  426TMC3    C3 6405   3.555   0.153  16.763 -0.0792  0.2071  0.4440
  426TMC3    C4 6406   3.626   0.268  17.002 -0.1853  0.1834  0.1153
  426TMC3    C5 6407   3.696   0.167  16.947 -0.1851 -0.0233  0.4209
  426TMC3    C6 6408   3.678   0.126  16.818  0.0547  0.0298 -0.0071
  426TMC3     C 6409   3.431   0.408  16.999 -0.2977 -0.2205  0.5966
  426TMC3     O 6410   3.311   0.402  16.980 -0.1322  0.2609 -0.4476
  426TMC3     H 6411   3.377   0.285  16.773 -0.1465  0.0358  0.0726
  426TMC3    H1 6412   3.654   0.298  17.102 -0.4503 -3.2140  1.2221
  426TMC3    H2 6413   3.730   0.038  16.783 -2.3360 -1.0546 -0.8758
  426TMC3    C7 6414   3.741   0.058  17.031 -0.0445  1.0075  0.4425
  426TMC3    C8 6415   3.492   0.052  16.688  0.4482  0.5889 -0.2669
  426TMC3    O1 6416   3.818   4.712  16.981  0.0825 -0.5756 -0.0735
  426TMC3    O2 6417   3.569   4.726  16.615  0.2191 -0.4604 -0.2040
  427MPD2     C 6418   2.189   2.403  14.644  0.0501  0.4148 -0.1373
  427MPD2    C1 6419   2.115   2.429  14.757  0.2728 -0.0353 -0.5952
  427MPD2    C2 6420   1.980   2.410  14.750  0.3077 -0.4018  1.0604
  427MPD2    C3 6421   1.910   2.367  14.635 -0.1248 -0.4681  0.1484
  427MPD2    C4 6422   1.988   2.335  14.525  0.2719  0.9533  0.1668
  427MPD2    C5 6423   2.125   2.354  14.530  1.0955  0.0363 -0.7264
  427MPD2     H 6424   1.926   2.447  14.836  1.8371  2.5741  0.7248
  427MPD2    H1 6425   1.943   2.317  14.428  1.1193 -1.7979  0.2659
  427MPD2    H2 6426   2.293   2.430  14.634 -0.4703  1.5920 -2.5972
  427MPD2    H3 6427   2.188   2.350  14.442 -0.2419 -0.6343 -1.6412
  427MPD2     N 6428   1.773   2.361  14.636 -0.3355 -0.5370  0.8025
  427MPD2    H5 6429   1.735   2.343  14.543  0.2081  0.5627  0.3623
  427MPD2    N1 6430   2.164   2.463  14.886  0.5124 -0.1494  0.2879
  427MPD2    H7 6431   2.096   2.462  14.962  2.1204 -0.9700  1.7120
  428TMC3    C1 6432   2.321   2.467  15.061  0.0140 -0.2200  0.1667
  428TMC3    C2 6433   2.221   2.435  15.147  0.2911 -0.3244 -0.1539
  428TMC3    C3 6434   2.254   2.437  15.277 -0.1184 -0.3184  0.8877
  428TMC3    C4 6435   2.443   2.511  15.096 -0.8780 -0.1560 -0.3510
  428TMC3    C5 6436   2.468   2.521  15.231 -0.1871 -0.5548 -0.0171
  428TMC3    C6 6437   2.374   2.489  15.321 -0.1569  0.7966  0.5854
  428TMC3     C 6438   2.299   2.472  14.918 -0.2513 -0.0260  0.5727
  428TMC3     O 6439   2.395   2.462  14.841 -0.4943 -0.1387  0.5300
  428TMC3     H 6440   2.129   2.386  15.118  1.2253 -1.4791 -1.1535
  428TMC3    H1 6441   2.518   2.533  15.021  0.6552  0.3730  1.3358
  428TMC3    H2 6442   2.400   2.476  15.426  0.0717 -1.3474  0.2591
  428TMC3    C7 6443   2.602   2.549  15.281 -0.1568  0.2547  0.0027
  428TMC3    C8 6444   2.151   2.387  15.373  0.0109 -0.5439 -0.0822
  428TMC3    O1 6445   2.619   2.541  15.402  0.2158 -0.5063  0.5822
  428TMC3    O2 6446   2.079   2.292  15.347  0.0725  0.2510  0.0507
  429MPD2     C 6447   3.237   2.581  17.564 -0.5036  0.4991 -0.4467
  429MPD2    C1 6448   3.353   2.575  17.633  0.8638 -0.1565 -0.4067
  429MPD2    C2 6449   3.433   2.692  17.639  0.3371  0.2890 -0.0781
  429MPD2    C3 6450   3.397   2.810  17.578  1.3504  0.5268  0.1320
  429MPD2    C4 6451   3.284   2.811  17.504  0.5213 -0.0523 -0.0812
  429MPD2    C5 6452   3.202   2.701  17.500  0.9783 -0.0537  0.8588
  429MPD2     H 6453   3.526   2.691  17.695 -0.3848 -0.0988  1.1078
  429MPD2    H1 6454   3.261   2.890  17.433  1.5180  0.4819  0.1807
  429MPD2    H2 6455   3.174   2.495  17.548  1.9463 -1.3233 -0.2731
  429MPD2    H3 6456   3.108   2.703  17.447 -0.3067 -0.1676  3.1235
  429MPD2     N 6457   3.487   2.919  17.587 -0.6172 -0.1038  0.0832
  429MPD2    H5 6458   3.583   2.898  17.614 -0.6940 -3.0578 -1.9362
  429MPD2    N1 6459   3.394   2.463  17.701  0.4962  0.0346 -0.2414
  429MPD2    H7 6460   3.482   2.460   0.009  0.9546  1.5147 -0.9599
  430TMC3    C1 6461   3.589   3.109  17.465  0.4858 -0.2467 -0.0708
  430TMC3    C2 6462   3.567   3.228  17.410  0.2744 -0.5142  0.6108
  430TMC3    C3 6463   3.630   3.272  17.301  0.5674 -0.1078 -0.3215
  430TMC3    C4 6464   3.685   3.023  17.410  0.4964 -0.0083 -0.8212
  430TMC3    C5 6465   3.730   3.053  17.281 -1.2980 -0.2086 -0.2722
  430TMC3    C6 6466   3.711   3.180  17.233  0.2406 -0.4677  0.0538
  430TMC3     C 6467   3.471   3.037  17.522  0.7570  0.2243  0.2617
  430TMC3     O 6468   3.360   3.091  17.514 -0.3172  0.2010  0.0713
  430TMC3     H 6469   3.490   3.291  17.454  0.8529  0.2372  0.5453
  430TMC3    H1 6470   3.697   2.921  17.443  0.7847  0.6061  0.9677
  430TMC3    H2 6471   3.770   3.210  17.147 -0.5806  0.6926 -0.1065
  430TMC3    C7 6472   3.705   2.956  17.184  1.5700  0.5805  0.4849
  430TMC3    C8 6473   3.546   3.349  17.211  1.5753  0.2211 -0.6434
  430TMC3    O1 6474   3.744   2.842  17.212 -0.0057 -0.0998  0.4071
  430TMC3    O2 6475   3.563   3.319  17.091  0.1896 -0.8428  0.3313
  431MPD2     C 6476   3.798   2.657  12.758  0.7662  0.8145  0.1041
  431MPD2    C1 6477   3.866   2.624  12.645  0.2413 -0.3744  0.1024
  431MPD2    C2 6478   3.787   2.611  12.524 -0.0425 -0.0920 -0.2900
  431MPD2    C3 6479   3.648   2.606  12.535  0.5263 -0.1472  0.2944
  431MPD2    C4 6480   3.579   2.641  12.650 -0.4333  0.0549  0.4626
  431MPD2    C5 6481   3.660   2.667  12.760  0.7923  0.3472 -0.0426
  431MPD2     H 6482   3.836   2.594  12.429  0.3400 -0.7779  0.0287
  431MPD2    H1 6483   3.471   2.647  12.654 -0.4721 -0.3303 -0.0430
  431MPD2    H2 6484   3.855   2.679  12.847 -0.6675  3.1746  0.4292
  431MPD2    H3 6485   3.610   2.711  12.846 -0.0953  1.6240 -1.2039
  431MPD2     N 6486   3.559   2.578  12.427  0.1597  0.4948 -0.1384
  431MPD2    H5 6487   3.461   2.554  12.436  0.0405  1.4386  1.1433
  431MPD2    N1 6488   4.002   2.603  12.631  0.0641  0.0183  0.1623
  431MPD2    H7 6489   4.046   2.568  12.546 -3.1185 -2.2936 -0.5365
  432TMC3    C1 6490   3.534   2.459  12.233  0.1962  0.4421  0.7191
  432TMC3    C2 6491   3.577   2.448  12.102  0.4300  0.2855  0.4013
  432TMC3    C3 6492   3.632   2.329  12.055 -0.0057  0.3477  0.1143
  432TMC3    C4 6493   3.533   2.345  12.316 -0.0965  0.0202  0.0931
  432TMC3    C5 6494   3.597   2.225  12.270 -0.3653  0.4015 -0.0491
  432TMC3    C6 6495   3.648   2.217  12.139 -0.3443 -0.4868  0.2701
  432TMC3     C 6496   3.597   2.574  12.295  0.0055  0.3773  0.2036
  432TMC3     O 6497   3.689   2.622  12.226 -0.2184 -0.3408 -0.4204
  432TMC3     H 6498   3.580   2.532  12.034  0.1756 -2.0347 -2.4813
  432TMC3    H1 6499   3.490   2.347  12.416  4.0425  0.7462  1.8411
  432TMC3    H2 6500   3.719   2.142  12.107 -0.3391  1.3537 -3.9899
  432TMC3    C7 6501   3.650   2.138  12.366  0.2547 -0.8125  0.0474
  432TMC3    C8 6502   3.721   2.346  11.939 -0.6670 -0.5299 -1.4014
  432TMC3    O1 6503   3.715   2.038  12.322 -0.1124  0.1338 -0.3578
  432TMC3    O2 6504   3.661   2.387  11.838  0.0536 -0.4200 -0.0116
  433MPD2     C 6505   2.664   1.610  10.677  0.3423  0.0663 -0.2416
  433MPD2    C1 6506   2.596   1.507  10.731  0.6079  0.4472  0.5756
  433MPD2    C2 6507   2.579   1.501  10.871 -0.2935  0.6318 -0.0723
  433MPD2    C3 6508   2.629   1.594  10.952 -0.4343  0.3563  0.4137
  433MPD2    C4 6509   2.699   1.701  10.902  0.3690  0.1316  0.1220
  433MPD2    C5 6510   2.714   1.708  10.761  0.6741  0.5743 -0.4713
  433MPD2     H 6511   2.521   1.422  10.917 -0.8799 -0.0162 -1.9360
  433MPD2    H1 6512   2.757   1.770  10.962 -0.2303  1.3596 -0.6816
  433MPD2    H2 6513   2.679   1.611  10.569 -0.2523 -0.2394 -0.3260
  433MPD2    H3 6514   2.771   1.789  10.718 -0.6343  0.8219 -1.7596
  433MPD2     N 6515   2.595   1.589  11.091 -0.5978  0.0651 -0.3081
  433MPD2    H5 6516   2.565   1.501  11.132  0.7042 -0.4971 -0.5426
  433MPD2    N1 6517   2.540   1.407  10.639 -0.4678 -0.8556 -0.3420
  433MPD2    H7 6518   2.538   1.431  10.541  0.0617 -0.6915 -0.3137
  434TMC3    C1 6519   2.486   1.191  10.562 -0.5255  0.5178 -0.1519
  434TMC3    C2 6520   2.558   1.080  10.597 -1.0514  0.3570 -0.0336
  434TMC3    C3 6521   2.654   1.037  10.515  0.2243 -0.0334 -0.0212
  434TMC3    C4 6522   2.507   1.247  10.438  0.5669 -0.1447  0.3921
  434TMC3    C5 6523   2.589   1.191  10.347 -0.7609  0.0412  0.2099
  434TMC3    C6 6524   2.680   1.090  10.385  0.2294 -0.4938  0.0481
  434TMC3     C 6525   2.506   1.280  10.674  0.1376  0.8369  0.0460
  434TMC3     O 6526   2.507   1.223  10.783 -0.6077 -0.4381  0.1043
  434TMC3     H 6527   2.535   1.025  10.688  1.0926 -0.5029 -0.0362
  434TMC3    H1 6528   2.451   1.330  10.397 -1.3635 -1.6190  0.0749
  434TMC3    H2 6529   2.750   1.055  10.309 -0.8837 -0.7269 -0.8619
  434TMC3    C7 6530   2.572   1.221  10.209  0.0108  0.5478  0.1014
  434TMC3    C8 6531   2.757   0.966  10.584  0.0693  0.0967 -0.0643
  434TMC3    O1 6532   2.661   1.297  10.177  0.2262  0.0515 -0.1257
  434TMC3    O2 6533   2.734   0.907  10.689  0.2167 -0.6691 -0.5574
  435MPD2     C 6534   0.469   1.689  15.368  0.1171 -0.3007  0.0846
  435MPD2    C1 6535   0.417   1.668  15.489 -0.3264 -0.2923  0.2431
  435MPD2    C2 6536   0.469   1.578  15.574  0.6237  0.4365 -0.1062
  435MPD2    C3 6537   0.588   1.518  15.547 -0.7164  0.8632 -0.7849
  435MPD2    C4 6538   0.654   1.554  15.432  0.4745  0.6084 -0.3536
  435MPD2    C5 6539   0.587   1.632  15.343  0.3017 -0.2423 -0.2384
  435MPD2     H 6540   0.434   1.557  15.674 -1.9696 -0.3819 -1.1837
  435MPD2    H1 6541   0.756   1.523  15.411  0.9291  1.2110  0.9984
  435MPD2    H2 6542   0.424   1.752  15.291  1.1103 -0.4674 -0.6332
  435MPD2    H3 6543   0.630   1.657  15.247  1.4141  1.3409  0.6712
  435MPD2     N 6544   0.629   1.410  15.628  0.4688  0.4133  0.0411
  435MPD2    H5 6545   0.597   1.393  15.723 -1.2165 -1.6551 -0.9117
  435MPD2    N1 6546   0.303   1.738  15.539  0.4615 -0.2689  0.0884
  435MPD2    H7 6547   0.279   1.724  15.636  0.9572 -1.2664  0.0604
  436TMC3    C1 6548   4.731   1.866  15.772 -0.0205 -0.0486 -0.9275
  436TMC3    C2 6549   0.093   1.814  15.687 -0.5277  0.1881 -0.5569
  436TMC3    C3 6550   0.124   1.878  15.568 -0.3239  0.1781  0.0724
  436TMC3    C4 6551   4.664   1.982  15.740 -0.7607 -0.0002 -0.4568
  436TMC3    C5 6552   4.704   2.049  15.623  0.2374 -0.1438 -0.2514
  436TMC3    C6 6553   0.063   1.997  15.535 -1.2399  0.1093 -0.2216
  436TMC3     C 6554   4.660   1.763  15.851  0.3957  0.2826 -0.1225
  436TMC3     O 6555   4.609   1.671  15.784 -0.0161  0.0943 -0.0349
  436TMC3     H 6556   0.126   1.713  15.708 -0.1790  0.4935  0.3422
  436TMC3    H1 6557   4.582   2.014  15.803 -0.8586  1.2564 -1.2389
  436TMC3    H2 6558   0.074   2.041  15.437  1.1690  0.6785  0.3214
  436TMC3    C7 6559   4.621   2.166  15.591  0.5845 -0.4436  0.1079
  436TMC3    C8 6560   0.235   1.843  15.486 -0.7976  0.6700  0.9258
  436TMC3    O1 6561   4.544   2.197  15.682  0.0678 -0.6184 -0.2728
  436TMC3    O2 6562   0.255   1.900  15.377  0.4351  1.0693  0.0060
  437TMC3    C1 6563   3.790   3.071  11.824 -0.2416  0.1861  0.3431
  437TMC3    C2 6564   3.743   3.187  11.763  0.5343 -0.7404  0.4649
  437TMC3    C3 6565   3.760   3.309  11.828  0.2116  0.4302 -0.4961
  437TMC3    C4 6566   3.865   3.079  11.945  0.0742 -0.1794  0.0033
  437TMC3    C5 6567   3.880   3.201  11.999 -0.1739  0.6822  0.0353
  437TMC3    C6 6568   3.837   3.318  11.939 -0.8891 -0.3735  0.4566
  437TMC3     C 6569   3.799   2.944  11.760  0.7014 -0.5533  0.4973
  437TMC3     O 6570   3.882   2.863  11.800  0.0415 -0.2555 -0.0581
  437TMC3     H 6571   3.711   3.189  11.660 -0.7707 -0.7111  0.8731
  437TMC3    H1 6572   3.918   2.992  11.981 -2.0679 -1.6130 -0.3362
  437TMC3    H2 6573   3.845   3.398  12.011 -2.9377 -0.6021  0.9486
  437TMC3    C7 6574   3.960   3.216  12.122 -0.0802  0.3157 -0.5558
  437TMC3    C8 6575   3.685   3.428  11.786 -0.3487 -0.4793 -0.0354
  437TMC3    O1 6576   4.024   3.317  12.135  0.1643  0.0946 -0.1069
  437TMC3    O2 6577   3.720   3.534  11.842  0.2118  0.1502 -0.2560
  438MPD2     C 6578   1.171   4.169  16.446 -0.2369  0.0254 -0.4966
  438MPD2    C1 6579   1.247   4.068  16.496 -0.1068  0.3758  0.2659
  438MPD2    C2 6580   1.256   4.052  16.629 -0.6056 -0.7154 -0.2263
  438MPD2    C3 6581   1.189   4.127  16.716  0.0598 -0.6415  0.3227
  438MPD2    C4 6582   1.096   4.219  16.660  0.1883  0.7859 -0.4500
  438MPD2    C5 6583   1.097   4.244  16.527 -0.0959  0.1668 -0.0498
  438MPD2     H 6584   1.321   3.971  16.660 -0.8111  0.2167  2.5572
  438MPD2    H1 6585   1.022   4.268  16.722  2.3614  1.3457  1.7143
  438MPD2    H2 6586   1.164   4.193  16.341  0.6497  0.3729 -0.4767
  438MPD2    H3 6587   1.036   4.320  16.479 -0.4444  2.1537  3.4697
  438MPD2     N 6588   1.198   4.113  16.855 -0.5314 -0.0741 -0.1496
  438MPD2    H5 6589   1.143   4.174  16.913 -0.4327  1.3518 -1.5383
  438MPD2    N1 6590   1.342   4.001  16.420 -0.4542  0.8629 -0.5997
  438MPD2    H7 6591   1.406   3.942  16.473 -0.5383  2.1038  0.8726
  439TMC3    C1 6592   1.483   3.949  16.239  0.1949 -0.5673  1.0322
  439TMC3    C2 6593   1.490   3.921  16.106  0.2887 -0.8900 -0.0904
  439TMC3    C3 6594   1.612   3.891  16.048  0.6946  0.6387  0.0038
  439TMC3    C4 6595   1.594   3.948  16.314  0.8529  0.2221 -0.1628
  439TMC3    C5 6596   1.713   3.914  16.253 -0.5676  0.2276  0.4625
  439TMC3    C6 6597   1.728   3.883  16.122 -0.4333 -0.8136  0.1909
  439TMC3     C 6598   1.360   4.013  16.285 -0.2818 -0.5325 -0.0009
  439TMC3     O 6599   1.279   4.051  16.200  0.0175  0.0553  0.3192
  439TMC3     H 6600   1.409   3.930  16.034  0.7209  1.7546 -0.2322
  439TMC3    H1 6601   1.587   3.980  16.417 -2.0157 -0.9639  0.0258
  439TMC3    H2 6602   1.823   3.847  16.083 -1.1250 -1.6291 -0.7292
  439TMC3    C7 6603   1.820   3.889  16.346  0.4096 -0.0289  0.8155
  439TMC3    C8 6604   1.621   3.803  15.933  0.2459 -0.1484 -0.4842
  439TMC3    O1 6605   1.788   3.864  16.459  0.1691  0.4683 -0.4596
  439TMC3    O2 6606   1.734   3.791  15.896 -0.4177 -0.1004 -0.1464
  440MPD2     C 6607   0.270   4.025  14.759 -0.1746 -0.0271  0.0593
  440MPD2    C1 6608   0.318   4.140  14.822 -0.0344 -0.2341  0.4454
  440MPD2    C2 6609   0.448   4.171  14.806  0.5958 -0.3206 -0.5315
  440MPD2    C3 6610   0.536   4.085  14.750  0.1906  0.4489  0.0266
  440MPD2    C4 6611   0.496   3.968  14.696 -0.1965  0.0487  0.2622
  440MPD2    C5 6612   0.362   3.941  14.701  0.0566  0.1534 -0.2875
  440MPD2     H 6613   0.467   4.271  14.843  0.9669 -0.4744 -0.3055
  440MPD2    H1 6614   0.575   3.904  14.658 -0.2341  1.0049 -1.4321
  440MPD2    H2 6615   0.174   3.979  14.779  0.0521 -0.1394  0.9119
  440MPD2    H3 6616   0.328   3.847  14.659  0.2762  0.5430 -1.3368
  440MPD2     N 6617   0.675   4.110  14.761  0.6730  0.1012 -0.7114
  440MPD2    H5 6618   0.741   4.034  14.749  2.0487  0.9345  1.5168
  440MPD2    N1 6619   0.234   4.224  14.905  0.1031  0.1705  0.5888
  440MPD2    H7 6620   0.288   4.294  14.955 -1.5161  3.2483 -1.9707
  441TMC3    C1 6621   0.852   4.216  14.868  0.4511 -0.3169 -0.4075
  441TMC3    C2 6622   0.926   4.328  14.875  0.3528  0.7005  0.4799
  441TMC3    C3 6623   0.994   4.353  14.990 -0.6368 -0.4367  0.4755
  441TMC3    C4 6624   0.845   4.134  14.970  0.1559  0.3618 -0.9853
  441TMC3    C5 6625   0.900   4.169  15.089 -0.3997 -0.6786 -0.0363
  441TMC3    C6 6626   0.982   4.279  15.095  0.4099 -0.1013 -0.0482
  441TMC3     C 6627   0.729   4.229  14.797  0.2674  0.2023  0.7755
  441TMC3     O 6628   0.680   4.340  14.780  0.2625  0.3835 -0.0569
  441TMC3     H 6629   0.925   4.400  14.794  0.0811  0.4283  0.2436
  441TMC3    H1 6630   0.772   4.055  14.974  0.4594  0.1525  0.2034
  441TMC3    H2 6631   1.025   4.304  15.191  0.6407  1.2107 -0.4963
  441TMC3    C7 6632   0.838   4.117  15.209  0.2333  0.6585 -0.3278
  441TMC3    C8 6633   1.029   4.485  15.023  0.2585  0.0561  0.6062
  441TMC3    O1 6634   0.722   4.083  15.203  0.1200 -0.6046 -0.3800
  441TMC3    O2 6635   1.145   4.508  15.056  0.1322 -0.6841  0.1877
  442MPD2     C 6636   3.423   0.304  16.284 -1.0801  0.8781 -0.2666
  442MPD2    C1 6637   3.329   0.235  16.354 -0.1607  0.5662  0.2627
  442MPD2    C2 6638   3.321   0.102  16.341 -0.9591  0.8367  0.0227
  442MPD2    C3 6639   3.382   0.040  16.232 -0.1999  1.0007  0.0274
  442MPD2    C4 6640   3.483   0.098  16.162  0.4473 -0.3281 -0.5068
  442MPD2    C5 6641   3.492   0.233  16.182 -0.2823  0.0922  0.7446
  442MPD2     H 6642   3.252   0.051  16.407  0.0321  0.8263  1.0406
  442MPD2    H1 6643   3.538   0.054  16.080  0.9633 -0.8440  0.1172
  442MPD2    H2 6644   3.430   0.412  16.277 -0.0246  0.8841  0.7030
  442MPD2    H3 6645   3.557   0.288  16.114  0.3886 -0.9568  0.5389
  442MPD2     N 6646   3.354   4.634  16.203 -0.1649 -0.2319 -0.0739
  442MPD2    H5 6647   3.419   4.603  16.131  1.5565  0.6340  1.1304
  442MPD2    N1 6648   3.245   0.302  16.453  0.1949  0.2418 -0.1590
  442MPD2    H7 6649   3.200   0.238  16.518 -1.6127  0.6193 -1.0380
  443TMC3    C1 6650   3.120   0.463  16.565  0.1045 -0.4626  0.2171
  443TMC3    C2 6651   3.044   0.572  16.535  0.1253 -0.6388 -0.4887
  443TMC3    C3 6652   2.907   0.569  16.560 -0.8961  0.7155  0.2034
  443TMC3    C4 6653   3.072   0.367  16.647  0.8702  0.7174 -0.1662
  443TMC3    C5 6654   2.944   0.374  16.682 -0.1937  0.4682  0.1147
  443TMC3    C6 6655   2.851   0.470  16.630 -0.1175 -0.0547 -0.0025
  443TMC3     C 6656   3.228   0.436  16.469  0.4762 -0.6490 -0.3839
  443TMC3     O 6657   3.260   0.533  16.400  0.3260  0.0868  0.1161
  443TMC3     H 6658   3.079   0.655  16.475  1.3398 -0.9509 -0.2054
  443TMC3    H1 6659   3.143   0.295  16.686 -1.8065 -0.3960  2.5947
  443TMC3    H2 6660   2.746   0.482  16.655  0.5581 -1.4254  3.4301
  443TMC3    C7 6661   2.883   0.267  16.754 -0.6106 -0.7181 -0.3607
  443TMC3    C8 6662   2.824   0.682  16.522  0.5985  0.2138  0.2161
  443TMC3    O1 6663   2.952   0.164  16.758 -0.6457 -0.4761 -0.3922
  443TMC3    O2 6664   2.732   0.714  16.594 -0.1018 -0.5530  0.0433
  444MPD2     C 6665   3.451   4.479  16.950  0.1478 -0.1779  0.0331
  444MPD2    C1 6666   3.362   4.371  16.949 -0.4058  0.0086 -0.0321
  444MPD2    C2 6667   3.401   4.257  16.890  0.2540 -0.0257  0.0438
  444MPD2    C3 6668   3.530   4.240  16.845 -0.2987  0.0887 -0.4753
  444MPD2    C4 6669   3.616   4.346  16.833 -0.2172  0.2848  0.0810
  444MPD2    C5 6670   3.579   4.463  16.897 -0.2775 -0.5166  0.1056
  444MPD2     H 6671   3.326   4.179  16.886 -1.1325  1.3957 -1.6549
  444MPD2    H1 6672   3.717   4.340  16.795 -0.4017 -1.6243 -0.0650
  444MPD2    H2 6673   3.438   4.568  17.010  3.1938  0.3839 -0.1546
  444MPD2    H3 6674   3.651   4.543  16.904 -1.0086  0.1631 -0.1688
  444MPD2     N 6675   3.574   4.108  16.803  0.5602  0.5681 -0.3704
  444MPD2    H5 6676   3.506   4.033  16.804  0.4353  0.6674 -1.5803
  444MPD2    N1 6677   3.232   4.379  16.998  0.4816 -0.0248 -0.5952
  444MPD2    H7 6678   3.175   4.297  16.981  1.5264 -0.5920 -1.3302
  445TMC3    C1 6679   3.715   3.937  16.727 -0.1873  0.8180 -0.1196
  445TMC3    C2 6680   3.617   3.896  16.641  0.3775 -0.8657 -1.1800
  445TMC3    C3 6681   3.648   3.798  16.555  0.1082  0.6120  0.1614
  445TMC3    C4 6682   3.838   3.882  16.735 -0.0894  0.3899  0.4759
  445TMC3    C5 6683   3.857   3.776  16.650 -0.0332 -0.0965  0.1870
  445TMC3    C6 6684   3.770   3.738  16.552  0.3142  0.5646 -0.2460
  445TMC3     C 6685   3.706   4.069  16.777  0.3578  0.1240 -0.1702
  445TMC3     O 6686   3.809   4.127  16.802  0.3117 -0.1169 -0.1397
  445TMC3     H 6687   3.520   3.943  16.634  0.3000 -0.7296  0.8357
  445TMC3    H1 6688   3.915   3.923  16.799 -0.2489 -0.9879  1.5748
  445TMC3    H2 6689   3.792   3.645  16.501 -2.3852 -0.2272  0.0283
  445TMC3    C7 6690   3.996   3.769  16.597 -0.6480 -0.2364  1.0601
  445TMC3    C8 6691   3.540   3.745  16.476 -0.0299  0.1645 -0.0442
  445TMC3    O1 6692   4.004   3.748  16.476 -0.0267 -0.6548  0.1542
  445TMC3    O2 6693   3.428   3.756  16.526 -0.1237  0.2460 -0.0253
  446MPD2     C 6694   2.633   0.656  11.068  0.1233  0.8889  0.1951
  446MPD2    C1 6695   2.546   0.743  10.999  0.2267 -0.0592 -0.1325
  446MPD2    C2 6696   2.593   0.874  10.984 -0.7892  0.6449  0.0825
  446MPD2    C3 6697   2.716   0.908  11.033  0.7112 -0.5272  0.5565
  446MPD2    C4 6698   2.793   0.824  11.106  0.6318  0.5845 -0.3740
  446MPD2    C5 6699   2.758   0.697  11.114  0.1457  0.2580 -0.2980
  446MPD2     H 6700   2.529   0.951  10.942 -1.2107 -0.4569 -1.3033
  446MPD2    H1 6701   2.898   0.842  11.129  0.9864 -0.1242 -1.3974
  446MPD2    H2 6702   2.615   0.551  11.085  5.4706  0.1723  1.4907
  446MPD2    H3 6703   2.835   0.634  11.158 -1.2620 -0.2769  1.3998
  446MPD2     N 6704   2.759   1.041  11.002  0.1965 -0.0759  0.1123
  446MPD2    H5 6705   2.693   1.104  10.958  0.3034 -0.0284  0.0184
  446MPD2    N1 6706   2.419   0.714  10.944  0.5757  0.6157  0.0343
  446MPD2    H7 6707   2.358   0.790  10.913 -0.7322 -0.4826 -0.0768
  447TMC3    C1 6708   2.899   1.218  10.976 -0.2269 -0.0565 -0.2941
  447TMC3    C2 6709   2.861   1.233  10.848 -0.3782 -0.1054 -0.1540
  447TMC3    C3 6710   2.950   1.292  10.762  0.1853  0.7310 -0.4429
  447TMC3    C4 6711   3.018   1.267  11.012 -0.0328 -0.4371 -0.5770
  447TMC3    C5 6712   3.118   1.293  10.925  0.3742 -0.0578 -0.1142
  447TMC3    C6 6713   3.073   1.327  10.798  0.1277  0.0108 -0.5873
  447TMC3     C 6714   2.874   1.098  11.047  0.1882 -0.1925 -0.2307
  447TMC3     O 6715   2.971   1.056  11.109  0.0115 -0.4515  0.2487
  447TMC3     H 6716   2.766   1.193  10.813 -0.8872  0.1416  0.9624
  447TMC3    H1 6717   3.037   1.275  11.118  0.2702  2.9037 -0.8663
  447TMC3    H2 6718   3.149   1.355  10.727 -0.2015  1.9144 -0.1729
  447TMC3    C7 6719   3.238   1.222  10.934 -0.0369 -0.1495 -0.2362
  447TMC3    C8 6720   2.906   1.352  10.636 -0.7605 -0.1745 -0.5325
  447TMC3    O1 6721   3.320   1.230  10.838 -0.2041 -0.1262 -0.1737
  447TMC3    O2 6722   2.835   1.290  10.558 -0.2189  0.1202  0.1316
  448TMC3    C1 6723   1.293   0.786  16.622 -0.8369 -0.2262 -0.5390
  448TMC3    C2 6724   1.220   0.671  16.577 -0.3822  0.5767  0.1615
  448TMC3    C3 6725   1.248   0.554  16.653  0.7259  0.9819 -0.3488
  448TMC3    C4 6726   1.388   0.774  16.720  0.2924 -0.3593 -0.4798
  448TMC3    C5 6727   1.404   0.653  16.785 -0.7876  0.0110 -0.4093
  448TMC3    C6 6728   1.335   0.537  16.758  0.3085  0.4807 -0.1680
  448TMC3     C 6729   1.273   0.907  16.549  0.4739 -0.2550 -0.2699
  448TMC3     O 6730   1.215   0.887  16.441 -0.4941  0.4837  0.0913
  448TMC3     H 6731   1.163   0.681  16.486  1.0210  2.3844 -0.5193
  448TMC3    H1 6732   1.436   0.863  16.759  0.0841 -0.4810  0.0529
  448TMC3    H2 6733   1.345   0.441  16.808  1.3309  0.8037  0.2430
  448TMC3    C7 6734   1.498   0.654  16.901  0.1349 -0.3491  0.5457
  448TMC3    C8 6735   1.228   0.431  16.580 -0.5286 -0.4243  0.8862
  448TMC3    O1 6736   1.581   0.743  16.912 -0.6022  0.0938 -0.6869
  448TMC3    O2 6737   1.309   0.345  16.615  0.3294 -0.6549  0.0005
  449MPD2     C 6738   3.112   3.934  13.818  0.3760 -0.3960 -0.1158
  449MPD2    C1 6739   2.998   3.986  13.761  0.4756  0.2127 -0.8675
  449MPD2    C2 6740   2.896   3.895  13.727 -0.2428 -0.2679 -0.1439
  449MPD2    C3 6741   2.914   3.756  13.747  0.0158 -0.1070  0.0253
  449MPD2    C4 6742   3.028   3.703  13.804  0.0985 -0.6038 -0.2077
  449MPD2    C5 6743   3.122   3.797  13.843 -0.0453 -0.7049 -0.1547
  449MPD2     H 6744   2.806   3.942  13.690 -0.2937  1.0150  1.6095
  449MPD2    H1 6745   3.041   3.600  13.833  0.6569 -0.4271  0.1858
  449MPD2    H2 6746   3.180   4.004  13.865 -1.9938  1.2284  0.9084
  449MPD2    H3 6747   3.204   3.761  13.904  0.0254  0.5125  0.4672
  449MPD2     N 6748   2.801   3.678  13.709  0.7760  0.8037  0.1309
  449MPD2    H5 6749   2.726   3.737  13.676 -0.3312 -2.8263 -3.9319
  449MPD2    N1 6750   2.969   4.125  13.755 -0.4303 -0.3561  0.7775
  449MPD2    H7 6751   2.870   4.141  13.739 -0.7093 -1.6154  1.2796
  450TMC3    C1 6752   2.983   4.350  13.741 -0.5050  0.5661 -0.0787
  450TMC3    C2 6753   3.035   4.393  13.621  0.0022 -0.1468 -0.7620
  450TMC3    C3 6754   2.942   4.424  13.529 -0.8149  0.6879 -0.2432
  450TMC3    C4 6755   2.853   4.348  13.764 -1.3393 -0.2333 -0.3785
  450TMC3    C5 6756   2.756   4.381  13.667 -0.6772  0.3299 -0.0526
  450TMC3    C6 6757   2.804   4.429  13.549 -0.4205 -0.2941 -0.1484
  450TMC3     C 6758   3.053   4.230  13.780 -0.4236  0.1171 -0.3114
  450TMC3     O 6759   3.174   4.242  13.802  0.1964 -0.2319 -0.3312
  450TMC3     H 6760   3.142   4.385  13.611  0.1607  0.7811  0.0750
  450TMC3    H1 6761   2.806   4.301  13.850 -1.9883  0.7197 -0.2168
  450TMC3    H2 6762   2.738   4.444  13.464  0.2996  0.2782 -0.6105
  450TMC3    C7 6763   2.659   4.270  13.663 -0.0221 -0.1584  0.4630
  450TMC3    C8 6764   2.987   4.488  13.409 -0.0193  0.1122 -0.0546
  450TMC3    O1 6765   2.697   4.165  13.706 -0.6258 -0.5963 -0.2298
  450TMC3    O2 6766   2.924   4.576  13.357 -0.0835  0.3692 -0.4479
  451MPD2     C 6767   4.287   2.370   1.451  0.4406 -0.3736 -0.0303
  451MPD2    C1 6768   4.279   2.410   1.317 -0.9558 -0.2462  0.2871
  451MPD2    C2 6769   4.397   2.440   1.245  0.1282 -0.9627  0.6555
  451MPD2    C3 6770   4.515   2.444   1.309 -0.1228 -0.6122 -0.4374
  451MPD2    C4 6771   4.520   2.398   1.440  0.4936 -0.8362  0.1097
  451MPD2    C5 6772   4.408   2.369   1.509 -0.4190 -0.1830 -0.6367
  451MPD2     H 6773   4.396   2.471   1.142 -0.1701  1.3585  1.3459
  451MPD2    H1 6774   4.608   2.400   1.504  0.9487  1.6921 -0.5850
  451MPD2    H2 6775   4.194   2.360   1.505  0.2246 -2.0584 -0.7261
  451MPD2    H3 6776   4.413   2.340   1.613 -1.7265  1.1305 -0.1942
  451MPD2     N 6777   4.638   2.489   1.257  0.7418 -0.1583 -0.1113
  451MPD2    H5 6778   4.715   2.462   1.317  0.9503 -1.3517 -0.9001
  451MPD2    N1 6779   4.151   2.425   1.262 -0.0311 -0.0072 -0.1373
  451MPD2    H7 6780   4.072   2.390   1.315 -1.2818  2.5984 -0.2889
  452TMC3    C1 6781   0.052   2.567   1.088 -0.3461 -0.2094 -0.2188
  452TMC3    C2 6782   0.143   2.467   1.103  0.1061  0.4902 -0.0926
  452TMC3    C3 6783   0.241   2.451   1.003  0.1310  0.4138 -0.0341
  452TMC3    C4 6784   0.060   2.651   0.980 -1.5348 -0.2002 -0.0699
  452TMC3    C5 6785   0.174   2.657   0.903 -0.0988 -0.0325 -0.1309
  452TMC3    C6 6786   0.265   2.552   0.914  0.1277 -0.1913  0.1884
  452TMC3     C 6787   4.652   2.541   1.125  0.0219 -0.4615 -0.0921
  452TMC3     O 6788   4.560   2.571   1.045 -0.4515  0.4934 -0.2516
  452TMC3     H 6789   0.119   2.388   1.173 -0.4930 -0.3898 -1.2784
  452TMC3    H1 6790   0.004   2.744   0.981 -2.4928 -0.7729 -1.8965
  452TMC3    H2 6791   0.349   2.551   0.845  2.0159 -2.0702  2.5185
  452TMC3    C7 6792   0.174   2.736   0.791 -0.4149  0.3173  0.3055
  452TMC3    C8 6793   0.349   2.354   1.016  0.4408 -0.0710 -0.1992
  452TMC3    O1 6794   0.058   2.761   0.753  0.4026  0.3352 -0.7023
  452TMC3    O2 6795   0.456   2.383   0.964  0.7193  0.0020 -0.1335
  453TMC3    C1 6796   0.447   4.321  11.688 -0.3105  0.3129 -0.0824
  453TMC3    C2 6797   0.399   4.227  11.767  0.6338 -0.2222  0.4254
  453TMC3    C3 6798   0.279   4.171  11.727  0.4186 -0.4418 -0.1375
  453TMC3    C4 6799   0.386   4.375  11.582  0.0483  0.5707  0.3822
  453TMC3    C5 6800   0.275   4.312  11.539  0.5739  0.7020 -1.1535
  453TMC3    C6 6801   0.214   4.209  11.614  0.3144  0.5241 -0.1871
  453TMC3     C 6802   0.585   4.375  11.718  0.1380  0.2033  0.0508
  453TMC3     O 6803   0.654   4.310  11.798  0.2014  0.5721  0.5577
  453TMC3     H 6804   0.439   4.199  11.864  1.1999  0.4278  0.3792
  453TMC3    H1 6805   0.439   4.435  11.509  0.7916  1.5378  1.7159
  453TMC3    H2 6806   0.123   4.158  11.585  0.4077 -0.2963  0.9373
  453TMC3    C7 6807   0.201   4.390  11.447  0.5790  0.1780 -0.0337
  453TMC3    C8 6808   0.190   4.133  11.832 -0.2919  0.3092 -0.4446
  453TMC3    O1 6809   0.258   4.483  11.392  0.5492 -0.4180  0.3544
  453TMC3    O2 6810   0.091   4.201  11.837  0.0591  0.5970 -0.2392
  454MPD2     C 6811   4.177   3.876  16.075 -0.1704  0.9784 -0.6613
  454MPD2    C1 6812   4.085   3.942  15.996 -1.1473  0.3124 -0.6806
  454MPD2    C2 6813   3.987   4.024  16.054  0.6212 -0.0701 -0.3697
  454MPD2    C3 6814   3.986   4.031  16.194  0.2667  0.2930  0.7111
  454MPD2    C4 6815   4.083   3.973  16.269  0.1286 -0.0163 -0.2460
  454MPD2    C5 6816   4.179   3.897  16.206 -0.1626  0.0246 -0.1594
  454MPD2     H 6817   3.915   4.078  15.994 -0.9703  1.0937  2.6025
  454MPD2    H1 6818   4.084   3.975  16.377  0.8145  0.5952 -0.2677
  454MPD2    H2 6819   4.259   3.814  16.040 -0.9817 -0.8012  0.5639
  454MPD2    H3 6820   4.249   3.846  16.271 -0.2449  0.5221  0.3220
  454MPD2     N 6821   3.869   4.083  16.247 -0.1820 -0.0906  0.2217
  454MPD2    H5 6822   3.793   4.107  16.183  0.2928 -1.4603 -0.8580
  454MPD2    N1 6823   4.081   3.929  15.854  0.6180  0.4823 -1.1077
  454MPD2    H7 6824   4.004   3.977  15.809  0.7663  2.1296  0.3838
  455TMC3    C1 6825   3.699   4.077  16.376 -0.1497  0.3593  0.1751
  455TMC3    C2 6826   3.622   4.158  16.446  0.0524 -0.0745 -0.1650
  455TMC3    C3 6827   3.490   4.166  16.428 -0.6460 -0.1495  0.6877
  455TMC3    C4 6828   3.641   3.996  16.279 -0.5507  0.6151 -0.1683
  455TMC3    C5 6829   3.505   4.012  16.261 -0.2154  0.8737  0.7387
  455TMC3    C6 6830   3.430   4.102  16.330  0.6142  0.6966  0.3059
  455TMC3     C 6831   3.838   4.096  16.374  0.2674  0.3252 -0.3471
  455TMC3     O 6832   3.896   4.120  16.480  0.1779  0.1345  0.4275
  455TMC3     H 6833   3.664   4.213  16.530 -0.5734 -0.2112  0.2379
  455TMC3    H1 6834   3.697   3.917  16.231  2.9354  2.8839  0.1467
  455TMC3    H2 6835   3.334   4.143  16.302  0.5298 -0.3177 -0.8870
  455TMC3    C7 6836   3.461   3.951  16.139 -0.0625 -0.0506 -0.1660
  455TMC3    C8 6837   3.442   4.298  16.458  0.2169  0.1356 -0.4208
  455TMC3    O1 6838   3.546   3.922  16.055  0.0755  0.2246 -0.2961
  455TMC3    O2 6839   3.525   4.388  16.432 -0.3397 -0.6902 -0.0080
  456MPD2     C 6840   1.673   4.130  15.731  0.0758 -0.6246 -0.0021
  456MPD2    C1 6841   1.753   4.129  15.839 -0.1404  0.1771 -0.3591
  456MPD2    C2 6842   1.708   4.188  15.955  0.2520  0.1854 -0.2251
  456MPD2    C3 6843   1.579   4.251  15.968  0.8667 -0.8016 -0.0136
  456MPD2    C4 6844   1.497   4.252  15.854 -0.2856  0.0862 -0.0886
  456MPD2    C5 6845   1.549   4.194  15.738 -0.0379  0.3362  0.1370
  456MPD2     H 6846   1.765   4.166  16.045 -1.5530 -0.7580  0.7062
  456MPD2    H1 6847   1.400   4.300  15.842 -0.5923 -0.6638 -0.6465
  456MPD2    H2 6848   1.702   4.084  15.637 -0.7786 -0.3263 -0.4148
  456MPD2    H3 6849   1.488   4.193  15.649  0.8996 -1.1774 -0.4885
  456MPD2     N 6850   1.534   4.304  16.095 -0.2494 -0.2826  0.7895
  456MPD2    H5 6851   1.598   4.307  16.174  1.1799  0.5086 -0.3860
  456MPD2    N1 6852   1.879   4.072  15.828 -0.7472  0.3456  0.2521
  456MPD2    H7 6853   1.908   4.045  15.735 -1.2918  0.3418  0.0836
  457TMC3    C1 6854   1.378   4.408  16.253  0.3609  0.4081 -0.2061
  457TMC3    C2 6855   1.266   4.487  16.268 -0.2661 -0.2189  0.1174
  457TMC3    C3 6856   1.230   4.527  16.394 -0.2451 -1.5754  0.0942
  457TMC3    C4 6857   1.435   4.341  16.356  0.4832 -0.1223 -0.2210
  457TMC3    C5 6858   1.394   4.378  16.483  0.4185 -0.0605 -0.2985
  457TMC3    C6 6859   1.297   4.471  16.500 -0.7647  0.0480  0.2383
  457TMC3     C 6860   1.411   4.363  16.115  0.1134  0.0443  0.0874
  457TMC3     O 6861   1.333   4.405  16.032 -0.2638 -1.1670 -0.1394
  457TMC3     H 6862   1.229   4.536  16.179  0.9365 -1.9785 -1.3533
  457TMC3    H1 6863   1.533   4.296  16.350  0.1336 -1.0879  1.3379
  457TMC3    H2 6864   1.260   4.497  16.599 -0.1047 -0.6771  0.6816
  457TMC3    C7 6865   1.495   4.359  16.584  0.0627  0.7178  0.3121
  457TMC3    C8 6866   1.208   4.661  16.421 -0.2255  0.1010 -0.5010
  457TMC3    O1 6867   1.562   4.258  16.574  0.1394  0.0724 -0.0528
  457TMC3    O2 6868   1.251   4.699  16.532  0.1244  0.2125  0.2232
  458MPD2     C 6869   4.131   3.040  12.582 -0.8254  0.6126  0.8843
  458MPD2    C1 6870   4.157   3.157  12.514  0.2295  0.6093 -0.0408
  458MPD2    C2 6871   4.102   3.170  12.389 -0.1266 -0.1368  1.0150
  458MPD2    C3 6872   4.014   3.084  12.332  0.2709  0.4828 -0.8775
  458MPD2    C4 6873   3.987   2.968  12.401  0.1441  0.4986  0.1988
  458MPD2    C5 6874   4.040   2.959  12.531  0.3852  0.4671  0.1473
  458MPD2     H 6875   4.133   3.250  12.323  1.2295 -1.0152  0.6013
  458MPD2    H1 6876   3.910   2.902  12.364 -0.9317  1.3047  1.0006
  458MPD2    H2 6877   4.172   3.028  12.682  2.0863 -1.8562 -0.6182
  458MPD2    H3 6878   3.995   2.880  12.590  0.8186 -1.2175 -1.7913
  458MPD2     N 6879   3.950   3.107  12.204 -0.2395 -0.0626  0.3304
  458MPD2    H5 6880   3.888   3.036  12.167  1.2921 -1.3948  0.2819
  458MPD2    N1 6881   4.250   3.247  12.572 -0.6819 -0.4664 -0.0998
  458MPD2    H7 6882   4.282   3.228  12.667 -1.5226  1.0412  0.4896
  459TMC3    C1 6883   4.378   3.445  12.590  0.6292  0.2197 -0.1653
  459TMC3    C2 6884   4.455   3.544  12.536 -0.4380  0.2515 -0.0340
  459TMC3    C3 6885   4.545   3.613  12.622 -0.3305  0.1850  0.0898
  459TMC3    C4 6886   4.386   3.428  12.727  0.4845 -0.2997 -0.2894
  459TMC3    C5 6887   4.474   3.486  12.801 -0.5502  1.1568  0.2847
  459TMC3    C6 6888   4.560   3.578  12.752  0.8320 -0.5301  1.0452
  459TMC3     C 6889   4.311   3.351  12.506 -0.0304  0.4825  0.6664
  459TMC3     O 6890   4.302   3.378  12.387 -0.0756  0.7709 -0.7632
  459TMC3     H 6891   4.464   3.559  12.429  0.3369 -0.4419 -0.0684
  459TMC3    H1 6892   4.314   3.359  12.771  1.2792 -1.7299 -1.2307
  459TMC3    H2 6893   4.636   3.629  12.811 -1.2488  1.4410  2.0540
  459TMC3    C7 6894   4.487   3.441  12.940  0.4797 -0.0052  0.5130
  459TMC3    C8 6895   4.646   3.693  12.560  0.5136  0.4948 -0.1649
  459TMC3    O1 6896   4.435   3.334  12.973 -0.2041 -0.1692  0.0135
  459TMC3    O2 6897   4.717   3.652  12.468 -0.1297  0.0211 -0.2403
  460MPD2     C 6898   2.969   1.696  10.521 -0.3289  0.0886  0.1840
  460MPD2    C1 6899   2.918   1.572  10.511 -0.7484  0.1880  0.0151
  460MPD2    C2 6900   2.851   1.534  10.390 -0.0318 -0.0604  1.0023
  460MPD2    C3 6901   2.832   1.633  10.294  0.5703  0.2189  0.3123
  460MPD2    C4 6902   2.870   1.765  10.316 -0.2549  0.1895  0.3609
  460MPD2    C5 6903   2.957   1.791  10.420  0.5939 -0.3295 -0.2338
  460MPD2     H 6904   2.820   1.432  10.371 -0.3230  0.7878 -2.9185
  460MPD2    H1 6905   2.844   1.846  10.249 -0.7524 -1.2248 -1.1611
  460MPD2    H2 6906   3.041   1.714  10.600  1.2952 -2.1269 -0.7968
  460MPD2    H3 6907   3.003   1.889  10.416  1.2065 -0.5254  2.3301
  460MPD2     N 6908   2.772   1.591  10.170  0.1094 -0.6509  0.4551
  460MPD2    H5 6909   2.723   1.502  10.173 -3.6208  1.4820  1.5420
  460MPD2    N1 6910   2.952   1.480  10.617  0.0383 -0.3435 -0.0735
  460MPD2    H7 6911   3.008   1.517  10.693  1.0157 -2.2214  0.1228
  461TMC3    C1 6912   2.721   1.622   9.932 -0.1097  0.2504 -0.2746
  461TMC3    C2 6913   2.620   1.538   9.946  0.0892 -0.5328 -0.0663
  461TMC3    C3 6914   2.543   1.500   9.833 -0.8093 -0.3145 -0.5599
  461TMC3    C4 6915   2.734   1.692   9.816  0.2612 -0.1539  0.2970
  461TMC3    C5 6916   2.650   1.662   9.708  0.8549  0.3212  0.3535
  461TMC3    C6 6917   2.552   1.565   9.716 -0.2879  0.2094  0.1738
  461TMC3     C 6918   2.794   1.660  10.056 -0.6976 -0.1589 -0.1067
  461TMC3     O 6919   2.864   1.753  10.041  0.2378 -0.2292 -0.1057
  461TMC3     H 6920   2.616   1.469  10.030  2.0246 -0.3948  0.1401
  461TMC3    H1 6921   2.805   1.773   9.824  0.2883 -0.3752  2.3532
  461TMC3    H2 6922   2.483   1.550   9.634 -0.9133  0.2399  0.6963
  461TMC3    C7 6923   2.649   1.744   9.588  0.0438 -0.3551  0.4272
  461TMC3    C8 6924   2.471   1.375   9.842  0.0671  0.7848  0.6587
  461TMC3    O1 6925   2.545   1.757   9.523 -0.5874  0.3839  0.2882
  461TMC3    O2 6926   2.417   1.354   9.948  0.2345 -0.2703  0.9341
  462TMC3    C1 6927   3.733   2.414   0.279  0.1118  0.5113 -0.5444
  462TMC3    C2 6928   3.833   2.327   0.305  0.2133  0.4747  0.0310
  462TMC3    C3 6929   3.818   2.245   0.411  0.5121  0.4217 -0.2681
  462TMC3    C4 6930   3.609   2.407   0.344 -1.0907 -0.1954 -0.5468
  462TMC3    C5 6931   3.599   2.324   0.455  0.5581 -0.0304 -0.4665
  462TMC3    C6 6932   3.708   2.247   0.487 -0.0577 -0.2329  0.2346
  462TMC3     C 6933   3.729   2.500   0.158  0.3211  0.1040  0.8674
  462TMC3     O 6934   3.619   2.540   0.125  0.2975  0.4008  0.3974
  462TMC3     H 6935   3.923   2.331   0.245  0.3381 -1.5528  0.0860
  462TMC3    H1 6936   3.528   2.478   0.331  1.2615  2.7459  0.9336
  462TMC3    H2 6937   3.691   2.167   0.558  0.0251 -2.8955 -2.7163
  462TMC3    C7 6938   3.484   2.243   0.457  0.5913  0.5465  0.1683
  462TMC3    C8 6939   3.903   2.127   0.424  0.0630  0.1606 -0.0800
  462TMC3    O1 6940   3.522   2.130   0.459  0.4864  0.0272  0.1508
  462TMC3    O2 6941   3.897   2.058   0.524  0.5794 -0.0588 -0.4918
  463MPD2     C 6942   0.781   0.311   1.109 -0.2789  0.0321  0.4029
  463MPD2    C1 6943   0.673   0.395   1.111  0.1474 -0.1277  0.2640
  463MPD2    C2 6944   0.693   0.518   1.175  0.8944  0.0774 -0.6697
  463MPD2    C3 6945   0.819   0.566   1.214 -0.7684  1.0835  0.5216
  463MPD2    C4 6946   0.919   0.481   1.189  0.1237  0.0584 -0.1435
  463MPD2    C5 6947   0.904   0.354   1.144 -0.2352  0.1856 -0.1826
  463MPD2     H 6948   0.608   0.583   1.192 -0.0721 -1.9041  2.0649
  463MPD2    H1 6949   1.020   0.501   1.225 -0.2512  0.0456  0.9324
  463MPD2    H2 6950   0.773   0.209   1.071 -0.9478  1.3055 -2.8666
  463MPD2    H3 6951   0.984   0.281   1.142 -1.0526 -0.7448  0.7415
  463MPD2     N 6952   0.841   0.695   1.259 -0.5276  0.0241 -0.2131
  463MPD2    H5 6953   0.935   0.729   1.277  0.3249 -2.4269 -0.0574
  463MPD2    N1 6954   0.541   0.358   1.066  0.2020  0.4101  0.6461
  463MPD2    H7 6955   0.464   0.423   1.075 -0.5979 -0.5367  0.6773
  464TMC3    C1 6956   0.365   0.202   1.040 -0.5937  0.3051 -0.1055
  464TMC3    C2 6957   0.286   0.268   1.130 -0.8895 -1.1952 -0.6258
  464TMC3    C3 6958   0.149   0.248   1.119 -0.3861  0.0133 -0.8095
  464TMC3    C4 6959   0.319   0.108   0.954 -0.4707  0.3033 -0.0600
  464TMC3    C5 6960   0.181   0.096   0.943  0.9522 -0.0358  0.0462
  464TMC3    C6 6961   0.089   0.166   1.029  0.6299  0.2748 -0.2760
  464TMC3     C 6962   0.508   0.227   1.049 -0.0626  0.1825  0.4714
  464TMC3     O 6963   0.577   0.123   1.032  0.1758  0.0674  0.2000
  464TMC3     H 6964   0.326   0.345   1.194 -0.8680  0.1066 -2.2045
  464TMC3    H1 6965   0.383   0.033   0.908  0.3344  1.5051 -0.8881
  464TMC3    H2 6966   4.719   0.150   1.046  0.8322 -1.0915 -0.2453
  464TMC3    C7 6967   0.129   4.732   0.854  0.0994  0.6071 -0.2515
  464TMC3    C8 6968   0.063   0.341   1.191 -0.6976 -0.1029  0.0022
  464TMC3    O1 6969   0.216   4.671   0.795 -0.0429 -0.1392 -0.3921
  464TMC3    O2 6970   4.695   0.365   1.132 -0.4144 -0.3527 -0.1432
  465MPD2     C 6971   0.778   4.414  16.481 -0.3096  0.5361  0.0429
  465MPD2    C1 6972   0.695   4.307  16.458  0.4001 -0.0140 -0.2433
  465MPD2    C2 6973   0.618   4.300  16.346 -0.7773 -0.7047 -0.5544
  465MPD2    C3 6974   0.600   4.429  16.284 -0.2528  0.1910 -0.0003
  465MPD2    C4 6975   0.678   4.540  16.312 -0.1816 -0.0044 -0.1398
  465MPD2    C5 6976   0.766   4.529  16.407 -0.4105  0.0932  0.1479
  465MPD2     H 6977   0.551   4.217  16.326 -1.6276 -0.3015  0.6353
  465MPD2    H1 6978   0.669   4.639  16.270 -0.4484 -0.1792 -0.4971
  465MPD2    H2 6979   0.857   4.413  16.555 -1.0436 -0.6786  0.7934
  465MPD2    H3 6980   0.828   4.611  16.442 -1.0498  0.4392  0.4610
  465MPD2     N 6981   0.484   4.440  16.201  0.4013 -0.6722 -0.0250
  465MPD2    H5 6982   0.427   4.357  16.206 -2.1072  1.1184  1.0684
  465MPD2    N1 6983   0.710   4.181  16.524  0.1041 -0.0154  0.1432
  465MPD2    H7 6984   0.677   4.097  16.478 -1.4101  1.1086 -0.8437
  466TMC3    C1 6985   0.112   4.567  16.259  0.4137  0.1670 -0.2352
  466TMC3    C2 6986   0.053   4.664  16.178 -0.6903 -0.2709  0.3427
  466TMC3    C3 6987   0.126   4.701  16.068  0.1302 -0.0701 -1.1051
  466TMC3    C4 6988   0.239   4.523  16.245  0.2850 -0.5861  0.6478
  466TMC3    C5 6989   0.308   4.561  16.126  0.9097  0.4166 -0.1711
  466TMC3    C6 6990   0.252   4.654  16.037 -0.0161 -0.1406  0.0429
  466TMC3     C 6991   0.042   4.533  16.380 -0.0210 -0.1801 -0.2925
  466TMC3     O 6992   0.112   4.531  16.481  0.1617 -0.0901 -0.3303
  466TMC3     H 6993   4.691   4.705  16.201 -0.4511  0.2231  0.4709
  466TMC3    H1 6994   0.274   4.441  16.308  1.3719  0.2065  1.0909
  466TMC3    H2 6995   0.310   4.689  15.952  0.4466 -0.4152  0.2402
  466TMC3    C7 6996   0.446   4.557  16.139 -0.0805  0.1203 -0.0578
  466TMC3    C8 6997   0.118   0.107  16.042  0.0870 -0.3479 -0.7783
  466TMC3    O1 6998   0.507   4.646  16.078  1.0035  0.8788 -0.6704
  466TMC3    O2 6999   0.157   0.144  15.933  0.9199  0.3274  0.1984
  467TMC3    C1 7000   1.918   2.879  13.674 -0.3618 -0.2640 -0.2573
  467TMC3    C2 7001   1.875   3.006  13.666  0.9376 -0.9182  0.3933
  467TMC3    C3 7002   1.743   3.037  13.691 -0.2870 -0.4129  0.3683
  467TMC3    C4 7003   1.830   2.779  13.708  0.2790 -0.2734  0.3806
  467TMC3    C5 7004   1.692   2.808  13.715  0.7311  0.0673  0.0692
  467TMC3    C6 7005   1.649   2.938  13.689 -0.6185  0.3594  0.1181
  467TMC3     C 7006   2.052   2.853  13.635 -0.4497 -0.9193  0.0355
  467TMC3     O 7007   2.132   2.948  13.625 -0.3038 -0.1550 -0.0111
  467TMC3     H 7008   1.942   3.090  13.668 -0.7257  0.3543  2.8127
  467TMC3    H1 7009   1.862   2.675  13.716 -1.0874 -0.7930 -1.0399
  467TMC3    H2 7010   1.543   2.959  13.702 -0.6728 -0.2319  0.6148
  467TMC3    C7 7011   1.606   2.699  13.739 -0.3091  0.1030 -0.0710
  467TMC3    C8 7012   1.715   3.175  13.670  0.3404  0.2873 -0.0534
  467TMC3    O1 7013   1.654   2.587  13.735 -0.3395  0.0492  0.5066
  467TMC3    O2 7014   1.801   3.255  13.697  0.3110 -0.2335 -0.1973
  468MPD2     C 7015   4.315   1.158  11.019 -0.0147  0.0746 -0.6379
  468MPD2    C1 7016   4.419   1.168  10.934 -0.1893 -0.5879 -0.4671
  468MPD2    C2 7017   4.473   1.048  10.877 -0.7455  0.6748  0.1156
  468MPD2    C3 7018   4.422   0.924  10.919 -0.5618 -0.3663 -0.0881
  468MPD2    C4 7019   4.315   0.919  11.006 -0.1280  0.1757  0.4168
  468MPD2    C5 7020   4.259   1.036  11.052 -0.7873 -0.6965  0.0108
  468MPD2     H 7021   4.558   1.061  10.811  0.5639  0.6897  1.7925
  468MPD2    H1 7022   4.279   0.819  11.025  0.6436 -0.4421 -1.4192
  468MPD2    H2 7023   4.265   1.246  11.057 -0.3615 -0.1758 -0.5154
  468MPD2    H3 7024   4.178   1.026  11.124 -0.5215 -0.9192  0.2776
  468MPD2     N 7025   4.465   0.802  10.873  0.5709  1.1318  0.5506
  468MPD2    H5 7026   4.424   0.722  10.920 -0.5867  1.5759  0.3034
  468MPD2    N1 7027   4.487   1.291  10.915  0.0373  0.0822  0.2691
  468MPD2    H7 7028   4.575   1.281  10.866 -1.6270 -1.2605 -2.4596
  469TMC3    C1 7029   4.574   1.507  10.923  0.6428  0.4307  0.1451
  469TMC3    C2 7030   4.705   1.461  10.941  0.1788 -0.9805  0.4221
  469TMC3    C3 7031   0.064   1.555  10.964  0.1252  0.1934 -0.8334
  469TMC3    C4 7032   4.545   1.640  10.907  0.0570  0.2206 -0.4925
  469TMC3    C5 7033   4.651   1.724  10.911  0.1232 -0.5859 -0.0058
  469TMC3    C6 7034   0.043   1.691  10.948  0.0740 -0.8073 -0.5287
  469TMC3     C 7035   4.467   1.414  10.964  0.4457 -0.2151 -0.5506
  469TMC3     O 7036   4.362   1.462  11.014  0.4647  0.4086  0.2664
  469TMC3     H 7037   4.726   1.355  10.937 -0.0121 -0.9253 -2.2354
  469TMC3    H1 7038   4.443   1.678  10.910 -0.3669 -1.1663  2.1010
  469TMC3    H2 7039   0.127   1.757  10.936 -0.9124  0.7303  1.0088
  469TMC3    C7 7040   4.613   1.865  10.895  0.5291 -0.1973 -0.5551
  469TMC3    C8 7041   0.198   1.503  10.941  0.6705  0.1608  0.3016
  469TMC3    O1 7042   4.505   1.893  10.844  0.0187 -0.0384 -0.1600
  469TMC3    O2 7043   0.253   1.524  10.831 -0.1025 -0.5021  0.1013
  470TMC3    C1 7044   2.830   1.842   0.693 -0.4600 -0.0715  0.4170
  470TMC3    C2 7045   2.798   1.974   0.647 -0.3453 -0.0452 -0.6270
  470TMC3    C3 7046   2.890   2.072   0.692 -0.7095 -0.3965 -0.3114
  470TMC3    C4 7047   2.951   1.807   0.747  0.1375 -0.4154  0.6201
  470TMC3    C5 7048   3.033   1.912   0.781 -0.2214 -0.4950  0.6401
  470TMC3    C6 7049   3.001   2.043   0.756  0.5543 -0.7681  0.1139
  470TMC3     C 7050   2.736   1.747   0.642 -0.0852 -0.3310 -0.0833
  470TMC3     O 7051   2.680   1.779   0.541 -0.0282  0.5685  0.5154
  470TMC3     H 7052   2.697   2.001   0.617 -0.1881 -0.0478 -1.1564
  470TMC3    H1 7053   2.980   1.710   0.786 -0.1929  0.6551  3.5648
  470TMC3    H2 7054   3.083   2.107   0.785 -0.1669  0.7596 -1.1889
  470TMC3    C7 7055   3.146   1.895   0.861 -0.4800  0.6272 -0.3002
  470TMC3    C8 7056   2.849   2.207   0.725  0.2249  0.4789  0.7908
  470TMC3    O1 7057   3.254   1.913   0.805 -0.1649  0.1567  0.4451
  470TMC3    O2 7058   2.928   2.258   0.801 -0.3976 -0.8873 -0.0695
  471MPD2     C 7059   3.075   3.505  17.106  0.6974 -0.0451  0.6651
  471MPD2    C1 7060   3.170   3.447  17.023  0.5356 -0.9707  0.0842
  471MPD2    C2 7061   3.298   3.427  17.073  0.2913  0.1466 -0.1230
  471MPD2    C3 7062   3.325   3.467  17.204 -0.2413  0.2242  0.3434
  471MPD2    C4 7063   3.244   3.556  17.272  0.9587 -0.0585  0.5485
  471MPD2    C5 7064   3.117   3.574  17.221  0.5190 -0.9131 -0.1843
  471MPD2     H 7065   3.366   3.373  17.009 -2.6609 -2.1699 -1.2831
  471MPD2    H1 7066   3.274   3.596  17.368 -1.4933  2.2363  0.3426
  471MPD2    H2 7067   2.970   3.507  17.082  0.9847 -0.1232 -0.5683
  471MPD2    H3 7068   3.046   3.620  17.288  1.6538 -0.9140  1.0172
  471MPD2     N 7069   3.441   3.425  17.275 -0.0495  0.1069  0.2080
  471MPD2    H5 7070   3.453   3.458  17.370  4.7172  1.8095 -0.9789
  471MPD2    N1 7071   3.144   3.410  16.892  0.1600 -0.6202  0.5305
  471MPD2    H7 7072   3.212   3.361  16.835 -0.3111 -0.0093 -0.5643
  472TMC3    C1 7073   3.031   3.353  16.696 -0.0974  0.2249  0.2693
  472TMC3    C2 7074   2.948   3.386  16.594 -0.2644 -0.8735 -0.0776
  472TMC3    C3 7075   2.962   3.311  16.479 -0.3177 -0.1311  0.7730
  472TMC3    C4 7076   3.105   3.240  16.702  0.0443  0.6094 -0.9004
  472TMC3    C5 7077   3.104   3.160  16.592  0.1441 -0.2821 -0.2987
  472TMC3    C6 7078   3.024   3.188  16.477  0.4141 -0.6092 -0.4214
  472TMC3     C 7079   3.030   3.437  16.812  0.7179 -0.0067 -0.6187
  472TMC3     O 7080   2.934   3.506  16.832  0.1811  0.5593 -0.2036
  472TMC3     H 7081   2.872   3.463  16.597 -1.9381 -2.5677  0.6766
  472TMC3    H1 7082   3.168   3.206  16.783 -0.5959  0.2545 -0.5487
  472TMC3    H2 7083   3.057   3.151  16.380  1.0791  0.0546 -0.4525
  472TMC3    C7 7084   3.104   3.019  16.625  0.2398 -0.5231  0.3272
  472TMC3    C8 7085   2.825   3.286  16.429  0.2091  0.7662 -0.6979
  472TMC3    O1 7086   3.091   2.992  16.741  0.4629  0.1740  0.0946
  472TMC3    O2 7087   2.745   3.375  16.393 -0.6363 -0.4101  0.1979
  473MPD2     C 7088   2.961   0.511  13.462 -0.0108 -0.2286  0.2321
  473MPD2    C1 7089   2.977   0.619  13.373  0.0808  0.1092  0.2102
  473MPD2    C2 7090   3.022   0.739  13.422  0.5550  0.6053  0.3059
  473MPD2    C3 7091   3.070   0.753  13.550 -1.1020 -0.0895  0.1781
  473MPD2    C4 7092   3.065   0.644  13.634 -0.0864  0.5763 -0.4803
  473MPD2    C5 7093   3.011   0.525  13.585  0.1957  0.2987  0.4661
  473MPD2     H 7094   3.027   0.819  13.350 -0.6612  1.3856  1.0949
  473MPD2    H1 7095   3.101   0.642  13.736 -1.0372 -1.6790 -0.1709
  473MPD2    H2 7096   2.929   0.414  13.423 -1.3377  0.7365 -1.0830
  473MPD2    H3 7097   3.014   0.449  13.662  0.6260  1.5091  1.6366
  473MPD2     N 7098   3.127   0.872  13.606 -0.2792 -0.9076 -0.2244
  473MPD2    H5 7099   3.156   0.875  13.703 -0.0154 -1.1373 -0.2973
  473MPD2    N1 7100   2.942   0.610  13.238 -0.4893  0.4819 -0.8330
  473MPD2    H7 7101   2.934   0.695  13.183  0.3580  1.6892  0.8919
  474TMC3    C1 7102   3.223   1.084  13.613 -0.3383 -0.5986  0.2025
  474TMC3    C2 7103   3.238   1.209  13.556  0.5392  0.2109 -0.2112
  474TMC3    C3 7104   3.303   1.304  13.622  0.0956  0.2690  0.4670
  474TMC3    C4 7105   3.280   1.051  13.728  0.1671  0.0626  0.1795
  474TMC3    C5 7106   3.352   1.145  13.794 -0.4553  0.1904  0.8618
  474TMC3    C6 7107   3.367   1.275  13.741  0.0154 -0.5978  0.0617
  474TMC3     C 7108   3.162   0.979  13.531  0.5848 -0.5603  0.0627
  474TMC3     O 7109   3.139   0.988  13.411  0.0395  0.4227 -0.2748
  474TMC3     H 7110   3.213   1.215  13.451  0.3573  1.0256 -0.1255
  474TMC3    H1 7111   3.266   0.953  13.772 -0.3037  0.6216  1.2831
  474TMC3    H2 7112   3.413   1.357  13.796 -0.8534  0.3232 -0.5707
  474TMC3    C7 7113   3.441   1.097  13.893  0.4749  0.0022 -0.2271
  474TMC3    C8 7114   3.335   1.419  13.545  0.4876 -0.5096  0.2213
  474TMC3    O1 7115   3.509   1.001  13.855 -0.2982  0.0356 -0.3129
  474TMC3    O2 7116   3.296   1.413  13.429  0.5497  0.6550  0.1492
  475MPD2     C 7117   1.380   3.631  10.542 -0.2934 -0.3209  0.6889
  475MPD2    C1 7118   1.360   3.757  10.591 -0.2134 -0.1925  0.9450
  475MPD2    C2 7119   1.257   3.775  10.679  0.0825  0.2060 -0.2252
  475MPD2    C3 7120   1.172   3.681  10.706  0.0328 -0.5529 -0.1726
  475MPD2    C4 7121   1.189   3.551  10.669  0.0348  0.4496  0.0483
  475MPD2    C5 7122   1.299   3.530  10.586  0.0505  0.6173 -0.3075
  475MPD2     H 7123   1.235   3.870  10.726 -1.5879  1.0330 -2.6955
  475MPD2    H1 7124   1.121   3.469  10.689  0.7450 -0.4594 -1.2488
  475MPD2    H2 7125   1.470   3.608  10.486 -0.4769 -1.4420  0.8481
  475MPD2    H3 7126   1.326   3.430  10.554  0.7544  0.7003  0.0352
  475MPD2     N 7127   1.047   3.715  10.763  0.2598  0.5453  0.2794
  475MPD2    H5 7128   1.012   3.809  10.770  0.9379  0.7068  1.5007
  475MPD2    N1 7129   1.447   3.859  10.567  0.1496 -0.2652  0.1067
  475MPD2    H7 7130   1.525   3.836  10.506  0.1622  0.7619 -0.2634
  476TMC3    C1 7131   1.561   4.067  10.605  0.0653  0.0462  0.2220
  476TMC3    C2 7132   1.514   4.100  10.480  0.0750  0.2096  0.4867
  476TMC3    C3 7133   1.443   4.216  10.465 -0.9738  0.3659 -0.5328
  476TMC3    C4 7134   1.563   4.164  10.704 -0.6334 -0.5109  0.1680
  476TMC3    C5 7135   1.503   4.281  10.678  0.1045 -0.2602  0.5319
  476TMC3    C6 7136   1.440   4.308  10.563 -0.0340 -0.3361 -0.5882
  476TMC3     C 7137   1.469   3.969  10.647  0.5995  0.1120 -0.0298
  476TMC3     O 7138   1.414   4.008  10.748  0.0781 -0.5783  0.2160
  476TMC3     H 7139   1.544   4.036  10.397  0.1648  0.6714  0.1648
  476TMC3    H1 7140   1.618   4.144  10.795 -3.7447 -0.6217  2.0342
  476TMC3    H2 7141   1.375   4.394  10.570 -1.6448 -1.5252 -1.0223
  476TMC3    C7 7142   1.451   4.340  10.800 -0.9825  0.3477  0.0211
  476TMC3    C8 7143   1.314   4.203  10.403  0.3022 -0.7677  0.5023
  476TMC3    O1 7144   1.424   4.463  10.810  0.0513  0.5823  0.0479
  476TMC3    O2 7145   1.254   4.313  10.384 -0.4269  0.3403  0.3763
  477MPD2     C 7146   3.680   0.268  11.165 -0.2762  0.3945 -0.7471
  477MPD2    C1 7147   3.632   0.352  11.265 -0.4657  0.8531 -0.1485
  477MPD2    C2 7148   3.664   0.327  11.398  0.4028  0.7118  0.5096
  477MPD2    C3 7149   3.740   0.219  11.430  0.1241 -0.5601  0.5705
  477MPD2    C4 7150   3.788   0.140  11.330  0.5001  0.4270 -0.4920
  477MPD2    C5 7151   3.758   0.164  11.200  0.5072  0.4739  0.1488
  477MPD2     H 7152   3.648   0.393  11.482 -1.9341  1.2750 -0.3731
  477MPD2    H1 7153   3.862   0.063  11.348  0.4857  0.4882 -0.1640
  477MPD2    H2 7154   3.659   0.295  11.062 -0.2568 -0.6597 -1.0275
  477MPD2    H3 7155   3.797   0.103  11.120  1.9948  2.0916 -0.3833
  477MPD2     N 7156   3.790   0.202  11.561  0.1793  0.2073 -0.2634
  477MPD2    H5 7157   3.740   0.250  11.634  1.9692  3.1002 -0.9223
  477MPD2    N1 7158   3.559   0.459  11.226  0.0613 -0.0152 -0.6548
  477MPD2    H7 7159   3.506   0.458  11.140 -2.2360 -1.4448  0.7792
  478TMC3    C1 7160   3.419   0.642  11.236 -0.4660  0.0551 -0.2433
  478TMC3    C2 7161   3.336   0.704  11.327 -0.2906 -0.7918 -0.7439
  478TMC3    C3 7162   3.221   0.774  11.276 -0.0024  0.5299  0.5270
  478TMC3    C4 7163   3.387   0.636  11.103  0.6978 -0.4522 -0.3616
  478TMC3    C5 7164   3.273   0.704  11.060 -0.6548  0.5337 -0.3653
  478TMC3    C6 7165   3.189   0.776  11.145 -0.3007  0.6909  0.6050
  478TMC3     C 7166   3.526   0.565  11.300 -0.1095 -0.3727  0.3675
  478TMC3     O 7167   3.571   0.602  11.409  0.2746  0.0537  0.4254
  478TMC3     H 7168   3.355   0.702  11.434 -0.6964  0.9192 -0.6318
  478TMC3    H1 7169   3.452   0.596  11.026  2.4822  2.4404 -0.3437
  478TMC3    H2 7170   3.106   0.836  11.110  1.2270  1.5387 -1.5972
  478TMC3    C7 7171   3.275   0.725  10.916 -0.3448  0.3687 -0.3042
  478TMC3    C8 7172   3.123   0.777  11.374 -0.9032 -0.3758  0.7172
  478TMC3    O1 7173   3.378   0.706  10.856  0.5636 -0.0915 -0.2899
  478TMC3    O2 7174   3.105   0.682  11.448 -0.1470 -0.4554 -0.1386
  479MPD2     C 7175   2.882   2.686  15.103  0.1379 -0.7467 -0.2195
  479MPD2    C1 7176   2.818   2.628  15.208  0.4105  0.3199  0.3354
  479MPD2    C2 7177   2.884   2.620  15.331 -0.0896  0.8888 -0.6329
  479MPD2    C3 7178   3.000   2.684  15.355  0.2260  0.2298  0.3215
  479MPD2    C4 7179   3.073   2.722  15.239 -0.4753 -0.2216 -0.2906
  479MPD2    C5 7180   3.013   2.733  15.120  0.3428  0.9181  0.3060
  479MPD2     H 7181   2.831   2.573  15.413  0.2235  2.1758  0.3114
  479MPD2    H1 7182   3.174   2.759  15.251 -0.8564  0.8234 -0.3014
  479MPD2    H2 7183   2.830   2.696  15.008  0.6221  4.0330  0.0274
  479MPD2    H3 7184   3.062   2.785  15.038 -1.9776 -1.0795 -2.3726
  479MPD2     N 7185   3.058   2.689  15.491  0.1641 -0.3877  0.2382
  479MPD2    H5 7186   3.155   2.717  15.486 -0.1085  0.9560  2.4304
  479MPD2    N1 7187   2.688   2.585  15.182  0.0918  0.5334  0.2203
  479MPD2    H7 7188   2.652   2.609  15.090 -1.6852  1.9608  1.2849
  480TMC3    C1 7189   2.651   2.639  15.747 -0.2874  0.1242  0.1265
  480TMC3    C2 7190   2.583   2.750  15.689 -0.0504 -0.0279  0.7919
  480TMC3    C3 7191   2.656   2.811  15.590 -0.4783  0.2938 -0.4747
  480TMC3    C4 7192   2.787   2.623  15.733  0.0760  0.4809 -0.2668
  480TMC3    C5 7193   2.853   2.692  15.633  1.0552  0.0746 -0.0844
  480TMC3    C6 7194   2.791   2.792  15.560 -0.2201 -0.1389 -0.4169
  480TMC3     C 7195   2.569   2.561  15.838 -0.4587 -0.5908  0.4433
  480TMC3     O 7196   2.505   2.631  15.916  0.3320 -0.5712  0.0343
  480TMC3     H 7197   2.477   2.771  15.697 -0.2665  0.0163 -2.1521
  480TMC3    H1 7198   2.840   2.548  15.792 -0.7122 -0.8163 -1.2241
  480TMC3    H2 7199   2.850   2.834  15.479  1.3547 -0.3809  0.6042
  480TMC3    C7 7200   2.998   2.664  15.620  0.4804  0.3121  0.1274
  480TMC3    C8 7201   2.576   2.867  15.481 -0.0116  0.0446 -0.6403
  480TMC3    O1 7202   3.063   2.648  15.725 -0.1996 -0.0164 -0.4038
  480TMC3    O2 7203   2.453   2.878  15.501 -0.9345 -0.1063  0.1262
  481MPD2     C 7204   0.047   2.488  14.533  0.2299 -0.6213  0.0152
  481MPD2    C1 7205   4.671   2.420  14.492  0.1934  1.0045 -0.4667
  481MPD2    C2 7206   4.568   2.400  14.585 -0.1425  0.0584  0.0532
  481MPD2    C3 7207   4.579   2.445  14.717 -0.2363 -0.2568  0.5448
  481MPD2    C4 7208   4.701   2.501  14.756  0.7690 -0.2090 -0.0438
  481MPD2    C5 7209   0.066   2.527  14.665  0.0145  0.2084  0.0601
  481MPD2     H 7210   4.487   2.334  14.557  0.0662 -0.1524 -0.0590
  481MPD2    H1 7211   4.715   2.536  14.858  1.8662  1.4944 -0.7696
  481MPD2    H2 7212   0.122   2.505  14.456 -0.2011  0.3067 -0.1953
  481MPD2    H3 7213   0.154   2.584  14.693 -0.6484  0.5860  1.3923
  481MPD2     N 7214   4.479   2.418  14.812  0.3235  0.0781 -0.5176
  481MPD2    H5 7215   4.504   2.439  14.908  2.3216  2.0190 -1.4728
  481MPD2    N1 7216   4.658   2.367  14.367  0.0073  0.1441  0.3579
  481MPD2    H7 7217   4.715   2.402  14.290 -0.4451  0.3276  0.1045
  482TMC3    C1 7218   4.550   2.264  14.195 -0.2075 -0.3816  0.3067
  482TMC3    C2 7219   4.471   2.158  14.150  0.6976 -0.2962  0.0575
  482TMC3    C3 7220   4.394   2.170  14.040  0.2728 -0.2741 -0.4491
  482TMC3    C4 7221   4.542   2.384  14.132 -0.2432  0.5505 -0.4212
  482TMC3    C5 7222   4.465   2.394  14.022  0.1516  0.0148 -0.4660
  482TMC3    C6 7223   4.386   2.293  13.972  0.4368 -0.6079  0.6869
  482TMC3     C 7224   4.575   2.256  14.332  0.5910 -0.2105  0.3188
  482TMC3     O 7225   4.526   2.174  14.407  0.3354 -0.0459  0.3342
  482TMC3     H 7226   4.461   2.065  14.204 -0.5877 -1.4756 -2.1989
  482TMC3    H1 7227   4.593   2.476  14.160 -0.3148 -0.4181  2.9040
  482TMC3    H2 7228   4.318   2.296  13.888  1.2698  0.7683  0.0625
  482TMC3    C7 7229   4.474   2.521  13.949  0.9133 -0.8512 -0.6624
  482TMC3    C8 7230   4.299   2.061  14.020 -0.4446 -0.1325  0.8864
  482TMC3    O1 7231   4.507   2.619  14.015 -0.1814 -0.2069 -0.7127
  482TMC3    O2 7232   4.343   1.952  14.056  0.2501 -0.8269  0.0439
  483TMC3    C1 7233   2.502   0.661   0.747 -0.5256 -0.1431  0.3094
  483TMC3    C2 7234   2.562   0.786   0.735 -0.1852  0.2708 -0.0759
  483TMC3    C3 7235   2.641   0.835   0.836 -0.4337 -0.5164 -0.2957
  483TMC3    C4 7236   2.523   0.591   0.864 -0.5686  0.1783  0.0879
  483TMC3    C5 7237   2.596   0.649   0.971 -0.6746 -0.1798  0.4521
  483TMC3    C6 7238   2.657   0.773   0.958 -0.2496  0.4469  0.2467
  483TMC3     C 7239   2.481   0.602   0.622 -0.4951 -0.2668 -0.1262
  483TMC3     O 7240   2.437   0.673   0.533  0.1645 -0.2976 -0.1924
  483TMC3     H 7241   2.563   0.834   0.639  1.5736 -1.1524 -0.7698
  483TMC3    H1 7242   2.480   0.492   0.859  0.3244 -0.1950 -0.2756
  483TMC3    H2 7243   2.737   0.805   1.023  0.5458 -0.8434 -0.1017
  483TMC3    C7 7244   2.645   0.559   1.073 -0.3423  0.7828  0.1430
  483TMC3    C8 7245   2.726   0.945   0.798 -0.6920 -0.3494 -0.7008
  483TMC3    O1 7246   2.607   0.442   1.055 -0.1721 -0.1082  0.0043
  483TMC3    O2 7247   2.749   0.957   0.679 -0.0784  0.7442 -0.4906
  484MPD2     C 7248   4.720   4.027  12.703  0.2069  0.0880  0.2906
  484MPD2    C1 7249   0.007   3.907  12.631 -0.5684 -0.7003  0.0962
  484MPD2    C2 7250   0.131   3.870  12.605 -0.6279  0.1453  0.8045
  484MPD2    C3 7251   0.234   3.944  12.647  0.3603 -0.0327 -0.3386
  484MPD2    C4 7252   0.218   4.071  12.702 -0.0121  0.0735 -0.3997
  484MPD2    C5 7253   0.089   4.103  12.732 -0.1162 -0.2312 -0.3347
  484MPD2     H 7254   0.163   3.783  12.549 -2.0843 -0.1520  0.4291
  484MPD2    H1 7255   0.290   4.146  12.733 -0.8694  0.2756  1.1265
  484MPD2    H2 7256   4.618   4.057  12.722  0.7713  1.2508  1.4762
  484MPD2    H3 7257   0.066   4.198  12.780  1.7182  0.1722 -0.2490
  484MPD2     N 7258   0.356   3.891  12.609 -0.0539 -0.0178  0.5029
  484MPD2    H5 7259   0.357   3.796  12.573 -2.4526  0.5464 -1.0900
  484MPD2    N1 7260   4.639   3.821  12.617 -0.2655 -0.0470  0.0767
  484MPD2    H7 7261   4.549   3.848  12.656  0.2778 -0.0679  1.3198
  485TMC3    C1 7262   0.578   3.850  12.599 -1.0344  0.1776 -0.3357
  485TMC3    C2 7263   0.673   3.810  12.682 -0.4350 -0.7298 -0.1336
  485TMC3    C3 7264   0.784   3.752  12.627 -0.3119 -0.6013 -0.5155
  485TMC3    C4 7265   0.573   3.809  12.462 -0.0632 -0.0898  0.6226
  485TMC3    C5 7266   0.684   3.745  12.419 -0.4484 -0.8436 -0.5530
  485TMC3    C6 7267   0.796   3.716  12.493 -0.1860 -0.1783 -0.2514
  485TMC3     C 7268   0.479   3.941  12.645  0.1380 -0.4336  0.4787
  485TMC3     O 7269   0.508   4.031  12.721  0.4248  0.4572 -0.5416
  485TMC3     H 7270   0.665   3.845  12.784  0.5271  0.0382 -0.3277
  485TMC3    H1 7271   0.490   3.827  12.394  0.0752  0.2126  0.5358
  485TMC3    H2 7272   0.895   3.694  12.455  0.6635  0.6041  1.5209
  485TMC3    C7 7273   0.660   3.630  12.340  0.7722 -0.0679 -0.0368
  485TMC3    C8 7274   0.827   3.641  12.706 -0.4945 -0.5980  0.2336
  485TMC3    O1 7275   0.743   3.546  12.359 -0.2136 -0.9338  0.7494
  485TMC3    O2 7276   0.829   3.658  12.828  0.2565 -0.8288 -0.1304
  486MPD2     C 7277   2.552   2.469  13.160  0.7263 -0.1853 -0.1918
  486MPD2    C1 7278   2.453   2.412  13.087  0.9787 -0.2540  0.7164
  486MPD2    C2 7279   2.330   2.477  13.064  0.7288 -0.3687  0.3699
  486MPD2    C3 7280   2.313   2.607  13.110 -0.1312 -0.2784  0.3654
  486MPD2    C4 7281   2.411   2.667  13.187 -0.0810  0.4595 -0.2209
  486MPD2    C5 7282   2.530   2.594  13.211  0.1335  0.0201  0.3095
  486MPD2     H 7283   2.245   2.435  13.011 -0.0499  1.5668  0.0599
  486MPD2    H1 7284   2.409   2.773  13.207 -2.8122  0.4021 -0.2367
  486MPD2    H2 7285   2.643   2.416  13.185  0.0410 -1.4116 -0.3009
  486MPD2    H3 7286   2.616   2.638  13.260  0.8487  0.3174 -1.1995
  486MPD2     N 7287   2.196   2.677  13.070 -0.3405  0.8980 -0.0306
  486MPD2    H5 7288   2.135   2.629  13.005  0.6446  0.9377 -0.9913
  486MPD2    N1 7289   2.468   2.275  13.039  0.0065  0.5869  0.2412
  486MPD2    H7 7290   2.549   2.230  13.081 -2.4678 -4.2956 -0.2361
  487TMC3    C1 7291   2.396   2.057  12.966  0.5179  0.7550 -0.3527
  487TMC3    C2 7292   2.314   1.988  12.884  0.1876  0.1083  0.1103
  487TMC3    C3 7293   2.318   1.851  12.905 -0.0350  0.4259  0.4419
  487TMC3    C4 7294   2.469   2.006  13.064  1.3238 -0.2815 -0.2354
  487TMC3    C5 7295   2.474   1.873  13.080  1.0842  0.7791  0.1807
  487TMC3    C6 7296   2.405   1.791  12.994 -0.0382 -0.1443  0.0239
  487TMC3     C 7297   2.378   2.210  12.952  0.5309  0.7136 -0.1347
  487TMC3     O 7298   2.288   2.255  12.884  0.0669 -0.0997 -0.0658
  487TMC3     H 7299   2.247   2.039  12.815  1.9241  1.3733 -0.6514
  487TMC3    H1 7300   2.521   2.067  13.138 -0.0004  0.2594  0.2536
  487TMC3    H2 7301   2.393   1.685  13.010  1.3474 -0.1854  0.7391
  487TMC3    C7 7302   2.535   1.821  13.199  0.1398  0.1819 -0.0789
  487TMC3    C8 7303   2.253   1.755  12.815  0.4706  0.4822  0.2311
  487TMC3    O1 7304   2.577   1.892  13.289 -0.6340 -0.1269  0.0812
  487TMC3    O2 7305   2.312   1.653  12.782  0.0160  0.2883 -0.1121
  488MPD2     C 7306   2.701   4.360  16.165 -0.7259  0.6448 -0.0199
  488MPD2    C1 7307   2.778   4.439  16.252 -0.3482  0.1058  0.1879
  488MPD2    C2 7308   2.755   4.420  16.388 -0.2593 -0.2928 -0.2616
  488MPD2    C3 7309   2.678   4.311  16.430  0.0144 -0.0918 -0.4432
  488MPD2    C4 7310   2.621   4.227  16.341 -0.1213 -0.2350 -0.4259
  488MPD2    C5 7311   2.635   4.249  16.206 -0.6566 -0.1133  0.0774
  488MPD2     H 7312   2.811   4.486  16.454 -2.8337  1.4738  0.1377
  488MPD2    H1 7313   2.560   4.139  16.359  1.2013 -0.9170  0.7678
  488MPD2    H2 7314   2.715   4.358  16.057 -1.5263 -0.0580 -0.1085
  488MPD2    H3 7315   2.584   4.189  16.132  0.7464  0.8080 -1.6219
  488MPD2     N 7316   2.659   4.285  16.568  0.0168  0.4389 -0.2348
  488MPD2    H5 7317   2.684   4.362  16.630 -0.5224  1.2059 -0.9552
  488MPD2    N1 7318   2.869   4.536  16.209 -0.3650 -0.2381  0.6411
  488MPD2    H7 7319   2.923   4.592  16.274 -1.0042 -2.3247  2.9907
  489TMC3    C1 7320   2.611   4.194  16.765  0.2546 -0.4068 -0.0974
  489TMC3    C2 7321   2.663   4.313  16.807 -0.2383 -0.1957  0.5504
  489TMC3    C3 7322   2.598   4.394  16.892 -0.6308  1.1125 -0.2099
  489TMC3    C4 7323   2.493   4.147  16.820  0.2404 -0.1692 -1.2454
  489TMC3    C5 7324   2.417   4.236  16.894 -0.3657  0.2485 -0.2923
  489TMC3    C6 7325   2.466   4.357  16.938  0.3161 -0.6144 -0.4014
  489TMC3     C 7326   2.617   4.167  16.624  0.4879 -0.6642  0.6658
  489TMC3     O 7327   2.579   4.060  16.576  0.3533 -0.0079 -0.0878
  489TMC3     H 7328   2.764   4.337  16.777 -0.7003 -1.0886 -1.6946
  489TMC3    H1 7329   2.442   4.061  16.777 -0.9095  0.1106 -0.4433
  489TMC3    H2 7330   2.407   4.431  16.991  0.7941 -1.0632  0.7659
  489TMC3    C7 7331   2.279   4.214  16.860 -0.8957 -0.1970 -0.8859
  489TMC3    C8 7332   2.648   4.530  16.890  0.5283 -0.5769 -0.9087
  489TMC3    O1 7333   2.231   4.104  16.841  0.0760  0.5144 -0.3389
  489TMC3    O2 7334   2.708   4.565  16.790 -0.3138 -0.2412 -0.2712
  490MPD2     C 7335   3.016   3.658  17.599 -1.3514  0.1695 -0.1285
  490MPD2    C1 7336   3.086   3.614  17.709  0.2960  0.0701  0.2307
  490MPD2    C2 7337   3.148   3.709   0.050 -0.0215 -0.0831 -0.5593
  490MPD2    C3 7338   3.137   3.845   0.025  1.1097  0.1370  0.1259
  490MPD2    C4 7339   3.060   3.886  17.654 -0.2240 -0.1420  0.2204
  490MPD2    C5 7340   3.004   3.786  17.578 -0.6788 -0.3557 -0.8591
  490MPD2     H 7341   3.195   3.678   0.143  1.3178  0.5680 -1.0201
  490MPD2    H1 7342   3.036   3.990  17.636 -0.2397 -0.3802 -1.1102
  490MPD2    H2 7343   2.960   3.593  17.532 -0.9002 -1.5476  1.1343
  490MPD2    H3 7344   2.948   3.799  17.487  0.0114  0.3147 -1.1813
  490MPD2     N 7345   3.204   3.950   0.090 -0.2326 -0.0833 -0.4720
  490MPD2    H5 7346   3.181   4.044   0.060 -1.4189 -1.0005 -2.3753
  490MPD2    N1 7347   3.082   3.475  17.725  0.2096  0.0569 -0.0666
  490MPD2    H7 7348   3.044   3.416  17.651 -0.2699 -0.0776  0.2868
  491TMC3    C1 7349   3.140   3.272   0.071  0.2489 -0.1095  0.8294
  491TMC3    C2 7350   3.126   3.207   0.193 -0.0294  0.0036 -0.2562
  491TMC3    C3 7351   3.064   3.081   0.198  0.0540  0.1006  0.0977
  491TMC3    C4 7352   3.109   3.215  17.697 -0.3814 -0.0999 -0.1665
  491TMC3    C5 7353   3.065   3.083  17.698  0.6235 -0.6686  0.1832
  491TMC3    C6 7354   3.040   3.024   0.075 -0.2757  0.0053  0.5225
  491TMC3     C 7355   3.124   3.415   0.094 -1.1722 -0.2019 -0.0358
  491TMC3     O 7356   3.166   3.457   0.202  0.2847 -0.4430  0.1108
  491TMC3     H 7357   3.150   3.265   0.281  1.3966  2.2189 -2.1152
  491TMC3    H1 7358   3.140   3.266  17.606 -1.8259  1.5057  0.2592
  491TMC3    H2 7359   3.007   2.921   0.066  3.4145 -1.1386 -0.1756
  491TMC3    C7 7360   3.014   3.020  17.581 -0.2764  0.0435  0.0087
  491TMC3    C8 7361   3.073   2.993   0.317  0.4602  0.2751  0.5137
  491TMC3    O1 7362   2.913   2.952  17.591  0.4943  0.0391  0.1153
  491TMC3    O2 7363   3.073   2.872   0.292 -0.2986 -0.5705 -0.5168
  492MPD2     C 7364   3.126   4.080  11.492 -0.2866 -0.4088 -0.0106
  492MPD2    C1 7365   3.078   3.963  11.429  0.0704  0.0636  0.3120
  492MPD2    C2 7366   3.033   3.856  11.504 -0.3359  0.4386  0.4632
  492MPD2    C3 7367   3.035   3.869  11.642 -0.6650  0.3697 -0.0915
  492MPD2    C4 7368   3.096   3.975  11.702  0.4840 -0.4541  0.2314
  492MPD2    C5 7369   3.134   4.084  11.629 -1.1507 -0.4537  0.2508
  492MPD2     H 7370   2.992   3.765  11.460  0.3141  0.1732  0.4063
  492MPD2    H1 7371   3.102   3.976  11.810  0.1315 -0.7931  0.2524
  492MPD2    H2 7372   3.154   4.165  11.431  1.1603 -1.0669 -0.2726
  492MPD2    H3 7373   3.180   4.159  11.692 -1.8647  0.4953 -0.3391
  492MPD2     N 7374   2.988   3.768  11.734  0.2152  0.1550 -0.1716
  492MPD2    H5 7375   2.990   3.797  11.831 -0.9570  0.1241 -0.1365
  492MPD2    N1 7376   3.078   3.961  11.287 -0.2948 -0.4558  0.2894
  492MPD2    H7 7377   3.129   4.038  11.244 -0.1925 -1.0909 -0.7323
  493TMC3    C1 7378   3.032   3.893  11.072  0.2825 -0.0950 -0.0016
  493TMC3    C2 7379   3.143   3.966  11.024 -0.6073 -0.6402  0.5560
  493TMC3    C3 7380   3.153   3.989  10.891  0.2265  0.4507 -0.3948
  493TMC3    C4 7381   2.942   3.839  10.987  0.2876 -0.4160  0.4710
  493TMC3    C5 7382   2.964   3.862  10.852  0.1217  0.1498 -0.5269
  493TMC3    C6 7383   3.069   3.932  10.800 -0.3861 -0.0236  0.4466
  493TMC3     C 7384   3.014   3.868  11.209 -0.2739 -0.2349 -0.5335
  493TMC3     O 7385   2.945   3.771  11.238  0.2334 -0.2387 -1.0921
  493TMC3     H 7386   3.221   3.999  11.092 -1.0987  0.4815  0.5645
  493TMC3    H1 7387   2.850   3.792  11.021 -1.3728  1.2087 -1.7689
  493TMC3    H2 7388   3.067   3.939  10.692 -1.5621  1.2411  0.5502
  493TMC3    C7 7389   2.879   3.784  10.768  0.3173 -0.1995  0.0123
  493TMC3    C8 7390   3.274   4.050  10.844  0.2399  0.4008  0.7629
  493TMC3    O1 7391   2.853   3.838  10.662  0.1258 -0.6044 -0.0727
  493TMC3    O2 7392   3.362   4.061  10.930 -0.5292  0.0023  0.1468
  494TMC3    C1 7393   4.190   0.993   0.361 -0.4782 -0.3696  0.0609
  494TMC3    C2 7394   4.227   0.861   0.362 -0.2454  0.4264  0.6549
  494TMC3    C3 7395   4.182   0.781   0.260 -0.6359 -0.0485  0.4967
  494TMC3    C4 7396   4.119   1.046   0.255 -0.2050 -0.0253 -0.7756
  494TMC3    C5 7397   4.088   0.962   0.154  0.1484  0.3332  0.5769
  494TMC3    C6 7398   4.108   0.825   0.151  0.1176  0.7348 -0.9596
  494TMC3     C 7399   4.223   1.099   0.459 -0.0439  0.5405 -0.1934
  494TMC3     O 7400   4.196   1.215   0.424  1.0278  0.0640  0.0611
  494TMC3     H 7401   4.303   0.819   0.428 -1.1774 -1.2601  0.6706
  494TMC3    H1 7402   4.095   1.152   0.252  1.5540  0.4101  0.9295
  494TMC3    H2 7403   4.081   0.763   0.066  1.0973  0.5445 -1.1323
  494TMC3    C7 7404   4.087   1.021   0.021  0.1513  1.3792 -0.0481
  494TMC3    C8 7405   4.231   0.650   0.257 -0.1197 -0.1847  0.1520
  494TMC3    O1 7406   4.086   0.942  17.669 -0.3810 -0.3502  0.1528
  494TMC3    O2 7407   4.337   0.630   0.317 -0.5405 -0.4070  0.0440
  495TMC3    C1 7408   3.160   3.101  14.739  0.2961 -0.5217  0.0831
  495TMC3    C2 7409   3.117   3.185  14.642 -0.0545  0.0435 -0.0774
  495TMC3    C3 7410   2.981   3.219  14.641 -0.8389  0.2699  0.4713
  495TMC3    C4 7411   3.085   3.075  14.849  0.3203  0.6285  0.4503
  495TMC3    C5 7412   2.960   3.131  14.852 -0.2207 -0.6121 -0.0546
  495TMC3    C6 7413   2.902   3.194  14.751 -0.8167  0.1254 -0.1571
  495TMC3     C 7414   3.216   2.981  14.680 -1.1022 -0.5092 -0.8127
  495TMC3     O 7415   3.194   2.874  14.739  0.3755  0.1816 -0.4448
  495TMC3     H 7416   3.179   3.218  14.559  0.9446 -0.0884  0.6148
  495TMC3    H1 7417   3.113   3.001  14.924 -0.8073 -1.5557 -1.2991
  495TMC3    H2 7418   2.799   3.227  14.747 -0.9088 -0.2427 -0.8196
  495TMC3    C7 7419   2.889   3.110  14.974 -0.9668  0.9986 -0.4277
  495TMC3    C8 7420   2.917   3.202  14.514  0.3944 -0.2387 -0.1493
  495TMC3    O1 7421   2.959   3.100  15.077  0.5481  0.0235  0.1463
  495TMC3    O2 7422   2.798   3.231  14.510 -0.0543 -0.0511  0.2763
  496MPD2     C 7423   0.316   3.149  15.567 -0.3532  0.3533  0.5900
  496MPD2    C1 7424   0.236   3.053  15.506 -0.2637  0.7903  0.3205
  496MPD2    C2 7425   0.104   3.057  15.525  0.4270 -0.0086 -0.6328
  496MPD2    C3 7426   0.046   3.160  15.596 -0.1032 -1.0045 -0.1397
  496MPD2    C4 7427   0.124   3.241  15.666 -0.6180 -0.3974  0.8080
  496MPD2    C5 7428   0.260   3.235  15.658  0.7643 -0.1649  0.3249
  496MPD2     H 7429   0.043   2.980  15.479 -1.5780  0.5435  1.0878
  496MPD2    H1 7430   0.077   3.329  15.709 -0.0011  0.2033  0.2497
  496MPD2    H2 7431   0.423   3.143  15.549 -0.5917 -0.6236 -0.5651
  496MPD2    H3 7432   0.329   3.303  15.708 -0.4601  2.1213 -1.0658
  496MPD2     N 7433   4.641   3.175  15.604 -0.2853 -0.1410 -0.5171
  496MPD2    H5 7434   4.611   3.250  15.665  0.7973 -0.2533  0.1535
  496MPD2    N1 7435   0.285   2.943  15.431  0.0138 -0.1489 -0.4805
  496MPD2    H7 7436   0.206   2.886  15.404 -0.7956 -0.8603  3.3430
  497TMC3    C1 7437   4.406   3.127  15.541 -0.1521  0.2733 -0.0148
  497TMC3    C2 7438   4.334   3.089  15.433 -0.7076 -0.2119  0.6328
  497TMC3    C3 7439   4.216   3.025  15.448  0.1172  0.6135 -0.0761
  497TMC3    C4 7440   4.360   3.107  15.674 -0.0268  0.6594  0.1691
  497TMC3    C5 7441   4.235   3.041  15.685 -0.3267  0.0964 -0.0899
  497TMC3    C6 7442   4.166   2.994  15.571 -0.2865  0.1436  0.2832
  497TMC3     C 7443   4.546   3.093  15.535  0.0930  0.4895  0.1334
  497TMC3     O 7444   4.575   3.006  15.458 -0.1083  0.1933 -0.2255
  497TMC3     H 7445   4.383   3.107  15.338 -1.1172  0.3276  0.5227
  497TMC3    H1 7446   4.430   3.122  15.755  0.8190 -2.6085  0.0686
  497TMC3    H2 7447   4.073   2.942  15.590 -0.5657  0.9284  1.0650
  497TMC3    C7 7448   4.186   2.990  15.817 -0.3475  0.0476  0.3587
  497TMC3    C8 7449   4.187   2.939  15.331  0.1417  0.2081  0.3219
  497TMC3    O1 7450   4.117   2.889  15.822  0.3538  0.1764 -0.5292
  497TMC3    O2 7451   4.249   2.964  15.227  0.0508 -0.3748  0.5817
  498MPD2     C 7452   0.933   3.564   9.912 -0.0483 -0.0727 -0.7587
  498MPD2    C1 7453   0.868   3.659   9.986  0.4231 -0.1637  0.4010
  498MPD2    C2 7454   0.747   3.619  10.042 -0.0160  0.4801  0.2899
  498MPD2    C3 7455   0.701   3.493  10.029  0.1349  1.0301  0.2766
  498MPD2    C4 7456   0.774   3.399   9.967 -0.5173 -0.1598 -0.0077
  498MPD2    C5 7457   0.887   3.438   9.903  0.0902  1.0569  0.0344
  498MPD2     H 7458   0.697   3.696  10.101  0.1846  0.3048  0.6905
  498MPD2    H1 7459   0.749   3.294   9.959  2.2404 -0.7793 -0.4632
  498MPD2    H2 7460   1.010   3.603   9.847  0.8234 -1.4387 -0.5405
  498MPD2    H3 7461   0.924   3.369   9.829  2.9403  2.1766  0.3831
  498MPD2     N 7462   0.578   3.460  10.095  0.6675  0.1276 -0.4095
  498MPD2    H5 7463   0.536   3.541  10.140  0.9627 -0.0355  0.1666
  498MPD2    N1 7464   0.913   3.798  10.000  1.5199  0.7046  0.7029
  498MPD2    H7 7465   0.855   3.860  10.056 -0.4897 -0.3651 -0.2141
  499TMC3    C1 7466   1.058   3.989   9.994  0.3545 -0.7094 -0.1621
  499TMC3    C2 7467   1.191   4.029  10.012  0.0403 -0.2639  0.1819
  499TMC3    C3 7468   1.213   4.166  10.032 -0.6973 -0.2465 -0.5648
  499TMC3    C4 7469   0.957   4.082   9.996 -0.3099  0.4937  0.0537
  499TMC3    C5 7470   0.982   4.219  10.018  0.4847  0.2861  0.0741
  499TMC3    C6 7471   1.112   4.263  10.025  0.3541  0.4243 -0.0777
  499TMC3     C 7472   1.034   3.848   9.957  0.0868  0.9940 -0.3754
  499TMC3     O 7473   1.128   3.786   9.901  0.0877 -0.3146  0.7742
  499TMC3     H 7474   1.273   3.958  10.005 -0.4890 -0.7326 -1.0850
  499TMC3    H1 7475   0.855   4.044   9.992 -0.2716  0.3824  0.1599
  499TMC3    H2 7476   1.143   4.364  10.045  0.2283  1.0522 -3.0137
  499TMC3    C7 7477   0.879   4.313  10.000 -0.1093  0.0129  0.4321
  499TMC3    C8 7478   1.347   4.215  10.043  0.0577  0.2703 -0.3550
  499TMC3    O1 7479   0.914   4.429   9.995 -0.0551 -0.3027 -0.0119
  499TMC3    O2 7480   1.372   4.324  10.090 -0.2078 -0.1970  0.2688
  500MPD2     C 7481   2.042   0.226  10.751 -0.1483  0.3850 -0.5283
  500MPD2    C1 7482   2.047   0.305  10.636  0.0042 -0.0528  0.7198
  500MPD2    C2 7483   1.932   0.343  10.571 -0.5372  0.4995  0.2289
  500MPD2    C3 7484   1.815   0.297  10.622 -0.7681  0.1981  0.7584
  500MPD2    C4 7485   1.809   0.233  10.741 -0.2656  0.5236  0.6676
  500MPD2    C5 7486   1.919   0.196  10.805 -0.9007 -0.6142 -0.6242
  500MPD2     H 7487   1.930   0.412  10.487  0.3138  0.1399 -0.0927
  500MPD2    H1 7488   1.715   0.194  10.780  0.5323 -0.0680  2.0046
  500MPD2    H2 7489   2.133   0.192  10.800  1.8470  2.1212 -3.0154
  500MPD2    H3 7490   1.909   0.135  10.894 -0.8342 -1.6127 -1.3084
  500MPD2     N 7491   1.689   0.320  10.560 -0.4297 -0.1563  0.1738
  500MPD2    H5 7492   1.606   0.291  10.611  0.3656  0.8238  2.0276
  500MPD2    N1 7493   2.166   0.350  10.582 -0.2403  0.7318  0.1396
  500MPD2    H7 7494   2.162   0.428  10.518  2.0763  0.9476  0.2351
  501TMC3    C1 7495   2.401   0.382  10.560 -0.0790 -0.3851  0.3969
  501TMC3    C2 7496   2.379   0.509  10.514 -0.5572 -0.5067  0.0546
  501TMC3    C3 7497   2.489   0.569  10.460 -0.5890 -0.0442 -0.8185
  501TMC3    C4 7498   2.516   0.311  10.545  0.0531  0.0619  0.2058
  501TMC3    C5 7499   2.622   0.387  10.491  0.3242  1.2812  0.1068
  501TMC3    C6 7500   2.613   0.519  10.458 -0.9147  0.1271 -0.8186
  501TMC3     C 7501   2.287   0.315  10.624 -0.3598  0.2676 -0.8173
  501TMC3     O 7502   2.325   0.210  10.671 -0.0808 -0.1575 -0.0636
  501TMC3     H 7503   2.289   0.566  10.535 -0.4979 -0.5709  0.4736
  501TMC3    H1 7504   2.540   0.218  10.595 -1.1387 -0.4279 -0.1239
  501TMC3    H2 7505   2.692   0.574  10.410  1.6342 -1.0747  2.0278
  501TMC3    C7 7506   2.754   0.333  10.512  0.9471  0.4140  1.2150
  501TMC3    C8 7507   2.481   0.697  10.401 -0.8838 -1.3481 -0.0417
  501TMC3    O1 7508   2.767   0.213  10.496 -0.0564  0.3979 -0.5304
  501TMC3    O2 7509   2.587   0.759  10.405 -0.2324 -0.2806 -0.4185
  502TMC3    C1 7510   2.498   3.756  15.281  0.1419  0.6876 -0.2533
  502TMC3    C2 7511   2.518   3.762  15.144  0.2911 -0.8121 -0.2528
  502TMC3    C3 7512   2.407   3.757  15.061 -0.2181  0.2881 -0.1108
  502TMC3    C4 7513   2.368   3.749  15.325 -0.0514 -1.2795  0.3860
  502TMC3    C5 7514   2.262   3.738  15.237 -0.5715  0.5001  0.4827
  502TMC3    C6 7515   2.283   3.729  15.106 -0.7664 -0.9147  0.1151
  502TMC3     C 7516   2.606   3.731  15.375 -0.0024 -0.1392  0.2447
  502TMC3     O 7517   2.725   3.762  15.350 -0.4515  0.8108  0.0064
  502TMC3     H 7518   2.621   3.760  15.110  0.3443  0.4188 -0.1649
  502TMC3    H1 7519   2.343   3.771  15.429  1.4246 -0.7779  0.6361
  502TMC3    H2 7520   2.199   3.723  15.038 -0.5760 -1.1192 -0.1027
  502TMC3    C7 7521   2.137   3.721  15.300  1.0604  0.4673  0.5669
  502TMC3    C8 7522   2.435   3.782  14.919  0.0628 -0.2636 -0.4811
  502TMC3    O1 7523   2.134   3.687  15.419  0.0610  0.2410 -1.0511
  502TMC3    O2 7524   2.531   3.854  14.887 -0.2896 -0.6119  0.4900
  503MPD2     C 7525   4.099   4.507  16.953 -0.4357 -0.2055 -0.5200
  503MPD2    C1 7526   4.188   4.587  17.025 -0.2420  0.6128 -0.2566
  503MPD2    C2 7527   4.235   4.537  17.148 -0.2243  0.4809 -0.2582
  503MPD2    C3 7528   4.194   4.416  17.198 -0.3840  0.2031 -0.1808
  503MPD2    C4 7529   4.112   4.341  17.124  0.0282  0.0730 -0.2442
  503MPD2    C5 7530   4.058   4.384  17.009 -0.0925  0.4090 -0.3699
  503MPD2     H 7531   4.305   4.595  17.207 -1.9367  0.9882  1.2759
  503MPD2    H1 7532   4.078   4.247  17.166  1.5962 -0.5527 -0.3973
  503MPD2    H2 7533   4.058   4.530  16.856 -1.8511  3.2914  0.9076
  503MPD2    H3 7534   3.997   4.327  16.939 -0.6470  1.9157 -1.1060
  503MPD2     N 7535   4.257   4.380  17.319 -0.2071 -0.3891  0.1180
  503MPD2    H5 7536   4.336   4.434  17.353 -0.4259  0.5593 -0.8734
  503MPD2    N1 7537   4.224   4.715  16.986  1.0373  0.2001 -0.8447
  503MPD2    H7 7538   4.287   0.040  17.039  3.1203 -2.7342  0.0418
  504TMC3    C1 7539   4.347   4.222  17.456 -0.0585  0.3435 -0.3204
  504TMC3    C2 7540   4.333   4.131  17.555 -0.3662 -0.3477  0.1169
  504TMC3    C3 7541   4.444   4.090  17.624  0.4110 -0.0194 -0.7223
  504TMC3    C4 7542   4.469   4.250  17.399 -0.6346 -0.2298  0.2808
  504TMC3    C5 7543   4.573   4.194  17.463 -0.3345  0.7841  0.3337
  504TMC3    C6 7544   4.571   4.123  17.581  0.5776 -0.0076 -0.4122
  504TMC3     C 7545   4.227   4.269  17.392 -0.6645 -0.1658  0.2462
  504TMC3     O 7546   4.123   4.206  17.398 -0.3247 -0.5378 -0.7398
  504TMC3     H 7547   4.232   4.116  17.591 -0.6729  0.9314 -0.2387
  504TMC3    H1 7548   4.480   4.307  17.307 -0.6878 -2.5313 -1.1504
  504TMC3    H2 7549   4.660   4.095  17.635  0.3309  0.1132  0.0579
  504TMC3    C7 7550   4.685   4.194  17.377 -0.6125 -0.5528  0.1244
  504TMC3    C8 7551   4.428   3.980  17.713 -0.2831  0.2634  0.6389
  504TMC3    O1 7552   4.667   4.162  17.261  0.3605 -0.0528 -0.4274
  504TMC3    O2 7553   4.312   3.934  17.728 -0.2516 -0.4355 -0.7151
  505MPD2     C 7554   4.211   3.281  11.008 -0.0768  0.8455 -0.3273
  505MPD2    C1 7555   4.306   3.183  11.012  0.6717  0.3508  0.1234
  505MPD2    C2 7556   4.431   3.203  11.068 -0.4598  0.3357  0.4003
  505MPD2    C3 7557   4.452   3.318  11.139 -0.2944  0.0211 -0.1564
  505MPD2    C4 7558   4.353   3.414  11.146 -0.3860  0.3225 -0.6655
  505MPD2    C5 7559   4.235   3.399  11.075 -0.5201  0.3505 -0.0311
  505MPD2     H 7560   4.503   3.124  11.084  0.0653  1.0966  1.8721
  505MPD2    H1 7561   4.363   3.502  11.209 -3.7627  1.1091 -1.2183
  505MPD2    H2 7562   4.118   3.271  10.954 -0.4636 -1.2765  0.7195
  505MPD2    H3 7563   4.164   3.481  11.080 -1.2034 -0.1328 -1.7472
  505MPD2     N 7564   4.569   3.329  11.215  0.1431 -0.1731  0.3992
  505MPD2    H5 7565   4.638   3.255  11.205  0.4262 -0.0177  1.1730
  505MPD2    N1 7566   4.279   3.057  10.951  1.0542 -0.4657 -0.2917
  505MPD2    H7 7567   4.216   3.062  10.872 -2.0044 -0.2471  2.1575
  506TMC3    C1 7568   4.324   2.830  10.890 -1.0373 -0.0816 -0.1249
  506TMC3    C2 7569   4.297   2.852  10.758  0.2813 -0.8387 -0.4715
  506TMC3    C3 7570   4.341   2.749  10.680  0.2446  0.0949 -0.2015
  506TMC3    C4 7571   4.389   2.720  10.939 -0.2073 -0.6162  0.2718
  506TMC3    C5 7572   4.437   2.630  10.854 -0.3501  0.6662 -0.5919
  506TMC3    C6 7573   4.417   2.644  10.721 -0.3048  0.1204  0.4191
  506TMC3     C 7574   4.354   2.941  10.976 -0.1144  0.0632  0.5117
  506TMC3     O 7575   4.441   2.919  11.061  0.1482  0.0447 -0.3769
  506TMC3     H 7576   4.251   2.940  10.716  0.6904 -1.0598 -1.3700
  506TMC3    H1 7577   4.388   2.701  11.046 -0.2719 -2.6613 -0.0891
  506TMC3    H2 7578   4.478   2.589  10.650  0.4446 -0.7505  1.7447
  506TMC3    C7 7579   4.581   2.610  10.866 -0.2714 -0.5225 -0.1663
  506TMC3    C8 7580   4.342   2.769  10.539  0.6544  0.3825 -0.1045
  506TMC3    O1 7581   4.638   2.519  10.801 -0.0227 -0.5209  0.0658
  506TMC3    O2 7582   4.296   2.685  10.466  0.3450 -0.3832  1.0045
  507TMC3    C1 7583   2.091   0.028  14.126  0.6946  0.6390 -0.0436
  507TMC3    C2 7584   2.012   4.673  14.054  0.3132 -0.1350 -0.3759
  507TMC3    C3 7585   1.923   4.726  13.962  0.0505  0.3525  0.0492
  507TMC3    C4 7586   2.080   0.163  14.115 -0.3732 -0.0434 -0.1406
  507TMC3    C5 7587   1.989   0.209  14.025 -0.0122  0.6460  0.6728
  507TMC3    C6 7588   1.927   0.122  13.931  0.0170  0.4094  0.1364
  507TMC3     C 7589   2.225   4.702  14.167 -0.5221  0.6698 -0.4610
  507TMC3     O 7590   2.240   4.583  14.130  0.2429  0.0754 -0.2190
  507TMC3     H 7591   2.025   4.565  14.057  0.5233 -0.1159 -0.5641
  507TMC3    H1 7592   2.143   0.229  14.173  0.9431 -0.4630 -1.0791
  507TMC3    H2 7593   1.862   0.162  13.854 -1.4838 -0.0169  1.1725
  507TMC3    C7 7594   1.883   0.281  14.092  0.0477  0.4195 -0.0978
  507TMC3    C8 7595   1.796   4.660  13.928 -0.4539  0.0323 -0.7945
  507TMC3    O1 7596   1.770   0.258  14.051 -0.1687 -0.6024 -0.3809
  507TMC3    O2 7597   1.793   4.542  13.901  0.5257  0.6032  0.0485
  508MPD2     C 7598   1.495   1.462  15.905  0.4980 -0.3572 -0.3194
  508MPD2    C1 7599   1.477   1.538  16.021  0.0213 -0.5766 -0.2838
  508MPD2    C2 7600   1.415   1.661  16.009  0.2110  0.3621 -0.2938
  508MPD2    C3 7601   1.380   1.704  15.881 -0.1493  0.3893  0.6972
  508MPD2    C4 7602   1.391   1.623  15.772  0.0715  0.0056  0.1878
  508MPD2    C5 7603   1.455   1.507  15.784  0.0812 -0.0218 -0.4936
  508MPD2     H 7604   1.398   1.720  16.099 -2.0859 -0.3245 -0.2725
  508MPD2    H1 7605   1.366   1.651  15.670  2.2465  2.3708  0.2920
  508MPD2    H2 7606   1.529   1.360  15.917  0.1384 -0.2878  1.3538
  508MPD2    H3 7607   1.466   1.446  15.696 -0.2743 -0.5404 -0.1750
  508MPD2     N 7608   1.330   1.834  15.872  0.5374  0.2346  0.4427
  508MPD2    H5 7609   1.316   1.892  15.954  0.1316 -1.1734  1.3674
  508MPD2    N1 7610   1.537   1.489  16.140  0.1848  1.0983 -0.7481
  508MPD2    H7 7611   1.597   1.408  16.133  0.7159  1.5629 -1.6445
  509TMC3    C1 7612   1.282   2.274  15.714  0.3996 -0.6557  0.0862
  509TMC3    C2 7613   1.329   2.324  15.832  0.5499  0.0072 -0.3237
  509TMC3    C3 7614   1.360   2.230  15.929  0.0611  0.6508  0.8194
  509TMC3    C4 7615   1.259   2.138  15.689  0.0385 -0.2324 -0.3610
  509TMC3    C5 7616   1.288   2.044  15.794 -0.0589  0.2627  0.6155
  509TMC3    C6 7617   1.339   2.094  15.916 -0.6729  0.5024 -0.4571
  509TMC3     C 7618   1.250   2.375  15.611 -0.7200  0.0585 -0.5173
  509TMC3     O 7619   1.280   2.490  15.650  0.3188 -0.3483 -0.3512
  509TMC3     H 7620   1.350   2.429  15.853 -4.3808  0.9738 -0.2156
  509TMC3    H1 7621   1.217   2.106  15.595 -0.5660  1.4181 -0.6498
  509TMC3    H2 7622   1.369   2.026  15.995 -1.6796  0.0906 -0.4431
  509TMC3    C7 7623   1.305   1.902  15.756 -0.6060 -0.1120 -0.4026
  509TMC3    C8 7624   1.468   2.275  16.023  0.6720  0.1308 -0.1520
  509TMC3    O1 7625   1.302   1.860  15.639 -0.9395 -0.1298  0.4595
  509TMC3    O2 7626   1.491   2.188  16.106  0.8837 -0.0009  0.0230
  510MPD2     C 7627   4.241   3.207  14.270 -0.2737  1.1974 -0.2751
  510MPD2    C1 7628   4.302   3.199  14.395  0.4339 -0.7622 -0.8233
  510MPD2    C2 7629   4.434   3.235  14.403  0.3931  0.7453 -0.1207
  510MPD2    C3 7630   4.503   3.280  14.294  0.1402  0.2393 -0.2816
  510MPD2    C4 7631   4.433   3.308  14.175  0.0007  0.2580 -0.6438
  510MPD2    C5 7632   4.303   3.268  14.168  0.5821 -0.3811  0.0413
  510MPD2     H 7633   4.489   3.217  14.495  0.1456  0.6383  0.0070
  510MPD2    H1 7634   4.485   3.329  14.082 -0.0651 -0.0721 -0.7571
  510MPD2    H2 7635   4.136   3.187  14.253  0.0086 -0.5441  0.0095
  510MPD2    H3 7636   4.239   3.286  14.083 -0.1132 -0.3073  0.5818
  510MPD2     N 7637   4.640   3.305  14.307 -0.8159  0.0700  0.0088
  510MPD2    H5 7638   4.688   3.277  14.391  1.1554 -1.9245 -1.7738
  510MPD2    N1 7639   4.232   3.135  14.494 -0.4299  0.0164 -0.2131
  510MPD2    H7 7640   4.148   3.088  14.460 -0.2695  0.5600 -1.3520
  511TMC3    C1 7641   4.159   3.069  14.700 -0.3749  0.1676  0.3065
  511TMC3    C2 7642   4.110   3.113  14.815 -0.4803 -0.4535 -0.2517
  511TMC3    C3 7643   4.009   3.040  14.865  0.4064 -0.2377 -0.3023
  511TMC3    C4 7644   4.121   2.949  14.645 -0.2114 -0.3397  0.2508
  511TMC3    C5 7645   4.035   2.872  14.714 -0.0773  0.0353  0.3192
  511TMC3    C6 7646   3.963   2.918  14.823 -1.2114  0.8260  0.0795
  511TMC3     C 7647   4.259   3.144  14.628  0.1616 -0.5040  0.5053
  511TMC3     O 7648   4.328   3.223  14.686  0.5730 -0.0123  0.2455
  511TMC3     H 7649   4.129   3.209  14.862  0.4744 -0.8265  0.1158
  511TMC3    H1 7650   4.175   2.908  14.560 -0.6369  0.5200 -0.4412
  511TMC3    H2 7651   3.872   2.874  14.862 -0.3928 -1.4976 -0.6808
  511TMC3    C7 7652   3.981   2.761  14.641 -1.4006 -0.5161  0.0180
  511TMC3    C8 7653   3.925   3.113  14.957 -1.1132 -0.3252  0.0653
  511TMC3    O1 7654   4.020   2.749  14.524 -0.0166 -0.4502  0.0641
  511TMC3    O2 7655   3.913   3.236  14.951  0.3787 -0.5258  0.0295
  512TMC3    C1 7656   3.180   2.213  13.503  0.1456  0.3488 -0.2303
  512TMC3    C2 7657   3.288   2.295  13.465  1.1046  0.6432 -0.4703
  512TMC3    C3 7658   3.385   2.239  13.379 -0.2957  0.1967  0.2460
  512TMC3    C4 7659   3.161   2.091  13.442  0.5522 -0.6917  0.4257
  512TMC3    C5 7660   3.248   2.056  13.346 -0.0324 -0.2398 -0.2543
  512TMC3    C6 7661   3.368   2.118  13.320 -0.1133  0.5548  1.0728
  512TMC3     C 7662   3.067   2.280  13.570 -0.4225 -0.3819  0.3387
  512TMC3     O 7663   3.071   2.402  13.582  0.5756  0.4628  0.8044
  512TMC3     H 7664   3.314   2.386  13.519  0.0032 -2.0570  4.5862
  512TMC3    H1 7665   3.074   2.029  13.459 -0.1127  0.0408 -0.2730
  512TMC3    H2 7666   3.439   2.070  13.255 -0.3933 -0.4362  1.5063
  512TMC3    C7 7667   3.241   1.914  13.311 -0.3825  0.1833  0.4678
  512TMC3    C8 7668   3.526   2.262  13.419  0.5912  0.2323 -0.1143
  512TMC3    O1 7669   3.189   1.842  13.394  0.6360 -0.7093  0.1683
  512TMC3    O2 7670   3.590   2.172  13.470 -0.5345 -0.0389 -0.2352
  513MPD2     C 7671   0.078   2.037  13.534 -0.4363 -0.3487  0.0459
  513MPD2    C1 7672   0.139   2.011  13.411  0.4656  0.7268  0.1889
  513MPD2    C2 7673   0.246   2.090  13.375 -0.3142  0.5255 -0.0211
  513MPD2    C3 7674   0.303   2.178  13.458  0.2359 -0.0802  0.7066
  513MPD2    C4 7675   0.243   2.199  13.578  0.3420  0.1904 -0.3312
  513MPD2    C5 7676   0.140   2.127  13.617  0.2113  0.0977 -0.3665
  513MPD2     H 7677   0.293   2.072  13.279  1.4070 -0.8016  1.0622
  513MPD2    H1 7678   0.285   2.273  13.645 -0.3213  1.4987 -1.3440
  513MPD2    H2 7679   0.005   1.967  13.574 -0.3294 -0.2900  0.3454
  513MPD2    H3 7680   0.109   2.141  13.720 -3.1247 -2.6765 -0.9831
  513MPD2     N 7681   0.414   2.254  13.405  0.3768  0.1618  0.3148
  513MPD2    H5 7682   0.445   2.227  13.312 -0.3926  0.1473  0.0668
  513MPD2    N1 7683   0.107   1.911  13.316 -0.8447  0.0138 -0.2717
  513MPD2    H7 7684   0.148   1.914  13.224  0.0841  1.2314  0.1835
  514TMC3    C1 7685   4.720   1.743  13.218  0.4010  0.3116 -0.3484
  514TMC3    C2 7686   4.617   1.786  13.140  0.4417 -0.2858 -0.2832
  514TMC3    C3 7687   4.632   1.818  13.008  0.2069  0.2686 -0.0275
  514TMC3    C4 7688   0.104   1.723  13.160 -0.2057 -0.1615 -0.1465
  514TMC3    C5 7689   0.123   1.753  13.031 -0.4991  0.3569  0.1158
  514TMC3    C6 7690   0.020   1.797  12.948 -0.0755 -0.2263 -0.6533
  514TMC3     C 7691   0.003   1.821  13.335 -0.0019 -0.1749  0.5493
  514TMC3     O 7692   4.662   1.810  13.426 -0.6114 -0.0967 -0.4164
  514TMC3     H 7693   4.524   1.817  13.185  0.4104 -1.2827  0.3587
  514TMC3    H1 7694   0.186   1.692  13.224  1.2281  1.5436 -1.1524
  514TMC3    H2 7695   0.047   1.831  12.849 -1.4060  0.2602 -0.8534
  514TMC3    C7 7696   0.254   1.820  13.007 -0.3723  0.1591 -0.5463
  514TMC3    C8 7697   4.515   1.831  12.922 -0.3596 -0.3639  0.5594
  514TMC3    O1 7698   0.310   1.849  13.113  0.6902 -0.5623 -0.1821
  514TMC3    O2 7699   4.409   1.801  12.976 -0.2581  0.1066 -0.1662
  515MPD2     C 7700   3.347   3.662  14.080  0.1483 -0.4852  0.3990
  515MPD2    C1 7701   3.258   3.702  14.179 -0.0854  0.0986  0.6877
  515MPD2    C2 7702   3.269   3.834  14.224 -0.1666  0.1553 -0.3920
  515MPD2    C3 7703   3.389   3.905  14.211 -0.2228 -0.5422  0.6011
  515MPD2    C4 7704   3.485   3.854  14.128 -0.3629  0.0417  0.0800
  515MPD2    C5 7705   3.469   3.734  14.061  0.0028  0.6436 -0.5155
  515MPD2     H 7706   3.187   3.890  14.267  1.2914  0.4106  2.0913
  515MPD2    H1 7707   3.577   3.910  14.111  0.3265 -0.4684  2.1874
  515MPD2    H2 7708   3.339   3.568  14.027 -1.4703 -0.1840  0.0995
  515MPD2    H3 7709   3.540   3.699  13.987  1.6594  0.3310  1.2231
  515MPD2     N 7710   3.408   4.036  14.264 -0.7215 -0.5701  0.1696
  515MPD2    H5 7711   3.485   4.095  14.232 -0.6510 -0.5666  0.3434
  515MPD2    N1 7712   3.142   3.632  14.209  0.9104  0.5484  0.7962
  515MPD2    H7 7713   3.079   3.674  14.277 -0.9529  0.0768 -0.6197
  516TMC3    C1 7714   2.969   3.491  14.173  0.0481 -0.3533  0.0593
  516TMC3    C2 7715   2.872   3.549  14.106  0.1828  0.5439 -0.3108
  516TMC3    C3 7716   2.753   3.591  14.156 -0.5342  0.4200  0.2479
  516TMC3    C4 7717   2.953   3.485  14.308  0.2365 -0.4288 -0.9144
  516TMC3    C5 7718   2.836   3.535  14.359 -0.1924  0.0228 -0.5583
  516TMC3    C6 7719   2.728   3.581  14.290 -0.1429 -0.6863 -0.1372
  516TMC3     C 7720   3.102   3.516  14.139 -0.1263  0.1839 -0.0662
  516TMC3     O 7721   3.153   3.453  14.050 -0.0039  0.2181 -0.8863
  516TMC3     H 7722   2.883   3.561  13.999 -0.5439 -0.6649 -0.5194
  516TMC3    H1 7723   3.039   3.458  14.368 -0.3375 -0.0483  0.0903
  516TMC3    H2 7724   2.646   3.632  14.340 -0.4859  1.5696 -2.9853
  516TMC3    C7 7725   2.821   3.534  14.504  0.2917 -0.0881 -0.5496
  516TMC3    C8 7726   2.706   3.716  14.100 -0.1673  0.0952 -0.2983
  516TMC3    O1 7727   2.928   3.542  14.565  0.6227  0.3776  0.1848
  516TMC3    O2 7728   2.593   3.719  14.051  0.1026 -0.0160 -0.1756
  517MPD2     C 7729   2.538   1.159  17.681  0.6793  0.8748 -0.0836
  517MPD2    C1 7730   2.668   1.111  17.706  0.7804 -0.4696 -0.3397
  517MPD2    C2 7731   2.755   1.192   0.038  0.2298 -0.5902 -0.3855
  517MPD2    C3 7732   2.720   1.317   0.086 -0.1297 -0.3774  0.4105
  517MPD2    C4 7733   2.602   1.368   0.050 -0.2099 -0.4081  0.2217
  517MPD2    C5 7734   2.511   1.291  17.714 -0.2576 -0.4891  0.6121
  517MPD2     H 7735   2.852   1.151   0.063 -0.0885  0.7700  3.0837
  517MPD2    H1 7736   2.580   1.473   0.069 -1.9178 -0.7400  0.0585
  517MPD2    H2 7737   2.461   1.100  17.634  0.7693 -0.5951  1.6247
  517MPD2    H3 7738   2.412   1.328  17.689 -0.1711 -0.2160  0.6705
  517MPD2     N 7739   2.800   1.399   0.170  0.5711  0.2374 -0.1514
  517MPD2    H5 7740   2.761   1.488   0.201  1.3587  0.4641  0.1944
  517MPD2    N1 7741   2.720   0.983  17.665  0.5776 -0.1379  0.0295
  517MPD2    H7 7742   2.816   0.959  17.686  0.2365 -0.1010  1.6238
  518TMC3    C1 7743   2.724   0.782  17.533  0.1042  0.0214 -0.4567
  518TMC3    C2 7744   2.660   0.683  17.464  0.6468 -0.7177 -0.7422
  518TMC3    C3 7745   2.733   0.612  17.364  0.6677  0.5092  0.5260
  518TMC3    C4 7746   2.856   0.813  17.514 -0.2246 -0.2783 -0.2969
  518TMC3    C5 7747   2.929   0.736  17.425  0.1033  0.4290  0.3291
  518TMC3    C6 7748   2.870   0.635  17.346  0.2874 -0.7165  0.6673
  518TMC3     C 7749   2.652   0.894  17.585  0.0907 -0.2380 -0.1262
  518TMC3     O 7750   2.537   0.899  17.545  0.1560  0.6964 -0.3162
  518TMC3     H 7751   2.554   0.670  17.483  0.7104 -0.8794 -0.5032
  518TMC3    H1 7752   2.905   0.886  17.578  2.7294  0.4085 -3.3923
  518TMC3    H2 7753   2.920   0.578  17.268 -2.2178 -2.2745  0.1981
  518TMC3    C7 7754   3.066   0.770  17.409  0.5417  0.3886  0.4389
  518TMC3    C8 7755   2.699   0.474  17.339 -0.7777 -1.0453  0.1326
  518TMC3    O1 7756   3.107   0.856  17.490 -0.0201  0.6530 -0.0552
  518TMC3    O2 7757   2.773   0.420  17.255  0.3922  0.6108 -0.0616
  519MPD2     C 7758   0.286   4.318  14.350 -0.2588  0.9597 -0.3208
  519MPD2    C1 7759   0.196   4.357  14.252 -0.2317 -0.8046 -0.1089
  519MPD2    C2 7760   0.212   4.308  14.123  0.0483 -0.1763  1.0678
  519MPD2    C3 7761   0.326   4.243  14.099  0.0843  0.0725 -0.2698
  519MPD2    C4 7762   0.428   4.230  14.193  0.6046 -0.3898 -0.0425
  519MPD2    C5 7763   0.403   4.268  14.314 -0.0494  0.1726 -0.4830
  519MPD2     H 7764   0.140   4.340  14.048 -0.0802  0.1425  1.3250
  519MPD2    H1 7765   0.519   4.173  14.180  1.8995  1.4197  1.0581
  519MPD2    H2 7766   0.276   4.356  14.451 -0.6486 -1.1808  0.4539
  519MPD2    H3 7767   0.481   4.250  14.387 -1.2207  0.3986  0.8248
  519MPD2     N 7768   0.362   4.193  13.974 -0.2495  0.0241 -0.2040
  519MPD2    H5 7769   0.453   4.147  13.981 -0.1635  0.1183 -0.6867
  519MPD2    N1 7770   0.075   4.411  14.293 -0.1138 -0.3693  0.1752
  519MPD2    H7 7771   0.053   4.411  14.392  1.0025  0.9213  0.4238
  520TMC3    C1 7772   0.369   4.123  13.747 -0.2656 -0.3127  0.3805
  520TMC3    C2 7773   0.343   4.157  13.615  0.4160 -0.4269 -0.1350
  520TMC3    C3 7774   0.366   4.065  13.519  0.8307 -0.3797  0.3069
  520TMC3    C4 7775   0.427   4.005  13.779 -0.2809 -0.6236  0.4114
  520TMC3    C5 7776   0.459   3.916  13.676  0.2462 -0.3244 -0.1346
  520TMC3    C6 7777   0.419   3.940  13.551  0.4392 -0.1200  0.1300
  520TMC3     C 7778   0.299   4.193  13.855 -0.6862 -0.2483 -0.0111
  520TMC3     O 7779   0.192   4.241  13.820  0.5278 -0.1071 -0.0569
  520TMC3     H 7780   0.296   4.253  13.595  1.7825  0.2708  0.0328
  520TMC3    H1 7781   0.454   3.967  13.877 -0.9383  0.7355  1.1184
  520TMC3    H2 7782   0.423   3.869  13.469 -1.6777 -0.8597  0.6784
  520TMC3    C7 7783   0.518   3.787  13.708 -0.0515  0.1642 -0.4641
  520TMC3    C8 7784   0.301   4.095  13.389  0.0227 -0.3563  0.3325
  520TMC3    O1 7785   0.541   3.765  13.822 -0.1004 -0.0326 -0.0187
  520TMC3    O2 7786   0.315   4.203  13.335  0.5012 -0.3988 -0.0929
  521MPD2     C 7787   0.522   2.217  17.407  0.8380  0.0132  0.2250
  521MPD2    C1 7788   0.496   2.197  17.274  0.4293 -0.5954 -0.0704
  521MPD2    C2 7789   0.607   2.187  17.187  0.0812 -0.1494  0.2046
  521MPD2    C3 7790   0.735   2.224  17.230  0.0768 -0.5835  0.6890
  521MPD2    C4 7791   0.747   2.268  17.355  0.3802 -0.1043 -0.1452
  521MPD2    C5 7792   0.645   2.255  17.446  0.0857 -0.4818  0.2198
  521MPD2     H 7793   0.602   2.142  17.089  0.4661 -0.2290  0.2220
  521MPD2    H1 7794   0.842   2.304  17.395 -0.2488  0.3711  0.9119
  521MPD2    H2 7795   0.438   2.219  17.477  0.7536 -2.2685  0.1742
  521MPD2    H3 7796   0.657   2.284  17.550 -2.2711  0.5829  0.1816
  521MPD2     N 7797   0.837   2.229  17.128  0.0843  0.5359 -0.2519
  521MPD2    H5 7798   0.801   2.195  17.039 -0.5327  1.0959 -0.2115
  521MPD2    N1 7799   0.360   2.161  17.238  0.3017  0.3383  0.3326
  521MPD2    H7 7800   0.290   2.162  17.311 -1.0833 -1.3986 -0.9937
  522TMC3    C1 7801   1.052   2.283  17.019  0.2070 -0.0536  0.4620
  522TMC3    C2 7802   1.186   2.273  17.041 -0.1755  0.3621  0.4757
  522TMC3    C3 7803   1.266   2.277  16.932 -0.2202  0.5321  0.0397
  522TMC3    C4 7804   0.988   2.293  16.900 -0.0327 -0.4564  0.1410
  522TMC3    C5 7805   1.077   2.300  16.793 -0.2088 -0.2331  0.3442
  522TMC3    C6 7806   1.213   2.290  16.806  0.6001 -0.5706  0.3125
  522TMC3     C 7807   0.969   2.273  17.144 -0.0520  0.1782 -0.2572
  522TMC3     O 7808   1.030   2.302  17.247 -0.4174 -0.6024  0.1419
  522TMC3     H 7809   1.227   2.243  17.137  0.5800 -0.3414 -0.0752
  522TMC3    H1 7810   0.880   2.301  16.897 -0.0967 -0.3399  2.5034
  522TMC3    H2 7811   1.281   2.308  16.723 -0.2304 -0.3232 -0.3114
  522TMC3    C7 7812   1.025   2.337  16.670 -0.2005 -0.3667  0.6080
  522TMC3    C8 7813   1.403   2.236  16.937  0.5682  0.8393  0.6170
  522TMC3    O1 7814   1.061   2.275  16.570 -0.4520  0.0524 -0.0119
  522TMC3    O2 7815   1.473   2.283  17.027 -0.3382 -0.4321 -0.4759
  523MPD2     C 7816   2.934   1.942   9.467 -0.2607  0.0015 -0.6850
  523MPD2    C1 7817   2.798   1.905   9.469  0.8360  0.2539  0.1091
  523MPD2    C2 7818   2.713   1.961   9.379 -0.1128  0.2137 -0.0396
  523MPD2    C3 7819   2.759   2.059   9.295 -0.4655  0.1564 -0.3842
  523MPD2    C4 7820   2.887   2.106   9.300  0.7452  0.0422 -0.4418
  523MPD2    C5 7821   2.971   2.046   9.391  0.3712 -0.0009  0.0367
  523MPD2     H 7822   2.612   1.921   9.382 -0.9497  2.2545 -1.4260
  523MPD2    H1 7823   2.929   2.184   9.237 -1.1647 -0.1783 -1.9986
  523MPD2    H2 7824   3.011   1.887   9.520 -2.5843 -2.3633  0.2587
  523MPD2    H3 7825   3.075   2.075   9.396  0.6476 -0.9958  0.1618
  523MPD2     N 7826   2.681   2.133   9.205  0.3480 -0.4780  0.2329
  523MPD2    H5 7827   2.729   2.216   9.172 -0.0326  0.1396  1.2008
  523MPD2    N1 7828   2.767   1.808   9.564 -0.1792  0.0428  0.4880
  523MPD2    H7 7829   2.843   1.787   9.627  1.1272  2.0582 -0.4153
  524TMC3    C1 7830   2.478   2.216   9.113  0.5512 -0.2378  0.1599
  524TMC3    C2 7831   2.337   2.194   9.101  0.6800  0.5859 -0.0916
  524TMC3    C3 7832   2.262   2.305   9.084 -0.4526 -0.2019 -0.1148
  524TMC3    C4 7833   2.524   2.342   9.114 -0.0668 -0.0418 -0.1068
  524TMC3    C5 7834   2.438   2.447   9.091  0.2495  0.0906 -0.0377
  524TMC3    C6 7835   2.302   2.436   9.071 -0.2179 -0.1725  0.3354
  524TMC3     C 7836   2.545   2.110   9.182 -0.1009 -0.3532 -0.2035
  524TMC3     O 7837   2.486   2.012   9.223 -0.2165 -0.2826 -0.0408
  524TMC3     H 7838   2.299   2.094   9.083 -1.0266  1.2365 -0.0025
  524TMC3    H1 7839   2.617   2.367   9.163 -0.0604  0.9421 -0.6187
  524TMC3    H2 7840   2.240   2.524   9.061 -1.6048 -0.8871  2.6697
  524TMC3    C7 7841   2.502   2.572   9.132  0.5800 -0.0527  0.4413
  524TMC3    C8 7842   2.121   2.269   9.061  0.0855 -0.0042  0.7053
  524TMC3    O1 7843   2.622   2.582   9.128  0.4468 -0.0459 -0.2410
  524TMC3    O2 7844   2.111   2.153   9.015  0.5358  0.6268 -0.5020
  525MPD2     C 7845   1.166   3.488  14.184  0.4702  0.0227 -1.0789
  525MPD2    C1 7846   1.282   3.524  14.247  0.0680  0.0511 -0.3519
  525MPD2    C2 7847   1.329   3.653  14.221  0.2021 -0.1526 -0.6775
  525MPD2    C3 7848   1.272   3.736  14.128  0.2257  0.5796  0.6098
  525MPD2    C4 7849   1.157   3.690  14.059  1.1049  0.4411  0.2360
  525MPD2    C5 7850   1.116   3.564  14.079  0.6142  0.1827 -0.3527
  525MPD2     H 7851   1.410   3.696  14.278 -0.7413 -0.2236  0.7103
  525MPD2    H1 7852   1.112   3.746  13.978  0.3026  1.0748  1.1127
  525MPD2    H2 7853   1.114   3.394  14.197  0.3905  0.2155  0.0026
  525MPD2    H3 7854   1.038   3.521  14.017  1.2950  0.5103 -1.4190
  525MPD2     N 7855   1.311   3.873  14.100  0.2804 -0.2709  0.1835
  525MPD2    H5 7856   1.253   3.931  14.041  0.7791 -0.6810 -0.7035
  525MPD2    N1 7857   1.331   3.448  14.356  0.2961  0.5056 -0.4256
  525MPD2    H7 7858   1.420   3.482  14.393  0.1660 -1.5304  1.7792
  526TMC3    C1 7859   1.301   3.295  14.540 -0.3086  0.5066 -0.6210
  526TMC3    C2 7860   1.214   3.285  14.643  0.1593  0.2184 -0.1126
  526TMC3    C3 7861   1.264   3.212  14.748 -0.2932  0.2613  0.0319
  526TMC3    C4 7862   1.436   3.258  14.546  0.4357 -0.4717 -0.7260
  526TMC3    C5 7863   1.480   3.196  14.661 -0.4832 -0.1941 -0.3625
  526TMC3    C6 7864   1.392   3.170  14.762 -0.7304  0.3161 -0.0407
  526TMC3     C 7865   1.252   3.351  14.420  0.1056  0.4309 -0.0459
  526TMC3     O 7866   1.133   3.334  14.403 -0.1167 -0.3735 -0.2286
  526TMC3     H 7867   1.110   3.315  14.637  0.3724  1.1197  0.6750
  526TMC3    H1 7868   1.506   3.285  14.467 -0.6031  1.8001 -0.8867
  526TMC3    H2 7869   1.428   3.122  14.852 -1.5475 -3.0427 -1.4995
  526TMC3    C7 7870   1.620   3.166  14.665 -0.4912  0.2789  0.3005
  526TMC3    C8 7871   1.209   3.242  14.879  0.2601 -0.0396 -0.3706
  526TMC3    O1 7872   1.689   3.160  14.562 -0.0381 -0.2664 -0.8880
  526TMC3    O2 7873   1.290   3.261  14.969 -0.2424  0.3945  0.4137
  527MPD2     C 7874   4.475   1.353   1.711  0.3232 -0.3813  0.5711
  527MPD2    C1 7875   4.458   1.446   1.614  0.2248  0.1585  0.3716
  527MPD2    C2 7876   4.513   1.419   1.493 -0.6168 -0.0450  0.1175
  527MPD2    C3 7877   4.599   1.319   1.469  0.3429  0.4540 -0.1154
  527MPD2    C4 7878   4.612   1.221   1.568 -0.3305  0.0222 -0.3361
  527MPD2    C5 7879   4.546   1.241   1.683 -0.3400 -0.3143  0.0182
  527MPD2     H 7880   4.502   1.495   1.416 -0.8998  0.9251  1.1113
  527MPD2    H1 7881   4.663   1.128   1.547  1.2668  0.8150 -0.0163
  527MPD2    H2 7882   4.422   1.366   1.805  2.2696 -0.6514  1.6977
  527MPD2    H3 7883   4.553   1.159   1.754 -0.4150  1.1850  1.7680
  527MPD2     N 7884   4.663   1.304   1.341  0.1545  0.0574 -0.0761
  527MPD2    H5 7885   4.630   1.361   1.264  1.4049  0.6084 -0.2137
  527MPD2    N1 7886   4.375   1.568   1.623 -0.0579  0.1542  0.6193
  527MPD2    H7 7887   4.389   1.637   1.550 -0.8709 -1.0909 -0.7208
  528TMC3    C1 7888   4.185   1.708   1.715 -0.8963 -0.0378 -0.8646
  528TMC3    C2 7889   4.175   1.764   1.592 -0.1824 -0.0664 -0.0874
  528TMC3    C3 7890   4.067   1.849   1.572 -0.8421  0.2643 -0.5684
  528TMC3    C4 7891   4.085   1.715   1.807  0.6777 -0.0946  0.2454
  528TMC3    C5 7892   3.989   1.809   1.787  0.4110  0.6308  0.1524
  528TMC3    C6 7893   3.977   1.881   1.670  0.6040  0.6465  0.1475
  528TMC3     C 7894   4.274   1.588   1.727 -0.1814 -1.2126  0.4595
  528TMC3     O 7895   4.251   1.517   1.826  0.1590  0.2724  0.2071
  528TMC3     H 7896   4.231   1.729   1.506  3.3166  0.9132  1.8079
  528TMC3    H1 7897   4.087   1.650   1.894 -0.1070 -2.5242 -1.5586
  528TMC3    H2 7898   3.897   1.953   1.657 -0.1056 -0.1075  0.3439
  528TMC3    C7 7899   3.899   1.845   1.893  0.6085 -0.4668 -0.2433
  528TMC3    C8 7900   4.066   1.931   1.450  0.5955  1.0122 -0.2486
  528TMC3    O1 7901   3.791   1.894   1.855 -0.2535 -0.4506 -0.0816
  528TMC3    O2 7902   4.179   1.951   1.407 -0.0861  0.3596  0.0269
  529MPD2     C 7903   1.323   4.582   0.620  0.5177  0.2050 -0.5324
  529MPD2    C1 7904   1.419   4.528   0.538 -0.3405 -0.4177 -0.7411
  529MPD2    C2 7905   1.425   4.575   0.402 -0.2874 -0.0090 -0.2277
  529MPD2    C3 7906   1.334   4.670   0.345 -0.9811 -0.2250  0.0847
  529MPD2    C4 7907   1.236   4.706   0.433  0.0648  0.0893 -0.0427
  529MPD2    C5 7908   1.241   4.672   0.565 -0.2087 -0.7333  1.0135
  529MPD2     H 7909   1.513   4.536   0.354 -0.8773  0.0477 -1.3511
  529MPD2    H1 7910   1.163   0.039   0.391 -0.0275 -0.0351 -0.0846
  529MPD2    H2 7911   1.299   4.551   0.721  0.6995 -0.6324 -0.7486
  529MPD2    H3 7912   1.168   4.721   0.629  1.1619  1.8076  0.6125
  529MPD2     N 7913   1.335   4.725   0.211 -0.2641  0.0163 -0.2360
  529MPD2    H5 7914   1.263   0.056   0.190 -0.1451  0.3349  0.3624
  529MPD2    N1 7915   1.514   4.438   0.576 -0.6213  0.3958 -0.2961
  529MPD2    H7 7916   1.590   4.418   0.513  0.3110  0.2834  0.8615
  530TMC3    C1 7917   1.610   4.274   0.717  0.4769 -0.2476  0.1606
  530TMC3    C2 7918   1.733   4.289   0.679  0.0102 -0.0450 -0.1110
  530TMC3    C3 7919   1.818   4.184   0.711  0.1964  0.0737 -0.5105
  530TMC3    C4 7920   1.556   4.160   0.775 -0.0349 -0.1912 -0.9097
  530TMC3    C5 7921   1.641   4.054   0.790  0.2174 -0.7658  0.4679
  530TMC3    C6 7922   1.776   4.064   0.763  0.2317 -0.0452 -0.7485
  530TMC3     C 7923   1.509   4.373   0.695 -0.3420  0.1581  0.1411
  530TMC3     O 7924   1.435   4.401   0.791 -0.5175  0.3495 -0.0057
  530TMC3     H 7925   1.767   4.390   0.660 -0.1816  0.2609  1.1284
  530TMC3    H1 7926   1.451   4.155   0.805  1.2576  0.0306  3.6555
  530TMC3    H2 7927   1.839   3.978   0.782 -1.7607 -1.2101  0.5652
  530TMC3    C7 7928   1.595   3.939   0.870 -0.2923  0.5180  0.1266
  530TMC3    C8 7929   1.958   4.224   0.731 -0.1044  0.5288  0.4067
  530TMC3    O1 7930   1.509   3.961   0.948 -0.3379  0.4304  0.0650
  530TMC3    O2 7931   1.982   4.336   0.687  0.1522  0.3983 -0.2945
  531MPD2     C 7932   0.651   2.053  12.799 -0.1978 -0.1750 -0.2266
  531MPD2    C1 7933   0.586   2.075  12.921 -0.0195 -0.3168 -0.3397
  531MPD2    C2 7934   0.467   2.005  12.946  0.8303  1.1564 -1.0295
  531MPD2    C3 7935   0.416   1.916  12.860 -0.0111 -0.1072 -0.8424
  531MPD2    C4 7936   0.477   1.904  12.732 -0.1755  0.0920  0.6063
  531MPD2    C5 7937   0.590   1.972  12.704  0.4973  0.5893 -0.4995
  531MPD2     H 7938   0.410   2.039  13.032 -0.9371  0.2031 -1.8145
  531MPD2    H1 7939   0.444   1.833  12.656 -4.1731  0.5307  1.9387
  531MPD2    H2 7940   0.743   2.102  12.772 -0.7913  0.7888 -0.4712
  531MPD2    H3 7941   0.639   1.944  12.612  1.4447  1.7624 -0.3414
  531MPD2     N 7942   0.298   1.839  12.880 -0.3057  0.0741  0.4852
  531MPD2    H5 7943   0.255   1.783  12.808 -0.8462  0.9379  0.1397
  531MPD2    N1 7944   0.635   2.189  12.995 -0.3088  0.2610 -0.3778
  531MPD2    H7 7945   0.733   2.211  12.986 -0.4610  2.0937  2.5045
  532TMC3    C1 7946   0.632   2.360  13.162 -0.2410  1.0180  0.5208
  532TMC3    C2 7947   0.543   2.414  13.255 -0.9472  0.3112 -0.7430
  532TMC3    C3 7948   0.573   2.421  13.384 -0.0533  0.5553  0.3398
  532TMC3    C4 7949   0.765   2.326  13.195  0.1582 -0.1358 -0.1470
  532TMC3    C5 7950   0.796   2.366  13.323 -0.6506  0.0911  0.1172
  532TMC3    C6 7951   0.706   2.410  13.421 -0.4210 -0.0204  0.4395
  532TMC3     C 7952   0.563   2.254  13.089  0.3270  0.8073  0.3694
  532TMC3     O 7953   0.450   2.230  13.128 -0.4583 -0.3462  0.1472
  532TMC3     H 7954   0.440   2.434  13.227 -1.2405  1.1679  0.9432
  532TMC3    H1 7955   0.840   2.295  13.124  0.8726  0.9038  0.1541
  532TMC3    H2 7956   0.742   2.433  13.521 -3.1459  0.0306  1.4109
  532TMC3    C7 7957   0.928   2.310  13.371  0.1991 -0.1908  0.4526
  532TMC3    C8 7958   0.466   2.372  13.464  0.0516  0.8580 -0.1684
  532TMC3    O1 7959   0.999   2.368  13.450  0.2342 -0.1846 -0.3815
  532TMC3    O2 7960   0.446   2.425  13.575  0.0376  0.6026  0.2270
  533TMC3    C1 7961   1.438   4.080  14.136 -0.7877 -0.0533  0.4428
  533TMC3    C2 7962   1.561   4.135  14.153 -0.3638 -0.4210  0.3562
  533TMC3    C3 7963   1.554   4.279  14.173 -0.0324  0.0212  0.1111
  533TMC3    C4 7964   1.322   4.145  14.162 -0.6651  0.5410  0.8131
  533TMC3    C5 7965   1.324   4.274  14.204  0.5185  0.2534  0.1595
  533TMC3    C6 7966   1.436   4.344  14.193  0.3707 -0.8301  0.3342
  533TMC3     C 7967   1.427   3.934  14.142  0.6171 -0.3540 -0.5966
  533TMC3     O 7968   1.528   3.877  14.183  0.4918 -0.3701  0.6039
  533TMC3     H 7969   1.654   4.080  14.160 -0.8319 -1.4759 -1.6438
  533TMC3    H1 7970   1.231   4.091  14.142  0.4261 -1.2973  0.7906
  533TMC3    H2 7971   1.420   4.445  14.228 -2.7712 -0.9155 -0.9269
  533TMC3    C7 7972   1.261   4.273  14.336 -0.5458  0.3514 -1.1331
  533TMC3    C8 7973   1.678   4.346  14.209  0.1763 -0.4116  0.8862
  533TMC3    O1 7974   1.209   4.164  14.361 -0.1510  0.2171  0.3861
  533TMC3    O2 7975   1.781   4.279  14.219  0.3207  0.4219  0.0240
  534MPD2     C 7976   4.699   4.519   0.733  1.3677  0.2647  0.5050
  534MPD2    C1 7977   4.643   4.639   0.783 -0.2652  0.4811  0.1794
  534MPD2    C2 7978   4.509   4.670   0.760 -0.0488  0.2856  0.8367
  534MPD2    C3 7979   4.427   4.577   0.694  0.5063 -0.0610  0.1109
  534MPD2    C4 7980   4.487   4.464   0.648  0.8488  0.7499 -0.4393
  534MPD2    C5 7981   4.618   4.427   0.672 -0.2069  0.1791  0.5914
  534MPD2     H 7982   4.468   0.025   0.804 -1.5596  0.3600 -0.6948
  534MPD2    H1 7983   4.424   4.394   0.595  1.0581 -0.4177  0.8539
  534MPD2    H2 7984   0.062   4.489   0.767  0.8348 -1.1198  0.8197
  534MPD2    H3 7985   4.660   4.332   0.641  0.2490  0.4140  0.4850
  534MPD2     N 7986   4.294   4.600   0.660 -0.1837 -0.2077  0.6193
  534MPD2    H5 7987   4.242   4.523   0.619 -0.3164 -0.2637  0.8904
  534MPD2    N1 7988   4.724   4.729   0.858 -0.1342 -0.1179  0.4822
  534MPD2    H7 7989   4.672   0.065   0.907 -1.7725 -0.8390 -0.1799
  535TMC3    C1 7990   4.086   4.721   0.656 -0.8236  0.4591  0.1990
  535TMC3    C2 7991   4.022   4.616   0.712  0.4070  0.0622  0.3130
  535TMC3    C3 7992   3.893   4.641   0.748 -0.8793 -0.0882 -0.3891
  535TMC3    C4 7993   4.023   0.104   0.619  0.3922  0.3545 -1.2111
  535TMC3    C5 7994   3.889   0.118   0.652  0.0094  1.0474  0.2984
  535TMC3    C6 7995   3.820   0.017   0.713 -0.1735  0.5523  0.0124
  535TMC3     C 7996   4.231   4.726   0.666 -0.6685  0.1620  0.8279
  535TMC3     O 7997   4.275   0.103   0.683 -0.2230  0.0214  0.5633
  535TMC3     H 7998   4.071   4.528   0.752  1.5233 -0.0548 -1.3490
  535TMC3    H1 7999   4.075   0.191   0.579  0.2690  0.3215 -1.4433
  535TMC3    H2 8000   3.715   0.014   0.739  0.0284 -1.3393  0.5888
  535TMC3    C7 8001   3.809   0.228   0.598 -0.5518  0.6303  0.4039
  535TMC3    C8 8002   3.825   4.542   0.824 -0.6555  0.3159 -0.4349
  535TMC3    O1 8003   3.690   0.204   0.572 -0.1719  0.7797  0.4264
  535TMC3    O2 8004   3.734   4.575   0.902  0.4838  0.0929  0.2830
  536MPD2     C 8005   2.493   3.363  16.724  0.3133  0.0993 -1.1476
  536MPD2    C1 8006   2.449   3.238  16.678  0.0797  1.1507  0.0689
  536MPD2    C2 8007   2.379   3.226  16.555  0.1904  0.0323 -0.0186
  536MPD2    C3 8008   2.371   3.336  16.470  0.3238  0.0252 -0.8501
  536MPD2    C4 8009   2.415   3.461  16.511 -0.3895 -0.5067  0.6323
  536MPD2    C5 8010   2.468   3.470  16.641  0.4825 -0.1157  1.0915
  536MPD2     H 8011   2.345   3.126  16.532 -0.4365 -0.3357  2.4833
  536MPD2    H1 8012   2.408   3.551  16.452  1.0816 -1.5369 -1.1305
  536MPD2    H2 8013   2.538   3.383  16.820 -0.7101 -0.0587 -0.6409
  536MPD2    H3 8014   2.486   3.566  16.687 -0.7842  1.2761 -1.2835
  536MPD2     N 8015   2.308   3.325  16.342 -0.3777 -0.3420  0.1391
  536MPD2    H5 8016   2.314   3.405  16.280  0.1319 -0.2656  0.2856
  536MPD2    N1 8017   2.464   3.132  16.773  0.4100 -0.4357  0.4259
  536MPD2    H7 8018   2.505   3.156  16.863  0.8384 -2.4307  0.7710
  537TMC3    C1 8019   2.423   2.918  16.881  0.1107  0.9326 -0.4081
  537TMC3    C2 8020   2.522   2.950  16.968 -0.8908  0.0709 -0.2068
  537TMC3    C3 8021   2.531   2.875  17.078  0.5489 -0.2726 -0.5645
  537TMC3    C4 8022   2.337   2.811  16.904  0.3530  0.0450  0.7800
  537TMC3    C5 8023   2.348   2.739  17.022 -0.4887 -0.2028  0.1892
  537TMC3    C6 8024   2.447   2.771  17.109  0.0651 -0.0974  0.1503
  537TMC3     C 8025   2.406   3.004  16.764  0.3152 -0.5129  0.3966
  537TMC3     O 8026   2.326   2.962  16.679 -0.0643  0.5346 -0.3136
  537TMC3     H 8027   2.604   3.015  16.940  0.5155 -1.3969  0.5314
  537TMC3    H1 8028   2.269   2.786  16.823  2.1580 -1.5621 -0.2341
  537TMC3    H2 8029   2.479   2.699  17.184  0.6638  2.1645  2.0613
  537TMC3    C7 8030   2.290   2.607  17.033  0.5547  0.5718  0.3005
  537TMC3    C8 8031   2.652   2.886  17.165 -0.8577  0.9018  0.2190
  537TMC3    O1 8032   2.220   2.568  16.938 -0.3747  0.5548  0.5146
  537TMC3    O2 8033   2.644   2.836  17.274 -0.2412  0.0536 -0.0354
  538TMC3    C1 8034   3.417   1.453  11.134  0.3137  0.4165  0.6266
  538TMC3    C2 8035   3.531   1.394  11.091 -0.1386 -0.1924 -0.6526
  538TMC3    C3 8036   3.592   1.452  10.987  0.5892  0.3136  0.5179
  538TMC3    C4 8037   3.355   1.553  11.063  0.1956  0.3393 -0.2501
  538TMC3    C5 8038   3.414   1.606  10.950 -0.1742 -0.2253 -0.4382
  538TMC3    C6 8039   3.539   1.562  10.924 -0.1311  0.1003  0.0813
  538TMC3     C 8040   3.343   1.399  11.244 -0.5136 -0.4979  0.4963
  538TMC3     O 8041   3.223   1.403  11.224 -0.9856  0.1977  0.3105
  538TMC3     H 8042   3.562   1.301  11.139 -1.5562 -0.0471  0.5405
  538TMC3    H1 8043   3.259   1.587  11.099  0.1516 -0.0703  0.0214
  538TMC3    H2 8044   3.589   1.604  10.837 -0.5937 -1.1533 -0.8077
  538TMC3    C7 8045   3.336   1.691  10.854  0.6742  0.2687  0.0693
  538TMC3    C8 8046   3.720   1.391  10.950 -0.3644  0.1757 -0.7299
  538TMC3    O1 8047   3.389   1.698  10.742 -0.6600 -0.5629  0.5371
  538TMC3    O2 8048   3.774   1.314  11.032  0.1253 -0.0212  0.2571
  539MPD2     C 8049   2.969   0.890  11.605 -0.2984  0.3727 -0.4977
  539MPD2    C1 8050   2.967   0.942  11.478 -0.1517 -0.4587 -0.0187
  539MPD2    C2 8051   2.885   1.057  11.452  0.3037  0.1840 -0.1753
  539MPD2    C3 8052   2.812   1.114  11.548 -0.1544  0.3925  0.5643
  539MPD2    C4 8053   2.828   1.065  11.674  0.0775 -0.3127  0.2558
  539MPD2    C5 8054   2.895   0.951  11.704 -0.5401  0.0311 -0.2361
  539MPD2     H 8055   2.883   1.103  11.354  1.5373  0.6189 -0.0066
  539MPD2    H1 8056   2.770   1.105  11.756 -1.1596 -1.0253 -0.2792
  539MPD2    H2 8057   3.019   0.796  11.627 -1.1583  0.6777  2.7523
  539MPD2    H3 8058   2.894   0.907  11.803 -1.5761 -0.8344 -0.6152
  539MPD2     N 8059   2.734   1.229  11.537  0.3083 -0.3352  0.5510
  539MPD2    H5 8060   2.695   1.268  11.622 -1.5220 -3.0800  0.9399
  539MPD2    N1 8061   3.045   0.890  11.372  0.4344 -0.1928  0.3565
  539MPD2    H7 8062   3.056   0.953  11.293  0.1449 -2.1161 -1.2224
  540TMC3    C1 8063   2.646   1.408  11.422  0.8375 -0.4172  0.1119
  540TMC3    C2 8064   2.652   1.482  11.305 -0.1223 -0.6258 -0.1272
  540TMC3    C3 8065   2.634   1.615  11.314  0.4851 -0.4194 -0.1657
  540TMC3    C4 8066   2.609   1.464  11.541 -0.4055  0.5223  0.0912
  540TMC3    C5 8067   2.582   1.598  11.540  0.2130 -0.1102 -0.1638
  540TMC3    C6 8068   2.597   1.685  11.428  0.2585  0.1297 -0.4398
  540TMC3     C 8069   2.703   1.283  11.417 -0.3274 -0.6965 -0.1643
  540TMC3     O 8070   2.712   1.228  11.306 -0.5453  0.2287  0.3502
  540TMC3     H 8071   2.709   1.443  11.222  0.6122 -0.7177  0.4183
  540TMC3    H1 8072   2.598   1.412  11.636 -0.8591  0.6400  0.1013
  540TMC3    H2 8073   2.579   1.792  11.429  1.7924  0.3598  1.1462
  540TMC3    C7 8074   2.579   1.659  11.676  0.6376  0.1769 -0.3029
  540TMC3    C8 8075   2.637   1.679  11.187 -0.2288 -0.4842 -0.4035
  540TMC3    O1 8076   2.547   1.586  11.773  0.0222  0.4046 -0.2431
  540TMC3    O2 8077   2.650   1.801  11.182  0.2927 -0.1787  0.0190
  541MPD2     C 8078   1.790   2.700  13.337 -0.3349 -0.1953 -0.3213
  541MPD2    C1 8079   1.788   2.587  13.269 -0.2514 -0.5985  0.2447
  541MPD2    C2 8080   1.716   2.571  13.152  0.0885 -0.4061  0.1706
  541MPD2    C3 8081   1.645   2.679  13.109  0.5422  0.0972  0.7361
  541MPD2    C4 8082   1.636   2.791  13.186  0.4115  0.4300 -0.6317
  541MPD2    C5 8083   1.713   2.803  13.295 -0.2316  0.0160  0.4660
  541MPD2     H 8084   1.715   2.474  13.103  0.3784  0.3910 -1.4270
  541MPD2    H1 8085   1.573   2.869  13.144 -1.0964  1.1955  3.0580
  541MPD2    H2 8086   1.842   2.719  13.430  1.5816 -1.3730 -1.1573
  541MPD2    H3 8087   1.691   2.894  13.350 -0.4796  0.8112 -0.9427
  541MPD2     N 8088   1.569   2.681  12.994 -0.4263  0.1928 -0.5397
  541MPD2    H5 8089   1.501   2.756  12.979  0.4941  1.3173  0.9417
  541MPD2    N1 8090   1.849   2.468  13.320  0.0494  0.0180 -0.1590
  541MPD2    H7 8091   1.832   2.384  13.267 -1.0280  0.8352 -1.1053
  542TMC3    C1 8092   1.485   2.587  12.796 -0.3291 -0.2973 -0.0471
  542TMC3    C2 8093   1.505   2.491  12.698 -0.1806 -0.3788 -0.3493
  542TMC3    C3 8094   1.407   2.473  12.603 -0.0068 -0.2773 -0.1299
  542TMC3    C4 8095   1.367   2.655  12.804 -0.0885  0.3370 -0.2605
  542TMC3    C5 8096   1.273   2.634  12.711 -0.4962  0.4396 -0.1695
  542TMC3    C6 8097   1.296   2.543  12.603  0.1965  0.1345 -0.2119
  542TMC3     C 8098   1.582   2.581  12.899 -0.7406 -1.4476 -0.1785
  542TMC3     O 8099   1.672   2.498  12.880  0.7780 -0.3269 -0.2295
  542TMC3     H 8100   1.604   2.450  12.689  0.4757  1.0587  0.3037
  542TMC3    H1 8101   1.353   2.725  12.885  1.4183 -1.0996  1.2423
  542TMC3    H2 8102   1.219   2.520  12.530  0.8325  0.7230 -1.0839
  542TMC3    C7 8103   1.150   2.697  12.739 -0.7390 -0.1119  0.0032
  542TMC3    C8 8104   1.434   2.399  12.482  0.2433 -0.0494  0.1073
  542TMC3    O1 8105   1.145   2.766  12.845  0.3693  0.0118 -0.0339
  542TMC3    O2 8106   1.375   2.429  12.383  0.3151 -0.1675  0.1419
  543TMC3    C1 8107   1.228   3.997  17.070  0.1130  0.2719  0.6785
  543TMC3    C2 8108   1.268   3.885  17.135 -0.2983 -0.2732  0.2257
  543TMC3    C3 8109   1.254   3.883  17.271  0.2289 -0.3628  0.1228
  543TMC3    C4 8110   1.169   4.101  17.143 -0.7308 -0.3958  0.1350
  543TMC3    C5 8111   1.140   4.086  17.278 -0.6025  1.1540 -0.3494
  543TMC3    C6 8112   1.187   3.974  17.343 -0.1131  0.3549  0.0093
  543TMC3     C 8113   1.257   4.005  16.925  0.4786  0.7252 -0.1794
  543TMC3     O 8114   1.312   3.912  16.876 -0.1010  0.1984 -0.3567
  543TMC3     H 8115   1.340   3.816  17.091 -1.8412 -1.1766 -0.8583
  543TMC3    H1 8116   1.127   4.191  17.099 -2.0414 -1.2548 -0.3764
  543TMC3    H2 8117   1.164   3.960  17.448  0.4748  0.4582  0.1503
  543TMC3    C7 8118   1.036   4.163  17.342 -0.5390  0.0841 -0.9955
  543TMC3    C8 8119   1.259   3.752  17.335  0.2219  0.1588  0.3677
  543TMC3    O1 8120   1.031   4.153  17.467 -0.5657  0.4271 -0.5541
  543TMC3    O2 8121   1.270   3.743  17.459  0.5259  0.1525 -0.9137
  544MPD2     C 8122   1.195   3.235  17.265 -0.0684  0.3869  0.2629
  544MPD2    C1 8123   1.242   3.301  17.375  0.2075 -0.1850  0.0021
  544MPD2    C2 8124   1.244   3.441  17.374 -0.2890  0.4459 -0.5099
  544MPD2    C3 8125   1.207   3.509  17.264 -0.1579  0.6276  0.3138
  544MPD2    C4 8126   1.168   3.442  17.153  0.3255 -0.7826 -0.5509
  544MPD2    C5 8127   1.167   3.307  17.154  0.4704 -0.2504  0.5789
  544MPD2     H 8128   1.283   3.496  17.459  5.1179 -2.4620 -1.1187
  544MPD2    H1 8129   1.153   3.495  17.060  0.5228 -1.0772 -0.7503
  544MPD2    H2 8130   1.173   3.129  17.263  1.7226  0.0467 -0.6208
  544MPD2    H3 8131   1.133   3.258  17.064  2.1629  0.8955 -0.6987
  544MPD2     N 8132   1.222   3.650  17.250 -1.2713 -0.6289  0.4178
  544MPD2    H5 8133   1.179   3.685  17.164 -0.8682 -0.8697  0.1220
  544MPD2    N1 8134   1.275   3.219  17.488  0.0002  0.1787 -0.3979
  544MPD2    H7 8135   1.265   3.120  17.467  3.2614 -0.2271 -0.0663
  545TMC3    C1 8136   1.307   3.158  17.710  0.5771  0.7935 -0.4581
  545TMC3    C2 8137   1.412   3.126   0.046 -0.2451 -0.2275  0.8899
  545TMC3    C3 8138   1.413   3.011   0.115  0.3268 -0.3274 -0.9156
  545TMC3    C4 8139   1.195   3.078  17.695  0.1612 -0.3644 -0.0497
  545TMC3    C5 8140   1.201   2.960   0.022 -0.0300 -0.3323 -0.0239
  545TMC3    C6 8141   1.306   2.927   0.102  0.2773 -0.5999 -0.8801
  545TMC3     C 8142   1.324   3.257  17.611  0.3223  0.0392 -0.2735
  545TMC3     O 8143   1.357   3.367  17.656 -0.2688  0.3140 -0.8846
  545TMC3     H 8144   1.499   3.191   0.057 -0.9841  1.1077 -1.0551
  545TMC3    H1 8145   1.108   3.105  17.637 -0.1493 -1.7580 -0.2394
  545TMC3    H2 8146   1.309   2.839   0.166  0.7880  0.4865  0.5959
  545TMC3    C7 8147   1.066   2.902   0.046 -0.1403 -0.1606 -0.1221
  545TMC3    C8 8148   1.504   2.997   0.231  0.1462  0.1940  0.4808
  545TMC3    O1 8149   0.968   2.961   0.005  0.4228 -0.1547 -0.1008
  545TMC3    O2 8150   1.458   2.942   0.328  0.6083 -0.4860  0.0063
  546MPD2     C 8151   2.565   3.786  17.455 -0.4417  0.1791 -0.1503
  546MPD2    C1 8152   2.553   3.819  17.326  0.2897 -0.3769 -0.6261
  546MPD2    C2 8153   2.644   3.919  17.278  0.2600 -0.1582  0.2626
  546MPD2    C3 8154   2.715   3.995  17.367 -0.3066  0.4871 -0.2261
  546MPD2    C4 8155   2.715   3.964  17.500  0.1850 -0.8003  0.7430
  546MPD2    C5 8156   2.650   3.855  17.538  0.7995  0.7990  0.4773
  546MPD2     H 8157   2.660   3.941  17.173  0.2653 -3.4022 -0.4275
  546MPD2    H1 8158   2.769   4.023  17.573 -0.4129  0.1814  0.3895
  546MPD2    H2 8159   2.502   3.706  17.494 -0.6634  0.3949 -0.0673
  546MPD2    H3 8160   2.673   3.836  17.642  0.4538 -1.3386  0.1568
  546MPD2     N 8161   2.812   4.094  17.331 -0.3633  0.0176 -0.0536
  546MPD2    H5 8162   2.852   4.146  17.409  0.2000  1.4473 -1.3050
  546MPD2    N1 8163   2.469   3.739  17.233 -0.3412 -0.2529  0.1677
  546MPD2    H7 8164   2.428   3.656  17.273  0.1417  0.3212  1.8629
  547TMC3    C1 8165   2.378   3.686  17.018  0.1556 -0.2438  0.2081
  547TMC3    C2 8166   2.313   3.734  16.906  0.0530 -0.2464  0.2821
  547TMC3    C3 8167   2.241   3.638  16.840  0.0570  0.0649 -0.3790
  547TMC3    C4 8168   2.381   3.554  17.057 -0.9102  0.8076 -0.2377
  547TMC3    C5 8169   2.297   3.465  16.998 -0.6611  1.1290  0.0593
  547TMC3    C6 8170   2.230   3.508  16.888  0.0839  0.5886  0.1617
  547TMC3     C 8171   2.447   3.780  17.103 -0.1232  0.4368 -0.4021
  547TMC3     O 8172   2.486   3.885  17.053  0.2921  0.4010 -0.1527
  547TMC3     H 8173   2.336   3.836  16.875 -1.5518  0.0845  0.2059
  547TMC3    H1 8174   2.442   3.507  17.134  0.2634  0.9853 -1.0576
  547TMC3    H2 8175   2.162   3.443  16.833  3.5898 -3.2678  0.4314
  547TMC3    C7 8176   2.292   3.328  17.037  0.1540 -0.0702 -0.3449
  547TMC3    C8 8177   2.173   3.681  16.714 -0.0434 -0.1415 -0.1064
  547TMC3    O1 8178   2.358   3.299  17.136  0.4996  0.9756 -0.3426
  547TMC3    O2 8179   2.060   3.639  16.693 -0.5944  0.3303 -0.2390
  548MPD2     C 8180   2.451   4.214  12.852  0.2646  0.9360  0.0120
  548MPD2    C1 8181   2.387   4.117  12.776  0.5230  0.5460 -0.3239
  548MPD2    C2 8182   2.449   4.067  12.661 -0.2368  0.2591  0.2817
  548MPD2    C3 8183   2.576   4.098  12.628  0.3107 -0.4432  0.0422
  548MPD2    C4 8184   2.642   4.192  12.703  0.2732  0.1997  0.2752
  548MPD2    C5 8185   2.574   4.259  12.804 -0.6351 -0.9936  0.9271
  548MPD2     H 8186   2.394   3.997  12.599  0.4316 -1.7835  2.0102
  548MPD2    H1 8187   2.745   4.223  12.686  0.6958 -1.1201  0.3869
  548MPD2    H2 8188   2.405   4.275  12.929  0.5820  0.9487  0.1919
  548MPD2    H3 8189   2.628   4.336  12.858 -2.2881  1.9204 -1.5934
  548MPD2     N 8190   2.634   4.025  12.519 -0.5650 -0.4258  0.0446
  548MPD2    H5 8191   2.571   3.959  12.473 -0.2086  0.0773 -1.1509
  548MPD2    N1 8192   2.255   4.083  12.813 -0.2879  0.3258 -0.5685
  548MPD2    H7 8193   2.210   4.141  12.883 -1.6520 -0.0402 -1.1586
  549TMC3    C1 8194   2.045   4.010  12.787 -0.8310  0.2491 -0.5173
  549TMC3    C2 8195   2.000   4.126  12.737  0.3368 -0.6921 -0.0828
  549TMC3    C3 8196   1.869   4.122  12.684  0.0858  0.4748 -0.2193
  549TMC3    C4 8197   1.976   3.889  12.798  0.2059  0.1526  0.4535
  549TMC3    C5 8198   1.842   3.893  12.756  0.0189 -0.1104  0.1025
  549TMC3    C6 8199   1.790   4.011  12.707  0.3452 -0.0161 -0.1014
  549TMC3     C 8200   2.181   3.984  12.761  0.1324 -0.2374 -0.2026
  549TMC3     O 8201   2.217   3.873  12.713 -0.1820  0.1499 -0.5706
  549TMC3     H 8202   2.069   4.210  12.733  0.3083 -0.6005  1.4589
  549TMC3    H1 8203   2.011   3.795  12.841  2.1879 -0.3535 -2.2252
  549TMC3    H2 8204   1.683   4.025  12.690  0.6917 -1.7824 -3.8908
  549TMC3    C7 8205   1.747   3.779  12.754 -0.6406 -0.1661  0.1912
  549TMC3    C8 8206   1.826   4.203  12.575 -0.1056 -0.1915  0.2583
  549TMC3    O1 8207   1.637   3.816  12.713  0.1674 -1.1029  0.4951
  549TMC3    O2 8208   1.707   4.205  12.547 -0.8627  0.4119  0.0891
  550TMC3    C1 8209   0.985   2.215  12.454  0.6503  1.3471 -0.3430
  550TMC3    C2 8210   0.951   2.272  12.571 -0.8847  0.2706  0.0099
  550TMC3    C3 8211   0.822   2.318  12.595 -0.6141 -0.2992 -0.3471
  550TMC3    C4 8212   0.890   2.198  12.356  0.2065  0.5160  0.2048
  550TMC3    C5 8213   0.762   2.247  12.382 -0.2084  0.1193  0.2572
  550TMC3    C6 8214   0.734   2.314  12.495  0.2186  0.1901  0.4974
  550TMC3     C 8215   1.125   2.184  12.428 -0.6009  0.0428  0.5610
  550TMC3     O 8216   1.203   2.207  12.522  0.1191  0.3206 -0.0690
  550TMC3     H 8217   1.026   2.286  12.648 -0.0007  1.4586 -1.0684
  550TMC3    H1 8218   0.903   2.132  12.271  0.1265 -0.8217  1.2336
  550TMC3    H2 8219   0.640   2.368  12.494 -0.0730 -0.3255 -0.0424
  550TMC3    C7 8220   0.654   2.219  12.289 -0.7387  0.0786 -0.1803
  550TMC3    C8 8221   0.809   2.393  12.715 -0.5630  0.3525 -0.2677
  550TMC3    O1 8222   0.544   2.241  12.333 -0.1868  0.4521 -0.1810
  550TMC3    O2 8223   0.891   2.394  12.802 -0.5665  0.0809 -0.3638
  551TMC3    C1 8224   3.498   0.043  13.228  0.2724 -0.1153 -0.0997
  551TMC3    C2 8225   3.594   4.681  13.202 -0.0206 -0.0110  0.4340
  551TMC3    C3 8226   3.693   4.655  13.293  0.2285 -0.3147  0.4925
  551TMC3    C4 8227   3.487   0.098  13.352 -0.0274 -1.3456 -0.2794
  551TMC3    C5 8228   3.595   0.070  13.444  0.0181  0.0010  0.3199
  551TMC3    C6 8229   3.704   4.724  13.416  0.1122  0.5348 -0.3368
  551TMC3     C 8230   3.478   0.123  13.110 -0.9272  0.4593 -0.6963
  551TMC3     O 8231   3.475   0.060  13.001 -0.2849 -0.8075 -0.0098
  551TMC3     H 8232   3.590   4.628  13.107  1.2453 -0.5637  0.6873
  551TMC3    H1 8233   3.421   0.182  13.368  0.1190 -1.0944 -0.9983
  551TMC3    H2 8234   3.786   4.721  13.487  0.7399 -2.9437 -1.2330
  551TMC3    C7 8235   3.581   0.116  13.582  0.1143  0.0632  0.1526
  551TMC3    C8 8236   3.815   4.618  13.224  0.3381 -0.1015  0.1806
  551TMC3    O1 8237   3.676   0.096  13.655 -0.0426 -0.7625  0.6273
  551TMC3    O2 8238   3.793   4.534  13.135 -0.0104  0.0489  0.3531
  552MPD2     C 8239   0.907   2.143  13.732 -0.0405  0.3455 -0.0251
  552MPD2    C1 8240   0.853   2.101  13.849 -0.2214  0.5556  0.1244
  552MPD2    C2 8241   0.940   2.085  13.957  0.4202  0.2786  0.1593
  552MPD2    C3 8242   1.080   2.095  13.935  0.0067 -0.1964  0.7532
  552MPD2    C4 8243   1.122   2.131  13.810  0.2533 -0.1971 -0.4895
  552MPD2    C5 8244   1.040   2.157  13.709 -0.6354  0.0311  0.1599
  552MPD2     H 8245   0.886   2.056  14.046  0.5335  0.4494  0.2834
  552MPD2    H1 8246   1.230   2.124  13.798  0.2805  1.3305 -1.1598
  552MPD2    H2 8247   0.844   2.162  13.646  0.1882 -0.7169 -0.4361
  552MPD2    H3 8248   1.085   2.184  13.614 -0.0114 -0.3011  0.3642
  552MPD2     N 8249   1.177   2.071  14.036 -0.2185 -1.1606  0.3022
  552MPD2    H5 8250   1.270   2.086  13.998  0.1259 -0.5354  1.4073
  552MPD2    N1 8251   0.714   2.088  13.864  0.8160  0.5742  0.6160
  552MPD2    H7 8252   0.678   2.070  13.958 -0.9003 -1.0602 -0.3611
  553TMC3    C1 8253   0.495   2.018  13.807 -0.6866  0.5805 -0.2381
  553TMC3    C2 8254   0.428   1.966  13.699  0.1733 -0.6340  0.5764
  553TMC3    C3 8255   0.350   1.857  13.719 -0.2157  0.4912 -0.0931
  553TMC3    C4 8256   0.491   1.963  13.930 -0.9672 -0.0021 -0.1988
  553TMC3    C5 8257   0.419   1.843  13.940  0.0145 -0.1861 -0.2112
  553TMC3    C6 8258   0.341   1.794  13.844 -0.3854 -0.1323  0.0480
  553TMC3     C 8259   0.614   2.089  13.765  0.2068  0.0227  0.3006
  553TMC3     O 8260   0.615   2.131  13.651 -0.6761 -0.0917 -0.2900
  553TMC3     H 8261   0.425   2.013  13.602  1.5993 -1.0973  0.3058
  553TMC3    H1 8262   0.553   1.982  14.017 -0.7332  0.1626 -0.3997
  553TMC3    H2 8263   0.284   1.706  13.870  0.5616 -0.8414 -0.2931
  553TMC3    C7 8264   0.439   1.759  14.053  0.5170 -0.5993  0.4020
  553TMC3    C8 8265   0.379   1.771  13.612 -0.1116 -0.5102 -0.3032
  553TMC3    O1 8266   0.341   1.708  14.105 -0.1699 -0.2217 -0.9620
  553TMC3    O2 8267   0.472   1.803  13.540 -0.0553 -0.0539  0.4424
  554TMC3    C1 8268   1.968   1.085  11.515 -0.3568 -0.1826  0.1838
  554TMC3    C2 8269   1.888   1.089  11.404  0.6859  0.5775  0.2554
  554TMC3    C3 8270   1.895   1.202  11.324  0.2949 -0.6479  0.9166
  554TMC3    C4 8271   2.059   1.184  11.545 -0.1366  0.1587 -0.2592
  554TMC3    C5 8272   2.071   1.285  11.453 -0.1099 -0.2287  0.3215
  554TMC3    C6 8273   1.986   1.298  11.346 -0.3646  0.1616 -0.3525
  554TMC3     C 8274   1.968   0.959  11.582  0.1780 -0.6035 -0.3795
  554TMC3     O 8275   1.865   0.894  11.586  0.1571  0.0984  0.1746
  554TMC3     H 8276   1.809   1.020  11.376  0.5447  0.0722  1.8772
  554TMC3    H1 8277   2.116   1.176  11.637  0.2576  0.7961 -0.4565
  554TMC3    H2 8278   1.977   1.388  11.286  1.8641  1.5316  1.3853
  554TMC3    C7 8279   2.142   1.400  11.494  0.3175 -0.1138  0.2434
  554TMC3    C8 8280   1.851   1.186  11.181 -0.1807 -0.4503 -0.1403
  554TMC3    O1 8281   2.180   1.405  11.615  0.1318 -0.2377  0.3585
  554TMC3    O2 8282   1.924   1.235  11.096  0.3345 -0.6117  0.1032
  555TMC3    C1 8283   1.487   1.019  15.355  0.3594 -0.6206  0.8431
  555TMC3    C2 8284   1.515   1.044  15.490 -0.5536  1.1473  0.2477
  555TMC3    C3 8285   1.593   0.957  15.559 -0.1661 -0.4940 -0.0410
  555TMC3    C4 8286   1.544   0.912  15.290  0.1480  0.4213 -0.2070
  555TMC3    C5 8287   1.609   0.818  15.372 -0.3868  0.1890  0.7262
  555TMC3    C6 8288   1.652   0.845  15.498  0.1057 -0.0391 -0.3180
  555TMC3     C 8289   1.471   1.142  15.281 -0.0121 -0.5899 -0.3299
  555TMC3     O 8290   1.498   1.253  15.329  0.7025  0.4274 -0.5449
  555TMC3     H 8291   1.473   1.135  15.530  0.9469  2.9301 -2.2231
  555TMC3    H1 8292   1.515   0.885  15.189  0.9386 -1.4981  0.0837
  555TMC3    H2 8293   1.706   0.775  15.560 -0.7138 -0.7930 -0.4609
  555TMC3    C7 8294   1.601   0.675  15.330 -0.6374  0.1190 -0.1424
  555TMC3    C8 8295   1.597   0.983  15.705  0.1170 -0.1252  0.9466
  555TMC3    O1 8296   1.584   0.592  15.418  0.1645 -0.8496  0.2158
  555TMC3    O2 8297   1.526   1.070  15.751  0.1862  0.3356  0.2646
  556MPD2     C 8298   4.120   2.403  10.901 -0.6653 -0.1654 -0.0669
  556MPD2    C1 8299   4.176   2.280  10.918  0.5515  0.2038  0.0088
  556MPD2    C2 8300   4.176   2.193  10.808 -0.6298 -0.2580  0.2609
  556MPD2    C3 8301   4.112   2.219  10.690  0.5044 -0.0756  0.2948
  556MPD2    C4 8302   4.050   2.343  10.678  0.1695  0.1834  0.3020
  556MPD2    C5 8303   4.059   2.429  10.780 -0.9670 -0.3522 -0.2220
  556MPD2     H 8304   4.223   2.096  10.820  1.5652  0.7996  0.1827
  556MPD2    H1 8305   3.998   2.377  10.589 -0.8714  1.1570  1.2742
  556MPD2    H2 8306   4.127   2.488  10.969 -1.5592 -1.3920  1.5598
  556MPD2    H3 8307   4.026   2.532  10.766  0.8474  0.5969  2.4638
  556MPD2     N 8308   4.114   2.112  10.591 -0.3238 -0.8389  0.1608
  556MPD2    H5 8309   4.143   2.021  10.625  2.8498  0.2662  0.4289
  556MPD2    N1 8310   4.245   2.232  11.033  0.1727 -0.0149 -0.2182
  556MPD2    H7 8311   4.271   2.134  11.038  1.8014  0.3992 -0.4712
  557TMC3    C1 8312   4.078   2.001  10.377  0.9159  0.2030 -0.0806
  557TMC3    C2 8313   4.071   2.016  10.242  0.0732  0.4194 -0.0206
  557TMC3    C3 8314   4.063   1.903  10.163  0.9196 -0.4251 -0.6772
  557TMC3    C4 8315   4.080   1.877  10.432 -0.2438 -0.1786 -0.7266
  557TMC3    C5 8316   4.077   1.763  10.352  0.0057 -0.8833  0.1911
  557TMC3    C6 8317   4.057   1.775  10.216 -0.4548 -0.5276 -0.1161
  557TMC3     C 8318   4.085   2.127  10.457 -0.2805 -0.0918  0.6183
  557TMC3     O 8319   4.053   2.235  10.405  0.5865 -0.1300  0.5892
  557TMC3     H 8320   4.074   2.110  10.188 -0.3909  0.8339  0.6777
  557TMC3    H1 8321   4.087   1.874  10.540 -3.5010  0.4079 -0.4798
  557TMC3    H2 8322   4.039   1.681  10.166  1.2750 -0.8505 -0.1355
  557TMC3    C7 8323   4.008   1.658  10.424  0.2201 -0.9715 -0.8008
  557TMC3    C8 8324   4.072   1.937  10.017  0.5481 -0.0355 -1.4569
  557TMC3    O1 8325   3.903   1.616  10.374  0.5928  0.0485  0.1342
  557TMC3    O2 8326   4.109   2.046   9.976  0.0931  0.5631  0.1466
  558TMC3    C1 8327   1.537   0.382  10.386  0.0223  1.4493  0.0979
  558TMC3    C2 8328   1.427   0.405  10.475  0.0590 -0.3835  0.2301
  558TMC3    C3 8329   1.298   0.402  10.434 -0.0489 -0.2977  0.2819
  558TMC3    C4 8330   1.511   0.356  10.254  0.3437  0.0229 -1.0004
  558TMC3    C5 8331   1.380   0.372  10.209  0.1093  0.5360 -0.1582
  558TMC3    C6 8332   1.270   0.395  10.296  0.1688  0.1121 -0.6921
  558TMC3     C 8333   1.674   0.363  10.430  0.4525  0.6860 -0.3772
  558TMC3     O 8334   1.758   0.389  10.345  0.1361 -0.5215  0.1714
  558TMC3     H 8335   1.443   0.431  10.579 -0.9044  1.4550 -0.0712
  558TMC3    H1 8336   1.591   0.326  10.187  2.1682  1.2847  0.6060
  558TMC3    H2 8337   1.170   0.414  10.259 -0.4329 -0.9041  0.3879
  558TMC3    C7 8338   1.355   0.367  10.068  0.6693  0.1740 -1.2571
  558TMC3    C8 8339   1.185   0.393  10.526 -0.2161 -0.2216 -0.7660
  558TMC3    O1 8340   1.447   0.388   9.995 -0.0823 -0.2075  0.2846
  558TMC3    O2 8341   1.070   0.395  10.483  0.1726 -0.5649  0.1609
  559MPD2     C 8342   1.527   0.791  10.395  0.1676 -0.3147  0.3048
  559MPD2    C1 8343   1.494   0.743  10.521 -0.0618  0.2401 -0.7075
  559MPD2    C2 8344   1.598   0.708  10.608  0.1608 -0.0615 -0.3879
  559MPD2    C3 8345   1.735   0.712  10.567  0.1456 -0.0503 -0.1817
  559MPD2    C4 8346   1.759   0.751  10.440 -0.3666 -0.4331  0.6790
  559MPD2    C5 8347   1.659   0.792  10.353  0.1472  0.4082 -0.3881
  559MPD2     H 8348   1.570   0.669  10.705  2.9165  1.7184  1.1044
  559MPD2    H1 8349   1.862   0.753  10.406 -0.8703  2.1756 -0.7440
  559MPD2    H2 8350   1.450   0.821  10.325  1.2377 -2.1961 -1.6849
  559MPD2    H3 8351   1.696   0.823  10.256  0.5041  2.2143  0.3283
  559MPD2     N 8352   1.833   0.683  10.670 -0.0648  0.0942 -0.1052
  559MPD2    H5 8353   1.794   0.681  10.764  0.1797 -0.0157 -0.0057
  559MPD2    N1 8354   1.353   0.733  10.553  0.4197 -0.8018 -0.1738
  559MPD2    H7 8355   1.298   0.763  10.473  0.4946 -1.3560 -0.4308
  560TMC3    C1 8356   2.030   0.623  10.781 -0.0656  0.6656  0.0438
  560TMC3    C2 8357   1.946   0.561  10.877  0.2648  0.0533 -0.4994
  560TMC3    C3 8358   2.000   0.503  10.987  0.7465  0.1409 -0.5011
  560TMC3    C4 8359   2.164   0.644  10.796  0.1047  0.5630  0.8210
  560TMC3    C5 8360   2.215   0.596  10.921  0.1317  0.0211 -0.3736
  560TMC3    C6 8361   2.136   0.526  11.011  0.0392 -0.1163 -0.3921
  560TMC3     C 8362   1.970   0.664  10.655  0.1951 -0.1399  0.2812
  560TMC3     O 8363   2.039   0.699  10.561  0.2786  0.6079 -0.0923
  560TMC3     H 8364   1.847   0.532  10.842  0.3523  2.6642 -2.8613
  560TMC3    H1 8365   2.222   0.694  10.719 -0.6927 -0.6031 -0.5475
  560TMC3    H2 8366   2.185   0.496  11.103  0.1570 -1.7063 -0.9719
  560TMC3    C7 8367   2.354   0.588  10.949  0.2768 -0.7781  0.6731
  560TMC3    C8 8368   1.920   0.405  11.061 -0.5111 -0.3894  0.3582
  560TMC3    O1 8369   2.394   0.481  10.992  0.3352  0.1120 -0.1004
  560TMC3    O2 8370   1.799   0.417  11.052 -0.3016 -0.4480  0.1097
  561TMC3    C1 8371   4.444   4.290  11.064  1.4029 -0.3424  0.1249
  561TMC3    C2 8372   4.409   4.204  11.164  0.0191  0.5555  0.5118
  561TMC3    C3 8373   4.298   4.243  11.235 -0.0529  0.5513 -0.2999
  561TMC3    C4 8374   4.362   4.388  11.016  0.1650 -0.1901 -1.0810
  561TMC3    C5 8375   4.253   4.427  11.087  0.9380  0.7331  0.2064
  561TMC3    C6 8376   4.217   4.353  11.197  0.0320  0.5997  0.3937
  561TMC3     C 8377   4.574   4.271  10.999  0.7015  0.4143 -0.7224
  561TMC3     O 8378   4.583   4.317  10.888  0.0042  0.2577  0.2404
  561TMC3     H 8379   4.476   4.127  11.202 -0.0543 -0.2449 -0.9647
  561TMC3    H1 8380   4.386   4.439  10.923  2.2693 -0.0505 -0.4675
  561TMC3    H2 8381   4.131   4.382  11.256 -0.3073 -0.4239  0.4007
  561TMC3    C7 8382   4.182   4.548  11.065  0.2434  1.1119  0.1705
  561TMC3    C8 8383   4.266   4.191  11.369 -0.4545 -0.4882  0.4493
  561TMC3    O1 8384   4.078   4.566  11.129  0.2662 -0.1263 -1.1135
  561TMC3    O2 8385   4.311   4.085  11.405  0.6987  0.1526 -0.0724
  562TMC3    C1 8386   1.437   0.830  16.174 -0.0179 -0.5037  0.1338
  562TMC3    C2 8387   1.385   0.956  16.143 -0.1171  0.7230 -0.5358
  562TMC3    C3 8388   1.338   0.975  16.012 -0.0133  0.0517 -0.0223
  562TMC3    C4 8389   1.461   0.740  16.076 -0.2260 -0.1607 -0.4047
  562TMC3    C5 8390   1.415   0.765  15.944  0.2318 -0.1232  0.8329
  562TMC3    C6 8391   1.357   0.880  15.915  0.0676  0.1431  0.2102
  562TMC3     C 8392   1.498   0.809  16.308 -0.1782 -0.4338  0.4783
  562TMC3     O 8393   1.546   0.916  16.354  0.6240  0.1419 -0.0538
  562TMC3     H 8394   1.370   1.032  16.219  2.7106  1.0726 -0.3612
  562TMC3    H1 8395   1.529   0.658  16.098  2.2313  1.2523 -2.6840
  562TMC3    H2 8396   1.312   0.900  15.819  1.7816 -0.5595 -0.7359
  562TMC3    C7 8397   1.424   0.666  15.845  0.3518 -0.3551 -1.0695
  562TMC3    C8 8398   1.249   1.092  15.992  0.1231  0.3124 -0.4391
  562TMC3    O1 8399   1.411   0.698  15.729  0.5095 -0.5716 -0.3957
  562TMC3    O2 8400   1.183   1.131  16.089 -0.0943 -0.0180  0.2578
  563MPD2     C 8401   3.538   2.783  15.773 -0.3214  0.4922  0.2588
  563MPD2    C1 8402   3.589   2.700  15.873 -0.3184 -0.1413 -0.4139
  563MPD2    C2 8403   3.707   2.625  15.851 -0.4936 -0.4008 -0.0744
  563MPD2    C3 8404   3.770   2.644  15.733 -0.0120  0.5809 -0.2074
  563MPD2    C4 8405   3.720   2.726  15.634  0.3120  0.3392  0.0058
  563MPD2    C5 8406   3.605   2.790  15.654 -0.1832  0.4749 -0.2509
  563MPD2     H 8407   3.750   2.565  15.931  0.9870  1.9297  0.8967
  563MPD2    H1 8408   3.757   2.711  15.534 -0.7265 -1.9477 -0.0378
  563MPD2    H2 8409   3.453   2.850  15.777 -0.2200  0.5670  1.0949
  563MPD2    H3 8410   3.565   2.849  15.572  0.9719 -0.6182 -1.5993
  563MPD2     N 8411   3.892   2.570  15.717  0.1516 -0.1443  0.5036
  563MPD2    H5 8412   3.905   2.496  15.784 -0.8561 -1.3109 -0.6037
  563MPD2    N1 8413   3.522   2.701  15.998  0.2666  0.0145  1.4164
  563MPD2    H7 8414   3.431   2.745  15.984  0.4748 -0.7154 -2.2021
  564TMC3    C1 8415   3.472   2.624  16.224  0.0667  0.2241 -0.6437
  564TMC3    C2 8416   3.344   2.598  16.198  0.4684  0.3609 -0.8480
  564TMC3    C3 8417   3.272   2.535  16.295 -0.7757  0.4194 -0.3053
  564TMC3    C4 8418   3.532   2.601  16.346 -0.5181  0.5867  1.0769
  564TMC3    C5 8419   3.456   2.539  16.442  0.5627  0.1193  0.6477
  564TMC3    C6 8420   3.327   2.507  16.416  0.5746  0.5056  0.4617
  564TMC3     C 8421   3.570   2.662  16.121  0.6038  0.4035  0.4303
  564TMC3     O 8422   3.688   2.634  16.143 -0.4203  0.2905  0.1999
  564TMC3     H 8423   3.306   2.604  16.096  0.2414  1.7040 -0.6900
  564TMC3    H1 8424   3.636   2.625  16.366 -0.1557  0.1391 -0.2462
  564TMC3    H2 8425   3.265   2.455  16.488  1.5754  0.1097  1.0399
  564TMC3    C7 8426   3.537   2.446  16.518  0.1556 -0.3135 -0.3768
  564TMC3    C8 8427   3.183   2.425  16.251  0.5332 -0.2184 -0.5846
  564TMC3    O1 8428   3.650   2.480  16.548 -0.6351  0.0797  0.5367
  564TMC3    O2 8429   3.163   2.333  16.332 -0.3063 -0.0726 -0.6667
  565TMC3    C1 8430   3.594   3.414  10.540 -0.2255  0.3111  0.3035
  565TMC3    C2 8431   3.598   3.297  10.606  0.9480  0.3243  0.9361
  565TMC3    C3 8432   3.499   3.210  10.586  0.0211  0.0184  0.1228
  565TMC3    C4 8433   3.484   3.450  10.457  0.2459 -0.4758  0.6393
  565TMC3    C5 8434   3.376   3.366  10.460  0.0016  0.3405  0.5203
  565TMC3    C6 8435   3.379   3.243  10.523 -0.1495 -0.3600  0.0408
  565TMC3     C 8436   3.714   3.484  10.520  0.2295  0.5013  0.0883
  565TMC3     O 8437   3.811   3.416  10.484 -0.2277  0.0282 -0.2647
  565TMC3     H 8438   3.693   3.269  10.650  0.1455  0.9370  3.0402
  565TMC3    H1 8439   3.478   3.548  10.411  2.5224 -0.9740 -0.7236
  565TMC3    H2 8440   3.301   3.170  10.503 -0.4393 -0.0464  0.0352
  565TMC3    C7 8441   3.263   3.380  10.366 -0.0503  0.0637  0.2693
  565TMC3    C8 8442   3.506   3.082  10.657 -0.1018  0.0348  0.0094
  565TMC3    O1 8443   3.163   3.310  10.382 -0.0044 -0.1091  0.7965
  565TMC3    O2 8444   3.577   3.074  10.754 -0.1696 -1.0408  0.2001
  566MPD2     C 8445   0.747   0.994  13.971 -0.0870  0.2010 -0.6038
  566MPD2    C1 8446   0.845   0.980  13.876  0.1583 -0.4600 -0.3277
  566MPD2    C2 8447   0.809   0.984  13.743 -0.3082  0.2436  0.1123
  566MPD2    C3 8448   0.675   0.987  13.712 -0.4029 -0.0470  0.0353
  566MPD2    C4 8449   0.575   0.984  13.805 -0.1902  0.1144  0.2350
  566MPD2    C5 8450   0.615   0.998  13.934 -0.3555 -0.3167  0.1331
  566MPD2     H 8451   0.879   0.974  13.661  0.9654 -1.5496  1.4252
  566MPD2    H1 8452   0.472   0.986  13.772 -0.1609  0.4352  0.1674
  566MPD2    H2 8453   0.778   1.007  14.074 -0.4590  1.4215 -0.6447
  566MPD2    H3 8454   0.538   1.005  14.009 -2.5530  2.1688 -2.3572
  566MPD2     N 8455   0.637   0.967  13.577  0.0896 -0.0442  0.2771
  566MPD2    H5 8456   0.542   0.946  13.548 -0.5506  0.4943  1.9413
  566MPD2    N1 8457   0.977   0.971  13.920  0.0995  0.2093  0.1723
  566MPD2    H7 8458   0.981   0.964  14.021  2.7957 -0.0979  0.0671
  567TMC3    C1 8459   1.217   0.940  13.908 -0.4462 -0.3916 -0.6518
  567TMC3    C2 8460   1.320   0.946  13.818  0.3478  0.3708 -0.0162
  567TMC3    C3 8461   1.438   0.889  13.854 -0.0117  0.7084  0.1684
  567TMC3    C4 8462   1.233   0.871  14.026  0.4562 -0.8064  0.6076
  567TMC3    C5 8463   1.354   0.807  14.059 -0.4147  0.3319  0.1257
  567TMC3    C6 8464   1.457   0.828  13.975  0.9195  0.2733 -0.1339
  567TMC3     C 8465   1.087   0.964  13.840  0.1549  0.2146 -0.7749
  567TMC3     O 8466   1.091   0.982  13.717  0.0669  0.8310  0.9445
  567TMC3     H 8467   1.311   0.995  13.722  0.0116  1.7849  0.7344
  567TMC3    H1 8468   1.142   0.850  14.080 -1.8878  1.5190 -2.4081
  567TMC3    H2 8469   1.554   0.789  14.006  1.3551  1.4079 -0.0715
  567TMC3    C7 8470   1.393   0.762  14.189 -0.4255  0.0635 -0.1084
  567TMC3    C8 8471   1.529   0.873  13.746 -0.3413  0.1641  0.2026
  567TMC3    O1 8472   1.503   0.713  14.200 -0.1026 -0.4334  0.2357
  567TMC3    O2 8473   1.486   0.866  13.631 -0.5279  0.0542 -0.0347
  568MPD2     C 8474   3.210   1.051  16.156  0.4437  0.1888  0.6609
  568MPD2    C1 8475   3.156   1.075  16.285  0.2862 -0.2011  0.6654
  568MPD2    C2 8476   3.060   1.173  16.298 -0.5601 -0.1862 -0.3116
  568MPD2    C3 8477   3.026   1.252  16.187  0.0214 -1.1991 -0.1013
  568MPD2    C4 8478   3.080   1.220  16.064  0.0188  0.1619 -0.3234
  568MPD2    C5 8479   3.174   1.125  16.049 -0.2880 -0.0376  0.0608
  568MPD2     H 8480   3.021   1.197  16.396 -0.1492  2.3047 -0.7558
  568MPD2    H1 8481   3.050   1.261  15.968 -0.8252 -1.1568 -0.6266
  568MPD2    H2 8482   3.281   0.969  16.151 -1.5553 -1.4995 -0.1514
  568MPD2    H3 8483   3.224   1.104  15.955 -1.2569 -0.1702 -0.4273
  568MPD2     N 8484   2.944   1.366  16.215 -0.4630 -0.2285 -0.2206
  568MPD2    H5 8485   2.925   1.395  16.311  0.1494 -1.0252  0.1447
  568MPD2    N1 8486   3.200   0.987  16.393  0.4285  0.2344 -0.0269
  568MPD2    H7 8487   3.262   0.911  16.369  1.0765  0.8801 -0.4210
  569TMC3    C1 8488   2.834   1.564  16.178 -0.2649  0.0109  0.5325
  569TMC3    C2 8489   2.820   1.571  16.315  0.0587  0.3433 -0.3330
  569TMC3    C3 8490   2.814   1.696  16.368 -0.3045  0.2351 -0.3035
  569TMC3    C4 8491   2.833   1.671  16.093 -0.1378  0.1521  0.2294
  569TMC3    C5 8492   2.824   1.791  16.158 -0.2228  0.0106 -0.2349
  569TMC3    C6 8493   2.804   1.803  16.291 -0.3149  0.0634  0.1826
  569TMC3     C 8494   2.888   1.447  16.119  0.4950 -0.2053 -0.1215
  569TMC3     O 8495   2.870   1.432  15.993  0.3338 -0.1855  0.0279
  569TMC3     H 8496   2.814   1.485  16.381  0.7215  0.2290 -0.4208
  569TMC3    H1 8497   2.844   1.661  15.986  0.6161 -0.7979  0.3874
  569TMC3    H2 8498   2.779   1.902  16.328 -2.5737 -0.1343 -0.8099
  569TMC3    C7 8499   2.823   1.906  16.071 -0.4084  0.5922 -0.5954
  569TMC3    C8 8500   2.826   1.707  16.508  0.4528 -0.4415  0.5604
  569TMC3    O1 8501   2.779   1.894  15.955  0.0948 -0.1060  0.1423
  569TMC3    O2 8502   2.813   1.602  16.572  0.3320  0.2804 -0.5182
  570TMC3    C1 8503   2.981   4.681  16.050 -0.0218  0.5108 -0.7643
  570TMC3    C2 8504   3.067   4.681  15.943 -0.2760  0.2239 -0.2724
  570TMC3    C3 8505   3.149   0.052  15.929 -0.1156 -1.2502  0.3938
  570TMC3    C4 8506   2.970   0.052  16.135  0.1684 -0.5177  0.3392
  570TMC3    C5 8507   3.044   0.164  16.102 -1.0707 -0.0778 -0.3739
  570TMC3    C6 8508   3.132   0.169  16.001  0.0653 -0.0050 -0.7032
  570TMC3     C 8509   2.902   4.564  16.076  0.0139  0.0827 -0.0293
  570TMC3     O 8510   2.901   4.480  15.989 -0.7175 -0.1361 -0.4251
  570TMC3     H 8511   3.075   4.589  15.885 -0.5523 -0.9854  1.5954
  570TMC3    H1 8512   2.913   0.066  16.226 -2.5915 -0.8700 -1.3458
  570TMC3    H2 8513   3.203   0.249  15.983  1.7149 -1.6460 -1.5569
  570TMC3    C7 8514   3.017   0.292  16.172  0.1008 -0.0148  0.3982
  570TMC3    C8 8515   3.217   0.075  15.798 -0.0016  0.3252  0.0699
  570TMC3    O1 8516   2.956   0.286  16.275 -0.6196 -0.4354  0.7054
  570TMC3    O2 8517   3.269   0.185  15.788 -0.4357  0.5296 -0.5230
  571MPD2     C 8518   0.225   2.335   0.540  0.5288 -0.6196 -1.0508
  571MPD2    C1 8519   0.305   2.267   0.620 -0.5570 -1.1839 -0.1841
  571MPD2    C2 8520   0.438   2.306   0.639  0.2012  0.0587 -0.1193
  571MPD2    C3 8521   0.481   2.428   0.589 -0.7237 -0.1017 -0.5123
  571MPD2    C4 8522   0.391   2.503   0.516  0.3335  0.1271  0.1556
  571MPD2    C5 8523   0.268   2.447   0.479 -0.7105 -0.2764 -0.5227
  571MPD2     H 8524   0.517   2.253   0.691  0.5814  0.8804  0.1481
  571MPD2    H1 8525   0.405   2.603   0.476 -0.1074 -0.3725 -1.2896
  571MPD2    H2 8526   0.127   2.304   0.506  0.4729 -1.4628 -0.1055
  571MPD2    H3 8527   0.205   2.503   0.411  0.2404  2.6036  0.9347
  571MPD2     N 8528   0.613   2.477   0.597 -0.6104 -0.0788  0.0119
  571MPD2    H5 8529   0.628   2.570   0.561 -4.1318  0.5810  0.2868
  571MPD2    N1 8530   0.241   2.150   0.675  0.0077 -0.2936 -0.0838
  571MPD2    H7 8531   0.141   2.137   0.664 -0.1077 -0.0478  0.6760
  572TMC3    C1 8532   0.835   2.504   0.670  0.1185 -0.2266  0.0681
  572TMC3    C2 8533   0.953   2.448   0.710  0.1231 -0.2729 -0.8233
  572TMC3    C3 8534   1.063   2.528   0.690 -0.5807 -0.4357 -0.5814
  572TMC3    C4 8535   0.817   2.640   0.640  0.0328  0.8695  0.9643
  572TMC3    C5 8536   0.936   2.711   0.618  0.5920  0.5042  0.2471
  572TMC3    C6 8537   1.063   2.646   0.631 -0.1190  0.2428  0.8560
  572TMC3     C 8538   0.716   2.415   0.662 -0.0406 -0.6762  0.6289
  572TMC3     O 8539   0.724   2.303   0.711  0.0492  0.2791  0.3788
  572TMC3     H 8540   0.964   2.342   0.687  2.0244  0.3210 -2.7408
  572TMC3    H1 8541   0.720   2.688   0.629  0.5083  1.6970  0.3180
  572TMC3    H2 8542   1.157   2.698   0.615  0.3677 -0.8344  0.2352
  572TMC3    C7 8543   0.920   2.840   0.572 -0.3860  0.1610 -0.2295
  572TMC3    C8 8544   1.194   2.471   0.723  0.0367  0.2630 -1.1334
  572TMC3    O1 8545   0.808   2.888   0.553 -0.1615 -0.6645  0.1068
  572TMC3    O2 8546   1.286   2.538   0.680  0.4718 -0.4507 -0.0786
  573MPD2     C 8547   1.431   1.909   1.013 -0.0270 -0.1996 -0.0295
  573MPD2    C1 8548   1.455   1.980   0.895  0.0251  0.3673  0.1273
  573MPD2    C2 8549   1.346   2.021   0.809 -0.0876 -0.1068  0.3082
  573MPD2    C3 8550   1.220   1.981   0.848  0.0310  0.0149  0.1861
  573MPD2    C4 8551   1.197   1.905   0.964  0.1452 -0.5080  0.1321
  573MPD2    C5 8552   1.298   1.873   1.046  0.0706 -0.0236 -0.2194
  573MPD2     H 8553   1.363   2.075   0.717  0.3369 -1.5600 -0.4642
  573MPD2    H1 8554   1.101   1.875   1.003  0.5035 -1.6310  0.1369
  573MPD2    H2 8555   1.508   1.878   1.083  0.7220 -0.4147 -0.9498
  573MPD2    H3 8556   1.278   1.827   1.142  1.4195 -1.5180 -0.6445
  573MPD2     N 8557   1.102   2.006   0.768 -0.9167 -0.4339  0.3753
  573MPD2    H5 8558   1.016   1.961   0.798 -1.6685 -0.7170 -2.2020
  573MPD2    N1 8559   1.592   2.008   0.878  0.9713  0.5010  0.5614
  573MPD2    H7 8560   1.653   1.989   0.957 -0.3157 -0.6079  1.2910
  574TMC3    C1 8561   0.965   2.073   0.577  0.0994 -0.1096 -0.2912
  574TMC3    C2 8562   0.954   2.159   0.470  0.3549 -0.3206 -0.0320
  574TMC3    C3 8563   0.841   2.155   0.393 -0.3630  0.9150 -0.2608
  574TMC3    C4 8564   0.860   1.999   0.618 -0.4131 -0.1843 -0.5151
  574TMC3    C5 8565   0.747   2.003   0.541 -0.5401 -0.6149 -0.2291
  574TMC3    C6 8566   0.735   2.072   0.424  0.3062  0.3134 -0.7531
  574TMC3     C 8567   1.100   2.061   0.641 -0.7180 -0.4653  0.4111
  574TMC3     O 8568   1.193   2.092   0.567 -0.0457  0.1311 -0.2080
  574TMC3     H 8569   1.029   2.237   0.457 -0.9313  0.9087 -0.0036
  574TMC3    H1 8570   0.872   1.934   0.704  0.8756  0.0168 -0.5401
  574TMC3    H2 8571   0.648   2.077   0.359 -0.1626 -2.9511 -0.3369
  574TMC3    C7 8572   0.646   1.909   0.570 -0.0889  0.1647 -0.3196
  574TMC3    C8 8573   0.790   2.286   0.337  0.0145  0.4225  0.0027
  574TMC3    O1 8574   0.669   1.838   0.665 -0.7101  0.4026  0.7218
  574TMC3    O2 8575   0.674   2.295   0.305  0.5126 -0.2888 -0.0005
  575TMC3    C1 8576   3.943   2.621  11.199 -1.1827 -0.2490  0.0477
  575TMC3    C2 8577   3.963   2.482  11.200 -0.5987  0.5054  0.2846
  575TMC3    C3 8578   3.866   2.407  11.147  0.8591  0.9184 -0.2484
  575TMC3    C4 8579   3.840   2.685  11.128 -1.2944 -0.1176 -0.4673
  575TMC3    C5 8580   3.757   2.603  11.057 -0.0146 -0.1936 -0.4459
  575TMC3    C6 8581   3.769   2.465  11.069 -0.6971 -0.2987  0.1530
  575TMC3     C 8582   4.024   2.707  11.293  0.1156  0.2399  0.0614
  575TMC3     O 8583   3.990   2.821  11.319  0.4292  1.4089  0.1501
  575TMC3     H 8584   4.034   2.434  11.267  0.2877  0.4067 -0.7333
  575TMC3    H1 8585   3.812   2.784  11.163  1.4242 -0.0705  1.5966
  575TMC3    H2 8586   3.699   2.402  11.014 -0.7689 -0.5892  0.5717
  575TMC3    C7 8587   3.656   2.675  10.981  0.4772  0.4928 -0.3807
  575TMC3    C8 8588   3.885   2.265  11.149  0.1293  0.6280  0.5649
  575TMC3    O1 8589   3.651   2.799  10.995 -0.1877  0.0749  0.5205
  575TMC3    O2 8590   3.940   2.224  11.246 -0.4071 -0.6570  1.0099
  576MPD2     C 8591   3.580   0.027  12.323  0.2250  0.5589 -0.8621
  576MPD2    C1 8592   3.686   0.112  12.292 -0.3764 -0.0893  0.2545
  576MPD2    C2 8593   3.751   0.178  12.402 -0.0657 -0.0212  0.1225
  576MPD2    C3 8594   3.716   0.153  12.534 -0.1771 -0.2167 -0.6822
  576MPD2    C4 8595   3.616   0.056  12.560 -0.0529  0.1851  0.3688
  576MPD2    C5 8596   3.552   4.728  12.456 -0.0576  0.4146 -0.1567
  576MPD2     H 8597   3.836   0.244  12.386  1.6574 -2.8062 -2.1635
  576MPD2    H1 8598   3.573   0.031  12.656  0.0814  0.4324  0.4927
  576MPD2    H2 8599   3.521   4.720  12.243  1.7940  1.3046 -2.4107
  576MPD2    H3 8600   3.479   4.649  12.466 -2.0644  1.9360 -2.8447
  576MPD2     N 8601   3.772   0.232  12.632 -0.6009 -0.3674  0.2968
  576MPD2    H5 8602   3.817   0.316  12.599  1.0144 -0.6816  1.6953
  576MPD2    N1 8603   3.736   0.125  12.163 -0.2390 -0.7600 -0.3494
  576MPD2    H7 8604   3.831   0.157  12.153 -0.6573 -0.0639 -2.1674
  577TMC3    C1 8605   3.799   0.074  11.952  0.1354 -0.1588 -0.2608
  577TMC3    C2 8606   3.912   0.015  12.001 -0.7069  0.7141 -0.3303
  577TMC3    C3 8607   4.015   4.729  11.920 -0.3374  0.5393  0.5300
  577TMC3    C4 8608   3.781   0.116  11.831  0.0870 -0.0107  0.3460
  577TMC3    C5 8609   3.890   0.109  11.752 -1.0839 -0.5502  0.0717
  577TMC3    C6 8610   4.001   0.044  11.795  0.0051  0.7562  0.5079
  577TMC3     C 8611   3.687   0.082  12.044  0.4038  0.0596 -1.1448
  577TMC3     O 8612   3.573   0.056  12.008 -0.3082 -0.3606 -0.4660
  577TMC3     H 8613   3.914   4.708  12.101  0.8660  1.4485 -0.0556
  577TMC3    H1 8614   3.685   0.138  11.786  1.1188 -0.1258 -1.9523
  577TMC3    H2 8615   4.087   0.054  11.729  1.4685  0.5587  2.3869
  577TMC3    C7 8616   3.878   0.109  11.604 -0.1809 -0.8862 -0.4229
  577TMC3    C8 8617   4.073   4.601  11.937 -0.0392  0.5350  0.0674
  577TMC3    O1 8618   3.950   0.029  11.546  0.2341 -0.3346 -0.2649
  577TMC3    O2 8619   4.101   4.561  12.046 -0.1193  0.4123  0.2762
  578MPD2     C 8620   2.757   4.600   1.091  0.0845  0.3268 -0.5131
  578MPD2    C1 8621   2.809   4.503   1.011 -0.2310  0.8745  0.3865
  578MPD2    C2 8622   2.915   4.432   1.063 -0.7140 -0.0347 -0.7496
  578MPD2    C3 8623   2.965   4.445   1.185 -0.2395 -0.8201  0.5267
  578MPD2    C4 8624   2.912   4.535   1.265  0.7418  0.0513  0.5667
  578MPD2    C5 8625   2.799   4.609   1.221  0.3702 -0.5918  0.3213
  578MPD2     H 8626   2.969   4.363   0.999  0.0310 -0.0590 -0.0808
  578MPD2    H1 8627   2.960   4.540   1.363  3.5819 -1.4555 -0.7468
  578MPD2    H2 8628   2.678   4.663   1.052  1.2800  0.4941 -2.6425
  578MPD2    H3 8629   2.755   4.680   1.290 -0.3573  0.3837 -1.1483
  578MPD2     N 8630   3.084   4.375   1.222 -0.0453 -0.8425  0.1726
  578MPD2    H5 8631   3.109   4.370   1.320  2.9504  0.1892 -0.5403
  578MPD2    N1 8632   2.763   4.489   0.872  0.2610  0.1097 -0.0660
  578MPD2    H7 8633   2.700   4.561   0.838 -2.0397 -1.5970  0.5601
  579TMC3    C1 8634   3.216   4.190   1.201 -0.7131  0.1207  0.6219
  579TMC3    C2 8635   3.350   4.172   1.178 -0.0002  0.1697 -0.2395
  579TMC3    C3 8636   3.400   4.044   1.177 -0.8045 -0.2488  0.1467
  579TMC3    C4 8637   3.128   4.083   1.201  0.2371  0.1071  0.8007
  579TMC3    C5 8638   3.185   3.961   1.183 -0.2098  0.5911  0.0176
  579TMC3    C6 8639   3.315   3.936   1.183  0.3037 -0.3450 -0.1278
  579TMC3     C 8640   3.161   4.307   1.135 -0.8133  0.8931 -0.0258
  579TMC3     O 8641   3.177   4.329   1.014  0.2507  0.3340  0.2736
  579TMC3     H 8642   3.409   4.259   1.154 -0.6140  0.6565  0.0337
  579TMC3    H1 8643   3.020   4.093   1.203  0.3204  0.3982  3.9112
  579TMC3    H2 8644   3.355   3.837   1.166  1.3869 -0.0584  0.7718
  579TMC3    C7 8645   3.098   3.847   1.154  0.1357 -0.3595 -0.0691
  579TMC3    C8 8646   3.512   4.017   1.083  0.0834 -0.4135  0.2724
  579TMC3    O1 8647   3.140   3.731   1.185  0.0142  0.1177 -0.4128
  579TMC3    O2 8648   3.527   3.899   1.051 -0.0828 -0.3304 -0.2393
  580TMC3    C1 8649   1.525   3.578  12.280  0.5698 -0.0732 -0.0369
  580TMC3    C2 8650   1.422   3.585  12.185  0.3605  0.2447  0.7280
  580TMC3    C3 8651   1.391   3.468  12.128  0.2480  0.9160  0.6417
  580TMC3    C4 8652   1.568   3.465  12.340  0.0882 -0.4354 -0.1280
  580TMC3    C5 8653   1.519   3.349  12.286  0.2433  0.1521 -0.1612
  580TMC3    C6 8654   1.441   3.348  12.176  0.2154 -0.1880 -0.4883
  580TMC3     C 8655   1.630   3.681  12.258  0.2153  0.1604  0.4072
  580TMC3     O 8656   1.602   3.752  12.162  0.0547  0.3315  0.4475
  580TMC3     H 8657   1.385   3.681  12.153 -0.9411 -0.3133  0.5442
  580TMC3    H1 8658   1.632   3.463  12.427 -0.3682 -0.7545  0.1951
  580TMC3    H2 8659   1.409   3.255  12.130  0.4666 -0.2083 -0.6222
  580TMC3    C7 8660   1.595   3.233  12.339  0.2320 -0.0927  0.3855
  580TMC3    C8 8661   1.403   3.465  11.984  0.5235  0.0229  0.4727
  580TMC3    O1 8662   1.699   3.271  12.388  0.1247 -0.3846  0.1089
  580TMC3    O2 8663   1.357   3.375  11.917  0.2578  0.3157 -0.1828
  581MPD2     C 8664   0.294   3.538  14.731  0.4305 -0.7933  0.5251
  581MPD2    C1 8665   0.177   3.535  14.802 -0.6438 -0.6746 -0.1539
  581MPD2    C2 8666   0.063   3.570  14.735  0.9308  0.4484  0.6993
  581MPD2    C3 8667   0.058   3.604  14.605 -0.0890 -0.3006  0.2322
  581MPD2    C4 8668   0.178   3.623  14.534  0.0130  0.0482  0.4133
  581MPD2    C5 8669   0.295   3.580  14.602 -0.3406  0.2229 -0.0931
  581MPD2     H 8670   4.713   3.570  14.801  0.4299  1.0260  0.0490
  581MPD2    H1 8671   0.197   3.650  14.431 -2.3312 -0.0260 -0.0229
  581MPD2    H2 8672   0.386   3.511  14.780 -0.4951 -2.9515  1.0667
  581MPD2    H3 8673   0.385   3.572  14.543 -0.5798 -1.1309 -0.2830
  581MPD2     N 8674   4.672   3.642  14.556 -0.5652  0.5101 -0.7769
  581MPD2    H5 8675   4.592   3.632  14.618  0.3820 -0.1496  0.3367
  581MPD2    N1 8676   0.165   3.506  14.933 -0.0303 -0.3145 -0.6269
  581MPD2    H7 8677   0.071   3.499  14.972 -0.3575 -0.4739 -1.4311
  582TMC3    C1 8678   0.207   3.429  15.143 -0.3564  0.5492  0.9288
  582TMC3    C2 8679   0.245   3.478  15.261 -0.1516  0.2961  0.1852
  582TMC3    C3 8680   0.169   3.456  15.374 -0.3175 -0.1681 -0.2708
  582TMC3    C4 8681   0.086   3.359  15.127  0.2458 -0.6481 -0.1730
  582TMC3    C5 8682   0.011   3.337  15.240 -0.1822 -0.1026  0.6551
  582TMC3    C6 8683   0.054   3.378  15.366 -0.0404 -0.1145  0.2574
  582TMC3     C 8684   0.263   3.488  15.022 -0.1529  0.1200 -0.2916
  582TMC3     O 8685   0.380   3.521  15.013  0.5498  0.0402  0.3228
  582TMC3     H 8686   0.331   3.544  15.262  1.3308 -1.6422  0.4173
  582TMC3    H1 8687   0.041   3.338  15.031 -0.7137 -1.2879  0.4239
  582TMC3    H2 8688   4.723   3.366  15.451 -0.9008  1.6725 -0.1696
  582TMC3    C7 8689   4.604   3.314  15.229 -0.2537 -0.1106  0.2456
  582TMC3    C8 8690   0.183   3.550  15.485 -0.6280 -0.0981 -0.2557
  582TMC3    O1 8691   4.566   3.206  15.188 -0.0705 -0.1506 -0.1157
  582TMC3    O2 8692   0.090   3.546  15.567  0.3595  0.2660 -0.1976
  583MPD2     C 8693   4.442   0.456  16.521  0.2957 -0.0148  0.7403
  583MPD2    C1 8694   4.471   0.583  16.472 -0.7491  0.5961 -0.1265
  583MPD2    C2 8695   4.432   0.690  16.554  0.7889 -0.0790 -0.3791
  583MPD2    C3 8696   4.383   0.676  16.684  0.3974 -0.3206  0.3960
  583MPD2    C4 8697   4.366   0.553  16.730 -0.2854 -0.1999  0.0478
  583MPD2    C5 8698   4.387   0.448  16.647  0.0339 -0.2134 -0.2254
  583MPD2     H 8699   4.445   0.791  16.518  1.6785  0.1272  0.4965
  583MPD2    H1 8700   4.339   0.529  16.832 -1.6277  0.7008 -0.0978
  583MPD2    H2 8701   4.478   0.366  16.471 -0.6060  0.0040  0.0455
  583MPD2    H3 8702   4.381   0.347  16.687 -1.1359 -0.4881 -1.1259
  583MPD2     N 8703   4.365   0.790  16.763 -0.4853  0.0556  0.1183
  583MPD2    H5 8704   4.382   0.878  16.717 -1.7660  0.2207 -0.0375
  583MPD2    N1 8705   4.539   0.615  16.347  0.1440 -0.6143  0.3813
  583MPD2    H7 8706   4.559   0.713  16.330  1.2406 -1.0633 -0.9271
  584TMC3    C1 8707   4.314   0.930  16.938 -0.9814 -0.5574 -0.3086
  584TMC3    C2 8708   4.360   1.030  16.860 -0.0551 -0.0722  0.2039
  584TMC3    C3 8709   4.357   1.160  16.907  0.3674  0.0597  0.5558
  584TMC3    C4 8710   4.269   0.958  17.067 -0.3142 -0.0838 -0.2177
  584TMC3    C5 8711   4.278   1.090  17.114  0.1827  0.1875  0.5858
  584TMC3    C6 8712   4.311   1.194  17.031  0.1361  0.2845 -0.1443
  584TMC3     C 8713   4.322   0.793  16.893  0.5355 -0.0104 -0.3246
  584TMC3     O 8714   4.270   0.706  16.964  0.1092  0.2601  0.2017
  584TMC3     H 8715   4.411   1.019  16.765 -1.0903  1.1992 -0.5146
  584TMC3    H1 8716   4.230   0.883  17.135 -0.1403 -0.6432 -0.7351
  584TMC3    H2 8717   4.315   1.293  17.075  4.5435  0.3578 -0.7000
  584TMC3    C7 8718   4.256   1.110  17.261  0.3091 -0.5504 -0.3642
  584TMC3    C8 8719   4.383   1.265  16.807 -0.1878  0.0441  0.1651
  584TMC3    O1 8720   4.284   1.011  17.332  0.2092 -0.2794 -0.3669
  584TMC3    O2 8721   4.365   1.243  16.687 -0.0986 -0.0631 -0.4683
  585MPD2     C 8722   3.247   0.095   0.358  0.3653 -0.4083 -0.4545
  585MPD2    C1 8723   3.289   0.070   0.229  0.3072  0.0664 -1.0249
  585MPD2    C2 8724   3.324   4.676   0.186 -0.2820  0.7827  0.3909
  585MPD2    C3 8725   3.320   4.572   0.280 -0.6929 -0.2341  0.1360
  585MPD2    C4 8726   3.285   4.602   0.410 -0.0306  0.5065  0.1701
  585MPD2    C5 8727   3.237   4.730   0.452 -0.0894  0.7496  0.4969
  585MPD2     H 8728   3.360   4.666   0.085 -0.5089  2.5708  0.1213
  585MPD2    H1 8729   3.299   4.530   0.490  0.7660  0.5410  0.0695
  585MPD2    H2 8730   3.211   0.194   0.383  0.7415 -0.3512 -0.1439
  585MPD2    H3 8731   3.210   0.002   0.557 -1.4609 -0.9462  0.2623
  585MPD2     N 8732   3.359   4.440   0.256  0.0092 -0.0046  0.0650
  585MPD2    H5 8733   3.339   4.373   0.330 -0.6336 -0.0420 -0.1465
  585MPD2    N1 8734   3.295   0.192   0.152  0.2919 -0.5001 -0.3622
  585MPD2    H7 8735   3.277   0.279   0.200  1.6970 -0.8966  0.8847
  586TMC3    C1 8736   3.452   4.254   0.141 -0.0229 -0.3421 -0.3687
  586TMC3    C2 8737   3.552   4.210   0.057 -0.0650 -0.0184  0.1525
  586TMC3    C3 8738   3.573   4.078   0.050 -0.1994  0.1668 -0.0427
  586TMC3    C4 8739   3.363   4.168   0.197 -0.5255  0.0683  0.2301
  586TMC3    C5 8740   3.395   4.036   0.190  0.0838 -0.6069 -0.3172
  586TMC3    C6 8741   3.501   3.989   0.120 -0.4955  0.3282 -0.1333
  586TMC3     C 8742   3.431   4.403   0.144  0.2168  0.4662 -0.8778
  586TMC3     O 8743   3.481   4.470   0.051  0.2539  0.1260 -0.0040
  586TMC3     H 8744   3.611   4.270  17.731  2.1679 -0.8838  1.3417
  586TMC3    H1 8745   3.278   4.206   0.252 -0.3440  0.7062  0.0745
  586TMC3    H2 8746   3.509   3.882   0.100  0.4105  0.2064  0.9264
  586TMC3    C7 8747   3.290   3.937   0.190 -0.0391  0.2601  0.1545
  586TMC3    C8 8748   3.638   4.028  17.670  0.5185 -0.0071  0.1720
  586TMC3    O1 8749   3.312   3.834   0.249  0.5215  0.2143  0.0119
  586TMC3    O2 8750   3.670   3.912  17.675  0.3142  0.8609  0.3248
  587TMC3    C1 8751   1.076   3.277  16.227 -0.0621 -0.3681  0.4925
  587TMC3    C2 8752   1.043   3.290  16.362  1.3011  0.2726 -0.4022
  587TMC3    C3 8753   1.144   3.283  16.450 -0.3539  0.5909 -0.1791
  587TMC3    C4 8754   1.209   3.264  16.187 -0.2027  0.3927 -0.6643
  587TMC3    C5 8755   1.306   3.255  16.288 -0.2816  0.5301  0.2061
  587TMC3    C6 8756   1.278   3.255  16.420 -0.2350  0.2149 -0.2557
  587TMC3     C 8757   0.972   3.293  16.125 -0.3336  0.5293  0.9400
  587TMC3     O 8758   0.996   3.345  16.017  0.2196 -0.0510 -0.3121
  587TMC3     H 8759   0.939   3.302  16.389  0.8210 -1.0425 -1.6606
  587TMC3    H1 8760   1.238   3.262  16.083  1.5248 -1.0159 -0.1421
  587TMC3    H2 8761   1.356   3.258  16.496  1.1922  1.3155 -1.7595
  587TMC3    C7 8762   1.421   3.188  16.246 -0.4059 -0.1228 -0.9542
  587TMC3    C8 8763   1.114   3.299  16.589  0.0438 -0.8781 -0.0350
  587TMC3    O1 8764   1.407   3.121  16.142  0.2111 -0.0152 -0.1628
  587TMC3    O2 8765   1.194   3.253  16.667  0.3113  0.2171 -0.0191
  588TMC3    C1 8766   2.937   0.860   9.809 -1.2718 -1.1688 -0.0262
  588TMC3    C2 8767   2.932   0.728   9.772  0.1885  0.4462 -0.4830
  588TMC3    C3 8768   3.012   0.636   9.829 -0.2205 -0.1753 -0.0993
  588TMC3    C4 8769   3.028   0.900   9.902  0.8601  0.4818  0.6088
  588TMC3    C5 8770   3.102   0.808   9.962 -0.0774 -0.0586  0.2809
  588TMC3    C6 8771   3.094   0.674   9.932  0.2277 -0.2640 -0.8139
  588TMC3     C 8772   2.887   0.968   9.724  0.1391  0.1281 -0.9188
  588TMC3     O 8773   2.858   0.931   9.610 -0.2320 -0.0367 -0.6323
  588TMC3     H 8774   2.848   0.691   9.715 -0.8556 -2.8161  3.1292
  588TMC3    H1 8775   3.035   1.005   9.929  4.1992  0.4694 -0.1769
  588TMC3    H2 8776   3.152   0.606   9.993 -1.7889  1.8135  3.3573
  588TMC3    C7 8777   3.208   0.850  10.046 -0.2105  0.1823 -0.4655
  588TMC3    C8 8778   2.965   0.499   9.818  0.1730  0.7172  0.2655
  588TMC3    O1 8779   3.223   0.786  10.149 -0.4995 -0.6492 -0.0772
  588TMC3    O2 8780   2.851   0.480   9.765 -0.5329 -0.4697  0.3317
  589TMC3    C1 8781   2.664   2.926   1.223 -0.4090  0.5508  0.2716
  589TMC3    C2 8782   2.780   2.941   1.298 -0.1109 -0.2268  0.5098
  589TMC3    C3 8783   2.892   2.878   1.253 -0.0896 -0.0384 -0.0136
  589TMC3    C4 8784   2.662   2.844   1.107  0.0571  0.1901 -0.7048
  589TMC3    C5 8785   2.778   2.782   1.073 -0.1453  0.0972  0.3470
  589TMC3    C6 8786   2.889   2.786   1.152  0.2582 -0.7713  0.1003
  589TMC3     C 8787   2.546   3.011   1.234 -0.3107 -0.0219  0.2535
  589TMC3     O 8788   2.442   2.961   1.197 -0.5644  0.0850 -0.4145
  589TMC3     H 8789   2.784   3.006   1.385 -1.4038  0.2926  0.1842
  589TMC3    H1 8790   2.565   2.834   1.060  0.0899  1.5764 -1.0593
  589TMC3    H2 8791   2.984   2.749   1.116  1.2038  2.1613 -0.3808
  589TMC3    C7 8792   2.768   2.658   0.997 -0.3901 -0.8049 -0.1263
  589TMC3    C8 8793   3.008   2.881   1.341  0.9393 -0.0393  0.2124
  589TMC3    O1 8794   2.857   2.577   1.001 -0.0372 -0.2589 -0.2563
  589TMC3    O2 8795   2.988   2.941   1.448 -0.2346 -0.3812  0.0997
  590MPD2     C 8796   2.117   1.135  16.323  0.2701 -0.4269  0.3448
  590MPD2    C1 8797   2.061   1.262  16.288  0.3323  0.2102  0.7004
  590MPD2    C2 8798   2.131   1.349  16.211  0.6239  0.3535  0.0373
  590MPD2    C3 8799   2.254   1.307  16.157 -0.2482  0.0320  0.4740
  590MPD2    C4 8800   2.299   1.188  16.189  0.0042 -0.5161 -0.2755
  590MPD2    C5 8801   2.240   1.100  16.275 -0.2469 -0.4068 -0.3458
  590MPD2     H 8802   2.090   1.444  16.179  2.5108  1.0803 -0.2771
  590MPD2    H1 8803   2.393   1.146  16.153 -0.9636 -3.0128  0.0663
  590MPD2    H2 8804   2.060   1.070  16.388  0.7376 -0.2473  0.9290
  590MPD2    H3 8805   2.281   1.004  16.305  0.3877 -0.0057  0.0680
  590MPD2     N 8806   2.309   1.398  16.067 -0.2033 -0.8588 -0.1429
  590MPD2    H5 8807   2.250   1.479  16.048  0.0829 -0.6108  0.0276
  590MPD2    N1 8808   1.933   1.318  16.330 -0.2094 -0.0811  0.1334
  590MPD2    H7 8809   1.907   1.407  16.289  0.2019 -0.6769 -1.4202
  591TMC3    C1 8810   2.465   1.511  15.933 -0.0726  0.5690 -0.2471
  591TMC3    C2 8811   2.586   1.511  15.886  0.7350  0.5641  0.4345
  591TMC3    C3 8812   2.623   1.631  15.833 -0.2167  0.2985  0.2793
  591TMC3    C4 8813   2.377   1.623  15.945  0.4705 -0.4528 -0.4183
  591TMC3    C5 8814   2.422   1.737  15.882 -0.9810 -0.2861  0.2531
  591TMC3    C6 8815   2.549   1.746  15.838 -0.3682 -0.3993 -0.7038
  591TMC3     C 8816   2.435   1.387  16.010 -0.7878  0.3015 -0.5820
  591TMC3     O 8817   2.527   1.314  16.051 -0.1265 -0.0157  0.6961
  591TMC3     H 8818   2.635   1.419  15.858  1.8329  1.2653  0.0511
  591TMC3    H1 8819   2.280   1.621  15.993  0.7928  0.7975  0.2913
  591TMC3    H2 8820   2.589   1.833  15.787 -2.5511  0.5517 -0.7955
  591TMC3    C7 8821   2.367   1.859  15.942 -0.5662  0.4046 -0.0195
  591TMC3    C8 8822   2.732   1.618  15.732  0.2230  0.7042  0.1598
  591TMC3    O1 8823   2.278   1.842  16.022 -0.7437  0.2898  0.2911
  591TMC3    O2 8824   2.750   1.510  15.672 -0.1420 -0.3498  0.0864
  592MPD2     C 8825   2.328   3.651  11.308 -0.5470 -0.1548 -0.3222
  592MPD2    C1 8826   2.405   3.648  11.427  1.1283 -0.2054 -0.6988
  592MPD2    C2 8827   2.387   3.545  11.519 -0.6325  0.2467 -0.0705
  592MPD2    C3 8828   2.299   3.442  11.492 -0.1826  0.2008 -0.2089
  592MPD2    C4 8829   2.221   3.451  11.378  0.0859 -0.1736 -0.7780
  592MPD2    C5 8830   2.238   3.555  11.288  0.0469 -1.0432 -0.2842
  592MPD2     H 8831   2.452   3.534  11.605  0.3339  1.8474 -0.5942
  592MPD2    H1 8832   2.144   3.379  11.352  0.7419 -0.4453 -1.9390
  592MPD2    H2 8833   2.336   3.725  11.230 -0.2168  1.1081  0.8995
  592MPD2    H3 8834   2.172   3.551  11.202 -0.0374  1.4289 -0.3300
  592MPD2     N 8835   2.286   3.342  11.590 -0.3327  0.3242 -0.3387
  592MPD2    H5 8836   2.347   3.342  11.672 -0.3092  0.3984 -0.3560
  592MPD2    N1 8837   2.503   3.748  11.439 -0.4172 -0.6072 -0.3408
  592MPD2    H7 8838   2.504   3.812  11.360 -0.6120  1.3685  1.2595
  593TMC3    C1 8839   2.643   3.907  11.548  0.0685 -0.7709  0.2766
  593TMC3    C2 8840   2.670   3.966  11.666 -0.3977 -0.5137 -0.0175
  593TMC3    C3 8841   2.743   4.085  11.665  0.1925 -0.1361 -0.6651
  593TMC3    C4 8842   2.669   3.971  11.427  0.0535  0.0656 -0.2337
  593TMC3    C5 8843   2.721   4.100  11.435  0.2275  0.0297 -0.0537
  593TMC3    C6 8844   2.753   4.162  11.553 -0.4305  0.1087  0.2522
  593TMC3     C 8845   2.574   3.778  11.556  0.2816  0.1817 -0.6201
  593TMC3     O 8846   2.563   3.724  11.664  0.5579  0.0605  0.1062
  593TMC3     H 8847   2.648   3.913  11.758  0.1940  0.6460  0.7894
  593TMC3    H1 8848   2.664   3.911  11.337 -0.2806  1.2736 -1.0184
  593TMC3    H2 8849   2.802   4.259  11.548 -0.6105  0.0693 -2.6929
  593TMC3    C7 8850   2.777   4.157  11.313  0.2629 -0.6030  0.2360
  593TMC3    C8 8851   2.770   4.147  11.792 -0.0512 -0.1099 -0.2311
  593TMC3    O1 8852   2.862   4.243  11.335  0.8914  0.3540  0.7639
  593TMC3    O2 8853   2.705   4.094  11.882 -1.1564  0.0105  0.1306
  594MPD2     C 8854   1.749   2.363  13.986  0.3439  0.4859  0.2219
  594MPD2    C1 8855   1.735   2.351  14.123  0.3529 -0.5493  0.4725
  594MPD2    C2 8856   1.817   2.414  14.213 -0.1352  0.3061 -0.5365
  594MPD2    C3 8857   1.931   2.479  14.166  0.2189  0.4124  0.5387
  594MPD2    C4 8858   1.955   2.471  14.030 -0.6492 -0.3237  0.3609
  594MPD2    C5 8859   1.862   2.423  13.937  0.1936  0.1565 -0.2809
  594MPD2     H 8860   1.807   2.404  14.320 -0.7439  2.1390 -0.4263
  594MPD2    H1 8861   2.038   2.518  13.979 -0.0434 -1.6062  0.1683
  594MPD2    H2 8862   1.687   2.321  13.908  2.6688 -0.6874 -0.9972
  594MPD2    H3 8863   1.886   2.428  13.832 -0.6879 -0.5808 -0.5219
  594MPD2     N 8864   2.014   2.537  14.264  0.4566 -0.1323  0.4412
  594MPD2    H5 8865   1.986   2.541  14.361  0.8776  1.5647  0.4900
  594MPD2    N1 8866   1.615   2.285  14.161  0.0179  0.1596 -0.1784
  594MPD2    H7 8867   1.562   2.245  14.083 -0.1166 -1.5861  0.8115
  595TMC3    C1 8868   2.380   2.765  14.457 -0.2594  0.4253 -0.6865
  595TMC3    C2 8869   2.332   2.682  14.353 -0.0301 -0.2151 -0.8526
  595TMC3    C3 8870   2.198   2.660  14.353 -0.1529 -0.2523  0.6329
  595TMC3    C4 8871   2.298   2.807  14.567 -0.2889 -0.2658 -0.7032
  595TMC3    C5 8872   2.167   2.778  14.562 -0.6701  0.1365 -0.2953
  595TMC3    C6 8873   2.117   2.702  14.459  0.7122 -0.0162 -0.6128
  595TMC3     C 8874   2.510   2.834  14.458  0.0100 -0.5619 -0.3113
  595TMC3     O 8875   2.543   2.898  14.556  0.2120  0.0166  0.0733
  595TMC3     H 8876   2.403   2.651  14.278 -0.2067  1.5221 -1.7176
  595TMC3    H1 8877   2.338   2.874  14.642  1.3640  0.9783 -2.6824
  595TMC3    H2 8878   2.019   2.657  14.463  0.5233  0.3128 -1.4787
  595TMC3    C7 8879   2.063   2.857  14.626 -0.2723 -0.4954 -0.6624
  595TMC3    C8 8880   2.135   2.598  14.239 -0.0304  0.2673  0.0437
  595TMC3    O1 8881   1.954   2.847  14.569 -0.1837  0.2032  0.0517
  595TMC3    O2 8882   2.207   2.589  14.139  0.1237  0.1422  0.0550
  596MPD2     C 8883   0.484   0.424  16.571  0.3885 -0.3487 -0.2347
  596MPD2    C1 8884   0.532   0.543  16.520 -0.4065  0.1536 -0.0458
  596MPD2    C2 8885   0.582   0.543  16.393 -0.1395 -0.6742  0.1201
  596MPD2    C3 8886   0.574   0.438  16.302  0.4599 -0.2545  0.0687
  596MPD2    C4 8887   0.548   0.318  16.367  0.0355 -0.2083 -0.3681
  596MPD2    C5 8888   0.499   0.313  16.491  0.1541  0.3217 -0.6035
  596MPD2     H 8889   0.614   0.642  16.361 -1.5953  0.0701  1.0076
  596MPD2    H1 8890   0.550   0.230  16.305  0.6802 -1.0144  0.8148
  596MPD2    H2 8891   0.435   0.422  16.668  0.4430 -2.6042 -0.2621
  596MPD2    H3 8892   0.462   0.218  16.528 -1.3015 -0.0165 -2.9529
  596MPD2     N 8893   0.582   0.453  16.161 -0.0956  0.4893  0.8422
  596MPD2    H5 8894   0.573   0.373  16.099  0.6174  1.3241 -0.3349
  596MPD2    N1 8895   0.536   0.666  16.584 -0.4194  0.2467  0.3854
  596MPD2    H7 8896   0.564   0.745  16.528 -1.4961 -0.2612 -0.8753
  597TMC3    C1 8897   0.500   0.822  16.739  0.1570 -0.4242 -0.3629
  597TMC3    C2 8898   0.546   0.921  16.653  0.1645 -0.0186 -0.0819
  597TMC3    C3 8899   0.501   1.050  16.671  0.2742 -0.3444 -0.2143
  597TMC3    C4 8900   0.419   0.849  16.839  0.4413  0.2264 -0.2009
  597TMC3    C5 8901   0.376   0.978  16.852 -0.6818 -0.7332  0.1765
  597TMC3    C6 8902   0.409   1.086  16.772 -0.3922 -0.3759 -0.2112
  597TMC3     C 8903   0.491   0.686  16.711 -0.3105 -0.0608  0.0351
  597TMC3     O 8904   0.469   0.608  16.801  0.9587  0.8605  0.2127
  597TMC3     H 8905   0.636   0.898  16.597 -0.9183 -1.2234 -1.3118
  597TMC3    H1 8906   0.393   0.775  16.914  1.2789  0.2576  0.1215
  597TMC3    H2 8907   0.361   1.183  16.778 -2.3327 -1.2997 -0.9114
  597TMC3    C7 8908   0.300   1.003  16.974 -0.6994  0.2734  0.3587
  597TMC3    C8 8909   0.541   1.160  16.587  0.2743 -0.1288 -0.1381
  597TMC3    O1 8910   0.246   0.907  17.034 -0.1364 -0.2720  0.0867
  597TMC3    O2 8911   0.486   1.271  16.599  0.1581  0.1561  0.2774
  598TMC3    C1 8912   3.430   2.061  15.094  0.3815 -0.1615  0.3211
  598TMC3    C2 8913   3.299   2.014  15.073  0.0859 -0.1483 -0.8444
  598TMC3    C3 8914   3.237   2.047  14.953  0.0187  0.8621 -0.3279
  598TMC3    C4 8915   3.494   2.119  14.987 -0.0040  0.5769  0.4835
  598TMC3    C5 8916   3.420   2.162  14.874 -0.1340 -0.4249  0.6784
  598TMC3    C6 8917   3.294   2.118  14.856  0.7186 -0.3930  0.0081
  598TMC3     C 8918   3.511   1.954  15.158 -0.6517 -0.1073 -0.0969
  598TMC3     O 8919   3.601   1.906  15.089 -0.7961 -0.1552 -0.0498
  598TMC3     H 8920   3.251   1.950  15.146  1.6473  2.8822  2.8713
  598TMC3    H1 8921   3.594   2.159  14.995 -0.4411  1.4203  1.7006
  598TMC3    H2 8922   3.250   2.136  14.758 -1.5022 -1.1638  0.8613
  598TMC3    C7 8923   3.491   2.226  14.765  0.1093 -0.7530  0.4147
  598TMC3    C8 8924   3.102   2.007  14.919 -0.1833 -1.0447  0.1837
  598TMC3    O1 8925   3.433   2.220  14.656  0.1388  0.1840  0.1231
  598TMC3    O2 8926   3.062   2.052  14.811  0.7594  0.3350  0.0999
  599MPD2     C 8927   3.425   3.989  15.432  0.0185 -0.4968  0.3856
  599MPD2    C1 8928   3.508   4.003  15.541 -1.0111  0.1820 -0.2393
  599MPD2    C2 8929   3.467   4.075  15.658 -0.2589 -1.0623  0.2006
  599MPD2    C3 8930   3.338   4.128  15.667 -0.6729  0.1478 -0.4692
  599MPD2    C4 8931   3.262   4.116  15.552  0.0852 -0.2533  0.1452
  599MPD2    C5 8932   3.305   4.041  15.439 -0.1217 -0.6805 -0.2822
  599MPD2     H 8933   3.530   4.069  15.746  0.7905  0.0452 -0.4742
  599MPD2    H1 8934   3.161   4.155  15.547  1.2396  2.9417  1.1907
  599MPD2    H2 8935   3.448   3.947  15.335 -2.2920 -1.2420  0.1768
  599MPD2    H3 8936   3.236   4.035  15.355  0.5238 -0.0413 -0.8642
  599MPD2     N 8937   3.287   4.199  15.777  0.7087 -0.4082  0.8579
  599MPD2    H5 8938   3.189   4.226  15.770  0.6071 -0.9797 -0.0005
  599MPD2    N1 8939   3.634   3.943  15.521  0.2229 -0.8457  0.3105
  599MPD2    H7 8940   3.660   3.893  15.436 -2.6749  1.0569 -1.7184
  600TMC3    C1 8941   3.263   4.299  15.985  0.4083 -0.6030  0.1369
  600TMC3    C2 8942   3.153   4.232  16.013  0.7051 -0.1969  0.5442
  600TMC3    C3 8943   3.107   4.250  16.139  0.3114  0.2799 -0.4445
  600TMC3    C4 8944   3.310   4.396  16.076 -0.2196 -0.1768  0.0901
  600TMC3    C5 8945   3.257   4.419  16.193  0.2833 -0.4668 -0.5346
  600TMC3    C6 8946   3.150   4.342  16.232 -0.0750  0.1283  0.3899
  600TMC3     C 8947   3.355   4.245  15.884  0.5272  0.6592 -0.4657
  600TMC3     O 8948   3.476   4.258  15.898 -0.0354 -0.1663  0.2318
  600TMC3     H 8949   3.132   4.144  15.953 -1.6650  1.5596 -1.1989
  600TMC3    H1 8950   3.394   4.457  16.043 -2.4691  1.5032 -2.5059
  600TMC3    H2 8951   3.102   4.357  16.328 -0.1453  1.6261  0.1159
  600TMC3    C7 8952   3.252   4.553  16.249  0.0182 -0.0877  0.7474
  600TMC3    C8 8953   3.014   4.150  16.208 -0.3199  0.0579  0.2748
  600TMC3    O1 8954   3.156   4.578  16.320 -0.1946  0.0805 -0.1622
  600TMC3    O2 8955   3.010   4.154  16.328  0.0397 -0.8224  0.5842
  601MPD2     C 8956   1.128   3.249   0.329 -1.3700  0.5506 -0.5866
  601MPD2    C1 8957   1.000   3.198   0.313  0.8519  0.1137 -0.5133
  601MPD2    C2 8958   0.970   3.087   0.389  0.2642 -0.5476 -0.1511
  601MPD2    C3 8959   1.067   3.011   0.458 -0.3404  0.3635  0.2040
  601MPD2    C4 8960   1.195   3.057   0.452  0.2243  1.0685 -0.0306
  601MPD2    C5 8961   1.222   3.180   0.402  0.2211  0.1793  0.3710
  601MPD2     H 8962   0.864   3.069   0.400  0.5381 -1.9545  0.1855
  601MPD2    H1 8963   1.272   2.998   0.500  0.9928  1.8591 -0.3025
  601MPD2    H2 8964   1.168   3.339   0.283 -0.7197 -0.2046 -1.4934
  601MPD2    H3 8965   1.325   3.215   0.402 -0.5840  2.5588 -1.0681
  601MPD2     N 8966   1.040   2.897   0.536 -0.2804  0.4979 -0.1619
  601MPD2    H5 8967   1.124   2.848   0.566 -1.0804  0.1330  1.4219
  601MPD2    N1 8968   0.903   3.254   0.231  0.2974  1.3371 -0.5475
  601MPD2    H7 8969   0.815   3.204   0.227  1.4809 -0.6230 -2.1044
  602TMC3    C1 8970   0.812   3.370   0.063 -0.0782  0.0351 -0.4479
  602TMC3    C2 8971   0.756   3.496   0.040  0.0729  0.3352  0.9321
  602TMC3    C3 8972   0.620   3.488   0.015 -0.1495 -0.3944  0.7088
  602TMC3    C4 8973   0.740   3.256   0.043 -0.0501 -0.2621 -0.0647
  602TMC3    C5 8974   0.609   3.257   0.000 -0.3766 -0.2314  0.6530
  602TMC3    C6 8975   0.540   3.375   0.005  0.2755 -0.1846 -0.0602
  602TMC3     C 8976   0.919   3.368   0.159  0.4259 -0.3584 -0.0552
  602TMC3     O 8977   0.981   3.478   0.176  0.0188 -0.1653 -0.1039
  602TMC3     H 8978   0.807   3.591   0.036 -0.5234  0.6419  0.6475
  602TMC3    H1 8979   0.782   3.157   0.057 -0.6592 -0.5123  0.0445
  602TMC3    H2 8980   0.432   3.373  17.738  0.1325  1.2750  1.2156
  602TMC3    C7 8981   0.547   3.134  17.687 -0.1562  0.3330  0.2761
  602TMC3    C8 8982   0.566   3.606  17.691 -0.3999 -0.4318 -0.3864
  602TMC3    O1 8983   0.601   3.025  17.695 -0.3199  0.3743  0.3410
  602TMC3    O2 8984   0.624   3.714  17.711  0.0078 -0.2099 -0.1949
  603TMC3    C1 8985   2.858   2.846  11.055 -0.0588  0.1437 -0.7802
  603TMC3    C2 8986   2.928   2.741  11.108 -0.8234 -0.3402  0.3586
  603TMC3    C3 8987   3.047   2.704  11.051 -0.4024 -0.0064 -0.3021
  603TMC3    C4 8988   2.910   2.911  10.941  0.3348  0.6666  0.6717
  603TMC3    C5 8989   3.039   2.885  10.906 -0.2198 -0.3540  0.5568
  603TMC3    C6 8990   3.103   2.775  10.951  0.4756  0.6038  0.9411
  603TMC3     C 8991   2.724   2.877  11.084 -0.3888 -0.2582 -0.3392
  603TMC3     O 8992   2.663   2.920  10.985  0.3207 -0.2212  0.3468
  603TMC3     H 8993   2.886   2.669  11.178 -1.0081 -1.9441 -1.4101
  603TMC3    H1 8994   2.853   2.996  10.904  0.8453  0.9253  0.4797
  603TMC3    H2 8995   3.206   2.764  10.917  0.3969  1.8645  0.2878
  603TMC3    C7 8996   3.129   2.994  10.903  1.0173 -0.5045 -0.7574
  603TMC3    C8 8997   3.139   2.626  11.123 -0.4429 -0.3587 -0.3917
  603TMC3    O1 8998   3.226   2.972  10.968  0.4523 -0.2977 -0.1669
  603TMC3    O2 8999   3.103   2.599  11.237 -0.1441 -0.5169 -0.3167
  604MPD2     C 9000   4.398   1.628  16.271  0.6762 -0.4964 -0.2720
  604MPD2    C1 9001   4.435   1.760  16.284 -0.4772 -0.3058  0.7527
  604MPD2    C2 9002   4.514   1.815  16.190 -0.1484 -0.2664 -0.1209
  604MPD2    C3 9003   4.544   1.758  16.068  0.6004  0.5493  0.2931
  604MPD2    C4 9004   4.494   1.636  16.049 -0.4502  0.3698  0.1572
  604MPD2    C5 9005   4.436   1.569  16.156 -1.2247  0.5180  0.2211
  604MPD2     H 9006   4.549   1.915  16.214  0.6806 -0.6127  0.1153
  604MPD2    H1 9007   4.517   1.575  15.962  1.8080  1.0267  0.2802
  604MPD2    H2 9008   4.347   1.564  16.343  0.9163 -0.9325 -0.4913
  604MPD2    H3 9009   4.412   1.464  16.146  0.3661  0.2713 -1.0169
  604MPD2     N 9010   4.628   1.823  15.973 -0.3660 -0.1436 -0.4189
  604MPD2    H5 9011   4.664   1.915  15.997  3.1420 -1.0964 -2.1833
  604MPD2    N1 9012   4.397   1.842  16.394 -0.2494  0.1448  0.4271
  604MPD2    H7 9013   4.431   1.937  16.388 -1.9963  0.6134 -1.7957
  605TMC3    C1 9014   4.244   1.919  16.554 -0.4846 -0.3582  0.0666
  605TMC3    C2 9015   4.342   1.980  16.629  0.4928  0.8177  0.1000
  605TMC3    C3 9016   4.296   2.073  16.718  0.7821 -0.0730  0.0101
  605TMC3    C4 9017   4.109   1.938  16.570  0.7030  0.1525  0.5149
  605TMC3    C5 9018   4.072   2.029  16.664  0.0958 -0.0166 -0.6686
  605TMC3    C6 9019   4.160   2.098  16.742 -0.0414 -0.4022 -0.5859
  605TMC3     C 9020   4.286   1.816  16.468 -0.3801  0.2167  0.2114
  605TMC3     O 9021   4.212   1.715  16.462  0.5581  0.1661  0.0397
  605TMC3     H 9022   4.445   1.945  16.627  0.7147  1.3422  1.7320
  605TMC3    H1 9023   4.043   1.899  16.493  2.8132 -1.1219 -0.6529
  605TMC3    H2 9024   4.124   2.140  16.834  0.7485 -1.2061  0.0925
  605TMC3    C7 9025   3.945   2.094  16.658  0.9616 -0.9198  0.9734
  605TMC3    C8 9026   4.368   2.196  16.698 -0.3703 -0.0630 -0.3149
  605TMC3    O1 9027   3.942   2.213  16.682 -0.3793 -0.4126  0.8987
  605TMC3    O2 9028   4.488   2.193  16.671 -0.7874 -0.0973 -0.4828
  606TMC3    C1 9029   0.830   0.475  16.796  0.8519 -0.9490 -0.7111
  606TMC3    C2 9030   0.846   0.484  16.932 -0.2697 -0.1138  0.1778
  606TMC3    C3 9031   0.794   0.382  17.013 -0.6006  0.1352  0.2970
  606TMC3    C4 9032   0.766   0.370  16.740  0.4101 -0.1729 -0.6581
  606TMC3    C5 9033   0.713   0.273  16.820  0.0118 -0.5101 -0.3882
  606TMC3    C6 9034   0.734   0.277  16.954 -0.1301 -0.0762 -0.5632
  606TMC3     C 9035   0.847   0.596  16.718 -0.1897  0.3958  0.0803
  606TMC3     O 9036   0.873   0.587  16.601  0.1134 -0.3431  0.0693
  606TMC3     H 9037   0.899   0.568  16.976  2.9599 -0.0219 -3.8324
  606TMC3    H1 9038   0.751   0.364  16.633  3.5630 -0.1194 -1.1171
  606TMC3    H2 9039   0.712   0.189  17.014 -2.2451 -0.1697 -1.4782
  606TMC3    C7 9040   0.662   0.147  16.759 -0.0625 -0.2620  1.4063
  606TMC3    C8 9041   0.840   0.366  17.148  0.0397 -0.0696  0.0457
  606TMC3    O1 9042   0.698   0.131  16.643  0.1160  0.0795  0.3928
  606TMC3    O2 9043   0.951   0.407  17.173 -0.7766  0.3698 -0.6021
  607MPD2     C 9044   2.506   3.009  11.797 -0.4883  0.0022 -0.0554
  607MPD2    C1 9045   2.556   3.067  11.909  0.3402 -0.2141  0.3828
  607MPD2    C2 9046   2.546   2.993  12.027 -0.9314  1.0397  0.3980
  607MPD2    C3 9047   2.478   2.875  12.038 -0.0097 -0.0225 -0.0184
  607MPD2    C4 9048   2.425   2.819  11.924  0.5904  0.5473 -0.3306
  607MPD2    C5 9049   2.433   2.890  11.807  0.3969 -0.3077  0.2937
  607MPD2     H 9050   2.590   3.038  12.115 -0.4833  0.4040  0.4989
  607MPD2    H1 9051   2.378   2.721  11.919  0.0969  0.7439  0.5627
  607MPD2    H2 9052   2.505   3.046  11.695 -0.2889 -1.4744 -0.5865
  607MPD2    H3 9053   2.401   2.847  11.713  1.5804 -1.7433  0.5610
  607MPD2     N 9054   2.507   2.811  12.159 -0.3325 -0.4558 -0.0708
  607MPD2    H5 9055   2.554   2.863  12.232 -0.8769  1.1632 -0.8659
  607MPD2    N1 9056   2.618   3.192  11.916 -0.2435 -0.3761  0.7619
  607MPD2    H7 9057   2.680   3.198  11.996  0.4915 -2.7196  0.3511
  608TMC3    C1 9058   2.720   3.394  11.860 -0.1151  1.0687  0.3070
  608TMC3    C2 9059   2.771   3.382  11.986  0.7148 -0.7506  0.9432
  608TMC3    C3 9060   2.870   3.469  12.018 -0.1730  0.2058 -0.2110
  608TMC3    C4 9061   2.765   3.481  11.767 -0.4961  0.1280  0.7996
  608TMC3    C5 9062   2.870   3.560  11.804 -0.0549  0.5644  0.6160
  608TMC3    C6 9063   2.926   3.551  11.929  0.8286  0.2035 -0.4017
  608TMC3     C 9064   2.622   3.289  11.822 -0.0551  0.5047 -0.0333
  608TMC3     O 9065   2.543   3.306  11.728  0.5696  0.0142 -0.3524
  608TMC3     H 9066   2.720   3.337  12.070 -0.2934  0.0503  0.7662
  608TMC3    H1 9067   2.707   3.500  11.678 -1.0626  0.6932  1.2841
  608TMC3    H2 9068   3.008   3.618  11.952  1.4281 -1.0453  1.0362
  608TMC3    C7 9069   2.921   3.654  11.699  0.6912 -0.0079 -0.2593
  608TMC3    C8 9070   2.929   3.456  12.158 -0.3418  0.4022 -0.2653
  608TMC3    O1 9071   2.893   3.617  11.586  0.1655 -0.1275  0.1196
  608TMC3    O2 9072   2.992   3.545  12.210 -0.3854  0.0282 -0.0506
  609TMC3    C1 9073   1.850   2.196   9.473  0.0774  0.3898  0.4937
  609TMC3    C2 9074   1.864   2.094   9.383 -0.8600  0.6366  0.1518
  609TMC3    C3 9075   1.988   2.056   9.349  1.0212  0.3547 -0.2791
  609TMC3    C4 9076   1.960   2.261   9.520  0.3469 -0.1735  0.6783
  609TMC3    C5 9077   2.085   2.231   9.476  0.1020 -0.5883  0.5422
  609TMC3    C6 9078   2.099   2.126   9.390 -0.4517  0.2737  0.5975
  609TMC3     C 9079   1.720   2.236   9.533 -0.2579  0.4274  0.0189
  609TMC3     O 9080   1.641   2.146   9.558 -0.1281 -0.4776 -0.6461
  609TMC3     H 9081   1.776   2.032   9.369 -0.0884 -0.0193 -1.7230
  609TMC3    H1 9082   1.955   2.338   9.596 -2.1324 -0.7029  1.0540
  609TMC3    H2 9083   2.199   2.105   9.354 -1.1289  0.5803 -1.4311
  609TMC3    C7 9084   2.191   2.326   9.492  0.0096 -0.0421 -0.0964
  609TMC3    C8 9085   2.013   1.943   9.258 -0.1544 -0.8499  0.0778
  609TMC3    O1 9086   2.156   2.427   9.550 -0.1343  0.7268 -0.3600
  609TMC3    O2 9087   2.127   1.903   9.255  0.5260  0.3516 -0.0521
  610TMC3    C1 9088   3.294   3.386  13.297 -0.2173  0.1230 -0.8026
  610TMC3    C2 9089   3.375   3.479  13.362 -0.0315 -0.1493 -0.8171
  610TMC3    C3 9090   3.512   3.467  13.360 -0.1174  0.8525  0.6794
  610TMC3    C4 9091   3.349   3.278  13.234 -0.3431  0.8759  0.2829
  610TMC3    C5 9092   3.486   3.289  13.229  0.2975 -1.1115 -0.6302
  610TMC3    C6 9093   3.571   3.375  13.282 -0.2086 -0.1582 -0.4355
  610TMC3     C 9094   3.150   3.414  13.309 -0.2340  0.4657  0.2642
  610TMC3     O 9095   3.117   3.521  13.361 -0.2993 -0.1921  0.0613
  610TMC3     H 9096   3.317   3.563  13.398  0.8758 -0.1635  0.6840
  610TMC3    H1 9097   3.297   3.202  13.178  0.6463  0.1344  0.3694
  610TMC3    H2 9098   3.679   3.366  13.284 -0.2790 -0.4662  1.4543
  610TMC3    C7 9099   3.560   3.191  13.155 -1.0177  0.4342 -0.6941
  610TMC3    C8 9100   3.590   3.554  13.442 -0.4190 -0.3273 -0.3235
  610TMC3    O1 9101   3.515   3.077  13.146 -0.0267 -0.4274  0.1436
  610TMC3    O2 9102   3.711   3.536  13.426  0.0369  0.4226 -0.2139
  611MPD2     C 9103   2.413   3.702   9.967  0.3796 -0.3853  0.1466
  611MPD2    C1 9104   2.466   3.592  10.033  0.1922 -0.0359  0.0418
  611MPD2    C2 9105   2.591   3.603  10.096  0.2949  0.7801  1.0423
  611MPD2    C3 9106   2.657   3.722  10.093 -0.5190  0.1917  0.2118
  611MPD2    C4 9107   2.599   3.825  10.030 -0.7379  0.2597 -0.4741
  611MPD2    C5 9108   2.482   3.814   9.956 -0.2490  0.2219  0.5139
  611MPD2     H 9109   2.631   3.518  10.150 -1.4694 -0.2219  0.7440
  611MPD2    H1 9110   2.640   3.925  10.037  0.4574 -0.2355 -0.3647
  611MPD2    H2 9111   2.318   3.703   9.916  2.2245 -0.5404 -3.2764
  611MPD2    H3 9112   2.437   3.901   9.910 -1.1480 -0.0539  0.8693
  611MPD2     N 9113   2.786   3.739  10.154  0.2205  0.2509 -0.3546
  611MPD2    H5 9114   2.830   3.831  10.148  2.6575 -1.0803 -2.5732
  611MPD2    N1 9115   2.378   3.471  10.026  0.0410 -0.4841  0.2616
  611MPD2    H7 9116   2.283   3.483   9.990 -0.6977 -3.1196  1.3730
  612TMC3    C1 9117   2.959   3.706  10.307  0.5506  0.6124 -0.0653
  612TMC3    C2 9118   2.997   3.669  10.427 -0.8059 -0.3198 -0.4436
  612TMC3    C3 9119   3.109   3.724  10.474  0.4963  0.0764 -0.2095
  612TMC3    C4 9120   3.049   3.765  10.220 -0.5017  0.0209 -0.7440
  612TMC3    C5 9121   3.166   3.812  10.271  0.2828 -0.0898  0.0484
  612TMC3    C6 9122   3.197   3.796  10.399 -0.3628  0.4039 -0.3598
  612TMC3     C 9123   2.838   3.657  10.256 -0.9519  0.4109 -0.3791
  612TMC3     O 9124   2.798   3.554  10.306  0.1683  0.0473 -0.0728
  612TMC3     H 9125   2.917   3.633  10.491 -0.3832 -0.1887  0.1582
  612TMC3    H1 9126   3.031   3.781  10.115 -0.0451 -0.4125 -0.8895
  612TMC3    H2 9127   3.290   3.838  10.435  1.0626 -2.6948 -0.3632
  612TMC3    C7 9128   3.270   3.830  10.175 -0.5673  0.1706  0.6467
  612TMC3    C8 9129   3.166   3.667  10.591  0.3655 -0.0438  0.0015
  612TMC3    O1 9130   3.379   3.790  10.213 -0.6158 -0.2899  0.0107
  612TMC3    O2 9131   3.258   3.733  10.636 -0.7755  0.2252  0.1464
  613MPD2     C 9132   1.983   0.266  16.602  0.5250 -0.4883 -0.2330
  613MPD2    C1 9133   2.056   0.247  16.487 -0.1062  0.6689 -0.2252
  613MPD2    C2 9134   2.020   0.141  16.401 -0.2431 -0.1148  0.1936
  613MPD2    C3 9135   1.909   0.062  16.424  0.4695  0.3168  0.0803
  613MPD2    C4 9136   1.828   0.082  16.536 -0.5618 -0.0984 -0.8046
  613MPD2    C5 9137   1.867   0.188  16.622  0.3333 -0.0052  0.0803
  613MPD2     H 9138   2.068   0.116  16.307 -0.6629  2.2348 -0.6473
  613MPD2    H1 9139   1.744   0.019  16.561  0.5933 -1.2376  0.2634
  613MPD2    H2 9140   2.008   0.333  16.683  1.4229 -0.9731 -0.1021
  613MPD2    H3 9141   1.804   0.203  16.709 -0.3854  1.3263 -0.6694
  613MPD2     N 9142   1.900   4.688  16.337 -0.0797 -0.0674 -0.3519
  613MPD2    H5 9143   1.969   4.679  16.263 -0.6701 -1.6536 -0.7037
  613MPD2    N1 9144   2.157   0.341  16.459  0.1428 -0.6242 -0.2921
  613MPD2    H7 9145   2.162   0.415  16.528 -1.3095 -0.6367 -0.1603
  614TMC3    C1 9146   2.299   0.483  16.319 -0.9548 -0.0652  0.8014
  614TMC3    C2 9147   2.371   0.466  16.206  0.0659  0.5041 -0.0064
  614TMC3    C3 9148   2.350   0.537  16.098 -0.3609 -0.3326 -0.2986
  614TMC3    C4 9149   2.210   0.588  16.320 -0.4751  0.3736 -0.3149
  614TMC3    C5 9150   2.185   0.659  16.203 -0.1341  0.3673  0.1492
  614TMC3    C6 9151   2.259   0.639  16.090  0.2947 -0.3629  0.6135
  614TMC3     C 9152   2.237   0.352  16.348 -0.1055  1.0390 -0.5408
  614TMC3     O 9153   2.249   0.275  16.253 -0.2833 -0.1229  1.0020
  614TMC3     H 9154   2.445   0.386  16.204  0.6573  1.1014 -1.4057
  614TMC3    H1 9155   2.145   0.605  16.404  1.5914  0.3101  1.2972
  614TMC3    H2 9156   2.245   0.697  16.000 -1.5615  1.6219  2.1684
  614TMC3    C7 9157   2.070   0.750  16.208 -0.0652  0.7046  0.3906
  614TMC3    C8 9158   2.358   0.462  15.971  0.0480 -0.0147  0.2091
  614TMC3    O1 9159   2.049   0.802  16.319 -0.1370 -0.5661  0.3145
  614TMC3    O2 9160   2.402   0.517  15.871  0.5783  0.0129  0.1031
  615MPD2     C 9161   1.172   1.822  16.234  0.3943  1.0681 -0.0866
  615MPD2    C1 9162   1.147   1.949  16.197  0.4946 -0.0153 -0.1862
  615MPD2    C2 9163   1.058   1.959  16.089 -0.6846  0.1405  0.3807
  615MPD2    C3 9164   1.005   1.839  16.029 -0.6439 -0.0085 -1.0725
  615MPD2    C4 9165   1.034   1.712  16.075  0.4465  0.2862  0.6269
  615MPD2    C5 9166   1.112   1.710  16.186 -0.0313  0.3182  0.4715
  615MPD2     H 9167   1.038   2.059  16.051 -0.2538  0.6879  1.5836
  615MPD2    H1 9168   1.006   1.616  16.033 -0.8341  0.3080  1.4186
  615MPD2    H2 9169   1.230   1.800  16.323 -2.0967  1.4575  1.6738
  615MPD2    H3 9170   1.133   1.610  16.221  1.3515  0.7200  0.7647
  615MPD2     N 9171   0.928   1.850  15.913 -0.0907 -0.9680 -0.2389
  615MPD2    H5 9172   0.912   1.938  15.865  0.7874 -1.1893 -0.9492
  615MPD2    N1 9173   1.199   2.071  16.250 -0.4229 -0.4490 -0.4050
  615MPD2    H7 9174   1.148   2.152  16.215  0.3923 -0.0387 -0.6475
  616TMC3    C1 9175   1.329   2.216  16.393 -0.5838  0.5579 -0.8228
  616TMC3    C2 9176   1.443   2.218  16.473  0.3140 -0.4415  0.7388
  616TMC3    C3 9177   1.513   2.334  16.465  0.1583 -0.1599  0.1210
  616TMC3    C4 9178   1.282   2.324  16.324  0.4687  0.7987  0.2824
  616TMC3    C5 9179   1.347   2.447  16.337 -0.1236 -0.2889  0.3751
  616TMC3    C6 9180   1.469   2.452  16.404 -0.1941 -0.1524 -0.1044
  616TMC3     C 9181   1.278   2.083  16.360 -0.0869  0.5042  0.0030
  616TMC3     O 9182   1.337   1.992  16.420  0.7326  0.0621  0.5747
  616TMC3     H 9183   1.482   2.132  16.526  0.8032 -0.2499  0.6918
  616TMC3    H1 9184   1.192   2.325  16.264  0.2935 -2.9543  0.4502
  616TMC3    H2 9185   1.538   2.536  16.400 -0.0111 -0.2913  0.1569
  616TMC3    C7 9186   1.316   2.542  16.229 -0.9767  1.1380  0.0470
  616TMC3    C8 9187   1.650   2.329  16.519 -0.2829 -0.5640  0.0648
  616TMC3    O1 9188   1.224   2.504  16.156  0.3218  0.0974  0.1865
  616TMC3    O2 9189   1.698   2.434  16.554 -0.2535 -0.0366  0.0597
  617MPD2     C 9190   3.960   0.504  13.620 -0.6009 -0.0263 -0.2814
  617MPD2    C1 9191   4.070   0.455  13.679 -0.3297 -0.2095  0.4500
  617MPD2    C2 9192   4.051   0.330  13.748  0.1590  0.1309 -0.4554
  617MPD2    C3 9193   3.926   0.297  13.802 -0.3300 -0.7850 -0.0988
  617MPD2    C4 9194   3.820   0.369  13.753 -0.4001  0.0080  0.2915
  617MPD2    C5 9195   3.841   0.463  13.659  0.2009 -0.3746  0.2200
  617MPD2     H 9196   4.141   0.276  13.776  1.2531  1.2058 -1.9473
  617MPD2    H1 9197   3.716   0.348  13.774 -0.2443  0.3192  1.3750
  617MPD2    H2 9198   3.981   0.575  13.541 -0.7975 -0.2832 -0.5703
  617MPD2    H3 9199   3.756   0.516  13.616 -0.4596  0.0692  2.0609
  617MPD2     N 9200   3.903   0.182  13.878  0.0433 -0.1093 -0.1161
  617MPD2    H5 9201   3.807   0.154  13.897 -0.2896  1.4415  0.4780
  617MPD2    N1 9202   4.197   0.497  13.625 -0.1347 -0.5604  0.3160
  617MPD2    H7 9203   4.193   0.555  13.542 -0.8281 -1.2684 -0.1464
  618TMC3    C1 9204   4.443   0.499  13.628 -0.2584  0.0779  0.7836
  618TMC3    C2 9205   4.556   0.495  13.708  0.4396  0.0833 -0.2140
  618TMC3    C3 9206   4.675   0.474  13.646  0.2241  0.3717 -0.3745
  618TMC3    C4 9207   4.452   0.477  13.494 -0.8205  0.0706 -0.1908
  618TMC3    C5 9208   4.575   0.452  13.442  0.6263 -0.0805  0.2959
  618TMC3    C6 9209   4.691   0.477  13.510 -0.5304 -0.4260  0.0852
  618TMC3     C 9210   4.320   0.463  13.693  0.2358  0.4666 -0.0882
  618TMC3     O 9211   4.332   0.406  13.799  0.2883  0.0000  0.7038
  618TMC3     H 9212   4.545   0.491  13.816 -0.1393 -1.3519 -0.3220
  618TMC3    H1 9213   4.363   0.447  13.440 -0.7090  0.5853 -0.6681
  618TMC3    H2 9214   0.052   0.453  13.467 -0.4528  1.1656 -0.6680
  618TMC3    C7 9215   4.580   0.343  13.349  0.2442  0.0795 -0.3198
  618TMC3    C8 9216   0.047   0.436  13.735 -0.5619 -0.5341  0.7741
  618TMC3    O1 9217   4.502   0.250  13.359  0.2288  0.3483  0.3253
  618TMC3    O2 9218   0.042   0.481  13.848  0.3277 -0.4629  0.1774
  619MPD2     C 9219   0.884   1.359  14.152  0.6593  0.7183  0.5497
  619MPD2    C1 9220   0.813   1.338  14.039 -0.5612  0.2899 -0.0270
  619MPD2    C2 9221   0.677   1.331  14.051 -0.7384 -0.0309 -0.1844
  619MPD2    C3 9222   0.607   1.364  14.169  0.0754  0.0249 -0.2564
  619MPD2    C4 9223   0.687   1.399  14.278  0.6896  0.1300 -0.2017
  619MPD2    C5 9224   0.824   1.391  14.269 -0.1392  0.6236  0.1525
  619MPD2     H 9225   0.626   1.310  13.958 -1.4834  0.6978  0.0579
  619MPD2    H1 9226   0.633   1.412  14.371  1.0110 -0.2699  0.0457
  619MPD2    H2 9227   0.992   1.363  14.154  0.6923  0.8213 -1.3652
  619MPD2    H3 9228   0.892   1.408  14.352  0.5690 -3.4818  0.4143
  619MPD2     N 9229   0.463   1.352  14.178 -0.8508 -0.2838 -0.5423
  619MPD2    H5 9230   0.423   1.393  14.261  2.4407  2.4114 -0.2951
  619MPD2    N1 9231   0.877   1.326  13.913  0.2202  0.2947 -0.1481
  619MPD2    H7 9232   0.811   1.327  13.836  1.5983  0.1042 -1.3140
  620TMC3    C1 9233   1.019   1.380  13.740  0.9508 -0.0444 -0.4415
  620TMC3    C2 9234   0.921   1.332  13.652 -0.5131  0.1017 -0.7005
  620TMC3    C3 9235   0.921   1.401  13.525  0.0811 -0.1340  0.1129
  620TMC3    C4 9236   1.102   1.482  13.708 -0.5315 -0.4062 -0.2872
  620TMC3    C5 9237   1.101   1.543  13.592  0.2864  0.0228  1.2527
  620TMC3    C6 9238   1.012   1.501  13.496 -0.8236 -0.1799 -0.3583
  620TMC3     C 9239   1.012   1.336  13.879 -0.0726  0.2836 -0.6450
  620TMC3     O 9240   1.108   1.355  13.956  0.4713 -0.4955 -0.2686
  620TMC3     H 9241   0.850   1.255  13.677  0.4685  0.0889  2.0040
  620TMC3    H1 9242   1.174   1.517  13.781 -0.8277  1.4615 -0.8881
  620TMC3    H2 9243   1.009   1.548  13.398  0.6605 -0.7124 -0.6596
  620TMC3    C7 9244   1.165   1.673  13.577 -0.4025  0.2738 -0.9071
  620TMC3    C8 9245   0.791   1.443  13.473  0.4284 -0.6260  0.2810
  620TMC3    O1 9246   1.260   1.696  13.647 -0.1488  0.1605 -0.2820
  620TMC3    O2 9247   0.778   1.558  13.452 -0.4850  0.0159 -0.3818
  621MPD2     C 9248   0.827   1.484  10.104  0.1171  0.3840 -0.0389
  621MPD2    C1 9249   0.913   1.535  10.199 -0.2023  0.3489 -0.1527
  621MPD2    C2 9250   1.035   1.590  10.159 -0.4305  0.2150  0.6577
  621MPD2    C3 9251   1.063   1.602  10.027 -0.7294  0.8430 -0.9334
  621MPD2    C4 9252   0.973   1.553   9.931  0.2190  0.1268  0.0310
  621MPD2    C5 9253   0.860   1.503   9.971 -0.5824  0.0511 -1.3005
  621MPD2     H 9254   1.105   1.650  10.216  0.0398  1.0185 -0.7460
  621MPD2    H1 9255   0.975   1.579   9.826 -0.1217 -1.1527 -0.2869
  621MPD2    H2 9256   0.729   1.442  10.118 -0.1346  0.5088 -1.4119
  621MPD2    H3 9257   0.790   1.466   9.897 -1.2284 -1.2049 -0.0691
  621MPD2     N 9258   1.179   1.667   9.986 -0.5388 -0.0804 -0.2551
  621MPD2    H5 9259   1.254   1.681  10.053  1.5202  2.3244 -3.0645
  621MPD2    N1 9260   0.870   1.518  10.330  0.0905 -0.3091 -0.6941
  621MPD2    H7 9261   0.778   1.478  10.342 -0.6366  1.3227 -0.7728
  622TMC3    C1 9262   0.902   1.480  10.558  0.3688 -0.2477 -0.0230
  622TMC3    C2 9263   0.887   1.545  10.681  0.6518 -0.4459 -0.8841
  622TMC3    C3 9264   0.859   1.459  10.786 -1.1826 -0.5205  0.3139
  622TMC3    C4 9265   0.865   1.349  10.535 -0.2106  0.2818 -0.4523
  622TMC3    C5 9266   0.828   1.274  10.637 -0.0973 -0.2023 -0.2705
  622TMC3    C6 9267   0.823   1.329  10.766 -0.4051 -0.6508  0.3431
  622TMC3     C 9268   0.944   1.559  10.438 -0.4487 -0.0916  0.5291
  622TMC3     O 9269   1.062   1.601  10.433  0.0205 -0.1300  0.3465
  622TMC3     H 9270   0.909   1.651  10.690 -0.4642 -0.3641  0.8849
  622TMC3    H1 9271   0.901   1.306  10.442  0.5132  1.2965 -0.6421
  622TMC3    H2 9272   0.786   1.267  10.847  1.2359 -1.0097  0.8233
  622TMC3    C7 9273   0.747   1.157  10.609  0.3480 -0.1082 -0.4607
  622TMC3    C8 9274   0.781   1.524  10.891  0.5406 -0.1711 -0.0216
  622TMC3    O1 9275   0.729   1.070  10.694 -0.0875 -0.0238  0.0126
  622TMC3    O2 9276   0.785   1.477  11.007  0.0350  0.3162 -0.0722
  623MPD2     C 9277   4.605   2.847  15.804  0.0096  0.1213  0.2027
  623MPD2    C1 9278   4.554   2.745  15.878 -0.0279 -0.6968 -0.2028
  623MPD2    C2 9279   4.610   2.732  16.005  0.1278  0.4170  0.3169
  623MPD2    C3 9280   4.708   2.813  16.053 -0.2808 -0.4163 -0.0206
  623MPD2    C4 9281   0.020   2.923  15.975  0.5906  0.2069  0.4312
  623MPD2    C5 9282   4.700   2.936  15.851  0.3435  0.3581  0.1203
  623MPD2     H 9283   4.574   2.656  16.073 -2.2904 -1.3098 -2.9001
  623MPD2    H1 9284   0.093   2.994  16.010 -0.4021  1.2157  0.4533
  623MPD2    H2 9285   4.562   2.861  15.705  1.9164  0.8673 -0.5283
  623MPD2    H3 9286   0.001   3.027  15.804  0.9712 -0.6531 -1.3757
  623MPD2     N 9287   0.024   2.772  16.174 -0.2674 -0.4451  0.4986
  623MPD2    H5 9288   4.723   2.693  16.227 -2.0394 -0.7887 -1.2688
  623MPD2    N1 9289   4.447   2.669  15.820  0.4787 -0.3944 -0.0005
  623MPD2    H7 9290   4.422   2.693  15.725  0.1373 -1.5251 -0.1931
  624TMC3    C1 9291   0.303   2.686  16.532 -0.5420  0.0714 -0.1321
  624TMC3    C2 9292   0.194   2.651  16.611  0.6240 -0.4382  0.1607
  624TMC3    C3 9293   0.074   2.681  16.553 -0.0841 -1.0315  0.1574
  624TMC3    C4 9294   0.285   2.755  16.417 -0.6491  0.3754  0.4431
  624TMC3    C5 9295   0.161   2.785  16.366 -0.2065 -0.4230 -0.7828
  624TMC3    C6 9296   0.050   2.745  16.434 -0.3271  0.9990  0.3329
  624TMC3     C 9297   0.432   2.636  16.571  0.6106  0.7909 -0.2962
  624TMC3     O 9298   0.452   2.610  16.690 -0.1906  0.3065 -0.8379
  624TMC3     H 9299   0.206   2.605  16.708  2.3420 -2.3394 -0.9475
  624TMC3    H1 9300   0.361   2.783  16.345 -0.6044  3.7796  1.8030
  624TMC3    H2 9301   4.686   2.760  16.395  0.7457  0.1787 -2.7213
  624TMC3    C7 9302   0.146   2.821  16.223 -0.0636  0.5027 -0.7675
  624TMC3    C8 9303   4.698   2.606  16.609  0.2239 -0.3334 -0.0937
  624TMC3    O1 9304   0.232   2.882  16.163 -0.2897 -0.1691 -0.3253
  624TMC3    O2 9305   4.722   2.513  16.684 -0.3879 -0.4164  0.8716
  625MPD2     C 9306   0.583   3.292   0.744  0.3114 -0.0389  0.1012
  625MPD2    C1 9307   0.632   3.427   0.737 -0.2445  0.0690  0.4170
  625MPD2    C2 9308   0.763   3.454   0.756 -0.3698 -0.4254 -0.1053
  625MPD2    C3 9309   0.854   3.356   0.780  0.3196 -0.1029  0.1262
  625MPD2    C4 9310   0.805   3.225   0.778 -0.1137 -0.6757 -0.0021
  625MPD2    C5 9311   0.674   3.194   0.752  0.3953  0.5884 -0.4337
  625MPD2     H 9312   0.801   3.554   0.744  0.8240 -1.1298 -2.1623
  625MPD2    H1 9313   0.873   3.141   0.785  0.5860 -0.1703 -0.7514
  625MPD2    H2 9314   0.479   3.265   0.729  0.2185  0.1746  0.3603
  625MPD2    H3 9315   0.641   3.091   0.736  0.7989  0.1170  1.8593
  625MPD2     N 9316   0.983   3.399   0.794 -0.7945 -0.1044  0.0079
  625MPD2    H5 9317   0.990   3.500   0.782  0.3617  0.0252  1.7173
  625MPD2    N1 9318   0.542   3.535   0.711 -0.1697 -0.9976 -0.4575
  625MPD2    H7 9319   0.588   3.626   0.716  0.8019 -1.4635 -0.8499
  626TMC3    C1 9320   0.340   3.659   0.673 -0.1559 -0.4534  0.2940
  626TMC3    C2 9321   0.259   3.676   0.564  0.1013 -0.4546  0.3173
  626TMC3    C3 9322   0.226   3.805   0.532 -0.2668 -0.2203  0.1436
  626TMC3    C4 9323   0.383   3.766   0.750 -0.7598 -0.2633  0.4006
  626TMC3    C5 9324   0.342   3.892   0.716  0.2910  0.3305  0.7007
  626TMC3    C6 9325   0.258   3.910   0.607 -0.5210 -0.5157  0.3209
  626TMC3     C 9326   0.407   3.524   0.678 -0.5249 -0.2399 -0.0731
  626TMC3     O 9327   0.335   3.425   0.659  0.6460 -0.1593 -0.1719
  626TMC3     H 9328   0.230   3.587   0.510  0.7463 -0.8854  0.6815
  626TMC3    H1 9329   0.440   3.759   0.842  1.2113  0.7844 -0.7480
  626TMC3    H2 9330   0.216   4.008   0.588 -0.7294 -0.6444  0.0961
  626TMC3    C7 9331   0.319   3.980   0.833  0.4500 -0.6985  0.7005
  626TMC3    C8 9332   0.139   3.830   0.424 -0.9471  0.1296  0.2052
  626TMC3    O1 9333   0.402   3.981   0.920 -0.4297 -0.6635  0.0051
  626TMC3    O2 9334   0.151   3.937   0.371 -0.1031  0.3162 -0.3587
  627MPD2     C 9335   4.189   3.556  13.870 -0.3658  0.6868 -0.3059
  627MPD2    C1 9336   4.152   3.569  14.007  0.1187  0.3922 -0.5097
  627MPD2    C2 9337   4.019   3.525  14.042 -0.1432 -0.1089 -0.7116
  627MPD2    C3 9338   3.934   3.485  13.942 -0.2689  0.7275  0.2508
  627MPD2    C4 9339   3.979   3.474  13.812  0.3139 -0.7175 -0.0260
  627MPD2    C5 9340   4.100   3.509  13.771  0.4218 -0.0569  0.2532
  627MPD2     H 9341   3.993   3.529  14.147  0.1035 -2.3932 -0.5655
  627MPD2    H1 9342   3.911   3.438  13.735  0.2674  1.1022 -0.8502
  627MPD2    H2 9343   4.289   3.580  13.835 -0.8870  1.3288 -1.3696
  627MPD2    H3 9344   4.129   3.500  13.667  0.7605 -0.5125  0.3891
  627MPD2     N 9345   3.803   3.436  13.960  0.8102 -0.2647 -0.1953
  627MPD2    H5 9346   3.759   3.384  13.885  2.6495 -1.3736 -0.5213
  627MPD2    N1 9347   4.244   3.612  14.111  0.0073  0.1846  0.0154
  627MPD2    H7 9348   4.336   3.645  14.081 -0.2188  2.4631  1.7892
  628TMC3    C1 9349   4.298   3.725  14.313 -0.1218  0.2553  0.3549
  628TMC3    C2 9350   4.425   3.676  14.321  0.8928 -0.0754  0.1586
  628TMC3    C3 9351   4.503   3.726  14.422 -0.4203 -0.1443 -1.0050
  628TMC3    C4 9352   4.254   3.826  14.393 -0.4573 -0.3861 -0.5305
  628TMC3    C5 9353   4.336   3.874  14.497  0.2571  0.2344  0.2262
  628TMC3    C6 9354   4.462   3.816  14.514 -0.1546  0.5822  0.1408
  628TMC3     C 9355   4.202   3.656  14.234  0.1523  0.0362  0.3911
  628TMC3     O 9356   4.090   3.656  14.287  0.5536  0.0464  0.1378
  628TMC3     H 9357   4.461   3.593  14.261  0.9248 -1.2854  1.8693
  628TMC3    H1 9358   4.151   3.857  14.379 -0.2415  0.1473 -0.9485
  628TMC3    H2 9359   4.511   3.820  14.611 -2.7764 -0.2768  1.4992
  628TMC3    C7 9360   4.322   4.007  14.549  0.6348 -0.3380 -0.1397
  628TMC3    C8 9361   4.641   3.678  14.428 -0.0295  0.4349 -0.1886
  628TMC3    O1 9362   4.394   4.041  14.640 -0.5054  0.3618  0.1422
  628TMC3    O2 9363   4.701   3.652  14.328 -0.3469 -0.7463 -0.3884
  629MPD2     C 9364   2.073   2.062  16.669 -0.4905 -0.3171 -0.8126
  629MPD2    C1 9365   2.059   2.200  16.651 -0.0998 -0.0452 -0.0420
  629MPD2    C2 9366   1.935   2.257  16.600 -0.3573 -0.3111 -0.3896
  629MPD2    C3 9367   1.831   2.167  16.564  0.4338  0.2812 -0.1167
  629MPD2    C4 9368   1.860   2.030  16.560 -0.1232 -0.8075 -0.6904
  629MPD2    C5 9369   1.975   1.979  16.621 -0.2024 -0.5850 -0.2570
  629MPD2     H 9370   1.925   2.363  16.581  1.3590 -0.1343 -0.2905
  629MPD2    H1 9371   1.793   1.956  16.516 -0.4306 -0.5255 -0.6963
  629MPD2    H2 9372   2.166   2.024  16.710 -1.4435 -0.6832  1.0069
  629MPD2    H3 9373   2.006   1.875  16.617  1.7085 -0.0545  0.6713
  629MPD2     N 9374   1.705   2.198  16.515  0.1138 -0.0239  0.3685
  629MPD2    H5 9375   1.655   2.122  16.471 -1.5915  0.6270  1.1844
  629MPD2    N1 9376   2.176   2.274  16.691 -0.1523  0.7097  0.2931
  629MPD2    H7 9377   2.256   2.223  16.725 -1.1823  1.0456  3.1762
  630TMC3    C1 9378   2.339   2.441  16.685 -0.3056  0.7189  0.3317
  630TMC3    C2 9379   2.399   2.540  16.607  0.4193 -0.2835 -0.0140
  630TMC3    C3 9380   2.523   2.577  16.653  0.2691 -0.6662  0.7824
  630TMC3    C4 9381   2.401   2.372  16.788  0.2366 -0.1401 -0.3696
  630TMC3    C5 9382   2.523   2.432  16.827  0.5041  0.1557 -1.1725
  630TMC3    C6 9383   2.588   2.535  16.763  0.0418  1.1319  0.1423
  630TMC3     C 9384   2.203   2.403  16.651  0.5183  1.2271 -1.2868
  630TMC3     O 9385   2.139   2.474  16.572 -0.5808 -0.4893  0.1299
  630TMC3     H 9386   2.348   2.592  16.528  1.2739  0.1193 -0.3082
  630TMC3    H1 9387   2.345   2.322  16.866  1.3418 -0.7823  0.0081
  630TMC3    H2 9388   2.686   2.574  16.789  0.0357  0.9956  0.3629
  630TMC3    C7 9389   2.576   2.384  16.952 -0.0737  0.6918  0.2635
  630TMC3    C8 9390   2.585   2.701  16.599  0.0577  0.2457 -0.3472
  630TMC3    O1 9391   2.545   2.276  16.992 -0.3208 -0.1734 -0.2065
  630TMC3    O2 9392   2.660   2.765  16.674  0.1146 -0.2136 -0.1407
  631MPD2     C 9393   0.211   2.350  15.603 -0.1678  0.5474  0.0610
  631MPD2    C1 9394   0.286   2.345  15.493  0.0791  0.1612 -0.4454
  631MPD2    C2 9395   0.383   2.252  15.482 -0.7042 -0.8301 -0.5022
  631MPD2    C3 9396   0.394   2.151  15.578 -0.3124  0.2475  0.1350
  631MPD2    C4 9397   0.320   2.160  15.696 -0.4011 -0.5863 -0.1176
  631MPD2    C5 9398   0.224   2.260  15.706 -0.5467 -0.6667  0.3243
  631MPD2     H 9399   0.452   2.258  15.398 -0.8125  1.1679 -0.4398
  631MPD2    H1 9400   0.314   2.089  15.778  1.1925  0.5959  1.0092
  631MPD2    H2 9401   0.144   2.435  15.607 -0.1569  0.5547  0.0888
  631MPD2    H3 9402   0.151   2.256  15.785 -0.9715 -1.7622 -0.1225
  631MPD2     N 9403   0.495   2.054  15.559 -0.9100 -0.0477 -0.1194
  631MPD2    H5 9404   0.543   2.054  15.470  1.4222  1.4238  1.1353
  631MPD2    N1 9405   0.275   2.452  15.404  0.4215  0.4667  0.3073
  631MPD2    H7 9406   0.210   2.525  15.431  0.6244 -0.0751  2.2988
  632TMC3    C1 9407   0.337   2.598  15.228  0.2971 -0.3352 -0.0814
  632TMC3    C2 9408   0.340   2.694  15.328  0.0412  0.6880  0.1005
  632TMC3    C3 9409   0.427   2.791  15.322  0.1542 -0.0726  0.2072
  632TMC3    C4 9410   0.436   2.607  15.133  0.2743  0.2551  0.3733
  632TMC3    C5 9411   0.524   2.710  15.129 -0.3225  0.8296  0.2587
  632TMC3    C6 9412   0.508   2.811  15.218 -0.1416 -0.3820 -0.7242
  632TMC3     C 9413   0.334   2.466  15.279 -0.6394  0.7726 -0.3624
  632TMC3     O 9414   0.395   2.378  15.217 -0.3937 -0.3066  0.0580
  632TMC3     H 9415   0.279   2.686  15.418 -0.9016  2.1015 -0.4137
  632TMC3    H1 9416   0.444   2.533  15.054  2.6463  0.0746  0.7778
  632TMC3    H2 9417   0.567   2.901  15.212  0.9439 -1.1599 -1.7366
  632TMC3    C7 9418   0.620   2.720  15.021 -0.2108 -0.2244 -0.0160
  632TMC3    C8 9419   0.409   2.909  15.406 -0.8002  0.1708 -0.6592
  632TMC3    O1 9420   0.595   2.651  14.922 -0.1864  0.0497  0.5521
  632TMC3    O2 9421   0.513   2.970  15.440 -0.2935 -0.4162 -0.4148
  633MPD2     C 9422   4.622   0.481  17.265 -0.1039  0.3216 -0.1935
  633MPD2    C1 9423   4.613   0.428  17.137 -0.4987 -0.3445  0.8311
  633MPD2    C2 9424   4.596   0.292  17.123 -0.3153 -0.3894 -0.2596
  633MPD2    C3 9425   4.586   0.205  17.233  0.5968  0.4667 -0.5429
  633MPD2    C4 9426   4.575   0.265  17.364 -0.3696  0.0137  0.6528
  633MPD2    C5 9427   4.600   0.401  17.374  0.2999 -0.7102  0.3933
  633MPD2     H 9428   4.607   0.243  17.027  0.4000 -2.5191  0.8899
  633MPD2    H1 9429   4.569   0.207  17.455  1.7588 -1.5569 -0.2114
  633MPD2    H2 9430   4.650   0.584  17.284  2.1805 -0.4290  0.5719
  633MPD2    H3 9431   4.603   0.448  17.472 -1.3404  0.8473 -0.3120
  633MPD2     N 9432   4.591   0.062  17.231  0.1850  0.2404  0.3508
  633MPD2    H5 9433   4.614   0.019  17.320 -0.4653  0.7161  0.7500
  633MPD2    N1 9434   4.628   0.497  17.014 -0.1989  0.2670 -0.2961
  633MPD2    H7 9435   4.636   0.443  16.929  1.6559 -3.1713  2.0687
  634TMC3    C1 9436   4.708   0.677  16.880  0.3328 -0.1470 -0.2203
  634TMC3    C2 9437   0.038   0.585  16.802 -0.4264  0.3024  0.6722
  634TMC3    C3 9438   0.082   0.620  16.677  0.0089  0.6190 -0.0536
  634TMC3    C4 9439   4.694   0.804  16.845 -0.5644  0.7703  0.8029
  634TMC3    C5 9440   4.733   0.836  16.718 -0.2269 -0.3076  0.3345
  634TMC3    C6 9441   0.057   0.746  16.641 -0.2524  0.1705 -0.5422
  634TMC3     C 9442   4.653   0.635  17.010  0.6416 -0.1508  0.0858
  634TMC3     O 9443   4.627   0.729  17.085 -0.6762  0.5674  0.1421
  634TMC3     H 9444   0.066   0.487  16.838  0.6742 -0.0480 -1.1387
  634TMC3    H1 9445   4.630   0.869  16.904  0.3740 -1.0158  3.7589
  634TMC3    H2 9446   0.102   0.780  16.548  1.3472 -4.4112 -1.4675
  634TMC3    C7 9447   4.726   0.971  16.655 -0.5804  0.5446  0.4966
  634TMC3    C8 9448   0.108   0.514  16.581 -0.3825 -0.3866 -0.8905
  634TMC3    O1 9449   0.021   0.979  16.539 -0.3719  0.0213 -0.3742
  634TMC3    O2 9450   0.073   0.402  16.609  0.1740 -0.1367  0.1832
  635TMC3    C1 9451   0.230   1.942   0.787  0.2533 -0.9195  0.0067
  635TMC3    C2 9452   0.285   1.862   0.889  0.8128  0.6701 -0.4970
  635TMC3    C3 9453   0.207   1.767   0.954 -0.2934  0.4333  0.4768
  635TMC3    C4 9454   0.102   1.931   0.751  0.0786 -0.4184 -0.4254
  635TMC3    C5 9455   0.027   1.837   0.815  0.1945 -0.4726  0.1438
  635TMC3    C6 9456   0.074   1.758   0.916 -0.4391  0.5497 -0.5164
  635TMC3     C 9457   0.309   2.051   0.738  0.6719 -0.6377  0.0526
  635TMC3     O 9458   0.428   2.048   0.772  0.8443 -0.2476 -0.2275
  635TMC3     H 9459   0.385   1.890   0.920 -0.0368 -0.1527  3.0075
  635TMC3    H1 9460   0.066   1.985   0.664  0.0268 -0.7947 -0.6376
  635TMC3    H2 9461   0.016   1.681   0.964  0.7111  2.1359  3.4136
  635TMC3    C7 9462   4.625   1.850   0.805 -0.3707  0.1413 -1.0058
  635TMC3    C8 9463   0.234   1.741   1.091 -0.6899  0.6316  0.0586
  635TMC3    O1 9464   4.581   1.908   0.707  0.2594 -0.4747  0.1144
  635TMC3    O2 9465   0.144   1.694   1.163 -0.3317 -0.9338 -0.0702
  636MPD2     C 9466   1.454   0.403  15.681 -0.3042 -0.0167  0.3984
  636MPD2    C1 9467   1.465   0.417  15.820  0.2216  0.4633 -0.8027
  636MPD2    C2 9468   1.515   0.310  15.897  0.1443  0.0962 -0.0363
  636MPD2    C3 9469   1.555   0.188  15.836 -0.4445  0.1123 -0.3858
  636MPD2    C4 9470   1.544   0.176  15.698  1.3305 -0.8348 -0.0711
  636MPD2    C5 9471   1.494   0.283  15.623 -1.1150 -0.3444 -0.1016
  636MPD2     H 9472   1.545   0.324  16.000  0.9012  0.7267 -0.3404
  636MPD2    H1 9473   1.570   0.089  15.637 -1.1764 -2.0824  0.6364
  636MPD2    H2 9474   1.425   0.487  15.619 -2.7415 -1.1634 -0.0435
  636MPD2    H3 9475   1.489   0.268  15.515 -0.7783  0.2643 -0.2079
  636MPD2     N 9476   1.600   0.086  15.917 -0.9330 -0.2813  0.1669
  636MPD2    H5 9477   1.621   0.106  16.015  0.3243  0.1308 -0.1834
  636MPD2    N1 9478   1.454   0.539  15.896 -0.6255 -0.2598 -0.9280
  636MPD2    H7 9479   1.463   0.524  15.996  2.5091 -0.8299 -1.2953
  637TMC3    C1 9480   1.701   4.613  15.972  0.1627  0.2824  0.3123
  637TMC3    C2 9481   1.677   4.624  16.108  0.3121 -0.5440  0.1612
  637TMC3    C3 9482   1.770   4.576  16.192  0.1970 -0.2656 -0.4973
  637TMC3    C4 9483   1.825   4.574  15.920  0.2858 -0.5425 -0.0269
  637TMC3    C5 9484   1.926   4.547  16.008 -0.5148  0.0251 -0.4590
  637TMC3    C6 9485   1.892   4.533  16.142 -0.4446 -0.0391  0.4490
  637TMC3     C 9486   1.628   4.696  15.875 -0.2327  0.7638 -1.5615
  637TMC3     O 9487   1.633   4.649  15.764 -0.1032 -0.1487 -0.2769
  637TMC3     H 9488   1.579   4.651  16.144  0.1372  0.6160 -1.1859
  637TMC3    H1 9489   1.830   4.560  15.813  0.3359  1.2263 -0.2616
  637TMC3    H2 9490   1.976   4.503  16.204 -1.2181  1.2424  2.1396
  637TMC3    C7 9491   2.043   4.632  16.000  0.2772 -0.2528 -0.1747
  637TMC3    C8 9492   1.772   4.632  16.317  0.1481  0.0019  0.3828
  637TMC3    O1 9493   2.083   4.675  16.103 -0.5541 -0.4877 -0.0507
  637TMC3    O2 9494   1.664   4.659  16.370 -0.5564 -0.0878 -0.0070
  638MPD2     C 9495   1.300   4.461  14.637  0.0611 -0.1312  0.3412
  638MPD2    C1 9496   1.294   4.352  14.564  0.3622  0.8130 -0.4524
  638MPD2    C2 9497   1.276   4.232  14.633  0.1608 -0.1047 -0.5647
  638MPD2    C3 9498   1.285   4.224  14.772 -0.1328  0.5105 -0.3248
  638MPD2    C4 9499   1.310   4.333  14.843 -0.4074 -0.1700  0.0973
  638MPD2    C5 9500   1.300   4.448  14.773  1.1319 -0.4547 -0.3170
  638MPD2     H 9501   1.268   4.144  14.571 -3.4722  0.5572 -1.0329
  638MPD2    H1 9502   1.319   4.343  14.951  1.2163 -4.4916  0.3728
  638MPD2    H2 9503   1.309   4.559  14.591  1.0641 -0.2444  0.2960
  638MPD2    H3 9504   1.325   4.543  14.820  1.7099 -0.7658  0.0013
  638MPD2     N 9505   1.261   4.096  14.830 -0.0221  0.3832  0.2762
  638MPD2    H5 9506   1.236   4.016  14.772 -1.0232 -0.0652  1.3210
  638MPD2    N1 9507   1.301   4.371  14.425  0.2347 -0.3632  0.5885
  638MPD2    H7 9508   1.336   4.456  14.383 -0.3402  0.2226  1.3132
  639TMC3    C1 9509   1.237   3.928  14.986 -0.1119 -0.0120  0.0071
  639TMC3    C2 9510   1.147   3.864  14.906 -0.8548  0.0854  0.4896
  639TMC3    C3 9511   1.174   3.727  14.898 -0.4576 -0.7541  0.3905
  639TMC3    C4 9512   1.334   3.863  15.059 -0.0010  0.0659  0.2351
  639TMC3    C5 9513   1.341   3.730  15.055 -0.6263 -0.1588 -1.1265
  639TMC3    C6 9514   1.268   3.655  14.971  0.7192  0.8896  0.6191
  639TMC3     C 9515   1.279   4.062  14.956  0.2519 -0.8329 -0.3971
  639TMC3     O 9516   1.330   4.127  15.046 -0.2005  0.8220  0.1546
  639TMC3     H 9517   1.088   3.919  14.834  1.9700  2.1920 -0.2421
  639TMC3    H1 9518   1.390   3.929  15.125  0.5040  2.5131 -2.6575
  639TMC3    H2 9519   1.289   3.549  14.961  0.2243  0.8394  0.1233
  639TMC3    C7 9520   1.431   3.656  15.137 -0.3474 -0.5222 -0.5486
  639TMC3    C8 9521   1.107   3.653  14.796 -0.0062 -0.0974  0.7120
  639TMC3    O1 9522   1.384   3.549  15.183 -0.3321  0.3701 -0.0561
  639TMC3    O2 9523   1.174   3.571  14.739  0.4190 -0.2076 -0.2587
  640MPD2     C 9524   0.976   2.921   9.775  0.2696 -0.5839  0.8570
  640MPD2    C1 9525   1.076   3.004   9.804 -1.1063 -0.1711  0.3482
  640MPD2    C2 9526   1.071   3.088   9.917 -0.1970  0.0853 -1.1409
  640MPD2    C3 9527   0.956   3.072   9.995 -0.5053 -0.1147  0.8151
  640MPD2    C4 9528   0.859   2.973   9.975 -0.2926  0.0980 -0.2229
  640MPD2    C5 9529   0.865   2.899   9.862  0.8888 -0.0609  0.0610
  640MPD2     H 9530   1.150   3.158   9.940  0.0915 -1.2011  1.8040
  640MPD2    H1 9531   0.772   2.965  10.039  1.4715 -0.0503  2.1445
  640MPD2    H2 9532   0.971   2.863   9.683 -0.2353  1.5551 -0.4653
  640MPD2    H3 9533   0.791   2.826   9.835  2.2230 -2.0181  1.7384
  640MPD2     N 9534   0.941   3.155  10.111 -0.0495  0.1351 -0.4759
  640MPD2    H5 9535   0.852   3.138  10.158  0.8350 -0.5711  0.9279
  640MPD2    N1 9536   1.187   3.015   9.709  0.1525 -0.1279 -0.4754
  640MPD2    H7 9537   1.179   2.958   9.626  0.7718 -1.3265  0.2848
  641TMC3    C1 9538   1.385   3.076   9.603  0.2040  0.0191  0.0266
  641TMC3    C2 9539   1.503   3.147   9.613 -0.4211 -0.5386 -0.4200
  641TMC3    C3 9540   1.595   3.130   9.513  0.1603 -0.3645 -0.7340
  641TMC3    C4 9541   1.348   3.005   9.491  0.4873  0.3430 -0.3312
  641TMC3    C5 9542   1.448   2.986   9.403 -0.1093  0.3039 -0.5042
  641TMC3    C6 9543   1.564   3.049   9.404  0.1008 -0.1378 -0.0198
  641TMC3     C 9544   1.300   3.087   9.721  0.5475 -0.0654  0.3265
  641TMC3     O 9545   1.336   3.156   9.814  0.4379  0.4054 -0.2025
  641TMC3     H 9546   1.510   3.204   9.705 -1.5471  0.3339 -0.8832
  641TMC3    H1 9547   1.253   2.956   9.473  0.2601  0.4452  0.5898
  641TMC3    H2 9548   1.634   3.039   9.322 -0.8183 -0.8090 -0.7194
  641TMC3    C7 9549   1.449   2.866   9.319  0.5648  0.3180 -0.7539
  641TMC3    C8 9550   1.738   3.153   9.537  0.4471 -0.0691  0.7780
  641TMC3    O1 9551   1.551   2.799   9.314 -0.6115 -0.4821  1.0464
  641TMC3    O2 9552   1.815   3.081   9.479  0.2741  0.0257 -0.4252
  642TMC3    C1 9553   2.767   3.968  12.340 -0.0184 -0.7233 -0.1908
  642TMC3    C2 9554   2.864   4.023  12.257 -0.0407  0.8560  0.6657
  642TMC3    C3 9555   2.879   3.963  12.138 -0.5613  0.2048 -0.4059
  642TMC3    C4 9556   2.694   3.857  12.314 -0.1793 -0.4340  0.5479
  642TMC3    C5 9557   2.712   3.808  12.195  0.0069  0.1042  0.1926
  642TMC3    C6 9558   2.802   3.860  12.094  0.2760 -0.1017  0.0961
  642TMC3     C 9559   2.754   4.038  12.465 -0.7395  0.2216 -0.0720
  642TMC3     O 9560   2.831   4.132  12.484 -0.0998 -0.6298  0.5863
  642TMC3     H 9561   2.915   4.115  12.282  0.5076  0.2974  1.5967
  642TMC3    H1 9562   2.620   3.817  12.382  0.3046  1.0854  1.9626
  642TMC3    H2 9563   2.798   3.828  11.991 -4.3147 -0.0367  0.2428
  642TMC3    C7 9564   2.639   3.691  12.150 -0.1834 -0.3976  0.6623
  642TMC3    C8 9565   3.011   3.948  12.083  0.0802 -0.1603  0.5376
  642TMC3    O1 9566   2.605   3.670  12.032 -0.0086  0.2772  0.0664
  642TMC3    O2 9567   3.031   3.857  12.002 -0.2242 -0.0110 -0.6712
  643TMC3    C1 9568   2.137   3.171  17.644  0.2835 -0.2122 -0.1803
  643TMC3    C2 9569   2.037   3.236  17.580 -0.6489 -0.1922  0.7368
  643TMC3    C3 9570   1.962   3.161  17.487 -0.0523 -0.2675 -0.0496
  643TMC3    C4 9571   2.179   3.044  17.608  0.1382  0.2324  0.2685
  643TMC3    C5 9572   2.105   2.977  17.512 -0.9347  0.6102  0.3516
  643TMC3    C6 9573   1.988   3.031  17.467  0.6727  0.5814 -0.3555
  643TMC3     C 9574   2.206   3.239   0.011  0.2403  0.3357 -0.0101
  643TMC3     O 9575   2.174   3.358   0.027 -0.4926  0.0653  0.1126
  643TMC3     H 9576   2.013   3.338  17.605 -0.3462  0.3526 -1.2266
  643TMC3    H1 9577   2.274   3.007  17.644  0.0419  0.5700  0.8716
  643TMC3    H2 9578   1.928   2.976  17.396  1.1125  0.6172 -0.7515
  643TMC3    C7 9579   2.192   2.942  17.403  0.2713  0.0411 -0.2056
  643TMC3    C8 9580   1.917   3.224  17.368 -0.2537  0.2268 -0.2283
  643TMC3    O1 9581   2.307   2.987  17.405 -0.2049  0.0601 -0.3080
  643TMC3    O2 9582   1.817   3.177  17.312  0.0028  0.1222 -0.1473
  644MPD2     C 9583   1.466   3.241   9.093 -0.0188  0.3887  0.4887
  644MPD2    C1 9584   1.585   3.185   9.071  0.4243 -0.0660  0.1922
  644MPD2    C2 9585   1.594   3.055   9.034 -0.0217 -0.7541 -0.2468
  644MPD2    C3 9586   1.489   2.974   9.002 -0.4491 -0.0654 -0.0805
  644MPD2    C4 9587   1.364   3.039   9.008  0.5833 -0.4774 -0.2172
  644MPD2    C5 9588   1.353   3.163   9.074  0.5387  0.3196 -0.0779
  644MPD2     H 9589   1.688   3.000   9.037  1.0064  1.0869  1.0462
  644MPD2    H1 9590   1.273   2.986   8.980 -1.0959  0.8065  2.8846
  644MPD2    H2 9591   1.450   3.342   9.129 -2.3987  0.0615  0.3315
  644MPD2    H3 9592   1.255   3.209   9.087  1.0689  0.6224  2.7049
  644MPD2     N 9593   1.516   2.848   8.950 -0.2632  0.2104 -0.0946
  644MPD2    H5 9594   1.610   2.812   8.957 -0.7099 -0.7793  0.8845
  644MPD2    N1 9595   1.697   3.262   9.117  0.1562 -0.1328 -0.7987
  644MPD2    H7 9596   1.673   3.342   9.175 -0.3781 -1.2118  0.4928
  645TMC3    C1 9597   1.455   2.632   8.883 -0.2361 -0.1590  0.9707
  645TMC3    C2 9598   1.584   2.600   8.841  0.2612 -0.8573 -0.4755
  645TMC3    C3 9599   1.621   2.467   8.829 -0.6308 -0.2893 -0.1773
  645TMC3    C4 9600   1.368   2.531   8.905  0.5490 -0.3328  0.2113
  645TMC3    C5 9601   1.410   2.397   8.892  0.2030 -0.3698 -0.2667
  645TMC3    C6 9602   1.533   2.373   8.856  0.1682  0.0905  0.7849
  645TMC3     C 9603   1.418   2.770   8.892  0.7197  0.8457 -0.0856
  645TMC3     O 9604   1.300   2.793   8.878 -0.0966  0.6726 -0.3471
  645TMC3     H 9605   1.651   2.683   8.822  0.4443 -0.9214 -0.1074
  645TMC3    H1 9606   1.264   2.548   8.932 -0.0459 -0.3705 -2.0416
  645TMC3    H2 9607   1.576   2.275   8.836 -2.9810 -0.9702 -0.8280
  645TMC3    C7 9608   1.329   2.294   8.944  0.1212 -0.7043  0.2136
  645TMC3    C8 9609   1.761   2.435   8.807 -0.4117  0.2703 -0.2260
  645TMC3    O1 9610   1.219   2.333   8.981 -0.2179  0.1714 -0.2184
  645TMC3    O2 9611   1.781   2.341   8.728  0.7346  0.1020  0.0721
  646MPD2     C 9612   1.560   2.880  14.423  0.8113  0.0734  0.0855
  646MPD2    C1 9613   1.438   2.814  14.462  0.0120  0.3588 -0.2698
  646MPD2    C2 9614   1.321   2.873  14.415 -0.7215 -0.0740  0.0370
  646MPD2    C3 9615   1.318   2.980  14.332 -0.1999 -0.0824 -0.0326
  646MPD2    C4 9616   1.433   3.032  14.281  0.0495 -0.5770 -0.3867
  646MPD2    C5 9617   1.557   2.987  14.328  0.3128  0.7296  0.2809
  646MPD2     H 9618   1.230   2.816  14.429  0.5859 -2.4137 -0.9401
  646MPD2    H1 9619   1.430   3.108  14.204 -1.8710 -1.1164 -0.8584
  646MPD2    H2 9620   1.657   2.847  14.460  0.9957 -0.0396 -0.4976
  646MPD2    H3 9621   1.654   3.028  14.302  0.9399 -0.9049  0.0662
  646MPD2     N 9622   1.200   3.038  14.299 -0.0450 -0.2243  0.0939
  646MPD2    H5 9623   1.129   3.032  14.372 -3.0131  1.1381 -2.6826
  646MPD2    N1 9624   1.442   2.695  14.537  0.0965  0.0794  0.0815
  646MPD2    H7 9625   1.538   2.662  14.540 -0.1277 -0.4812  1.4036
  647TMC3    C1 9626   1.377   2.509  14.650  0.2707 -0.3710  0.1551
  647TMC3    C2 9627   1.296   2.457  14.752  0.1561  0.1566  0.5007
  647TMC3    C3 9628   1.345   2.355  14.829 -0.4347 -0.0137  0.1202
  647TMC3    C4 9629   1.506   2.462  14.633  0.2259 -0.6214 -0.0235
  647TMC3    C5 9630   1.543   2.354  14.707 -0.2371 -0.2836 -0.0534
  647TMC3    C6 9631   1.463   2.300  14.804  0.1222  0.3891 -0.1100
  647TMC3     C 9632   1.336   2.630  14.591  0.6377  0.1330  0.6853
  647TMC3     O 9633   1.225   2.666  14.603  0.0341  0.5095 -0.3861
  647TMC3     H 9634   1.202   2.505  14.777  0.0332 -0.9578  2.1639
  647TMC3    H1 9635   1.564   2.494  14.547 -0.3438  1.3375  0.3180
  647TMC3    H2 9636   1.503   2.226  14.873 -0.2630 -1.0272 -1.3943
  647TMC3    C7 9637   1.685   2.358  14.744  0.6121 -0.1304 -0.5562
  647TMC3    C8 9638   1.298   2.342  14.971  0.2778 -0.7528 -0.3482
  647TMC3    O1 9639   1.707   2.336  14.863 -0.2699 -0.6172 -0.6012
  647TMC3    O2 9640   1.359   2.263  15.038  0.0515  0.6436  0.4638
  648TMC3    C1 9641   0.568   0.577  15.952 -0.2006  0.4374 -0.1253
  648TMC3    C2 9642   0.624   0.472  15.888 -0.0467  0.6562 -0.5442
  648TMC3    C3 9643   0.627   0.473  15.752  0.0657  0.7384  0.3802
  648TMC3    C4 9644   0.490   0.669  15.887  0.6303  0.0089 -0.2219
  648TMC3    C5 9645   0.483   0.663  15.746 -0.2826 -1.0814 -0.3076
  648TMC3    C6 9646   0.558   0.567  15.675  0.1917 -0.2213  0.1088
  648TMC3     C 9647   0.572   0.576  16.099  0.2647 -0.0222 -0.4899
  648TMC3     O 9648   0.547   0.687  16.146  0.7889  0.4498 -0.3066
  648TMC3     H 9649   0.685   0.404  15.945  1.0824  0.5391 -1.8967
  648TMC3    H1 9650   0.446   0.744  15.951  1.6264  0.1192  0.3255
  648TMC3    H2 9651   0.546   0.553  15.568  2.7017 -0.3373 -0.1671
  648TMC3    C7 9652   0.452   0.777  15.672  0.0902  0.3253 -0.4141
  648TMC3    C8 9653   0.690   0.361  15.680  0.2403  0.3356  0.4777
  648TMC3    O1 9654   0.486   0.778  15.553 -0.1804 -0.0734  0.4036
  648TMC3    O2 9655   0.711   0.363  15.559 -1.0541  0.2132 -0.4028
  649TMC3    C1 9656   4.412   1.485  12.997 -0.0450  0.0442  0.5435
  649TMC3    C2 9657   4.527   1.432  12.939  0.1314 -0.0804 -0.7649
  649TMC3    C3 9658   4.620   1.395  13.031  0.4280 -0.1545 -0.5296
  649TMC3    C4 9659   4.393   1.497  13.134  0.8616  0.9733 -0.0787
  649TMC3    C5 9660   4.487   1.450  13.214 -0.3015  0.9528 -0.5278
  649TMC3    C6 9661   4.602   1.388  13.165 -0.8516  0.0999 -0.3790
  649TMC3     C 9662   4.296   1.501  12.912 -0.1025 -0.7703  0.5719
  649TMC3     O 9663   4.186   1.477  12.957 -0.1929  0.3511 -0.4520
  649TMC3     H 9664   4.547   1.420  12.833  0.2773  0.3188 -0.7832
  649TMC3    H1 9665   4.303   1.545  13.170 -1.2610 -2.1249 -1.2314
  649TMC3    H2 9666   4.677   1.353  13.234 -1.3592  1.9103  1.0728
  649TMC3    C7 9667   4.450   1.432  13.350 -0.2161 -0.4312 -0.3118
  649TMC3    C8 9668   0.009   1.341  12.985 -0.0606  0.3641 -0.0674
  649TMC3    O1 9669   4.328   1.414  13.366 -0.1911  0.3782 -0.2405
  649TMC3    O2 9670   0.073   1.286  13.074  0.0960 -0.3388 -0.1954
  650TMC3    C1 9671   2.051   2.856  13.009  0.4629 -0.4830  0.0892
  650TMC3    C2 9672   1.997   2.985  13.031 -0.1861 -0.0450 -0.3304
  650TMC3    C3 9673   1.881   3.021  12.961 -0.4091 -0.1804 -0.0119
  650TMC3    C4 9674   2.004   2.786  12.905 -0.2673 -1.3271  0.3503
  650TMC3    C5 9675   1.895   2.821  12.842 -0.1529  0.9434 -0.7941
  650TMC3    C6 9676   1.828   2.940  12.866  0.3095 -0.8702  0.0701
  650TMC3     C 9677   2.166   2.808  13.084  0.6995 -0.4772 -0.0922
  650TMC3     O 9678   2.227   2.892  13.150  0.7300 -0.3286 -0.1403
  650TMC3     H 9679   2.053   3.053  13.094  0.3644 -1.7655  1.0623
  650TMC3    H1 9680   2.060   2.699  12.872 -0.9109 -1.0693 -1.4205
  650TMC3    H2 9681   1.739   2.972  12.813  0.7583  3.0750  1.6720
  650TMC3    C7 9682   1.873   2.768  12.709  0.4202 -0.3340 -0.3709
  650TMC3    C8 9683   1.856   3.169  12.948 -0.2641  0.4315  0.2102
  650TMC3    O1 9684   1.898   2.648  12.695 -0.3858  0.5805  0.2269
  650TMC3    O2 9685   1.946   3.245  12.979 -0.3895 -0.3590  0.4788
  651MPD2     C 9686   0.416   0.403  10.491 -0.1492 -0.0746 -0.5150
  651MPD2    C1 9687   0.382   0.496  10.585  0.1830 -0.9051 -0.7913
  651MPD2    C2 9688   0.483   0.573  10.644 -0.6172 -0.5082  0.2379
  651MPD2    C3 9689   0.611   0.554  10.607  0.1062  0.6341  1.2023
  651MPD2    C4 9690   0.645   0.448  10.526  0.4195 -0.0476  0.3578
  651MPD2    C5 9691   0.551   0.379  10.457  0.4509 -0.5276 -0.0311
  651MPD2     H 9692   0.457   0.645  10.720  1.3932  0.2208  0.2407
  651MPD2    H1 9693   0.749   0.427  10.505  0.8453  1.2380  1.1956
  651MPD2    H2 9694   0.349   0.339  10.434 -1.4240 -0.2231  1.1557
  651MPD2    H3 9695   0.571   0.306  10.379 -0.2737  0.3295 -1.0203
  651MPD2     N 9696   0.706   0.645  10.658 -0.1840  0.6148 -0.8025
  651MPD2    H5 9697   0.675   0.696  10.740  2.1157 -0.4900  0.7791
  651MPD2    N1 9698   0.242   0.521  10.616  1.2714 -0.6303 -0.6342
  651MPD2    H7 9699   0.228   0.592  10.688  1.9380 -0.8230 -0.3120
  652TMC3    C1 9700   1.166   0.757  10.693 -0.0135  0.7495 -0.2393
  652TMC3    C2 9701   1.057   0.717  10.608 -0.2668  1.1612 -0.9211
  652TMC3    C3 9702   0.929   0.744  10.653  0.6408  0.2660  0.1587
  652TMC3    C4 9703   1.146   0.833  10.807  0.2606 -0.4176 -0.7623
  652TMC3    C5 9704   1.018   0.865  10.843 -0.0984 -0.5508  0.3974
  652TMC3    C6 9705   0.906   0.820  10.769  0.0264  0.3519 -0.6306
  652TMC3     C 9706   1.302   0.713  10.679 -0.9094  0.1366 -0.7388
  652TMC3     O 9707   1.359   0.680  10.779  0.7523  0.2564 -0.1611
  652TMC3     H 9708   1.078   0.662  10.516 -0.8734 -0.0825 -0.3236
  652TMC3    H1 9709   1.226   0.862  10.874 -0.7202  0.9238 -0.1801
  652TMC3    H2 9710   0.806   0.831  10.808 -0.5696 -1.3823 -1.6664
  652TMC3    C7 9711   0.997   0.998  10.886  0.4779  0.1635  0.1389
  652TMC3    C8 9712   0.822   0.665  10.589  0.2673 -0.3542  0.5788
  652TMC3    O1 9713   0.908   1.029  10.969 -0.0539 -0.5321  0.6923
  652TMC3    O2 9714   0.852   0.627  10.475  0.1596  0.3490  0.0655
  653MPD2     C 9715   4.282   0.603  17.583  0.3428  0.2310 -0.3728
  653MPD2    C1 9716   4.310   0.702  17.493  0.0500 -0.2753  0.2865
  653MPD2    C2 9717   4.277   0.661  17.362 -0.1333 -0.3912 -0.5460
  653MPD2    C3 9718   4.254   0.529  17.329  0.6089  0.1827  0.6618
  653MPD2    C4 9719   4.238   0.429  17.423  0.3736  0.6742  0.1113
  653MPD2    C5 9720   4.243   0.475  17.549 -0.0894 -0.4535  0.0625
  653MPD2     H 9721   4.289   0.741  17.290 -1.2398  0.9359  0.7729
  653MPD2    H1 9722   4.204   0.329  17.398  0.3931  0.3292  1.4678
  653MPD2    H2 9723   4.271   0.626  17.689  0.4076 -2.3842  0.2007
  653MPD2    H3 9724   4.214   0.408  17.629 -0.0413  1.6599  1.8137
  653MPD2     N 9725   4.248   0.497  17.191  0.3556 -0.7485 -0.1347
  653MPD2    H5 9726   4.256   0.576  17.128 -0.4582  1.1287  2.0987
  653MPD2    N1 9727   4.355   0.832  17.524 -0.4484  0.6703  0.1246
  653MPD2    H7 9728   4.367   0.897  17.446  2.8047  1.4538  1.2839
  654TMC3    C1 9729   4.233   0.354  16.994  0.1285 -0.3834 -0.2266
  654TMC3    C2 9730   4.126   0.415  16.940 -0.0119 -0.3609 -0.0059
  654TMC3    C3 9731   4.071   0.357  16.834  0.2616  0.1235 -0.2010
  654TMC3    C4 9732   4.275   0.233  16.947  0.5854  0.2842 -0.1650
  654TMC3    C5 9733   4.203   0.167  16.852 -0.4004  0.5680 -0.4635
  654TMC3    C6 9734   4.096   0.228  16.797  0.4160 -1.0970  0.9693
  654TMC3     C 9735   4.251   0.367  17.144  0.7323 -0.7017  1.5222
  654TMC3     O 9736   4.266   0.258  17.201  0.3593  0.1709 -0.3463
  654TMC3     H 9737   4.090   0.510  16.977  0.7298  1.0216 -2.8488
  654TMC3    H1 9738   4.356   0.185  17.002 -0.5079 -1.5908 -0.1766
  654TMC3    H2 9739   4.025   0.169  16.741  0.3500 -0.1252  0.0157
  654TMC3    C7 9740   4.198   0.026  16.860 -0.2516  0.0882  0.6745
  654TMC3    C8 9741   3.964   0.427  16.765  0.5691  0.5821  0.2733
  654TMC3    O1 9742   4.161   4.710  16.756  0.2238 -0.5784  0.4384
  654TMC3    O2 9743   3.894   0.505  16.827  0.2545  0.2230 -0.4408
  655MPD2     C 9744   1.175   0.775  15.545  0.1380  0.6739  0.4818
  655MPD2    C1 9745   1.049   0.807  15.501 -0.1545 -0.3300 -0.2798
  655MPD2    C2 9746   1.011   0.763  15.377 -0.1318 -0.2781  0.1771
  655MPD2    C3 9747   1.093   0.676  15.305 -0.6178  0.2957  0.8786
  655MPD2    C4 9748   1.220   0.660  15.347 -0.0014  0.4371  0.5838
  655MPD2    C5 9749   1.262   0.727  15.461 -0.2113  0.0548 -0.3438
  655MPD2     H 9750   0.911   0.791  15.344 -0.5056 -0.4089  1.2013
  655MPD2    H1 9751   1.286   0.604  15.281 -0.3893  0.4183  0.2065
  655MPD2    H2 9752   1.221   0.814  15.634 -0.1228  2.7511 -0.2920
  655MPD2    H3 9753   1.366   0.726  15.491 -0.5184 -3.3214  0.6958
  655MPD2     N 9754   1.044   0.616  15.183 -0.1771 -0.2299 -0.2214
  655MPD2    H5 9755   1.111   0.573  15.120  0.2409  0.7731 -0.4700
  655MPD2    N1 9756   0.966   0.896  15.568 -0.0925  0.1255  0.3620
  655MPD2    H7 9757   0.880   0.933  15.528  0.5135 -0.7667 -1.7761
  656TMC3    C1 9758   0.889   1.028  15.734  0.3653  0.1051 -0.3038
  656TMC3    C2 9759   0.835   1.018  15.858 -0.4660  0.2916 -0.1317
  656TMC3    C3 9760   0.727   1.097  15.884  0.1645  0.5588  0.3820
  656TMC3    C4 9761   0.854   1.122  15.646  0.1793 -0.2984 -0.6843
  656TMC3    C5 9762   0.753   1.207  15.678 -0.4174 -0.3230 -0.2917
  656TMC3    C6 9763   0.687   1.196  15.794 -0.5968  0.5724  0.1979
  656TMC3     C 9764   0.984   0.930  15.697 -0.6320 -0.8144  0.2792
  656TMC3     O 9765   1.066   0.888  15.778  0.1477 -0.0986 -0.2002
  656TMC3     H 9766   0.868   0.937  15.922  1.9168  0.5770 -1.0297
  656TMC3    H1 9767   0.906   1.133  15.551  0.5677  0.7194 -0.3441
  656TMC3    H2 9768   0.592   1.241  15.817 -3.1588 -3.5840 -2.2426
  656TMC3    C7 9769   0.720   1.312  15.583 -0.0572  0.6116 -0.1382
  656TMC3    C8 9770   0.638   1.050  15.988 -0.3383 -0.4074 -0.3276
  656TMC3    O1 9771   0.765   1.302  15.469 -0.1311 -0.1784 -0.0231
  656TMC3    O2 9772   0.648   0.931  16.017  0.0112 -0.2099 -0.0311
  657TMC3    C1 9773   0.031   4.311  15.008 -0.0020 -0.2420  0.9360
  657TMC3    C2 9774   0.097   4.372  15.114 -0.1837  0.7716  0.4468
  657TMC3    C3 9775   0.032   4.482  15.169 -0.1635 -0.0898  0.0719
  657TMC3    C4 9776   4.637   4.338  14.971 -0.7412 -0.0627 -0.0109
  657TMC3    C5 9777   4.567   4.434  15.036  0.3011  0.6998 -0.1707
  657TMC3    C6 9778   4.632   4.516  15.128  0.4802  0.0459 -0.0833
  657TMC3     C 9779   0.095   4.199  14.934  0.4852 -0.7722  0.3399
  657TMC3     O 9780   0.018   4.120  14.874 -0.4984 -0.1917  0.0051
  657TMC3     H 9781   0.201   4.360  15.140 -0.3625  0.2957  0.9558
  657TMC3    H1 9782   4.603   4.298  14.877  1.3749 -0.2622 -0.6921
  657TMC3    H2 9783   4.567   4.579  15.188 -0.6664 -0.6770 -0.5776
  657TMC3    C7 9784   4.432   4.456  14.998  0.4376 -0.5836 -0.1471
  657TMC3    C8 9785   0.107   4.583  15.245  0.0970 -0.0345 -0.3134
  657TMC3    O1 9786   4.383   4.358  14.938 -0.7859  0.4817 -0.0233
  657TMC3    O2 9787   0.045   4.685  15.264  0.8385  0.4079 -0.2487
  658MPD2     C 9788   1.329   0.771  14.686 -0.0017  0.5955  0.0279
  658MPD2    C1 9789   1.201   0.747  14.633  0.0617  0.2503  0.2543
  658MPD2    C2 9790   1.190   0.752  14.498 -0.6830  0.0249  0.5494
  658MPD2    C3 9791   1.304   0.766  14.416 -0.0219  0.2352  0.0475
  658MPD2    C4 9792   1.433   0.781  14.469 -0.9187 -0.7408  1.0006
  658MPD2    C5 9793   1.436   0.780  14.602 -1.0567  0.3092  0.4707
  658MPD2     H 9794   1.092   0.734  14.456  0.4537 -1.8050 -1.3354
  658MPD2    H1 9795   1.527   0.798  14.418 -1.0644  0.2770  1.0556
  658MPD2    H2 9796   1.349   0.760  14.792 -0.3249 -0.2306  0.0082
  658MPD2    H3 9797   1.534   0.780  14.647  0.2506  0.3367 -2.3896
  658MPD2     N 9798   1.291   0.777  14.278 -0.6362 -0.3406 -0.5028
  658MPD2    H5 9799   1.202   0.772  14.229 -0.0879  0.5760 -1.5850
  658MPD2    N1 9800   1.096   0.704  14.713 -0.9140 -0.2239  0.2688
  658MPD2    H7 9801   1.116   0.701  14.812  0.2610 -0.1820  0.0320
  659TMC3    C1 9802   0.903   0.603  14.798 -0.2412  0.0335  0.3594
  659TMC3    C2 9803   0.955   0.607  14.929 -0.0245  0.5143  0.1602
  659TMC3    C3 9804   0.879   0.556  15.027  0.1565 -0.9429  0.4058
  659TMC3    C4 9805   0.776   0.556  14.771 -0.2659 -0.4576  0.2037
  659TMC3    C5 9806   0.712   0.499  14.880  0.0345  0.2208  0.4679
  659TMC3    C6 9807   0.760   0.499  15.005 -0.0424  0.5732 -0.7646
  659TMC3     C 9808   0.971   0.656  14.679 -0.1287  0.1714  0.0602
  659TMC3     O 9809   0.909   0.657  14.574  0.2502  0.3415  0.6051
  659TMC3     H 9810   1.037   0.674  14.950  0.7369 -0.6605  0.9550
  659TMC3    H1 9811   0.738   0.540  14.671  0.4390 -1.1173  0.0413
  659TMC3    H2 9812   0.698   0.457  15.084 -0.5722  2.1495 -0.3438
  659TMC3    C7 9813   0.567   0.470  14.884  0.1034  0.4835  0.8952
  659TMC3    C8 9814   0.910   0.597  15.160 -0.5654  0.1953 -0.5781
  659TMC3    O1 9815   0.506   0.426  14.983  0.5343 -0.0973  0.0297
  659TMC3    O2 9816   0.818   0.593  15.239  0.3482  0.3920 -0.8771
  660MPD2     C 9817   4.051   4.160  12.269  0.0126 -0.3775  0.3370
  660MPD2    C1 9818   3.935   4.226  12.292 -0.3503 -0.3835  0.5912
  660MPD2    C2 9819   3.878   4.228  12.426  0.5809 -0.4438 -0.2091
  660MPD2    C3 9820   3.949   4.162  12.525 -0.2256 -0.1171  0.1130
  660MPD2    C4 9821   4.074   4.113  12.501  0.2024  0.0779 -0.4869
  660MPD2    C5 9822   4.125   4.117  12.377  0.4507  0.3957  0.0626
  660MPD2     H 9823   3.780   4.267  12.449  1.4122  1.5954 -0.1109
  660MPD2    H1 9824   4.130   4.080  12.588 -0.0021 -0.3656 -0.5242
  660MPD2    H2 9825   4.090   4.156  12.168  0.8449 -1.5877  0.7027
  660MPD2    H3 9826   4.229   4.093  12.357  0.7096  2.4821 -1.1003
  660MPD2     N 9827   3.896   4.144  12.654  0.6893  0.1710  0.5879
  660MPD2    H5 9828   3.958   4.093  12.716 -0.9225 -0.4040  1.7396
  660MPD2    N1 9829   3.877   4.296  12.189 -0.0396  0.8148  0.8044
  660MPD2    H7 9830   3.889   4.262  12.094 -2.0029  0.3696  0.7037
  661TMC3    C1 9831   3.702   4.427  12.105  0.2795 -0.0855 -0.9283
  661TMC3    C2 9832   3.749   4.431  11.970 -0.9360  0.0938  0.2229
  661TMC3    C3 9833   3.652   4.468  11.884  0.5931 -0.4073 -0.0637
  661TMC3    C4 9834   3.579   4.461  12.141 -0.9810 -0.1585  0.1965
  661TMC3    C5 9835   3.485   4.497  12.042 -0.0540 -1.0779  0.3772
  661TMC3    C6 9836   3.522   4.503  11.911  0.5927  0.1573  0.4382
  661TMC3     C 9837   3.798   4.406  12.210 -0.2834 -0.3478  1.0001
  661TMC3     O 9838   3.785   4.470  12.314 -0.0660 -0.4510  0.0683
  661TMC3     H 9839   3.848   4.400  11.936 -0.1771  0.9861  1.6350
  661TMC3    H1 9840   3.557   4.445  12.246  0.0857  1.9172  0.7383
  661TMC3    H2 9841   3.456   4.546  11.837  2.2641  0.0399 -1.1220
  661TMC3    C7 9842   3.348   4.485  12.083 -0.1651 -0.4091  0.4589
  661TMC3    C8 9843   3.696   4.505  11.753  1.2592 -0.2872 -0.4012
  661TMC3    O1 9844   3.319   4.494  12.204 -0.2335  0.1877 -0.2543
  661TMC3    O2 9845   3.804   4.450  11.719  0.2588 -0.3563 -0.4298
  662MPD2     C 9846   3.549   3.962  17.171 -0.2526  0.0726  0.5567
  662MPD2    C1 9847   3.626   3.887  17.254  1.0865  0.1420 -0.2224
  662MPD2    C2 9848   3.644   3.929  17.385 -0.1995  0.2255  0.1409
  662MPD2    C3 9849   3.590   4.049  17.426 -0.1346 -0.7045  0.5341
  662MPD2    C4 9850   3.503   4.118  17.341  0.5221  0.1618  0.3234
  662MPD2    C5 9851   3.487   4.080  17.211  0.2942 -0.6716 -0.2022
  662MPD2     H 9852   3.705   3.870  17.451 -0.0784  1.0676  0.7851
  662MPD2    H1 9853   3.446   4.207  17.364 -0.6858 -1.1265  2.3608
  662MPD2    H2 9854   3.536   3.948  17.064  0.3251 -1.1236  0.6490
  662MPD2    H3 9855   3.434   4.141  17.139 -0.0112 -0.6044  0.0817
  662MPD2     N 9856   3.594   4.098  17.556  0.1325  0.0770  0.5846
  662MPD2    H5 9857   3.545   4.184  17.578  0.5410  0.3509  0.4305
  662MPD2    N1 9858   3.698   3.774  17.207 -0.8618  0.0262  0.0312
  662MPD2    H7 9859   3.773   3.739  17.266  0.1484  1.3805 -0.4302
  663TMC3    C1 9860   3.788   3.616  17.050 -0.2178  0.3148 -0.0641
  663TMC3    C2 9861   3.879   3.576  17.146  0.4101  0.2161  0.8134
  663TMC3    C3 9862   3.991   3.514  17.109 -0.0451 -0.0870  0.2356
  663TMC3    C4 9863   3.804   3.596  16.916  0.5430 -0.3253  0.1116
  663TMC3    C5 9864   3.914   3.527  16.882 -0.3656  0.1845  0.4111
  663TMC3    C6 9865   3.999   3.484  16.979 -0.2319  0.0922  0.5324
  663TMC3     C 9866   3.687   3.717  17.078  0.2055  0.2030  0.1348
  663TMC3     O 9867   3.608   3.749  16.988 -0.3015  0.2385 -0.1267
  663TMC3     H 9868   3.863   3.610  17.248 -0.2849 -0.0320  0.7899
  663TMC3    H1 9869   3.728   3.613  16.841  1.2020 -1.8096 -0.8778
  663TMC3    H2 9870   4.092   3.450  16.934 -0.3225 -1.8104  1.7863
  663TMC3    C7 9871   3.889   3.420  16.787 -0.0264  0.5453  0.8112
  663TMC3    C8 9872   4.030   3.389  17.176 -0.0827  0.5940  0.1319
  663TMC3    O1 9873   3.828   3.442  16.683 -0.1432 -0.0005 -0.2491
  663TMC3    O2 9874   4.057   3.296  17.102  0.4186  0.2925 -0.1176
  664MPD2     C 9875   2.236   1.600  17.653  0.4749 -0.1123 -0.0599
  664MPD2    C1 9876   2.349   1.660  17.705  0.0633  0.1882  0.0000
  664MPD2    C2 9877   2.379   1.659   0.098 -0.2245 -0.2824 -0.2712
  664MPD2    C3 9878   2.306   1.578   0.181 -0.5622 -0.0297  0.6459
  664MPD2    C4 9879   2.200   1.510   0.126  0.0028  0.6869 -0.4139
  664MPD2    C5 9880   2.160   1.522  17.740  0.0830 -0.3957 -0.3982
  664MPD2     H 9881   2.462   1.715   0.139 -1.9243  0.7072  1.7974
  664MPD2    H1 9882   2.129   1.450   0.182  2.3465 -0.7498  1.0270
  664MPD2    H2 9883   2.193   1.620  17.555 -1.2909 -0.3666  0.6622
  664MPD2    H3 9884   2.069   1.474  17.705 -1.0037  1.9658 -0.7768
  664MPD2     N 9885   2.332   1.583   0.320  0.2988  0.1834 -0.3293
  664MPD2    H5 9886   2.409   1.643   0.348 -0.7814  0.6547  1.6524
  664MPD2    N1 9887   2.416   1.751  17.622 -0.7082  0.4331 -0.2853
  664MPD2    H7 9888   2.365   1.789  17.543 -0.3810  1.8389  0.1774
  665TMC3    C1 9889   2.292   1.581   0.547  0.1585  0.3222 -0.8254
  665TMC3    C2 9890   2.239   1.526   0.663 -0.8492 -0.3711 -0.8633
  665TMC3    C3 9891   2.270   1.584   0.790  0.4258 -0.4372 -0.6508
  665TMC3    C4 9892   2.364   1.695   0.562  0.2869 -0.1556  0.0437
  665TMC3    C5 9893   2.383   1.756   0.680 -0.4925 -0.6746  0.1522
  665TMC3    C6 9894   2.329   1.711   0.797  0.4550 -0.2957 -0.3855
  665TMC3     C 9895   2.262   1.524   0.421  0.1804  0.1016  0.3063
  665TMC3     O 9896   2.156   1.463   0.417  0.0949 -0.2039  0.2676
  665TMC3     H 9897   2.185   1.432   0.660  3.2924 -2.7318 -1.6925
  665TMC3    H1 9898   2.410   1.739   0.475 -1.6861  1.5648 -0.1220
  665TMC3    H2 9899   2.344   1.762   0.891 -2.4914 -0.0319 -0.0572
  665TMC3    C7 9900   2.405   1.904   0.669  0.1284  0.0767  0.2473
  665TMC3    C8 9901   2.177   1.559   0.889  0.4245 -0.6250 -0.1916
  665TMC3    O1 9902   2.375   1.948   0.558  0.8151  0.4348  0.0351
  665TMC3    O2 9903   2.230   1.546   1.000  0.1873  0.2003 -0.1525
  666TMC3    C1 9904   1.348   1.766   9.872  0.6598  0.1855 -0.1174
  666TMC3    C2 9905   1.428   1.706   9.963  0.3426  0.2573 -0.4528
  666TMC3    C3 9906   1.533   1.773  10.017 -0.0199  0.2826 -0.5354
  666TMC3    C4 9907   1.369   1.901   9.845 -0.4950 -0.4905  0.0428
  666TMC3    C5 9908   1.477   1.963   9.903 -0.4701  0.1483 -0.4706
  666TMC3    C6 9909   1.559   1.900   9.985  0.4822  0.3961  0.6179
  666TMC3     C 9910   1.214   1.717   9.866 -0.8642 -0.8676 -0.6076
  666TMC3     O 9911   1.155   1.741   9.766 -0.5366  0.8721  0.0201
  666TMC3     H 9912   1.421   1.599   9.982  0.8741  0.3346  0.1924
  666TMC3    H1 9913   1.297   1.959   9.788  0.4801  0.8095  0.1367
  666TMC3    H2 9914   1.623   1.960  10.049  1.8984 -1.6057  1.0533
  666TMC3    C7 9915   1.477   2.112   9.896 -0.0285  0.5883 -0.1516
  666TMC3    C8 9916   1.620   1.705  10.109 -0.0312 -0.2757  0.0288
  666TMC3    O1 9917   1.369   2.162   9.872  0.1126 -0.6762  0.1578
  666TMC3    O2 9918   1.592   1.602  10.163  0.2250  0.0822 -0.0006
  667MPD2     C 9919   2.330   2.047  14.690 -0.1485 -0.6588  0.2887
  667MPD2    C1 9920   2.314   2.002  14.821  0.0204 -0.1830  0.0752
  667MPD2    C2 9921   2.216   1.904  14.839  0.3322  0.0284  0.2424
  667MPD2    C3 9922   2.138   1.846  14.739 -0.2818  0.4126  0.5144
  667MPD2    C4 9923   2.167   1.879  14.609  0.2621  0.5659 -0.9334
  667MPD2    C5 9924   2.258   1.986  14.588 -0.0327 -0.0083  0.2958
  667MPD2     H 9925   2.203   1.869  14.941  1.3073  1.4833  0.8731
  667MPD2    H1 9926   2.108   1.837  14.528  1.3182  0.2571 -1.5422
  667MPD2    H2 9927   2.402   2.120  14.654 -1.3661  1.1420  1.4789
  667MPD2    H3 9928   2.270   2.023  14.487 -0.2609  1.3923  0.7892
  667MPD2     N 9929   2.028   1.769  14.768 -1.0947  0.4557 -0.4623
  667MPD2    H5 9930   1.991   1.722  14.686 -0.8232  0.7905 -0.7773
  667MPD2    N1 9931   2.396   2.044  14.928  0.2039  0.1859 -0.1315
  667MPD2    H7 9932   2.373   2.013  15.021  1.0700  0.4845  0.1814
  668TMC3    C1 9933   2.545   2.165  15.046 -0.4477  0.4528  0.1155
  668TMC3    C2 9934   2.674   2.197  15.059  0.3942  0.1613 -0.9266
  668TMC3    C3 9935   2.736   2.225  15.185 -0.5143 -0.0672  1.1164
  668TMC3    C4 9936   2.473   2.156  15.165  0.1172  0.2026 -0.3727
  668TMC3    C5 9937   2.529   2.171  15.287  0.2536  0.3970 -0.2230
  668TMC3    C6 9938   2.663   2.213  15.298  0.4819  0.2498  0.3369
  668TMC3     C 9939   2.500   2.131  14.915 -0.1793  0.3725  0.4132
  668TMC3     O 9940   2.562   2.175  14.819  0.0768  0.0680  0.0562
  668TMC3     H 9941   2.732   2.203  14.968 -0.4144  1.8628 -1.3267
  668TMC3    H1 9942   2.372   2.117  15.158 -0.0349  0.4343  0.5153
  668TMC3    H2 9943   2.712   2.199  15.393 -2.9773 -1.4381  1.8421
  668TMC3    C7 9944   2.449   2.149  15.408  0.5001 -0.0988 -1.5705
  668TMC3    C8 9945   2.874   2.264  15.194 -0.1791 -0.1650  0.0072
  668TMC3    O1 9946   2.481   2.205  15.508 -0.3861  0.2746  0.0376
  668TMC3    O2 9947   2.921   2.232  15.301  0.1011 -0.0518  0.0819
  669TMC3    C1 9948   1.368   2.020  14.463  0.7116 -0.2397 -0.1136
  669TMC3    C2 9949   1.261   2.002  14.381  0.1734  0.0319  0.4841
  669TMC3    C3 9950   1.271   2.058  14.257 -0.0333  0.3205  0.1770
  669TMC3    C4 9951   1.480   2.092  14.430 -0.4690  0.4599 -0.5479
  669TMC3    C5 9952   1.484   2.148  14.304  0.0042  0.2757  0.1302
  669TMC3    C6 9953   1.378   2.135  14.215  0.0957 -0.3028 -0.7085
  669TMC3     C 9954   1.360   1.926  14.576 -0.7950  0.1271 -0.1606
  669TMC3     O 9955   1.254   1.864  14.592 -0.5363 -0.0371  0.1353
  669TMC3     H 9956   1.175   1.940  14.408  0.1764  0.5571  1.6925
  669TMC3    H1 9957   1.562   2.086  14.500  1.7678 -1.1212 -3.3163
  669TMC3    H2 9958   1.380   2.186  14.119 -0.2761 -1.0601 -1.1227
  669TMC3    C7 9959   1.588   2.247  14.288 -0.9117  0.3018  0.5037
  669TMC3    C8 9960   1.152   2.046  14.175 -0.1415 -0.0181  0.2609
  669TMC3    O1 9961   1.638   2.270  14.401  0.0896 -0.1454  0.3431
  669TMC3    O2 9962   1.047   2.029  14.232  0.1172 -1.0698  0.2476
  670MPD2     C 9963   4.135   4.403  13.580 -0.2496 -0.5034 -0.6883
  670MPD2    C1 9964   4.253   4.341  13.590 -0.9945 -0.3624 -0.1625
  670MPD2    C2 9965   4.308   4.326  13.714 -0.0686  0.1540 -0.0918
  670MPD2    C3 9966   4.257   4.388  13.826 -0.2252 -0.5839 -0.4449
  670MPD2    C4 9967   4.140   4.460  13.810  0.3015  0.5477  0.4403
  670MPD2    C5 9968   4.084   4.463  13.687  0.5018 -0.5659  0.4686
  670MPD2     H 9969   4.405   4.280  13.728 -0.7699 -0.9739  1.0522
  670MPD2    H1 9970   4.091   4.510  13.893 -0.1812  1.7484 -0.5850
  670MPD2    H2 9971   4.074   4.405  13.490  0.4428 -0.0546 -1.1459
  670MPD2    H3 9972   3.992   4.518  13.672  0.6534 -0.3211  0.4469
  670MPD2     N 9973   4.320   4.372  13.954 -0.1076  0.3159 -0.1219
  670MPD2    H5 9974   4.394   4.302  13.959 -0.2328  0.1171 -0.9302
  670MPD2    N1 9975   4.325   4.293  13.476  0.4052 -0.0069  0.0295
  670MPD2    H7 9976   4.424   4.279  13.495  0.2225  3.6271  3.7174
  671TMC3    C1 9977   4.374   4.405  14.167  0.8017  0.7433 -0.2765
  671TMC3    C2 9978   4.477   4.483  14.213  0.2528 -0.4701 -0.5897
  671TMC3    C3 9979   4.587   4.429  14.275  0.7349  0.8464 -0.8044
  671TMC3    C4 9980   4.363   4.273  14.192  0.3164 -0.0365 -0.2962
  671TMC3    C5 9981   4.468   4.225  14.271  0.0039  0.7876 -0.5681
  671TMC3    C6 9982   4.577   4.297  14.318  0.8748 -0.2413  0.0449
  671TMC3     C 9983   4.294   4.452  14.063 -0.4442  0.0426 -0.2582
  671TMC3     O 9984   4.261   4.566  14.068  0.3252 -0.3680 -0.2948
  671TMC3     H 9985   4.488   4.574  14.155 -1.7332 -1.6446 -2.8023
  671TMC3    H1 9986   4.275   4.219  14.159  0.8569 -1.0955  0.0183
  671TMC3    H2 9987   4.654   4.243  14.371  1.3219  0.2702 -0.0895
  671TMC3    C7 9988   4.510   4.089  14.240 -0.1031 -0.9189 -0.3590
  671TMC3    C8 9989   4.711   4.453  14.211  0.1942  0.4229  0.4474
  671TMC3    O1 9990   4.614   4.045  14.292  0.4816  0.4970  0.4200
  671TMC3    O2 9991   4.728   4.509  14.103  0.7081  0.5930  0.2858
  672MPD2     C 9992   0.164   0.407   0.790  0.2507  0.9575 -0.0267
  672MPD2    C1 9993   0.233   0.333   0.688  0.7115  0.1422 -0.0588
  672MPD2    C2 9994   0.368   0.360   0.668 -0.5759  0.0823 -0.1634
  672MPD2    C3 9995   0.432   0.461   0.736 -0.0668 -0.2384  0.3055
  672MPD2    C4 9996   0.374   0.517   0.840 -0.2594  0.2794  0.2601
  672MPD2    C5 9997   0.241   0.493   0.860  0.6274 -0.9736  0.4181
  672MPD2     H 9998   0.408   0.310   0.581  1.4730  1.7945 -0.2113
  672MPD2    H1 9999   0.425   0.600   0.888 -0.7920 -0.1584  1.5752
  672MPD2    H210000   0.060   0.393   0.818  0.3493  0.7656  0.2448
  672MPD2    H310001   0.196   0.559   0.933  0.9206 -0.0150 -0.2622
  672MPD2     N10002   0.571   0.496   0.728  0.0020 -0.1590  0.0138
  672MPD2    H510003   0.608   0.565   0.793 -0.6711  0.4129 -0.2060
  672MPD2    N110004   0.168   0.236   0.607  0.5872 -0.3970 -0.1572
  672MPD2    H710005   0.222   0.180   0.541  0.4459 -0.7148 -0.0020
  673TMC3    C110006   4.720   0.118   0.510 -0.3250  0.3806  0.8912
  673TMC3    C210007   0.066   0.011   0.479 -0.6479  0.4159  0.7110
  673TMC3    C310008   0.009   4.641   0.419 -0.6195 -0.4863  0.8987
  673TMC3    C410009   4.585   0.117   0.483  0.4440 -0.9712  0.2789
  673TMC3    C510010   4.536   0.008   0.412  0.1720  0.9331 -0.9698
  673TMC3    C610011   4.614   4.637   0.384  0.1070 -0.1430  0.4330
  673TMC3     C10012   0.032   0.226   0.592 -0.0879  1.1963 -0.1394
  673TMC3     O10013   4.686   0.305   0.639 -0.1719 -0.2149 -0.0756
  673TMC3     H10014   0.173   0.027   0.470 -0.7501  0.4451 -0.3893
  673TMC3    H110015   4.520   0.196   0.520 -0.4650 -0.7518 -1.8042
  673TMC3    H210016   4.569   4.549   0.340  0.1173  0.4065 -0.6563
  673TMC3    C710017   4.403   0.016   0.351 -0.1619  0.0098  0.2486
  673TMC3    C810018   0.082   4.532   0.366  0.7271  0.1997 -0.2223
  673TMC3    O110019   4.350   4.649   0.303 -0.1108  0.0142  0.4315
  673TMC3    O210020   0.026   4.466   0.277  0.7110  0.3052 -0.1164
  674MPD2     C10021   3.981   0.107  17.305  0.4307  0.3141 -0.1078
  674MPD2    C110022   3.899   0.027  17.384  0.3249 -0.2403 -0.4331
  674MPD2    C210023   3.782   0.081  17.427 -0.3709  0.2365 -1.2133
  674MPD2    C310024   3.742   0.206  17.383 -0.7898  0.1083  0.0970
  674MPD2    C410025   3.815   0.277  17.290  0.3175 -0.4808 -0.1218
  674MPD2    C510026   3.935   0.229  17.257  0.3137 -0.0825 -0.1744
  674MPD2     H10027   3.708   0.021  17.479  1.2760 -0.9446 -0.2099
  674MPD2    H110028   3.792   0.377  17.256  1.0111  0.1091  1.1156
  674MPD2    H210029   4.077   0.068  17.276 -0.0790 -0.1863 -1.1179
  674MPD2    H310030   3.986   0.289  17.182 -1.1961  0.3657 -0.8392
  674MPD2     N10031   3.627   0.261  17.452 -0.0935 -0.9074  0.1667
  674MPD2    H510032   3.579   0.201  17.518 -0.5485  0.2004  0.8371
  674MPD2    N110033   3.956   4.646  17.433  0.2470 -0.0537  0.1707
  674MPD2    H710034   4.042   4.622  17.385  1.3351  0.8943  1.6433
  675TMC3    C110035   4.024   4.475  17.574  0.0380  0.1657  0.0456
  675TMC3    C210036   3.985   4.356  17.636  0.5239  0.2640 -0.1414
  675TMC3    C310037   4.071   4.296  17.718  0.0784  0.8035  0.1631
  675TMC3    C410038   4.147   4.533  17.605  0.1491 -0.2257 -0.4443
  675TMC3    C510039   4.229   4.462  17.679 -0.2849 -0.0249 -0.0633
  675TMC3    C610040   4.196   4.346  17.740 -0.5264 -0.3298 -0.5511
  675TMC3     C10041   3.911   4.558  17.528  0.4683  0.0901 -0.0915
  675TMC3     O10042   3.807   4.545  17.591  0.7065 -0.1913 -0.3151
  675TMC3     H10043   3.881   4.329  17.621  0.2523  0.7523  0.8835
  675TMC3    H110044   4.167   4.627  17.555 -0.7605  1.1114  1.7122
  675TMC3    H210045   4.262   4.294   0.067 -0.8331 -0.6506 -0.4976
  675TMC3    C710046   4.362   4.503  17.704  0.4404  1.2968  0.0807
  675TMC3    C810047   4.021   4.189   0.059 -0.1373 -0.1183 -0.1695
  675TMC3    O110048   4.449   4.417  17.721 -0.2068  0.3542  0.2536
  675TMC3    O210049   3.951   4.099   0.012 -0.0736 -0.0310  0.3055
  676MPD2     C10050   1.605   3.209  11.185 -0.0925  0.3622  0.1529
  676MPD2    C110051   1.598   3.100  11.260  0.0669 -0.0626  0.3758
  676MPD2    C210052   1.635   2.978  11.209 -0.3408  0.2518  0.2534
  676MPD2    C310053   1.663   2.965  11.081 -0.5101 -0.3401 -0.2371
  676MPD2    C410054   1.669   3.080  11.000 -0.5049  0.2169  0.2119
  676MPD2    C510055   1.640   3.200  11.054 -0.4263 -0.1995 -0.0548
  676MPD2     H10056   1.651   2.898  11.280  1.5255  2.3722  2.2095
  676MPD2    H110057   1.701   3.063  10.898  3.6820  2.3800  1.1618
  676MPD2    H210058   1.575   3.306  11.224 -0.8816 -0.3743  1.3920
  676MPD2    H310059   1.649   3.289  10.992  2.2622 -0.8527 -0.6042
  676MPD2     N10060   1.687   2.836  11.024  0.2197  0.1927  0.6969
  676MPD2    H510061   1.712   2.828  10.926 -1.6966  3.9084 -0.0741
  676MPD2    N110062   1.575   3.110  11.395  0.1797 -0.7068 -0.1484
  676MPD2    H710063   1.559   3.021  11.441  1.3270 -0.9919 -0.3161
  677TMC3    C110064   1.554   3.207  11.606 -0.7971  0.2816  0.7128
  677TMC3    C210065   1.456   3.120  11.641 -0.1568  0.0502  0.2910
  677TMC3    C310066   1.449   3.076  11.770 -0.6740  0.5011 -0.1128
  677TMC3    C410067   1.641   3.258  11.702 -0.3298 -0.8201  0.6999
  677TMC3    C510068   1.633   3.213  11.833 -0.5726  0.1325  0.5334
  677TMC3    C610069   1.527   3.134  11.866 -0.4035 -0.3400  0.5836
  677TMC3     C10070   1.582   3.227  11.468 -0.2086  1.0384 -0.2028
  677TMC3     O10071   1.645   3.328  11.445 -0.9370 -0.3192  0.1788
  677TMC3     H10072   1.392   3.087  11.560 -0.7102  0.4629  0.5551
  677TMC3    H110073   1.730   3.310  11.666  0.6086 -1.1907  2.4806
  677TMC3    H210074   1.512   3.110  11.970  0.4848 -0.3968  0.7038
  677TMC3    C710075   1.729   3.260  11.935  0.3172  0.4089 -0.0679
  677TMC3    C810076   1.358   2.964  11.800  0.5325  0.0211  0.2128
  677TMC3    O110077   1.732   3.197  12.036 -0.1830  0.6895  0.9866
  677TMC3    O210078   1.251   2.968  11.736  0.0901 -0.1730 -0.0104
  678MPD2     C10079   3.494   2.766   1.452  0.2143 -0.1310 -0.0578
  678MPD2    C110080   3.469   2.723   1.321  0.6056  0.6350  0.4127
  678MPD2    C210081   3.346   2.748   1.270  0.9594 -0.2222  1.1796
  678MPD2    C310082   3.240   2.797   1.345 -0.5750  0.0791 -0.0296
  678MPD2    C410083   3.266   2.826   1.476 -0.0117  0.9818  0.5273
  678MPD2    C510084   3.390   2.814   1.536  0.5886  0.0670 -0.5694
  678MPD2     H10085   3.351   2.727   1.164  1.3955 -0.4052  1.2337
  678MPD2    H110086   3.189   2.878   1.532  0.1706  0.4364  1.2828
  678MPD2    H210087   3.591   2.758   1.499 -0.1214  0.5921  0.7649
  678MPD2    H310088   3.405   2.858   1.634 -0.4737  3.2856 -1.8589
  678MPD2     N10089   3.117   2.822   1.286 -0.2806  0.0471 -0.0179
  678MPD2    H510090   3.114   2.807   1.186 -0.1724 -1.6228  0.2286
  678MPD2    N110091   3.568   2.666   1.239  0.4392 -0.3335 -0.4937
  678MPD2    H710092   3.547   2.654   1.141 -1.7495  2.0200 -0.3156
  679TMC3    C110093   3.986   2.473   1.100  0.7634  1.0479  0.3276
  679TMC3    C210094   3.902   2.511   1.203 -0.3794  0.1114 -0.1608
  679TMC3    C310095   3.775   2.553   1.171  0.0224  0.5917  0.5658
  679TMC3    C410096   3.951   2.483   0.966 -0.1171 -0.2556  0.6602
  679TMC3    C510097   3.823   2.528   0.934  0.2203  0.3293  0.0478
  679TMC3    C610098   3.734   2.555   1.035  0.1198 -0.0033  0.0114
  679TMC3     C10099   4.125   2.460   1.132  0.6894 -0.5893 -0.3437
  679TMC3     O10100   4.202   2.468   1.037  0.6714 -0.1550  0.5133
  679TMC3     H10101   3.929   2.506   1.308 -1.2280  1.6373  0.1217
  679TMC3    H110102   4.027   2.460   0.893 -1.4327  1.5912 -1.3140
  679TMC3    H210103   3.648   2.606   0.995  0.9832  1.6151  0.2265
  679TMC3    C710104   3.790   2.563   0.797 -0.2597  0.1772  0.0901
  679TMC3    C810105   3.693   2.612   1.279 -0.4087  0.5004 -0.2323
  679TMC3    O110106   3.706   2.650   0.778 -0.0623 -0.0478 -0.1458
  679TMC3    O210107   3.733   2.596   1.395  0.5634  0.6779 -0.3269
  680MPD2     C10108   3.916   1.818  13.782 -0.1053  0.4543  0.6408
  680MPD2    C110109   4.003   1.780  13.877  0.2043 -0.8318 -0.0751
  680MPD2    C210110   4.097   1.867  13.928 -0.3396  0.3270  0.6694
  680MPD2    C310111   4.095   2.002  13.900  0.6644 -1.1271  0.4898
  680MPD2    C410112   4.002   2.044  13.804 -0.5919  0.2225  0.7175
  680MPD2    C510113   3.915   1.951  13.750  0.0907 -0.4940 -0.1376
  680MPD2     H10114   4.160   1.823  14.005  0.9231 -1.3662 -1.3443
  680MPD2    H110115   3.996   2.141  13.757 -1.4095  1.3629  3.1548
  680MPD2    H210116   3.847   1.756  13.726 -0.2022 -0.2390  1.5312
  680MPD2    H310117   3.849   1.975  13.667 -0.8255 -0.5783  0.5632
  680MPD2     N10118   4.192   2.097  13.948  0.0380  0.1459 -0.5561
  680MPD2    H510119   4.185   2.195  13.923 -1.4494  0.4430  1.0173
  680MPD2    N110120   4.003   1.651  13.930 -0.2751 -0.1589 -0.2083
  680MPD2    H710121   4.075   1.627  13.998  1.4481  1.8936 -1.2746
  681TMC3    C110122   3.954   1.426  13.964  0.6419 -0.0287  0.6065
  681TMC3    C210123   3.872   1.325  13.997  0.2113 -0.8503 -0.3683
  681TMC3    C310124   3.923   1.222  14.068 -0.7612 -0.2841 -0.2739
  681TMC3    C410125   4.090   1.403  13.956  0.1025 -0.2479  0.7781
  681TMC3    C510126   4.128   1.275  13.978  0.7398 -0.1849  0.3365
  681TMC3    C610127   4.052   1.187  14.043  0.0161 -0.0057 -0.8942
  681TMC3     C10128   3.910   1.553  13.902 -0.5165 -0.6884  0.3682
  681TMC3     O10129   3.801   1.544  13.845 -0.0620  0.1269 -0.7752
  681TMC3     H10130   3.764   1.334  13.992  0.1594 -1.2866 -0.0184
  681TMC3    H110131   4.161   1.474  13.916  1.6737 -2.1091  0.2660
  681TMC3    H210132   4.086   1.107  14.108 -1.0067 -0.0805 -0.4490
  681TMC3    C710133   4.262   1.243  13.954 -0.4569  0.2410  0.6616
  681TMC3    C810134   3.890   1.250  14.205 -0.1532 -0.7878 -0.0160
  681TMC3    O110135   4.321   1.162  14.022  0.1168  0.2223 -0.3546
  681TMC3    O210136   3.835   1.358  14.233  0.2966 -0.0257 -1.0951
  682MPD2     C10137   1.055   3.080  10.650 -0.6104 -0.1952 -0.2395
  682MPD2    C110138   1.058   2.942  10.622 -0.1272  0.1258 -0.0984
  682MPD2    C210139   1.027   2.849  10.715 -0.2049 -0.0316  0.3777
  682MPD2    C310140   0.973   2.889  10.837  0.0818 -0.0685  0.0284
  682MPD2    C410141   0.964   3.028  10.862  0.4804 -1.0469  0.4544
  682MPD2    C510142   1.007   3.123  10.773 -0.3143  0.1549  0.3155
  682MPD2     H10143   1.041   2.744  10.692 -0.8126  0.3295 -1.6387
  682MPD2    H110144   0.928   3.064  10.958  2.3515  2.1174 -0.0176
  682MPD2    H210145   1.082   3.149  10.570 -0.1207  0.4998  0.5245
  682MPD2    H310146   1.012   3.229  10.798 -0.8975  0.7282 -2.0056
  682MPD2     N10147   0.941   2.799  10.938 -0.0122 -0.6781 -0.4931
  682MPD2    H510148   0.919   2.838  11.029  0.1061 -2.9388  0.5179
  682MPD2    N110149   1.099   2.888  10.496 -0.7169  0.2308 -0.2350
  682MPD2    H710150   1.093   2.787  10.489 -0.8681  0.3861 -2.3131
  683TMC3    C110151   0.947   2.559  11.284  0.1507  0.0619 -0.6559
  683TMC3    C210152   0.933   2.420  11.277  0.2554 -0.0201 -0.5673
  683TMC3    C310153   0.914   2.380  11.147 -0.0035  0.4587 -0.5497
  683TMC3    C410154   0.952   2.643  11.175  0.0966  0.6666  0.6676
  683TMC3    C510155   0.928   2.587  11.056 -0.0536  0.1574 -0.3788
  683TMC3    C610156   0.903   2.462  11.041  0.0744 -0.6250  0.1956
  683TMC3     C10157   0.982   2.621  11.414 -0.2255  0.0025  0.1952
  683TMC3     O10158   0.967   2.740  11.417  0.0131  0.4640  0.1359
  683TMC3     H10159   0.901   2.363  11.364  1.7225 -0.8922 -0.5959
  683TMC3    H110160   0.980   2.746  11.193 -0.4385  0.6786  1.4007
  683TMC3    H210161   0.908   2.411  10.945 -1.0429 -2.4842  1.1380
  683TMC3    C710162   0.963   2.660  10.936  0.6489  0.1942 -0.0730
  683TMC3    C810163   0.904   2.237  11.124 -0.1859  0.1795  0.2638
  683TMC3    O110164   0.999   2.584  10.845  0.2866 -0.0982  0.2695
  683TMC3    O210165   0.840   2.200  11.028  0.3761 -0.6190  0.2958
  684MPD2     C10166   4.113   2.258  16.271 -0.2733  0.2171  0.6842
  684MPD2    C110167   4.068   2.332  16.161  0.3265  0.3257  0.1555
  684MPD2    C210168   4.027   2.464  16.183 -0.5870  0.5500 -0.4584
  684MPD2    C310169   4.013   2.527  16.304 -0.0584 -0.4612  0.4483
  684MPD2    C410170   4.039   2.444  16.406  0.3526  0.0496  0.1118
  684MPD2    C510171   4.085   2.318  16.396 -0.3375 -0.1644 -0.2597
  684MPD2     H10172   4.013   2.526  16.095 -0.5058  2.0162  0.5748
  684MPD2    H110173   4.026   2.479  16.508 -0.6726 -2.3366  0.8045
  684MPD2    H210174   4.157   2.160  16.258 -0.5822  0.3935 -1.5988
  684MPD2    H310175   4.101   2.260  16.486 -1.6428  3.8263  2.5507
  684MPD2     N10176   3.969   2.662  16.308 -0.3222 -0.9299 -0.1997
  684MPD2    H510177   3.970   2.715  16.221 -1.5163  0.5089  0.6880
  684MPD2    N110178   4.106   2.280  16.036 -0.5361 -0.2904  0.0301
  684MPD2    H710179   4.157   2.192  16.035 -0.2519 -0.1302  0.9828
  685TMC3    C110180   4.140   2.316  15.805 -0.9076 -0.4533  0.6809
  685TMC3    C210181   4.071   2.384  15.704  0.2452  0.0785  0.4364
  685TMC3    C310182   4.107   2.504  15.675  0.6818 -0.5361 -0.2524
  685TMC3    C410183   4.261   2.359  15.848 -0.0832 -0.0998 -0.5061
  685TMC3    C510184   4.305   2.487  15.795 -0.0893 -0.4099  0.4356
  685TMC3    C610185   4.226   2.560  15.716 -0.2376 -0.0837  0.7610
  685TMC3     C10186   4.055   2.318  15.918 -0.0819  0.0720 -0.1248
  685TMC3     O10187   3.946   2.371  15.900 -0.0948  0.7075 -0.3280
  685TMC3     H10188   3.979   2.344  15.663  0.5415  1.3435 -1.4385
  685TMC3    H110189   4.326   2.304  15.915  0.1470  0.4235 -0.3015
  685TMC3    H210190   4.233   2.668  15.702  0.7873 -0.4634 -1.6471
  685TMC3    C710191   4.395   2.556  15.879  0.5678 -0.3366 -0.4602
  685TMC3    C810192   3.998   2.591  15.632 -0.1480  0.4912  0.6104
  685TMC3    O110193   4.423   2.507  15.987 -0.4051  0.7384  0.7740
  685TMC3    O210194   4.021   2.698  15.569 -0.4507 -0.4901 -0.5537
  686MPD2     C10195   0.736   2.442  15.381 -1.3470  0.5049 -0.3811
  686MPD2    C110196   0.746   2.375  15.501  0.2472 -0.3691  0.1376
  686MPD2    C210197   0.807   2.249  15.503 -0.5366  0.0517  0.3928
  686MPD2    C310198   0.864   2.205  15.385  0.0860  0.1636 -0.8313
  686MPD2    C410199   0.857   2.276  15.270 -0.6131  0.2362 -0.9174
  686MPD2    C510200   0.797   2.402  15.265 -0.2324  0.4817 -0.3404
  686MPD2     H10201   0.831   2.197  15.595  0.3500  0.5108  0.4247
  686MPD2    H110202   0.891   2.234  15.176 -0.1185  0.0357 -0.6519
  686MPD2    H210203   0.694   2.542  15.379 -1.4867  0.4694  1.1085
  686MPD2    H310204   0.793   2.461  15.174 -0.3345  0.9424 -0.0356
  686MPD2     N10205   0.939   2.086  15.372  0.2778 -0.3522  0.5851
  686MPD2    H510206   0.989   2.080  15.284 -1.5631 -3.2890 -0.2738
  686MPD2    N110207   0.689   2.440  15.614  0.6701 -0.3893 -0.1188
  686MPD2    H710208   0.647   2.530  15.593  0.5779 -0.8451 -1.9054
  687TMC3    C110209   0.866   1.943  15.558  0.0744 -0.1152 -1.0605
  687TMC3    C210210   0.731   1.955  15.532 -0.5476  0.2638 -0.1404
  687TMC3    C310211   0.643   1.879  15.604  0.6360  0.4245  0.2887
  687TMC3    C410212   0.910   1.855  15.658 -0.8541 -0.0430 -0.3920
  687TMC3    C510213   0.820   1.779  15.730  0.4603 -1.0532 -0.6469
  687TMC3    C610214   0.688   1.791  15.704  0.3092  0.2722  0.2359
  687TMC3     C10215   0.966   1.982  15.461 -0.7501  0.8834  0.1867
  687TMC3     O10216   1.066   1.910  15.452  0.0209  0.1170  0.3962
  687TMC3     H10217   0.704   2.020  15.450 -1.0094  1.2838  0.8028
  687TMC3    H110218   1.017   1.848  15.676 -1.0308  0.1658  0.7414
  687TMC3    H210219   0.621   1.725  15.756  0.9107 -0.0030  0.6618
  687TMC3    C710220   0.855   1.749  15.858 -0.3343  0.4679 -0.5896
  687TMC3    C810221   0.515   1.942  15.638  0.0473 -0.1936 -0.4588
  687TMC3    O110222   0.807   1.652  15.917  0.3489  0.5052 -0.0042
  687TMC3    O210223   0.470   1.912  15.748 -0.7380  0.1021 -0.2486
  688MPD2     C10224   0.163   1.352  17.338 -0.6066  0.6923  0.0174
  688MPD2    C110225   0.120   1.220  17.324 -0.5429  0.0195 -0.2985
  688MPD2    C210226   0.164   1.140  17.218  0.3969 -1.1618  1.0564
  688MPD2    C310227   0.259   1.197  17.129  0.1355  0.0645 -0.1080
  688MPD2    C410228   0.307   1.330  17.149  0.3440 -0.1371  0.8963
  688MPD2    C510229   0.259   1.404  17.257  0.0722  0.5878 -0.3518
  688MPD2     H10230   0.132   1.037  17.207 -0.2357 -0.8541  0.0317
  688MPD2    H110231   0.371   1.390  17.086 -2.7619  0.7564 -1.4189
  688MPD2    H210232   0.122   1.421  17.411  0.7413 -1.1659  2.5311
  688MPD2    H310233   0.284   1.510  17.264  0.8723  0.3256  0.7958
  688MPD2     N10234   0.320   1.133  17.016  0.5058  0.5849  0.3341
  688MPD2    H510235   0.389   1.186  16.964 -0.7923  0.4347 -1.5681
  688MPD2    N110236   0.028   1.163  17.415  0.2011 -0.4306 -0.0767
  688MPD2    H710237   0.005   1.066  17.396  0.6676 -0.4903 -0.3531
  689TMC3    C110238   4.637   1.157  17.625 -0.6709 -0.5506 -0.0452
  689TMC3    C210239   4.624   1.208   0.013  0.3851 -0.3754 -0.5477
  689TMC3    C310240   4.541   1.146   0.099 -0.5054 -0.5694 -0.6956
  689TMC3    C410241   4.550   1.062  17.575 -0.4780 -0.0338 -0.1066
  689TMC3    C510242   4.463   1.002  17.666 -0.1478 -0.7704 -0.1231
  689TMC3    C610243   4.457   1.048   0.053 -0.2956  0.2232 -0.0300
  689TMC3     C10244   0.001   1.221  17.540  0.7659  0.2117 -0.4774
  689TMC3     O10245   0.049   1.323  17.587  0.2632 -0.3261  0.5151
  689TMC3     H10246   4.694   1.283   0.047 -0.5820  0.0016  0.6386
  689TMC3    H110247   4.543   1.040  17.469  1.3631  0.7613 -0.3928
  689TMC3    H210248   4.385   1.011   0.126  1.6549 -2.0948  0.7029
  689TMC3    C710249   4.395   0.872  17.645 -0.9655 -0.6168 -0.1702
  689TMC3    C810250   4.542   1.181   0.239  0.3398 -0.0824 -0.3547
  689TMC3    O110251   4.399   0.800   0.000 -0.1344  0.3485  0.2361
  689TMC3    O210252   4.487   1.100   0.306 -0.1525  0.4519 -0.3734
  690MPD2     C10253   2.630   3.146  15.926  0.6072  0.1050  0.5989
  690MPD2    C110254   2.569   3.138  15.801 -0.2573  0.0146  0.4916
  690MPD2    C210255   2.620   3.210  15.691 -0.2766 -0.1627  0.2455
  690MPD2    C310256   2.742   3.271  15.703  0.0342 -0.1213 -0.3401
  690MPD2    C410257   2.812   3.271  15.828 -0.4901  1.2441  0.9256
  690MPD2    C510258   2.758   3.202  15.940  0.3804  0.0536  0.5189
  690MPD2     H10259   2.569   3.211  15.595  0.9883 -0.7509 -0.4408
  690MPD2    H110260   2.900   3.334  15.838  2.3512 -2.3944 -1.4105
  690MPD2    H210261   2.588   3.097  16.014  0.3720 -0.8939 -0.0803
  690MPD2    H310262   2.806   3.185  16.035 -0.3641 -0.6449  0.7651
  690MPD2     N10263   2.792   3.334  15.588  0.6604  0.3903  0.0689
  690MPD2    H510264   2.728   3.325  15.509  1.3910 -1.4443 -0.3332
  690MPD2    N110265   2.444   3.061  15.780 -0.3374  0.2850 -0.2513
  690MPD2    H710266   2.412   3.063  15.684 -0.5348 -1.3483 -0.2203
  691TMC3    C110267   2.267   2.905  15.823 -0.0531  0.3603  0.6495
  691TMC3    C210268   2.206   2.952  15.715  0.4229  0.4221  0.1975
  691TMC3    C310269   2.069   2.947  15.709 -0.2690 -0.4538 -0.0695
  691TMC3    C410270   2.198   2.849  15.922 -0.3892 -0.0293 -0.1789
  691TMC3    C510271   2.066   2.835  15.908 -0.4635 -0.1597 -0.0495
  691TMC3    C610272   1.996   2.880  15.805  0.0040 -0.6551 -1.1422
  691TMC3     C10273   2.379   2.982  15.872  0.4609  0.0725  0.3358
  691TMC3     O10274   2.393   2.973  15.991 -0.0887 -0.0314 -0.0846
  691TMC3     H10275   2.264   3.008  15.642 -0.4138 -0.1333 -0.8927
  691TMC3    H110276   2.244   2.804  16.010  0.7741 -2.4871 -2.0442
  691TMC3    H210277   1.888   2.884  15.800 -0.0320  1.0391  1.0611
  691TMC3    C710278   2.004   2.766  16.013  0.4862  0.6707 -0.1228
  691TMC3    C810279   2.004   3.004  15.589 -0.4351  0.4165 -0.0016
  691TMC3    O110280   2.051   2.770  16.126 -0.4677  0.1089 -0.6829
  691TMC3    O210281   2.064   2.990  15.485 -0.0718 -0.7838  0.4149
  692TMC3    C110282   3.842   3.871  15.568 -0.5206 -0.2082  0.0738
  692TMC3    C210283   3.962   3.905  15.629 -0.4740  0.3201  0.2446
  692TMC3    C310284   4.052   3.804  15.664 -0.0264  0.0264  0.1724
  692TMC3    C410285   3.808   3.734  15.564 -0.4214  0.3434 -0.1622
  692TMC3    C510286   3.903   3.640  15.605 -0.4408  0.9653  0.2991
  692TMC3    C610287   4.017   3.670  15.669  0.4923  0.2011  0.5777
  692TMC3     C10288   3.738   3.959  15.609  0.5540  0.4659 -0.0680
  692TMC3     O10289   3.758   4.035  15.703  0.3486 -0.1982 -0.7149
  692TMC3     H10290   3.996   4.007  15.613 -0.6841  0.4845  0.8576
  692TMC3    H110291   3.713   3.703  15.522  0.4313 -2.2134 -0.1734
  692TMC3    H210292   4.098   3.598  15.674  0.7719  0.5061  0.4376
  692TMC3    C710293   3.857   3.510  15.618 -0.5305  0.4087 -0.2309
  692TMC3    C810294   4.140   3.829  15.781 -1.0391 -0.5660 -0.5368
  692TMC3    O110295   3.776   3.470  15.536  0.1313  0.3583 -0.0712
  692TMC3    O210296   4.199   3.732  15.828 -0.4586  0.0678  0.0617
  693MPD2     C10297   3.041   2.068  10.659 -0.3382  0.5448 -0.0664
  693MPD2    C110298   2.979   2.017  10.770  0.3338  0.5792 -0.6603
  693MPD2    C210299   3.037   1.915  10.848  0.5767 -0.1302 -1.0319
  693MPD2    C310300   3.163   1.872  10.817  0.2517  0.0221 -0.0929
  693MPD2    C410301   3.231   1.931  10.709 -0.5562 -0.4851  0.3128
  693MPD2    C510302   3.165   2.024  10.630 -0.1314  0.4208 -0.0956
  693MPD2     H10303   2.982   1.855  10.919  1.4672 -2.0394 -1.9660
  693MPD2    H110304   3.333   1.911  10.677 -1.4777 -1.0872 -2.1951
  693MPD2    H210305   2.980   2.122  10.588 -1.9628  1.2533  1.8611
  693MPD2    H310306   3.217   2.059  10.541 -0.5776  1.2690 -0.0195
  693MPD2     N10307   3.223   1.765  10.894  0.1634  0.3340  0.1850
  693MPD2    H510308   3.183   1.750  10.986  1.3012  1.1663  0.8153
  693MPD2    N110309   2.838   2.056  10.785  0.6942 -0.2885 -0.6875
  693MPD2    H710310   2.797   2.109  10.708 -1.5943  0.0114  0.7465
  694TMC3    C110311   2.626   2.062  10.862 -0.4217  0.7845 -0.2201
  694TMC3    C210312   2.584   1.980  10.757 -0.2949  0.1190 -0.0905
  694TMC3    C310313   2.461   1.930  10.762 -0.0742  0.1168  0.0531
  694TMC3    C410314   2.552   2.073  10.975  0.1799  0.2770 -0.4970
  694TMC3    C510315   2.431   2.009  10.972 -0.2580 -0.0205 -0.4257
  694TMC3    C610316   2.377   1.934  10.871 -0.4655  0.9819  0.2001
  694TMC3     C10317   2.764   2.041  10.898  0.2960  0.2140 -0.0479
  694TMC3     O10318   2.804   1.990  11.004 -0.5133 -0.2224  0.9003
  694TMC3     H10319   2.654   1.946  10.682 -0.4128 -1.6073  0.5626
  694TMC3    H110320   2.590   2.112  11.068  0.5299  2.0262 -1.3834
  694TMC3    H210321   2.275   1.898  10.881 -0.3672  0.6235 -0.0894
  694TMC3    C710322   2.381   1.978  11.111  0.4631  0.4620 -0.1881
  694TMC3    C810323   2.415   1.835  10.671 -0.5934 -0.5038  0.7353
  694TMC3    O110324   2.404   2.066  11.191 -0.0397  0.2914  0.1550
  694TMC3    O210325   2.331   1.760  10.721  0.6562 -0.1748  0.2783
  695MPD2     C10326   0.088   4.093  13.173  0.0492 -0.4463 -0.5899
  695MPD2    C110327   0.093   4.018  13.280  0.1074  0.7563  0.2175
  695MPD2    C210328   4.710   3.954  13.308  0.6011  0.2908  0.6425
  695MPD2    C310329   4.584   3.973  13.244 -0.5557  0.3140  0.5206
  695MPD2    C410330   4.601   4.034  13.118 -0.5218 -0.2766  0.1215
  695MPD2    C510331   4.716   4.096  13.085  0.5613 -0.4939 -0.7580
  695MPD2     H10332   4.704   3.909  13.407 -1.4245 -0.1342  0.3153
  695MPD2    H110333   4.515   4.044  13.053 -1.0398 -1.7260  0.5911
  695MPD2    H210334   0.177   4.149  13.146  0.4077 -0.8373 -0.2324
  695MPD2    H310335   4.708   4.169  13.005  2.2598  1.5496  0.9354
  695MPD2     N10336   4.464   3.923  13.291 -0.3014 -0.2238 -0.0757
  695MPD2    H510337   4.469   3.914  13.392 -0.0771 -3.7189 -0.4020
  695MPD2    N110338   0.197   4.009  13.378  0.2290 -0.3115 -0.0558
  695MPD2    H710339   0.187   3.943  13.453 -2.3979 -0.9924 -1.0072
  696TMC3    C110340   4.240   3.887  13.322 -0.0062  0.3905  0.4475
  696TMC3    C210341   4.275   3.844  13.448 -0.3881 -0.2439 -0.5817
  696TMC3    C310342   4.187   3.880  13.548 -0.2317 -0.0462  0.1929
  696TMC3    C410343   4.127   3.957  13.296  0.5707 -0.6782  0.3069
  696TMC3    C510344   4.033   3.968  13.394 -0.3773 -0.0764  0.2890
  696TMC3    C610345   4.064   3.938  13.528  0.1759 -0.1183 -0.3307
  696TMC3     C10346   4.346   3.918  13.228 -0.1002  0.2460  0.4159
  696TMC3     O10347   4.319   3.943  13.110  0.0657 -0.5388  0.5173
  696TMC3     H10348   4.367   3.799  13.482  0.2578  1.4456 -0.0895
  696TMC3    H110349   4.096   3.983  13.195  0.6999  3.9434  1.4737
  696TMC3    H210350   3.989   3.952  13.605  1.7457  0.9772  0.9875
  696TMC3    C710351   3.922   4.060  13.377 -0.3328  0.0053 -0.5911
  696TMC3    C810352   4.221   3.895  13.683  0.3152  0.0407  0.1975
  696TMC3    O110353   3.891   4.079  13.262 -0.1297  0.2822  0.2452
  696TMC3    O210354   4.174   3.986  13.749 -0.2281 -0.6529 -0.1310
  697MPD2     C10355   3.591   1.033  15.289  0.0558  1.1248 -0.1037
  697MPD2    C110356   3.544   0.979  15.172 -1.1060  1.0160  0.5054
  697MPD2    C210357   3.508   1.065  15.067 -0.1779 -0.1022  0.1038
  697MPD2    C310358   3.547   1.198  15.064  0.5109  0.3089  1.1865
  697MPD2    C410359   3.604   1.244  15.177  0.4846 -0.1813 -0.7200
  697MPD2    C510360   3.620   1.165  15.289  0.2014  0.2196 -0.2546
  697MPD2     H10361   3.462   1.027  14.976 -0.2920 -0.6739  0.4004
  697MPD2    H110362   3.647   1.343  15.190 -1.1222  0.5269 -0.7935
  697MPD2    H210363   3.616   0.970  15.374  1.0323  1.8373  0.1432
  697MPD2    H310364   3.667   1.198  15.381 -0.2623  1.0147 -0.2968
  697MPD2     N10365   3.513   1.277  14.956 -0.6418  0.1181 -0.1776
  697MPD2    H510366   3.473   1.226  14.878 -1.7617 -0.6260  0.8846
  697MPD2    N110367   3.535   0.843  15.148 -0.6992  0.1655 -0.3093
  697MPD2    H710368   3.506   0.816  15.054 -0.7768  0.5716 -0.3991
  698TMC3    C110369   3.523   1.473  14.826 -0.8348 -0.6755 -0.2377
  698TMC3    C210370   3.495   1.604  14.823  0.6143  0.7699 -0.0780
  698TMC3    C310371   3.443   1.658  14.707 -0.0296  0.1924 -0.0754
  698TMC3    C410372   3.527   1.399  14.709  0.5317  0.4916  0.3565
  698TMC3    C510373   3.484   1.460  14.594 -0.4337 -0.3110 -0.1745
  698TMC3    C610374   3.429   1.585  14.589  0.3291  0.2016 -0.1610
  698TMC3     C10375   3.542   1.416  14.951  0.3223 -0.1580  0.0980
  698TMC3     O10376   3.579   1.495  15.036 -0.5382 -0.1912  0.0134
  698TMC3     H10377   3.536   1.668  14.900 -0.8256 -0.5126  1.7595
  698TMC3    H110378   3.584   1.307  14.713 -1.3013 -0.6431  0.1355
  698TMC3    H210379   3.398   1.620  14.492 -1.5168 -1.5140 -0.2006
  698TMC3    C710380   3.494   1.400  14.462 -0.0210 -0.3474  0.1689
  698TMC3    C810381   3.448   1.796  14.676  0.3183  1.0022  0.9988
  698TMC3    O110382   3.475   1.471  14.363 -0.2310 -0.4863  0.5931
  698TMC3    O210383   3.377   1.830  14.583 -0.2618 -0.4597  0.3333
  699TMC3    C110384   3.759   4.144  12.842  0.4279  0.3043  0.0215
  699TMC3    C210385   3.781   4.014  12.871  0.7509 -0.2386 -0.3140
  699TMC3    C310386   3.735   3.968  12.987  0.7242  0.1641 -0.3338
  699TMC3    C410387   3.691   4.230  12.926 -0.1233  0.2826  0.0704
  699TMC3    C510388   3.630   4.172  13.038 -0.7308 -0.4178 -0.3364
  699TMC3    C610389   3.657   4.043  13.069  0.0889 -0.0262 -0.1018
  699TMC3     C10390   3.777   4.195  12.702  0.2156 -0.2195 -1.3142
  699TMC3     O10391   3.696   4.273  12.654 -0.2098 -0.4836  0.7682
  699TMC3     H10392   3.826   3.939  12.807 -1.1438 -2.1029  0.5340
  699TMC3    H110393   3.671   4.332  12.894 -0.9302 -0.5197 -1.9653
  699TMC3    H210394   3.640   4.008  13.170 -1.0518 -0.3822 -0.4125
  699TMC3    C710395   3.511   4.227  13.106 -0.4727 -0.5362  0.0997
  699TMC3    C810396   3.786   3.847  13.039  0.2747 -0.1172 -0.2089
  699TMC3    O110397   3.461   4.158  13.192  0.7140 -1.1871 -0.2267
  699TMC3    O210398   3.712   3.793  13.119  0.0941 -0.4340  0.3418
  700TMC3    C110399   2.681   1.450  17.437  0.1397 -0.2598  0.2267
  700TMC3    C210400   2.699   1.325  17.382  0.3092  0.1723  0.7871
  700TMC3    C310401   2.819   1.266  17.412  0.5382 -0.0352 -0.5775
  700TMC3    C410402   2.764   1.518  17.517 -0.5755 -1.3167 -0.0833
  700TMC3    C510403   2.881   1.452  17.549  0.0075 -0.2280  0.0884
  700TMC3    C610404   2.914   1.327  17.495  0.8057 -0.2709 -0.0734
  700TMC3     C10405   2.580   1.536  17.387 -0.8364 -0.1989  0.3238
  700TMC3     O10406   2.463   1.505  17.357  0.0463 -0.3560  0.5337
  700TMC3     H10407   2.631   1.282  17.308  0.1098 -1.0947  1.6944
  700TMC3    H110408   2.738   1.616  17.557 -1.7370 -2.2608  1.4979
  700TMC3    H210409   3.014   1.287  17.507 -0.1248 -2.0775  1.7043
  700TMC3    C710410   2.971   1.526  17.641 -0.1368 -0.4935 -0.1424
  700TMC3    C810411   2.862   1.149  17.337  0.3759 -0.6509 -0.0785
  700TMC3    O110412   2.934   1.641  17.660  0.4320 -0.0068 -0.6925
  700TMC3    O210413   2.980   1.119  17.349  0.2150 -0.4061  0.0056
  701TMC3    C110414   2.978   0.269  15.491  0.2974  0.1317  0.1768
  701TMC3    C210415   2.968   0.210  15.366  0.5518 -0.4350 -0.1191
  701TMC3    C310416   3.042   0.267  15.262 -0.1517 -0.4232  0.3663
  701TMC3    C410417   3.044   0.394  15.511 -0.5568 -0.1857  0.1248
  701TMC3    C510418   3.111   0.446  15.404 -0.4115  0.5581 -0.0121
  701TMC3    C610419   3.105   0.384  15.282  0.6699  0.1694 -0.2578
  701TMC3     C10420   2.891   0.209  15.590  0.6693 -0.0602  0.6559
  701TMC3     O10421   2.853   0.095  15.568 -0.6297  0.1655 -0.7559
  701TMC3     H10422   2.934   0.108  15.350 -1.4756  0.2667 -0.3120
  701TMC3    H110423   3.043   0.439  15.610 -0.8026  1.6485 -0.7081
  701TMC3    H210424   3.152   0.430  15.196 -0.0374 -0.0011 -0.7289
  701TMC3    C710425   3.154   0.591  15.408  0.1773 -0.4179 -0.6904
  701TMC3    C810426   3.063   0.212  15.128 -0.5245  0.1569  1.0358
  701TMC3    O110427   3.178   0.634  15.297  0.7582 -0.0500  0.2695
  701TMC3    O210428   3.163   0.249  15.065 -0.1039 -0.3470  0.3370
  702MPD2     C10429   2.194   2.560  10.589  0.2465 -0.5230 -0.2907
  702MPD2    C110430   2.097   2.660  10.607 -0.2982  0.3520  0.8221
  702MPD2    C210431   2.102   2.783  10.536 -0.1130  0.3690  0.5764
  702MPD2    C310432   2.199   2.805  10.435 -0.7880 -0.2371 -0.0018
  702MPD2    C410433   2.297   2.705  10.422  0.8415  0.4901  0.0558
  702MPD2    C510434   2.286   2.580  10.488 -0.5667 -0.3883  0.1853
  702MPD2     H10435   2.019   2.852  10.546 -0.7032 -0.3270  0.4811
  702MPD2    H110436   2.370   2.705  10.342 -0.0773  1.1912 -0.7786
  702MPD2    H210437   2.194   2.472  10.653 -0.4123 -1.2010 -1.2264
  702MPD2    H310438   2.360   2.502  10.482 -0.4295 -0.1771 -0.7802
  702MPD2     N10439   2.186   2.913  10.355  0.2614  0.1723  0.2481
  702MPD2    H510440   2.110   2.977  10.376 -0.1080 -1.0277  2.4836
  702MPD2    N110441   1.992   2.634  10.707  0.1362 -0.3904 -1.2952
  702MPD2    H710442   1.932   2.708  10.740  0.1717 -1.2629  0.6960
  703TMC3    C110443   2.239   3.055  10.174  0.1168  0.5616  0.1798
  703TMC3    C210444   2.105   3.089  10.164 -0.5595 -0.0087 -0.5619
  703TMC3    C310445   2.076   3.210  10.110  0.6559  0.7264  0.2544
  703TMC3    C410446   2.338   3.129  10.116 -0.4617 -0.2579  0.1749
  703TMC3    C510447   2.308   3.260  10.085 -0.7731  0.4025  0.2216
  703TMC3    C610448   2.174   3.300  10.083  0.1820  0.4373 -0.0364
  703TMC3     C10449   2.284   2.950  10.259 -0.1967  0.3247  1.1150
  703TMC3     O10450   2.392   2.901  10.235 -0.6635  0.0627  0.4347
  703TMC3     H10451   2.027   3.016  10.184 -0.6800  0.3487  0.2347
  703TMC3    H110452   2.438   3.088  10.108 -0.8378 -1.2335  0.5654
  703TMC3    H210453   2.149   3.401  10.055 -2.9228 -0.4829 -0.5145
  703TMC3    C710454   2.421   3.351  10.069  0.1837  0.3322  1.1307
  703TMC3    C810455   1.940   3.264  10.124  0.7596 -0.2754 -0.7401
  703TMC3    O110456   2.536   3.306  10.064  0.1156  0.0320 -0.2480
  703TMC3    O210457   1.908   3.350  10.048  0.1652  0.0451 -0.0757
  704TMC3    C110458   4.227   0.355  12.206  0.1474  0.2706  0.0742
  704TMC3    C210459   4.313   0.444  12.154  0.1073  0.2374  0.1003
  704TMC3    C310460   4.409   0.490  12.237  0.1947 -0.0751 -0.6495
  704TMC3    C410461   4.237   0.303  12.331  0.2976  0.1013 -0.2006
  704TMC3    C510462   4.349   0.331  12.399  0.0587  0.4462  0.4611
  704TMC3    C610463   4.426   0.436  12.364 -0.1606 -1.0232 -0.2800
  704TMC3     C10464   4.098   0.334  12.135  0.7037  0.0550  0.2651
  704TMC3     O10465   3.992   0.305  12.193 -0.0566  0.7118  0.3325
  704TMC3     H10466   4.297   0.483  12.054 -1.9821 -0.2791  0.2251
  704TMC3    H110467   4.160   0.233  12.362 -0.1886  0.6826 -0.0901
  704TMC3    H210468   4.496   0.480  12.434 -2.5518  1.6187  0.4190
  704TMC3    C710469   4.440   0.228  12.432  0.2286 -0.2347 -0.5604
  704TMC3    C810470   4.527   0.539  12.174  0.2897  0.2951  0.2187
  704TMC3    O110471   4.556   0.262  12.410  0.6377  0.6365 -0.2018
  704TMC3    O210472   4.510   0.592  12.062  0.1118  0.2145 -0.7064
  705MPD2     C10473   4.511   3.757  16.691  0.5691 -0.3541  0.8106
  705MPD2    C110474   4.441   3.773  16.572 -0.5904 -0.3047 -0.5380
  705MPD2    C210475   4.303   3.763  16.575 -0.2536  0.1257 -0.4220
  705MPD2    C310476   4.230   3.755  16.693 -0.2221 -0.3251 -0.2318
  705MPD2    C410477   4.301   3.761  16.808  0.2453  0.3206 -0.7417
  705MPD2    C510478   4.435   3.756  16.807  0.9709 -0.0243  0.4225
  705MPD2     H10479   4.251   3.782  16.482 -0.5378 -2.2756 -0.7622
  705MPD2    H110480   4.256   3.762  16.907 -0.5004  1.0542 -1.0811
  705MPD2    H210481   4.618   3.763  16.702  0.5222 -0.5489  1.3531
  705MPD2    H310482   4.488   3.772  16.901  0.3314 -1.6842  1.0653
  705MPD2     N10483   4.090   3.766  16.698  0.1933 -0.5770 -0.0759
  705MPD2    H510484   4.053   3.771  16.793 -0.4777  3.1952 -0.5561
  705MPD2    N110485   4.498   3.794  16.444 -0.1159 -0.2907 -0.8113
  705MPD2    H710486   4.433   3.807  16.368  1.2891  1.4217 -1.7203
  706TMC3    C110487   0.066   3.905  16.106  0.4734 -0.5545 -0.0267
  706TMC3    C210488   4.706   3.962  16.035 -0.4878 -0.2913 -0.9920
  706TMC3    C310489   4.578   3.970  16.079  0.7129 -0.6131  0.1619
  706TMC3    C410490   0.037   3.850  16.225  0.0847 -0.2824 -0.2193
  706TMC3    C510491   4.647   3.859  16.273 -0.5068  0.4161  0.4612
  706TMC3    C610492   4.547   3.915  16.200 -0.3177  0.5453 -0.6431
  706TMC3     C10493   0.191   3.865  16.045  0.2930  0.3580 -0.0069
  706TMC3     O10494   0.278   3.844  16.123  0.1350 -0.1113  0.3248
  706TMC3     H10495   4.727   4.002  15.936  0.7529 -0.1667 -0.6784
  706TMC3    H110496   0.117   3.790  16.268 -0.1369 -0.2562  0.2314
  706TMC3    H210497   4.445   3.909  16.237  0.0778 -0.1627  0.3515
  706TMC3    C710498   4.630   3.798  16.405  0.0734 -0.0711  0.8118
  706TMC3    C810499   4.479   4.044  16.008  0.4862  0.2032  0.0959
  706TMC3    O110500   4.727   3.780  16.480 -0.0729  0.5225 -0.1820
  706TMC3    O210501   4.496   4.076  15.891 -0.0919  0.0953  0.3757
  707TMC3    C110502   1.389   2.715   1.049 -0.2948  1.3589 -0.0140
  707TMC3    C210503   1.386   2.687   1.181  0.0865 -0.1953  0.4130
  707TMC3    C310504   1.273   2.660   1.242 -0.3933  1.0170 -0.3782
  707TMC3    C410505   1.275   2.711   0.975  0.3152  0.1158 -0.6141
  707TMC3    C510506   1.159   2.692   1.048  0.7913 -0.3665 -0.2510
  707TMC3    C610507   1.154   2.658   1.177 -0.1844 -0.3427  0.6524
  707TMC3     C10508   1.516   2.730   0.984 -0.4257 -0.2770  0.1563
  707TMC3     O10509   1.616   2.711   1.046  0.2817  0.1620  0.1690
  707TMC3     H10510   1.480   2.707   1.232 -0.7949  0.9996  1.5469
  707TMC3    H110511   1.267   2.718   0.867 -1.6413 -0.0083 -0.4765
  707TMC3    H210512   1.065   2.657   1.239 -0.9105 -0.6919 -0.3862
  707TMC3    C710513   1.035   2.730   0.986 -0.0328 -0.3071  0.1853
  707TMC3    C810514   1.268   2.582   1.363  0.0399 -0.2130 -1.0676
  707TMC3    O110515   1.024   2.836   0.924  0.2081  0.1008  0.2138
  707TMC3    O210516   1.155   2.580   1.411  0.4432  0.4814  0.3067
  708MPD2     C10517   3.020   1.714  14.351  0.5582  0.0228 -0.7006
  708MPD2    C110518   2.901   1.771  14.335 -0.1932  0.6714  0.0287
  708MPD2    C210519   2.866   1.889  14.406  0.4961  0.1086 -0.3551
  708MPD2    C310520   2.953   1.951  14.493  0.3179  0.3482  0.4393
  708MPD2    C410521   3.076   1.886  14.509  0.0176  0.8813  0.8493
  708MPD2    C510522   3.113   1.773  14.435  0.2112 -0.1049  0.0303
  708MPD2     H10523   2.769   1.932  14.384 -1.0576 -3.3315 -0.2953
  708MPD2    H110524   3.141   1.931  14.584  0.6451 -0.3478  1.0371
  708MPD2    H210525   3.047   1.626  14.294 -2.9395 -2.1932  0.9924
  708MPD2    H310526   3.210   1.726  14.447  1.2042  1.6982 -0.9719
  708MPD2     N10527   2.930   2.065  14.567  0.6453  0.1566 -0.1071
  708MPD2    H510528   3.009   2.098  14.622  1.5073  0.4271 -1.5118
  708MPD2    N110529   2.815   1.708  14.236  0.1507 -0.0469 -0.2459
  708MPD2    H710530   2.855   1.636  14.177  1.8143 -0.3403  1.2216
  709TMC3    C110531   2.601   1.664  14.129 -0.6121 -0.3544  0.5822
  709TMC3    C210532   2.664   1.641  14.005 -0.1796 -0.5181  0.3402
  709TMC3    C310533   2.585   1.666  13.900  0.0758  0.4038  0.2095
  709TMC3    C410534   2.467   1.687  14.148 -0.7010 -0.2974 -0.0149
  709TMC3    C510535   2.400   1.712  14.042  0.5189 -0.3008  0.3230
  709TMC3    C610536   2.448   1.696  13.913 -0.6014 -0.7481 -0.2071
  709TMC3     C10537   2.679   1.737  14.227 -0.2495 -0.5910  0.3726
  709TMC3     O10538   2.609   1.811  14.294 -0.3173 -0.1453 -0.3844
  709TMC3     H10539   2.771   1.650  13.994 -0.0388 -0.9773  1.3532
  709TMC3    H110540   2.424   1.695  14.248  1.8678 -0.9008  1.1344
  709TMC3    H210541   2.378   1.725  13.836 -0.2767  1.1312  0.1890
  709TMC3    C710542   2.332   1.840  14.053  0.5837  1.2267  0.5792
  709TMC3    C810543   2.612   1.588  13.787 -0.5401 -0.1957 -0.5558
  709TMC3    O110544   2.259   1.883  13.961 -0.4727 -0.6512 -0.5797
  709TMC3    O210545   2.666   1.479  13.809  0.0196  0.6280  0.5199
  710TMC3    C110546   3.794   3.325   0.406 -0.1107  0.6254  0.1302
  710TMC3    C210547   3.786   3.339   0.272 -0.1416 -0.1428 -0.5844
  710TMC3    C310548   3.804   3.225   0.192  0.1394  0.0353 -0.4856
  710TMC3    C410549   3.822   3.204   0.464  0.2831  0.2675  0.0480
  710TMC3    C510550   3.835   3.101   0.376  0.0022  1.0554  0.0460
  710TMC3    C610551   3.828   3.105   0.242  0.0886  0.1012 -0.4709
  710TMC3     C10552   3.812   3.447   0.488  0.0417  0.5872 -0.0799
  710TMC3     O10553   3.863   3.541   0.428 -0.0249  0.4114  0.3059
  710TMC3     H10554   3.779   3.441   0.235 -3.3216  0.4125  1.5846
  710TMC3    H110555   3.836   3.180   0.569  0.4864 -1.2189 -0.3185
  710TMC3    H210556   3.813   3.016   0.181  0.2411 -0.1466 -0.1487
  710TMC3    C710557   3.831   2.969   0.448 -0.1967 -0.1470  0.2084
  710TMC3    C810558   3.816   3.244   0.047  0.5928 -0.3499 -0.2413
  710TMC3    O110559   3.776   2.957   0.558 -0.2028 -0.5226 -0.0652
  710TMC3    O210560   3.778   3.350  17.741  0.5190  0.1386  0.2037
  711TMC3    C110561   3.388   4.225  14.404 -0.4137 -0.0634 -0.1100
  711TMC3    C210562   3.323   4.265  14.517  0.7329 -0.1482  0.5743
  711TMC3    C310563   3.380   4.353  14.608 -0.3354 -0.0085  0.2257
  711TMC3    C410564   3.505   4.276  14.369  0.0770 -0.1585  0.4184
  711TMC3    C510565   3.570   4.355  14.467 -0.2541 -0.0436 -0.4246
  711TMC3    C610566   3.505   4.393  14.583  0.5889  1.0427 -0.1977
  711TMC3     C10567   3.320   4.108  14.341  0.1355 -0.2846  0.3843
  711TMC3     O10568   3.220   4.066  14.397 -0.0849 -0.0169  0.1330
  711TMC3     H10569   3.219   4.238  14.529  0.5057  0.2193 -0.6212
  711TMC3    H110570   3.554   4.263  14.273  1.0366  2.2688  0.5525
  711TMC3    H210571   3.546   4.472  14.645  1.9848 -1.0588  1.5829
  711TMC3    C710572   3.700   4.309  14.509  0.2145  0.5332  0.3005
  711TMC3    C810573   3.374   4.284  14.737  0.8803 -0.0328  0.7601
  711TMC3    O110574   3.747   4.369  14.601  0.0747  0.3058  0.1576
  711TMC3    O210575   3.281   4.209  14.751  0.5403  0.0173 -0.3115
  712MPD2     C10576   4.720   0.487  14.191 -0.1316 -0.0886 -1.0327
  712MPD2    C110577   4.623   0.580  14.211  0.1903  0.0878 -0.5213
  712MPD2    C210578   4.658   0.709  14.223 -0.0143  0.2351  0.4223
  712MPD2    C310579   0.052   0.756  14.214 -1.0998 -0.3267  0.5270
  712MPD2    C410580   0.148   0.659  14.189  0.5590  0.4135  0.2627
  712MPD2    C510581   0.115   0.529  14.178  0.4745  0.2086 -0.0454
  712MPD2     H10582   4.587   0.787  14.246 -1.4084 -0.8464 -0.2254
  712MPD2    H110583   0.255   0.678  14.186  0.6859 -0.4727 -0.7596
  712MPD2    H210584   4.688   0.384  14.184  0.2639 -0.0667 -3.2300
  712MPD2    H310585   0.191   0.456  14.155  1.4901  0.5018  2.3564
  712MPD2     N10586   0.093   0.891  14.212  0.5260 -0.2205  1.2394
  712MPD2    H510587   0.186   0.906  14.173  1.4078  0.9843  3.8280
  712MPD2    N110588   4.484   0.551  14.212  0.2205 -0.7878 -0.1987
  712MPD2    H710589   4.414   0.619  14.239  0.9308  0.3486 -1.2398
  713TMC3    C110590   0.072   1.129  14.182 -0.4221  0.6534 -0.0567
  713TMC3    C210591   0.206   1.151  14.183  0.1484  0.8160  0.3856
  713TMC3    C310592   0.252   1.274  14.161  0.0084 -0.3080  0.1315
  713TMC3    C410593   4.727   1.237  14.158 -0.3294 -0.7207  0.1286
  713TMC3    C510594   0.044   1.359  14.132  0.4394 -0.3632  0.4243
  713TMC3    C610595   0.178   1.385  14.141  0.7570 -0.2292 -0.0360
  713TMC3     C10596   0.012   1.003  14.223 -0.3142 -0.6550  0.3016
  713TMC3     O10597   4.627   1.001  14.243  0.6524 -0.4574  0.0058
  713TMC3     H10598   0.278   1.071  14.195  1.0752  1.3344 -1.7605
  713TMC3    H110599   4.620   1.222  14.165 -0.5671 -0.2999 -2.3579
  713TMC3    H210600   0.219   1.480  14.109 -2.1017 -0.1354 -3.4392
  713TMC3    C710601   4.688   1.462  14.080 -0.2676 -0.0439  0.2014
  713TMC3    C810602   0.385   1.272  14.098 -0.6143 -0.0233 -0.0963
  713TMC3    O110603   4.567   1.439  14.070 -0.1227 -0.0078 -0.1921
  713TMC3    O210604   0.409   1.211  13.996  0.1688  0.1960  0.1931
  714MPD2     C10605   2.373   4.197   1.025 -0.5243  0.7049 -0.2841
  714MPD2    C110606   2.313   4.074   1.015  0.2089  0.0816 -0.0628
  714MPD2    C210607   2.198   4.053   0.938  0.5711 -0.0553 -0.8579
  714MPD2    C310608   2.147   4.169   0.877 -0.4983  0.2326 -0.7957
  714MPD2    C410609   2.214   4.292   0.880 -0.1475  0.1920 -0.0857
  714MPD2    C510610   2.329   4.302   0.952 -0.1724  0.1132 -0.5599
  714MPD2     H10611   2.151   3.955   0.932  2.1079 -0.7274 -1.9214
  714MPD2    H110612   2.178   4.384   0.838 -1.4959 -0.8344 -1.1591
  714MPD2    H210613   2.463   4.207   1.084 -0.9696  1.7663  0.2220
  714MPD2    H310614   2.376   4.396   0.976  0.2911  0.0924 -1.4153
  714MPD2     N10615   2.028   4.143   0.811  0.0169 -0.4226 -0.9298
  714MPD2    H510616   1.974   4.060   0.832  0.7348 -0.8746 -0.8762
  714MPD2    N110617   2.368   3.975   1.097  0.1690 -0.3012 -0.7083
  714MPD2    H710618   2.435   4.004   1.167  1.9433 -1.4085 -1.9319
  715TMC3    C110619   2.426   3.754   1.163  0.1962 -0.6086 -0.3679
  715TMC3    C210620   2.473   3.637   1.111  1.5318  0.5016 -0.5443
  715TMC3    C310621   2.568   3.577   1.189 -0.3751 -0.0781  0.0810
  715TMC3    C410622   2.455   3.796   1.285 -0.1412  0.1936 -0.5534
  715TMC3    C510623   2.532   3.720   1.367 -0.0096  0.3143  0.4872
  715TMC3    C610624   2.596   3.609   1.312 -0.1286 -0.1823 -0.1338
  715TMC3     C10625   2.347   3.843   1.085 -0.3048  0.1906  0.2172
  715TMC3     O10626   2.269   3.786   1.008  0.2795  0.6253 -0.2162
  715TMC3     H10627   2.457   3.620   1.005  3.2270 -2.9444 -0.2401
  715TMC3    H110628   2.395   3.875   1.331  0.1791 -0.5320  1.1294
  715TMC3    H210629   2.668   3.554   1.371  0.1669 -1.0286 -1.2781
  715TMC3    C710630   2.545   3.754   1.502 -0.1367  0.3276 -0.3490
  715TMC3    C810631   2.608   3.453   1.124 -0.1368 -0.7192  0.1913
  715TMC3    O110632   2.651   3.726   1.559 -0.3691  0.5847 -0.3311
  715TMC3    O210633   2.545   3.402   1.034  0.5693 -0.1420 -0.7532
  716MPD2     C10634   1.904   3.449   9.700  0.3531  0.0278  0.0248
  716MPD2    C110635   1.893   3.328   9.640 -0.3260  0.2379 -0.4528
  716MPD2    C210636   2.011   3.256   9.627  0.5886 -0.0263 -0.2366
  716MPD2    C310637   2.137   3.306   9.662 -0.3887  0.3329  0.0423
  716MPD2    C410638   2.148   3.440   9.703  0.1085 -0.0401 -0.4350
  716MPD2    C510639   2.028   3.506   9.726  0.4013  0.5614  0.6396
  716MPD2     H10640   1.996   3.155   9.590 -3.6786  0.7766 -0.6475
  716MPD2    H110641   2.231   3.494   9.747 -0.2224  0.1653 -0.0617
  716MPD2    H210642   1.821   3.505   9.740 -0.2602 -0.8228 -0.0434
  716MPD2    H310643   2.047   3.604   9.768  0.1217  0.7719  0.2864
  716MPD2     N10644   2.244   3.211   9.661  0.2451  0.6196  0.2508
  716MPD2    H510645   2.219   3.114   9.646 -1.2224  1.2171 -1.1468
  716MPD2    N110646   1.765   3.269   9.603  0.0739  0.0316 -0.0899
  716MPD2    H710647   1.690   3.335   9.621 -0.2381  0.0049 -1.2960
  717TMC3    C110648   2.466   3.138   9.668 -0.2078 -0.0936 -0.3830
  717TMC3    C210649   2.434   3.036   9.588 -0.5645  0.8906 -0.1484
  717TMC3    C310650   2.517   2.929   9.588 -0.4618 -0.1133 -0.3593
  717TMC3    C410651   2.563   3.133   9.762  0.2321 -0.8926 -0.9524
  717TMC3    C510652   2.636   3.010   9.766 -0.7302 -0.4190  0.1402
  717TMC3    C610653   2.620   2.906   9.677  0.3297  0.4929 -0.5985
  717TMC3     C10654   2.372   3.245   9.670  0.0644 -0.2871 -0.3220
  717TMC3     O10655   2.427   3.354   9.678 -0.1972  0.4004 -0.1531
  717TMC3     H10656   2.352   3.046   9.517  1.4072 -0.2656 -2.5808
  717TMC3    H110657   2.585   3.225   9.815 -3.5345 -0.6583  0.2275
  717TMC3    H210658   2.679   2.817   9.692  1.5280  1.2449 -0.8320
  717TMC3    C710659   2.732   2.993   9.877 -0.0585 -0.2170  0.6407
  717TMC3    C810660   2.469   2.812   9.514  0.6454  0.7629  0.5061
  717TMC3    O110661   2.815   2.906   9.872 -0.2355  0.6085 -0.2706
  717TMC3    O210662   2.350   2.800   9.497  0.1217 -0.4688 -0.2892
  718MPD2     C10663   1.388   0.537  12.848 -0.1871  0.1284  0.5866
  718MPD2    C110664   1.304   0.583  12.752 -0.2098 -0.7360 -0.3016
  718MPD2    C210665   1.174   0.571  12.785 -0.0744  0.0351  0.5628
  718MPD2    C310666   1.120   0.525  12.907  0.2400  0.6037 -0.0456
  718MPD2    C410667   1.210   0.481  13.003 -0.4779  0.1904  0.8551
  718MPD2    C510668   1.348   0.485  12.966 -0.8947  0.6464  0.2991
  718MPD2     H10669   1.106   0.615  12.713 -0.3780 -1.2567  0.0552
  718MPD2    H110670   1.185   0.442  13.102  0.4166 -0.5723  0.7740
  718MPD2    H210671   1.494   0.548  12.825 -0.6826  1.0086 -1.2644
  718MPD2    H310672   1.417   0.448  13.041 -1.2683  0.7377  0.6853
  718MPD2     N10673   0.979   0.542  12.936  0.0067 -0.3129  0.0776
  718MPD2    H510674   0.924   0.580  12.859  1.1472  1.3384  0.0981
  718MPD2    N110675   1.343   0.645  12.633  0.3093  0.0459 -0.3753
  718MPD2    H710676   1.267   0.672  12.571  2.0230  1.1984 -1.9832
  719TMC3    C110677   1.482   0.762  12.482  0.0849  0.3707  0.6461
  719TMC3    C210678   1.361   0.751  12.416 -0.4075 -0.4065 -0.2106
  719TMC3    C310679   1.299   0.866  12.377 -0.3949  0.0027 -0.3478
  719TMC3    C410680   1.547   0.875  12.497 -0.4282 -0.0689  0.9228
  719TMC3    C510681   1.487   0.988  12.448  0.4063  0.2208 -0.3553
  719TMC3    C610682   1.363   0.989  12.384  0.4343  0.3133 -0.3120
  719TMC3     C10683   1.474   0.685  12.603 -0.2207  0.7315 -0.6819
  719TMC3     O10684   1.583   0.667  12.659 -0.4123 -1.0446  0.1322
  719TMC3     H10685   1.312   0.655  12.401  0.5008 -0.6243 -1.8179
  719TMC3    H110686   1.644   0.873  12.546  1.1469  0.3647 -2.1660
  719TMC3    H210687   1.320   1.082  12.348  0.6780  0.5615  0.0235
  719TMC3    C710688   1.568   1.114  12.449  0.1268  0.1243 -0.6149
  719TMC3    C810689   1.160   0.852  12.412  0.0666 -0.0709  0.9247
  719TMC3    O110690   1.512   1.208  12.404 -0.8839  0.2921 -0.1393
  719TMC3    O210691   1.124   0.747  12.462  0.1484  0.7918 -0.1376
  720MPD2     C10692   0.101   2.722  13.983 -0.0591  0.2089 -0.0956
  720MPD2    C110693   0.192   2.761  13.890  0.5042 -0.0765  1.0817
  720MPD2    C210694   0.318   2.801  13.927 -0.6614 -0.0484  0.0969
  720MPD2    C310695   0.364   2.787  14.058  0.1949 -0.1142 -0.1834
  720MPD2    C410696   0.270   2.729  14.157  1.2194 -0.0569 -0.0833
  720MPD2    C510697   0.145   2.706  14.110  0.1555  0.3667 -0.1101
  720MPD2     H10698   0.385   2.850  13.858 -3.3891  3.5580  0.0243
  720MPD2    H110699   0.291   2.705  14.260 -0.5389  1.2333  0.5691
  720MPD2    H210700   4.733   2.701  13.958  0.2915 -0.1087 -1.2624
  720MPD2    H310701   0.076   2.673  14.187  1.4696 -3.1080 -0.3828
  720MPD2     N10702   0.506   2.805  14.079 -0.2762 -0.1324 -0.2467
  720MPD2    H510703   0.558   2.844  14.001  1.6376 -1.8443  0.1624
  720MPD2    N110704   0.166   2.782  13.756 -0.4503  0.6444  0.4427
  720MPD2    H710705   0.222   2.846  13.700 -1.4502 -0.7084 -2.1142
  721TMC3    C110706   0.694   2.858  14.214  0.6431  0.6810 -0.6178
  721TMC3    C210707   0.747   2.839  14.338 -0.0797 -0.0438  0.3092
  721TMC3    C310708   0.885   2.824  14.357 -0.0956 -0.6788 -0.2073
  721TMC3    C410709   0.774   2.851  14.103 -0.6553 -0.2395  0.0682
  721TMC3    C510710   0.910   2.820  14.122 -0.3463 -0.4299 -0.1825
  721TMC3    C610711   0.969   2.816  14.246  0.5123  0.5590  0.0146
  721TMC3     C10712   0.551   2.815  14.208 -0.0370  0.3527  0.0595
  721TMC3     O10713   0.496   2.791  14.317  0.1325  0.0995 -0.4848
  721TMC3     H10714   0.682   2.837  14.425  1.9494  0.2393  1.8303
  721TMC3    H110715   0.741   2.848  14.000  1.4143  1.1926 -0.6514
  721TMC3    H210716   1.073   2.788  14.257  0.6354  1.3024  0.7911
  721TMC3    C710717   1.008   2.805  14.019 -0.3223 -0.3441  0.0806
  721TMC3    C810718   0.939   2.866  14.488  1.0387 -0.1257 -0.1843
  721TMC3    O110719   0.997   2.864  13.912 -0.7669 -0.2247 -0.1152
  721TMC3    O210720   1.017   2.962  14.486  0.0333  0.1665 -0.4906
  722MPD2     C10721   3.867   1.271  13.659 -0.1721  0.7554  0.4730
  722MPD2    C110722   3.868   1.336  13.537  0.2162  0.0244 -0.2638
  722MPD2    C210723   3.768   1.304  13.455  0.4112 -0.3534  0.6718
  722MPD2    C310724   3.679   1.196  13.483  0.0021 -0.3304  0.5558
  722MPD2    C410725   3.679   1.134  13.608  0.7270 -0.3720  0.0904
  722MPD2    C510726   3.777   1.176  13.694 -1.3959 -0.1603  0.8527
  722MPD2     H10727   3.750   1.364  13.367  1.2961 -0.3207  0.5139
  722MPD2    H110728   3.607   1.062  13.646  1.1537 -1.4831 -1.1872
  722MPD2    H210729   3.931   1.312  13.736  1.8802  2.1735 -1.9851
  722MPD2    H310730   3.787   1.133  13.793 -1.9292  0.6599  1.2611
  722MPD2     N10731   3.588   1.167  13.380  0.1712  0.5160  0.7903
  722MPD2    H510732   3.581   1.225  13.297 -2.0991 -0.1397  0.5435
  722MPD2    N110733   3.964   1.433  13.502  0.2949  0.0588  0.1512
  722MPD2    H710734   3.946   1.486  13.417  4.0981  1.3739  0.1575
  723TMC3    C110735   3.430   1.049  13.255 -0.0505  0.0277  0.2909
  723TMC3    C210736   3.378   0.926  13.220 -0.5436 -0.0159  0.4472
  723TMC3    C310737   3.283   0.927  13.118  0.3162 -0.4538  0.5452
  723TMC3    C410738   3.374   1.176  13.218 -0.6736 -0.2869  1.4253
  723TMC3    C510739   3.260   1.162  13.146 -0.1204  0.3123 -0.0684
  723TMC3    C610740   3.216   1.040  13.092 -0.4507  0.3092  0.0385
  723TMC3     C10741   3.512   1.047  13.374 -0.2437  0.0015  0.5234
  723TMC3     O10742   3.507   0.945  13.445 -0.4681 -0.0396  0.1307
  723TMC3     H10743   3.438   0.838  13.240  0.7109  1.0842  1.5852
  723TMC3    H110744   3.424   1.270  13.240 -0.9152  0.4623 -1.2187
  723TMC3    H210745   3.129   1.039  13.027 -0.5510  3.2772  0.1280
  723TMC3    C710746   3.203   1.281  13.080 -0.0874  0.6095  0.1233
  723TMC3    C810747   3.218   0.804  13.070  0.4006  0.0828  0.5369
  723TMC3    O110748   3.146   1.264  12.976 -0.3767 -0.5500 -0.1413
  723TMC3    O210749   3.222   0.709  13.150  0.0653  0.2303 -0.3667
  724TMC3    C110750   3.703   0.044   9.640 -0.1489  0.1501 -0.3792
  724TMC3    C210751   3.644   0.156   9.699  0.6256 -0.2481 -0.3900
  724TMC3    C310752   3.728   0.249   9.752  1.3474 -0.6340  0.8733
  724TMC3    C410753   3.834   0.045   9.610  0.9499 -0.4099 -0.3311
  724TMC3    C510754   3.916   0.143   9.659 -0.1516  0.4102 -0.5403
  724TMC3    C610755   3.867   0.238   9.736 -0.2971  0.9001 -0.2421
  724TMC3     C10756   3.630   4.672   9.585 -0.3798 -0.4188  0.0385
  724TMC3     O10757   3.689   4.580   9.524  0.3207 -0.0271  0.1310
  724TMC3     H10758   3.539   0.164   9.725  1.7255 -0.6312  4.0571
  724TMC3    H110759   3.894   4.699   9.570 -0.0085 -1.2477 -0.0329
  724TMC3    H210760   3.933   0.307   9.787  1.3895 -0.3216 -0.7789
  724TMC3    C710761   4.059   0.140   9.626  0.5138  0.2761  0.1679
  724TMC3    C810762   3.665   0.351   9.839  0.0704  0.3599 -1.4133
  724TMC3    O110763   4.104   0.030   9.589  0.8927 -0.1046  0.1640
  724TMC3    O210764   3.558   0.324   9.894 -0.4374 -0.0236 -0.1755
  725TMC3    C110765   0.949   3.033  13.316  0.3282  0.8816  0.6686
  725TMC3    C210766   0.876   3.139  13.295 -0.0028 -0.7640  0.2503
  725TMC3    C310767   0.767   3.130  13.216  0.1667 -0.0404  0.7476
  725TMC3    C410768   0.913   2.907  13.270  0.3031  0.3589  0.1801
  725TMC3    C510769   0.798   2.893  13.201  1.0040 -0.2253  0.3522
  725TMC3    C610770   0.726   3.009  13.172  0.5845 -0.2269 -0.1313
  725TMC3     C10771   1.096   3.054  13.302 -0.0737  0.0376 -0.1495
  725TMC3     O10772   1.176   2.962  13.323 -0.3404 -0.2147 -0.0325
  725TMC3     H10773   0.905   3.233  13.340 -1.6910 -0.1121  0.0086
  725TMC3    H110774   0.978   2.821  13.284 -0.0648  0.4118  2.2556
  725TMC3    H210775   0.643   2.999  13.102 -0.6733 -1.2471  1.5172
  725TMC3    C710776   0.786   2.788  13.107  0.2245 -0.5706 -0.3198
  725TMC3    C810777   0.709   3.254  13.168  0.1695 -0.3405 -0.0115
  725TMC3    O110778   0.887   2.741  13.058 -0.1820 -0.3079  0.2818
  725TMC3    O210779   0.742   3.361  13.219  0.6599 -0.6685 -0.3715
  726MPD2     C10780   2.928   4.490  10.332  1.2190 -0.0107 -0.0178
  726MPD2    C110781   2.899   4.603  10.403  0.1336 -0.5495  0.0191
  726MPD2    C210782   2.798   4.592  10.505  0.0093 -0.0332  0.1390
  726MPD2    C310783   2.718   4.485  10.514  0.1077 -0.1500 -0.1989
  726MPD2    C410784   2.740   4.375  10.439 -0.3707 -0.4646  0.7432
  726MPD2    C510785   2.848   4.379  10.352  0.5174  0.0069  0.5031
  726MPD2     H10786   2.768   4.675  10.568  4.1832  2.5261 -1.2912
  726MPD2    H110787   2.668   4.294  10.438  0.4230 -1.1674  0.9239
  726MPD2    H210788   3.020   4.474  10.277 -0.0587 -1.5923 -1.7010
  726MPD2    H310789   2.871   4.294  10.288  0.1457  1.1383 -1.1265
  726MPD2     N10790   2.623   4.475  10.614  0.0209  0.1459  0.2746
  726MPD2    H510791   2.556   4.398  10.606  1.8977 -1.5097  0.4970
  726MPD2    N110792   2.970   4.729  10.399 -0.0212 -0.2223 -0.2271
  726MPD2    H710793   2.924   0.067  10.452 -0.2205  0.1654 -0.9240
  727TMC3    C110794   3.108   0.149  10.297 -0.8735  0.0581  0.4740
  727TMC3    C210795   3.229   0.203  10.285  0.1010 -0.1529  0.1882
  727TMC3    C310796   3.240   0.336  10.242  0.3021 -0.6973  0.0104
  727TMC3    C410797   3.000   0.230  10.280  0.5480  0.2487  0.2159
  727TMC3    C510798   3.012   0.363  10.252  0.0970 -0.5790 -0.4642
  727TMC3    C610799   3.133   0.423  10.238  0.3463 -0.1073  0.1135
  727TMC3     C10800   3.087   0.009  10.336  0.2538 -0.2680  0.2797
  727TMC3     O10801   3.172   4.660  10.311 -0.6009 -0.2087 -0.5265
  727TMC3     H10802   3.307   0.130  10.303 -1.1970 -1.4369  0.5650
  727TMC3    H110803   2.905   0.185  10.255  1.2313 -0.7067 -0.6377
  727TMC3    H210804   3.133   0.526  10.205  2.5082  0.6126  2.3292
  727TMC3    C710805   2.882   0.424  10.216  0.2536  0.4309 -0.3958
  727TMC3    C810806   3.370   0.387  10.276 -0.2679  0.4042 -0.2230
  727TMC3    O110807   2.787   0.355  10.187  0.3474  0.1827 -0.2079
  727TMC3    O210808   3.466   0.316  10.262 -0.6126  0.8454 -0.1721
  728TMC3    C110809   2.945   3.418  15.428  0.4169  0.0118  0.1941
  728TMC3    C210810   3.070   3.381  15.376 -0.3882  0.4156  0.2706
  728TMC3    C310811   3.082   3.378  15.242 -0.0813 -0.2305  0.2155
  728TMC3    C410812   2.839   3.451  15.353  1.1599 -0.2196 -0.3812
  728TMC3    C510813   2.864   3.456  15.220 -0.7091  0.6965 -0.4564
  728TMC3    C610814   2.981   3.417  15.159 -0.3420 -0.0879  0.0181
  728TMC3     C10815   2.918   3.377  15.566  0.5701 -0.2429 -0.0916
  728TMC3     O10816   3.015   3.374  15.645 -0.3704 -0.3994 -0.3444
  728TMC3     H10817   3.137   3.329  15.444 -1.1886  0.1542  0.8717
  728TMC3    H110818   2.746   3.488  15.395  1.4904 -0.9558  1.0087
  728TMC3    H210819   2.980   3.399  15.052  0.4270 -2.0108  0.3240
  728TMC3    C710820   2.746   3.472  15.143 -0.0876  0.3078 -0.1608
  728TMC3    C810821   3.203   3.336  15.179 -0.3229 -0.1131  0.7197
  728TMC3    O110822   2.643   3.428  15.196  0.2882  0.1586 -0.0818
  728TMC3    O210823   3.263   3.252  15.240  0.5719  0.2834  0.3746
  729MPD2     C10824   4.420   4.488  16.435 -0.4846 -0.8610  0.1631
  729MPD2    C110825   4.547   4.499  16.470 -0.4010  0.7867  0.5932
  729MPD2    C210826   4.586   4.458  16.600  0.2769  0.1617 -0.3015
  729MPD2    C310827   4.492   4.430  16.692  0.7988 -0.2014  0.2358
  729MPD2    C410828   4.362   4.443  16.664  0.3231 -0.1528 -0.2122
  729MPD2    C510829   4.325   4.465  16.532  0.6363 -0.1165 -0.0571
  729MPD2     H10830   4.691   4.439  16.618  0.8955  2.6476 -1.3411
  729MPD2    H110831   4.287   4.432  16.741  0.9141  1.4157  0.5809
  729MPD2    H210832   4.389   4.507  16.333 -1.6729  0.5998  0.7908
  729MPD2    H310833   4.219   4.471  16.508  0.5328 -1.6178  0.0214
  729MPD2     N10834   4.512   4.393  16.824 -0.4488  0.3604  0.1774
  729MPD2    H510835   4.434   4.368  16.884 -1.4847  0.2385 -1.2195
  729MPD2    N110836   4.641   4.531  16.366  0.4399 -0.1283  0.7137
  729MPD2    H710837   4.596   4.555  16.279  1.6656  0.5578  0.2615
  730TMC3    C110838   4.648   4.387  17.011  0.1589  0.4727 -0.2500
  730TMC3    C210839   0.041   4.369  17.053  0.3363 -0.3686 -0.4734
  730TMC3    C310840   0.091   4.465  17.138 -0.3079  0.4219 -0.0012
  730TMC3    C410841   4.576   4.496  17.052 -0.0207  0.1968 -0.7696
  730TMC3    C510842   4.626   4.584  17.143  0.0043  0.0273  0.2083
  730TMC3    C610843   0.019   4.572  17.191 -0.5169 -0.2370  0.1920
  730TMC3     C10844   4.641   4.368  16.869  0.4387  0.1199  0.5367
  730TMC3     O10845   0.017   4.344  16.821 -0.0172  0.0199 -0.3736
  730TMC3     H10846   0.098   4.277  17.039  0.8746 -0.0517 -0.3599
  730TMC3    H110847   4.475   4.519  17.019 -1.1529  0.5701  2.9842
  730TMC3    H210848   0.062   4.651  17.251 -2.8692  1.4008 -0.2659
  730TMC3    C710849   4.586   4.725  17.115 -0.1127  0.3936 -0.7998
  730TMC3    C810850   0.224   4.510  17.097  0.5145  0.2052  0.4625
  730TMC3    O110851   4.549   0.023  17.003 -0.1227  0.7232  0.2880
  730TMC3    O210852   0.295   4.583  17.160 -0.0363  0.4136  0.0928
  731MPD2     C10853   4.281   1.961  12.480 -0.1984 -0.1070  0.7802
  731MPD2    C110854   4.414   1.985  12.467 -0.4438  0.1341 -0.5473
  731MPD2    C210855   4.498   1.951  12.569 -0.7857  0.3178 -0.5002
  731MPD2    C310856   4.448   1.902  12.688  0.4307 -0.1253 -0.9644
  731MPD2    C410857   4.314   1.887  12.707 -0.3536  0.6190 -0.4416
  731MPD2    C510858   4.230   1.916  12.603 -0.1002 -0.7626  0.8694
  731MPD2     H10859   4.606   1.954  12.563 -0.6693 -2.0974  0.6043
  731MPD2    H110860   4.276   1.868  12.807 -0.7904  0.5710 -0.6172
  731MPD2    H210861   4.216   1.980  12.395 -1.6738 -0.9785  1.7022
  731MPD2    H310862   4.124   1.904  12.621 -0.3303 -0.6324 -0.3722
  731MPD2     N10863   4.542   1.880  12.792 -0.3849  0.4524 -0.2237
  731MPD2    H510864   4.637   1.905  12.770 -0.4656  1.6589  0.8084
  731MPD2    N110865   4.453   2.037  12.339 -0.1426 -0.6801 -0.2801
  731MPD2    H710866   4.383   2.073  12.275 -0.4111  0.6781  0.7791
  732TMC3    C110867   4.593   2.076  12.156  0.3268 -0.0695 -0.5450
  732TMC3    C210868   4.482   2.107  12.076  0.5314  0.4676  0.3835
  732TMC3    C310869   4.517   2.138  11.941  0.1200  0.8078 -0.5848
  732TMC3    C410870   4.723   2.066  12.112  0.5650  0.1889 -0.2271
  732TMC3    C510871   0.014   2.098  11.983 -0.9965 -0.0921 -0.5705
  732TMC3    C610872   4.648   2.131  11.896 -0.4114 -0.4362 -0.1307
  732TMC3     C10873   4.583   2.064  12.301 -0.2903  0.0465  0.4731
  732TMC3     O10874   4.687   2.032  12.357  0.1687  0.3134  0.9380
  732TMC3     H10875   4.383   2.108  12.120  1.1985 -0.2238  1.8823
  732TMC3    H110876   0.054   2.005  12.172  1.6587  1.0713 -0.5626
  732TMC3    H210877   4.672   2.165  11.796  0.4999 -2.3355 -0.5671
  732TMC3    C710878   0.147   2.079  11.923  0.8763  0.1635  0.7290
  732TMC3    C810879   4.425   2.203  11.861 -0.1466  0.3610  0.1903
  732TMC3    O110880   0.149   2.066  11.803 -0.1998 -0.4266  0.4037
  732TMC3    O210881   4.464   2.246  11.754  0.6715  0.2913  0.5775
  733TMC3    C110882   0.585   0.638  13.106  0.0762 -0.5758  0.3636
  733TMC3    C210883   0.700   0.571  13.130 -0.0505 -0.4164  0.3665
  733TMC3    C310884   0.804   0.611  13.063  0.0313  0.6934  0.4384
  733TMC3    C410885   0.564   0.733  13.011 -0.5111 -0.3141 -0.2721
  733TMC3    C510886   0.675   0.749  12.924  0.1769 -0.3356  0.1705
  733TMC3    C610887   0.797   0.702  12.964  0.0250  0.0842  0.3740
  733TMC3     C10888   0.465   0.604  13.180  0.0728 -0.2425 -0.2230
  733TMC3     O10889   0.356   0.653  13.150 -0.5843  0.1697  0.6526
  733TMC3     H10890   0.708   0.489  13.202 -0.9861  1.7695  2.9532
  733TMC3    H110891   0.470   0.785  12.996 -1.0301 -0.2192  3.1850
  733TMC3    H210892   0.890   0.738  12.922  0.5021 -1.4700  0.0974
  733TMC3    C710893   0.670   0.852  12.832 -0.0756  0.0500 -0.1539
  733TMC3    C810894   0.919   0.531  13.057  0.2179  0.0021  0.1185
  733TMC3    O110895   0.581   0.932  12.854 -0.3054  0.3898  0.3351
  733TMC3    O210896   0.964   0.493  13.163  0.5265 -0.1668  0.2340
  734MPD2     C10897   2.940   3.149  12.581  0.1953 -0.2330 -0.3666
  734MPD2    C110898   2.858   3.090  12.484  0.3828 -0.0070  0.1167
  734MPD2    C210899   2.846   3.167  12.364  1.0299 -0.9424 -0.9583
  734MPD2    C310900   2.907   3.286  12.335 -0.1413 -0.0817  0.3751
  734MPD2    C410901   2.980   3.341  12.434  0.3918  0.3086  0.0646
  734MPD2    C510902   2.992   3.274  12.556  1.0472  0.2339 -0.2334
  734MPD2     H10903   2.784   3.128  12.283 -1.5080  2.1239 -0.5175
  734MPD2    H110904   3.042   3.428  12.417 -0.1227  0.4272 -1.2383
  734MPD2    H210905   2.959   3.097  12.675 -0.6272  2.0370  1.0545
  734MPD2    H310906   3.053   3.319  12.633  1.9614 -2.7882  0.8424
  734MPD2     N10907   2.911   3.325  12.206  0.3465  0.3998  0.1105
  734MPD2    H510908   2.884   3.258  12.135  1.9403  1.2652 -1.3338
  734MPD2    N110909   2.798   2.963  12.504 -0.1152 -0.1482  0.0275
  734MPD2    H710910   2.844   2.901  12.570 -1.3393 -0.8430  0.2307
  735TMC3    C110911   2.687   2.772  12.443  0.2144  0.5655  0.0933
  735TMC3    C210912   2.567   2.722  12.404 -0.0874 -0.0814  0.2651
  735TMC3    C310913   2.566   2.631  12.301 -0.7999  0.5322  0.2536
  735TMC3    C410914   2.804   2.704  12.413 -0.0091  0.0328 -0.0545
  735TMC3    C510915   2.786   2.590  12.347 -0.1604 -0.8205  0.2959
  735TMC3    C610916   2.670   2.552  12.285  0.6831  0.3554  0.0933
  735TMC3     C10917   2.693   2.916  12.426 -0.4173  0.0121 -0.9580
  735TMC3     O10918   2.608   2.977  12.366 -0.1492  0.1282 -1.1793
  735TMC3     H10919   2.485   2.792  12.414 -1.0557 -1.2523  0.4667
  735TMC3    H110920   2.902   2.729  12.452  0.3503  0.9719 -1.5507
  735TMC3    H210921   2.668   2.479  12.205  1.4683  1.6455 -1.1021
  735TMC3    C710922   2.899   2.530  12.283 -0.8041  0.2879  0.0834
  735TMC3    C810923   2.511   2.673  12.172  0.2552  0.3585 -0.4407
  735TMC3    O110924   2.983   2.600  12.229  0.0967  0.3644 -0.1093
  735TMC3    O210925   2.488   2.585  12.091 -0.2221 -0.3103  0.4311
  736MPD2     C10926   2.990   2.183  12.374 -0.0529  0.4922 -1.1261
  736MPD2    C110927   2.997   2.300  12.299  0.1026 -0.3595  0.1459
  736MPD2    C210928   3.096   2.312  12.200 -0.0784  0.0072 -0.7528
  736MPD2    C310929   3.181   2.203  12.160 -0.2565  0.3333 -0.6466
  736MPD2    C410930   3.168   2.094  12.233  0.3266  0.6346  0.1366
  736MPD2    C510931   3.080   2.086  12.344  0.3806  0.1172  0.0236
  736MPD2     H10932   3.082   2.400  12.137 -0.3614  0.4864 -0.0221
  736MPD2    H110933   3.219   2.005  12.199 -0.5503  0.0118  0.4766
  736MPD2    H210934   2.921   2.160  12.454 -0.1775  0.0408 -1.3596
  736MPD2    H310935   3.077   1.997  12.406 -0.0594 -1.1053 -1.7754
  736MPD2     N10936   3.254   2.192  12.038  0.0354 -0.4829  0.4349
  736MPD2    H510937   3.302   2.106  12.016 -1.0765 -1.4380  1.7825
  736MPD2    N110938   2.899   2.398  12.320 -0.5261  0.5717  0.8723
  736MPD2    H710939   2.826   2.366  12.383 -0.9749  2.1167  1.1297
  737TMC3    C110940   3.367   2.255  11.849  0.9521  0.3255 -0.6837
  737TMC3    C210941   3.365   2.332  11.740  0.4438 -0.2827  0.4525
  737TMC3    C310942   3.428   2.285  11.629  0.5361  0.4871 -0.8927
  737TMC3    C410943   3.450   2.148  11.864  0.1377  0.2948 -0.1600
  737TMC3    C510944   3.531   2.118  11.759 -0.3542  0.0360 -0.1829
  737TMC3    C610945   3.513   2.180  11.637  0.0879  0.6261  0.0679
  737TMC3     C10946   3.281   2.294  11.957 -0.3378  0.1018  0.1938
  737TMC3     O10947   3.252   2.415  11.960  0.5231  0.2103  0.0394
  737TMC3     H10948   3.299   2.419  11.736  0.4968 -0.3190 -1.3639
  737TMC3    H110949   3.455   2.103  11.962 -0.8145  1.1262  0.2714
  737TMC3    H210950   3.539   2.123  11.549  0.5529 -0.5693  0.9781
  737TMC3    C710951   3.633   2.017  11.776 -0.5254 -0.3910  0.9109
  737TMC3    C810952   3.400   2.358  11.507  0.0149 -0.4587 -0.0434
  737TMC3    O110953   3.647   1.973  11.891 -0.0052  0.5575  0.3507
  737TMC3    O210954   3.312   2.445  11.519 -0.0141  0.5374  1.0422
  738MPD2     C10955   3.649   1.963  14.543  0.2407  0.0058 -0.2997
  738MPD2    C110956   3.647   1.935  14.680  0.8504 -0.4205 -0.2012
  738MPD2    C210957   3.745   1.990  14.758  0.4393 -0.0118 -0.4677
  738MPD2    C310958   3.847   2.069  14.700 -0.1034  0.1846 -0.4671
  738MPD2    C410959   3.862   2.064  14.564  0.7288 -0.2523  0.4768
  738MPD2    C510960   3.759   2.016  14.485 -0.8569  0.1287  1.1371
  738MPD2     H10961   3.738   1.980  14.865  1.7364  2.7852 -0.1290
  738MPD2    H110962   3.941   2.125  14.521 -1.5481  1.1801 -1.7134
  738MPD2    H210963   3.565   1.942  14.477 -0.1838 -0.2674  0.3232
  738MPD2    H310964   3.757   2.037  14.379 -1.9958  0.6730  1.2735
  738MPD2     N10965   3.939   2.140  14.779  0.3224 -0.0652 -0.4911
  738MPD2    H510966   4.021   2.171  14.728  0.9389  0.1971  0.6470
  738MPD2    N110967   3.551   1.855  14.744  0.0524 -0.2709  0.0422
  738MPD2    H710968   3.578   1.829  14.838  0.2741 -1.0474 -0.2360
  739TMC3    C110969   4.072   2.222  14.954 -0.4092  0.3736 -0.5233
  739TMC3    C210970   4.150   2.286  14.862  0.3184 -0.0608 -0.7626
  739TMC3    C310971   4.276   2.327  14.894 -0.0413  0.3059  0.2104
  739TMC3    C410972   4.124   2.191  15.078  0.3674  0.2427  0.6757
  739TMC3    C510973   4.249   2.232  15.106  1.0406 -0.2398 -0.6744
  739TMC3    C610974   4.328   2.301  15.020  0.7888 -0.3932 -0.3202
  739TMC3     C10975   3.943   2.162  14.917  0.3006  0.0890  0.3311
  739TMC3     O10976   3.874   2.121  15.008 -0.5623  0.9047 -0.4248
  739TMC3     H10977   4.096   2.318  14.773 -1.3989 -1.9277 -0.4013
  739TMC3    H110978   4.067   2.132  15.148  1.2005  0.2286  1.3452
  739TMC3    H210979   4.436   2.307  15.033  0.7914  0.3130 -0.6592
  739TMC3    C710980   4.317   2.140  15.192 -0.0475  1.0236 -0.2249
  739TMC3    C810981   4.348   2.365  14.785 -0.0895 -0.1691  0.4232
  739TMC3    O110982   4.407   2.077  15.139  0.4584 -0.2153  0.0283
  739TMC3    O210983   4.297   2.354  14.675 -0.0886 -0.0025 -0.0150
  740TMC3    C110984   0.130   3.330  14.255 -0.0680  0.1106  0.2318
  740TMC3    C210985   0.170   3.303  14.378  0.0083 -0.2534 -0.1858
  740TMC3    C310986   0.300   3.267  14.398 -0.5226 -0.4143 -0.2774
  740TMC3    C410987   0.204   3.305  14.146 -0.4013  0.0832  0.2071
  740TMC3    C510988   0.333   3.267  14.165 -0.6055 -0.0524 -0.6930
  740TMC3    C610989   0.377   3.239  14.288 -0.3289  0.6074 -0.0178
  740TMC3     C10990   4.726   3.357  14.215 -0.9134 -0.5945  0.1103
  740TMC3     O10991   4.711   3.421  14.116 -0.6550 -0.3019  0.1894
  740TMC3     H10992   0.115   3.329  14.468  1.2206  0.3276  0.3891
  740TMC3    H110993   0.159   3.305  14.047  1.3660 -0.4752 -0.5978
  740TMC3    H210994   0.482   3.215  14.295 -0.7653 -1.1382  0.5548
  740TMC3    C710995   0.395   3.198  14.051  0.0950  0.4668 -0.6366
  740TMC3    C810996   0.369   3.255  14.518 -0.6963 -0.4209  1.0781
  740TMC3    O110997   0.479   3.114  14.081 -0.3933  0.2647  0.2282
  740TMC3    O210998   0.491   3.245  14.514  0.8426 -0.0836  0.1465
  741TMC3    C110999   4.421   2.817  14.368 -0.2449 -0.2910 -0.7191
  741TMC3    C211000   4.347   2.714  14.319 -0.2879 -0.4707  0.0896
  741TMC3    C311001   4.279   2.632  14.408  0.6482  0.3375  0.6269
  741TMC3    C411002   4.450   2.822  14.502 -0.7333 -0.3666  0.1498
  741TMC3    C511003   4.391   2.728  14.588 -0.7177  1.1368  0.2929
  741TMC3    C611004   4.300   2.636  14.542  0.0324 -0.7340  0.8435
  741TMC3     C11005   4.530   2.865  14.288 -0.3580  0.4630  0.8010
  741TMC3     O11006   4.640   2.849  14.338 -0.2719  0.3236  0.5784
  741TMC3     H11007   4.353   2.689  14.214  0.9709 -0.6846  0.2180
  741TMC3    H111008   4.521   2.896  14.538 -0.4701 -1.3177  1.6210
  741TMC3    H211009   4.236   2.574  14.605 -2.9970 -0.7985 -2.2762
  741TMC3    C711010   4.413   2.755  14.726 -0.5415 -0.1119  0.5945
  741TMC3    C811011   4.197   2.528  14.356  0.3523 -0.0925 -0.4395
  741TMC3    O111012   4.323   2.709  14.795  0.1645 -0.1207 -0.2562
  741TMC3    O211013   4.156   2.551  14.243 -0.2890  0.3602  0.4005
  742TMC3    C111014   4.083   0.914  15.356 -0.2639 -0.0028 -0.0674
  742TMC3    C211015   4.001   0.863  15.259 -0.5488 -0.3936 -0.1089
  742TMC3    C311016   4.059   0.784  15.158 -0.1602  0.6290 -0.0117
  742TMC3    C411017   4.218   0.906  15.339 -0.2932 -0.1373 -0.5919
  742TMC3    C511018   4.268   0.830  15.234  0.3778  0.3526  0.0602
  742TMC3    C611019   4.190   0.771  15.142  0.5458 -0.1434  0.3328
  742TMC3     C11020   4.042   1.029  15.436  0.9438 -0.2810 -0.3408
  742TMC3     O11021   4.113   1.130  15.431  0.0715 -0.4028  0.2378
  742TMC3     H11022   3.895   0.867  15.276 -0.1554  0.8713  2.0352
  742TMC3    H111023   4.281   0.936  15.422  1.8107 -0.7524 -1.9615
  742TMC3    H211024   4.232   0.722  15.054 -1.0957  0.2209 -0.6543
  742TMC3    C711025   4.405   0.776  15.225 -0.4633 -0.2639  0.0959
  742TMC3    C811026   3.978   0.733  15.047 -0.3310  0.2066 -0.3609
  742TMC3    O111027   4.419   0.684  15.146  0.1161 -0.1986 -0.0531
  742TMC3    O211028   4.020   0.636  14.988 -0.3352  0.4143  0.1258
  743MPD2     C11029   2.241   2.448   1.667  0.2359  0.4296  0.0287
  743MPD2    C111030   2.273   2.319   1.638  0.2246 -0.5156  0.4838
  743MPD2    C211031   2.400   2.272   1.656 -0.2949 -0.3119  0.1065
  743MPD2    C311032   2.503   2.358   1.694 -0.4994  0.1191  0.2227
  743MPD2    C411033   2.472   2.492   1.723 -0.6894 -0.4609  0.2052
  743MPD2    C511034   2.336   2.525   1.715  0.9677 -0.1253 -0.1465
  743MPD2     H11035   2.416   2.168   1.628 -2.9346 -0.9963  1.0562
  743MPD2    H111036   2.541   2.560   1.772 -1.4248  0.4417 -0.0045
  743MPD2    H211037   2.140   2.484   1.661  0.4918  1.5307  2.3135
  743MPD2    H311038   2.315   2.628   1.740 -0.3298 -0.2726 -0.6079
  743MPD2     N11039   2.631   2.305   1.717 -0.7811 -0.3032 -0.0647
  743MPD2    H511040   2.642   2.207   1.691 -2.5825 -0.4294 -0.3225
  743MPD2    N111041   2.164   2.236   1.591  0.2595 -0.4557  0.0357
  743MPD2    H711042   2.070   2.271   1.580  0.6301  0.2363 -0.8925
  744TMC3    C111043   2.044   2.032   1.558  0.4043  0.1927  0.6897
  744TMC3    C211044   1.929   2.087   1.588  0.0153  0.4335  0.5854
  744TMC3    C311045   1.817   2.041   1.523  0.7697  0.5282  0.5297
  744TMC3    C411046   2.054   1.923   1.475  0.4090 -0.1405  0.1191
  744TMC3    C511047   1.936   1.870   1.411  0.1269  0.3121 -0.0754
  744TMC3    C611048   1.820   1.939   1.432  0.6915  0.6003  0.1381
  744TMC3     C11049   2.173   2.099   1.582 -0.1725  0.2008 -0.1968
  744TMC3     O11050   2.259   2.020   1.610  0.1811 -0.4665  0.0440
  744TMC3     H11051   1.933   2.176   1.651 -1.1308 -0.2579  1.6495
  744TMC3    H111052   2.147   1.870   1.461  0.7333  0.5376 -0.2759
  744TMC3    H211053   1.728   1.907   1.385  1.2686  1.2451 -1.4076
  744TMC3    C711054   1.959   1.784   1.298 -0.5001  0.8635  0.5260
  744TMC3    C811055   1.704   2.131   1.502 -0.2487 -0.8952 -0.7149
  744TMC3    O111056   2.069   1.738   1.293 -0.0349 -0.0463 -0.1704
  744TMC3    O211057   1.647   2.131   1.392 -0.2809 -0.1887 -0.0748
  745TMC3    C111058   4.294   0.423  14.216 -0.1926 -0.2562 -0.1997
  745TMC3    C211059   4.268   0.453  14.346  0.4135 -0.0807 -0.7964
  745TMC3    C311060   4.141   0.494  14.375 -0.7619 -0.2652 -0.0763
  745TMC3    C411061   4.204   0.438  14.122 -0.3001  0.0841  0.3473
  745TMC3    C511062   4.074   0.466  14.144 -0.1626  0.9122 -0.2621
  745TMC3    C611063   4.049   0.494  14.277  0.2909 -0.2650  0.1364
  745TMC3     C11064   4.433   0.427  14.183 -0.4392  0.8479 -0.0876
  745TMC3     O11065   4.488   0.344  14.114  0.3389 -0.3691 -1.0634
  745TMC3     H11066   4.351   0.442  14.414  0.7184 -0.8201 -1.2923
  745TMC3    H111067   4.237   0.405  14.024  0.4865 -2.7678  1.5812
  745TMC3    H211068   3.948   0.528  14.299  0.9082  1.0099  0.9554
  745TMC3    C711069   4.021   0.568  14.056  0.0059  0.3089  0.3668
  745TMC3    C811070   4.119   0.581  14.488  0.2276  0.2884  0.3009
  745TMC3    O111071   3.909   0.607  14.081 -0.3526  0.1268  0.4295
  745TMC3    O211072   4.007   0.584  14.538  0.3936 -0.2089  0.1364
  746TMC3    C111073   1.721   2.601  11.015  0.3425  0.5706  0.5562
  746TMC3    C211074   1.821   2.614  10.924  0.7330 -0.2704 -0.2364
  746TMC3    C311075   1.848   2.509  10.843 -0.4249  0.0263 -0.2135
  746TMC3    C411076   1.647   2.490  11.028 -0.0139  0.6433  0.2469
  746TMC3    C511077   1.678   2.381  10.951  1.0842 -0.0483  0.4442
  746TMC3    C611078   1.778   2.391  10.858 -0.7029 -0.1532 -0.7083
  746TMC3     C11079   1.679   2.715  11.089 -0.0615  0.2520  0.0626
  746TMC3     O11080   1.626   2.691  11.195 -0.2883  0.2454  0.1931
  746TMC3     H11081   1.890   2.698  10.925 -0.5281  0.7144  2.8518
  746TMC3    H111082   1.580   2.478  11.112 -0.9332  0.2588 -0.5386
  746TMC3    H211083   1.792   2.305  10.794 -0.7109 -1.5475  1.1491
  746TMC3    C711084   1.575   2.278  10.928  0.3276 -0.1347 -0.3460
  746TMC3    C811085   1.950   2.512  10.741  0.6295 -0.4110  0.5455
  746TMC3    O111086   1.540   2.273  10.811  0.0740 -0.4398  0.4358
  746TMC3    O211087   1.968   2.409  10.678  0.2722 -0.1624  0.2034
  747TMC3    C111088   4.322   2.223  11.245  0.1295 -0.1198  0.4234
  747TMC3    C211089   4.273   2.097  11.259 -0.2206  0.3077 -0.7774
  747TMC3    C311090   4.337   2.004  11.335  0.0569  0.5839  0.6776
  747TMC3    C411091   4.448   2.258  11.299 -0.0639  0.2671 -0.2573
  747TMC3    C511092   4.522   2.153  11.353 -0.7193 -0.3782  0.5441
  747TMC3    C611093   4.471   2.030  11.376  0.0160  0.5380 -0.7114
  747TMC3     C11094   4.272   2.306  11.144  0.3855  0.1595 -0.1389
  747TMC3     O11095   4.267   2.427  11.157 -0.1609  0.6383  0.4229
  747TMC3     H11096   4.173   2.076  11.223 -1.5971  2.1315  2.0197
  747TMC3    H111097   4.498   2.351  11.276  2.2383 -0.6600  1.0658
  747TMC3    H211098   4.516   1.957  11.443  1.5394  0.3141 -1.9722
  747TMC3    C711099   4.649   2.191  11.408  0.2100 -0.1609 -1.1329
  747TMC3    C811100   4.262   1.911  11.410 -1.0126 -0.0909 -0.3224
  747TMC3    O111101   4.660   2.312  11.433  0.1791 -0.7867 -0.0988
  747TMC3    O211102   4.317   1.812  11.459 -0.7151 -0.7682  0.2346
  748MPD2     C11103   1.262   2.871   1.523 -0.2091 -0.4359  0.4728
  748MPD2    C111104   1.247   2.957   1.418 -0.7482  0.1721 -0.2101
  748MPD2    C211105   1.367   3.007   1.364  0.2293 -0.0315 -0.1599
  748MPD2    C311106   1.492   2.962   1.404 -0.0034  0.0890 -0.6761
  748MPD2    C411107   1.502   2.876   1.503 -0.5483  0.5660 -0.1451
  748MPD2    C511108   1.384   2.834   1.559  0.2227 -0.3487  0.2034
  748MPD2     H11109   1.361   3.084   1.288 -1.2919  1.3399  1.3431
  748MPD2    H111110   1.592   2.854   1.558 -1.7770  0.2216  1.7583
  748MPD2    H211111   1.179   2.832   1.580 -0.3708  0.6859  1.0112
  748MPD2    H311112   1.392   2.765   1.642  2.2765  0.7582  0.9236
  748MPD2     N11113   1.606   3.036   1.351  0.1218 -0.3245 -0.0145
  748MPD2    H511114   1.581   3.111   1.287 -2.7088 -1.1863  0.0828
  748MPD2    N111115   1.119   2.997   1.373  0.1056 -0.3731 -0.0896
  748MPD2    H711116   1.044   2.957   1.428 -0.0547  0.5327  0.3578
  749TMC3    C111117   1.848   3.089   1.357  0.9175  0.4395 -0.0000
  749TMC3    C211118   1.954   3.082   1.445  0.1236 -0.1333 -0.4180
  749TMC3    C311119   2.014   3.201   1.475  0.2129  0.3559  0.9609
  749TMC3    C411120   1.828   3.202   1.283 -0.6806  0.1926  0.7461
  749TMC3    C511121   1.900   3.317   1.308 -0.1376  0.1773  0.0219
  749TMC3    C611122   1.989   3.317   1.411 -1.0397  0.4832  0.9753
  749TMC3     C11123   1.735   2.998   1.389 -0.0764  0.4357  0.6126
  749TMC3     O11124   1.769   2.891   1.436 -0.2196  0.1650 -0.1185
  749TMC3     H11125   1.982   2.997   1.506 -2.7784 -0.8487 -0.0901
  749TMC3    H111126   1.754   3.208   1.204 -0.2539 -0.2290  0.3158
  749TMC3    H211127   2.029   3.413   1.442  0.3994  0.2928 -0.2967
  749TMC3    C711128   1.944   3.409   1.204  0.8603  0.2799  0.0064
  749TMC3    C811129   2.136   3.196   1.554 -0.1425 -0.3556  0.6285
  749TMC3    O111130   1.994   3.518   1.232 -0.1106 -0.0225  0.5159
  749TMC3    O211131   2.162   3.298   1.613  0.1285 -0.3959 -0.1629
  750MPD2     C11132   2.033   4.388  11.434 -0.6932 -0.1659 -0.6419
  750MPD2    C111133   1.933   4.331  11.498  0.1710  0.6203 -0.5189
  750MPD2    C211134   1.856   4.232  11.440  0.3817  0.1680  0.4933
  750MPD2    C311135   1.857   4.213  11.300  0.4309  0.8482 -0.5390
  750MPD2    C411136   1.959   4.275  11.228 -0.7181  0.1287 -0.7259
  750MPD2    C511137   2.047   4.355  11.299 -0.0409  0.1180  0.0603
  750MPD2     H11138   1.779   4.183  11.498  3.6086 -1.7229  3.1954
  750MPD2    H111139   1.975   4.266  11.121  1.1035 -1.0402 -0.3487
  750MPD2    H211140   2.098   4.461  11.481 -1.5157 -0.1861  0.5290
  750MPD2    H311141   2.130   4.405  11.249  1.0999 -1.3131  0.5235
  750MPD2     N11142   1.771   4.127  11.232 -0.3841  0.0699 -0.1586
  750MPD2    H511143   1.780   4.120  11.131  0.2524  0.3475 -0.1222
  750MPD2    N111144   1.937   4.362  11.633  0.7487 -0.1416 -0.5045
  750MPD2    H711145   2.005   4.428  11.668 -0.6143  1.4654 -0.9093
  751TMC3    C111146   1.613   3.968  11.189 -0.0954 -0.4414  0.1021
  751TMC3    C211147   1.520   3.877  11.235  0.1450  0.3476  0.8458
  751TMC3    C311148   1.448   3.795  11.148  0.0912  0.1293 -0.1482
  751TMC3    C411149   1.647   3.970  11.054 -0.7295  0.4715  0.3757
  751TMC3    C511150   1.586   3.882  10.974  0.1637 -0.4878  0.6110
  751TMC3    C611151   1.481   3.812  11.017  0.8913  0.5994  0.3989
  751TMC3     C11152   1.668   4.055  11.286  0.4221 -0.7158 -0.0549
  751TMC3     O11153   1.608   4.070  11.392 -0.1923 -0.0891  0.1648
  751TMC3     H11154   1.492   3.871  11.339  2.0554 -2.3535  1.2100
  751TMC3    H111155   1.724   4.033  11.011 -1.6702 -0.9668 -3.4359
  751TMC3    H211156   1.426   3.752  10.945  2.1631 -2.1545  1.7417
  751TMC3    C711157   1.672   3.825  10.876 -0.1884  0.0670 -0.5451
  751TMC3    C811158   1.441   3.656  11.175  0.3872  0.5267  0.4271
  751TMC3    O111159   1.755   3.896  10.816  0.3774  0.0917 -0.5748
  751TMC3    O211160   1.503   3.589  11.092 -0.5245 -0.4655 -0.1199
  752TMC3    C111161   0.800   4.038  16.697 -0.0210 -0.6974  0.7781
  752TMC3    C211162   0.837   3.948  16.596  0.3164 -0.5932 -0.3032
  752TMC3    C311163   0.918   3.843  16.630  0.1645 -0.2653  0.2158
  752TMC3    C411164   0.839   4.013  16.828  0.1246 -0.1248 -0.3490
  752TMC3    C511165   0.910   3.900  16.853 -0.4564 -0.4522 -0.2665
  752TMC3    C611166   0.962   3.824  16.754 -0.0656 -0.1692  0.1903
  752TMC3     C11167   0.759   4.174  16.652 -0.0890  0.0627 -0.1376
  752TMC3     O11168   0.761   4.266  16.732 -0.0079 -0.2755 -0.4345
  752TMC3     H11169   0.803   3.952  16.493  0.1822 -1.1728 -0.2842
  752TMC3    H111170   0.805   4.080  16.907  0.9480  1.0805 -1.0022
  752TMC3    H211171   1.028   3.742  16.780  0.6300 -0.0797 -1.3009
  752TMC3    C711172   0.934   3.847  16.983 -0.3591 -0.4988  0.5408
  752TMC3    C811173   0.996   3.789  16.517  0.1723 -0.1601  0.0459
  752TMC3    O111174   1.027   3.769  17.000  0.1811 -0.2902 -0.0616
  752TMC3    O211175   0.963   3.823  16.404 -0.3242 -0.2927 -0.0658
  753TMC3    C111176   2.779   0.619  12.856  0.6617  0.8952 -0.2432
  753TMC3    C211177   2.822   0.623  12.985  0.8672  0.1717 -0.6189
  753TMC3    C311178   2.844   0.503  13.052 -0.0316  0.0616 -0.2915
  753TMC3    C411179   2.773   0.499  12.792  0.4227 -0.1340  0.1002
  753TMC3    C511180   2.799   0.383  12.854 -0.4219  0.1746 -0.3741
  753TMC3    C611181   2.828   0.380  12.989 -0.4146  0.2689 -0.0416
  753TMC3     C11182   2.740   0.734  12.775 -0.3366 -0.0779  0.4031
  753TMC3     O11183   2.693   0.702  12.669  0.0749  0.1928 -0.2195
  753TMC3     H11184   2.816   0.715  13.042 -0.5251  0.5290 -1.3544
  753TMC3    H111185   2.740   0.499  12.688  0.1379 -1.1364  0.1951
  753TMC3    H211186   2.862   0.286  13.032 -2.6714 -0.7729 -0.5217
  753TMC3    C711187   2.749   0.261  12.800  0.2152  0.1413 -0.1357
  753TMC3    C811188   2.918   0.491  13.175  0.5174 -0.6066 -0.4513
  753TMC3    O111189   2.744   0.252  12.677  0.9534 -0.1236 -0.7507
  753TMC3    O211190   2.941   0.375  13.218 -0.2588  0.8019  0.3961
  754MPD2     C11191   1.989   4.254  13.085 -0.5564  0.1382  0.4295
  754MPD2    C111192   1.978   4.120  13.130 -0.9313 -0.5463 -0.5963
  754MPD2    C211193   1.862   4.049  13.114 -0.0565  0.0496  0.2421
  754MPD2    C311194   1.752   4.113  13.072 -0.5007  0.5198 -0.5579
  754MPD2    C411195   1.759   4.252  13.044  0.3283  0.2524 -0.2588
  754MPD2    C511196   1.880   4.316  13.036  0.1238  0.7127  0.0954
  754MPD2     H11197   1.856   3.943  13.140  2.1065  0.0113  0.6294
  754MPD2    H111198   1.680   4.303  12.990 -0.5965 -0.4394  0.4354
  754MPD2    H211199   2.086   4.302  13.081 -0.0418 -0.8939  0.5177
  754MPD2    H311200   1.876   4.416  12.995  0.6374  0.9212  0.5456
  754MPD2     N11201   1.626   4.051  13.056  0.3906  0.4980  0.4112
  754MPD2    H511202   1.552   4.109  13.018  0.7864  0.2435 -0.7514
  754MPD2    N111203   2.097   4.061  13.183 -0.5143  0.1625  0.5786
  754MPD2    H711204   2.186   4.103  13.155 -0.7927  0.0459 -0.4713
  755MPD2     C11205   0.768   4.338  12.921  0.1920  0.1991  0.2799
  755MPD2    C111206   0.835   4.311  13.044  0.1606 -1.0859 -0.8626
  755MPD2    C211207   0.930   4.217  13.046  0.3503 -0.1531 -0.2358
  755MPD2    C311208   0.936   4.114  12.951 -0.2652 -0.1398 -0.0264
  755MPD2    C411209   0.865   4.128  12.834 -0.1343  0.5590 -0.1627
  755MPD2    C511210   0.787   4.241  12.826  1.0369  0.2264  0.1225
  755MPD2     H11211   0.977   4.211  13.144  2.3002  2.4763 -0.9857
  755MPD2    H111212   0.879   4.056  12.754 -1.6070  1.6319 -1.3825
  755MPD2    H211213   0.680   4.401  12.912 -1.5818 -2.3095  0.2175
  755MPD2    H311214   0.724   4.244  12.737 -0.4601 -1.5188  1.1297
  755MPD2     N11215   1.037   4.024  12.940  0.8091  0.3424 -0.4259
  755MPD2    H511216   1.051   3.971  12.854 -2.0991  1.3928 -1.5583
  755MPD2    N111217   0.799   4.370  13.173 -0.2921 -0.5597  0.4174
  755MPD2    H711218   0.859   4.346  13.251  0.4617 -1.0974 -0.3303
  756MPD2     C11219   1.231   0.446   9.802 -0.2763 -0.7314 -0.2135
  756MPD2    C111220   1.165   0.385   9.905 -0.1577 -0.2115  1.3622
  756MPD2    C211221   1.037   0.357   9.892  0.1977 -0.1799 -0.4061
  756MPD2    C311222   0.977   0.367   9.770  0.2903  0.7278 -0.1787
  756MPD2    C411223   1.047   0.419   9.662  0.0390 -0.1072  0.2843
  756MPD2    C511224   1.171   0.467   9.679 -0.2089 -0.3375  0.7029
  756MPD2     H11225   0.985   0.317   9.978  0.7840 -0.8115 -0.3506
  756MPD2    H111226   1.002   0.442   9.566 -0.4266 -0.3608  0.4403
  756MPD2    H211227   1.330   0.487   9.815 -0.3928 -0.5510  0.1012
  756MPD2    H311228   1.224   0.525   9.603  1.8994 -1.2047  1.4990
  756MPD2     N11229   0.841   0.317   9.756 -0.1161 -0.2844  0.0551
  756MPD2    H511230   0.808   0.248   9.822 -0.6892  0.2150  0.2889
  756MPD2    N111231   1.220   0.364  10.032 -0.0823 -0.3351  0.1792
  756MPD2    H711232   1.160   0.319  10.101 -0.3155 -0.4856 -0.1192
  757MPD2     C11233   0.518   4.257   9.998 -0.9299  0.4556  0.1665
  757MPD2    C111234   0.637   4.325   9.981  0.1865 -0.5044  0.3221
  757MPD2    C211235   0.642   4.452   9.929  0.4549  0.2837  0.1581
  757MPD2    C311236   0.529   4.517   9.907  0.4857  0.1961  0.3070
  757MPD2    C411237   0.409   4.456   9.920 -0.0326 -0.3509  0.1441
  757MPD2    C511238   0.406   4.323   9.953  0.1874  0.3878 -0.1158
  757MPD2     H11239   0.732   4.505   9.902  0.3569  0.1889 -0.3452
  757MPD2    H111240   0.317   4.507   9.893  0.0979  0.5854  1.4406
  757MPD2    H211241   0.504   4.150  10.011 -0.4021  0.1938 -1.4440
  757MPD2    H311242   0.316   4.262   9.953  1.4882 -1.5560 -0.0824
  757MPD2     N11243   0.544   4.647   9.853  1.0570 -0.0919 -0.0608
  757MPD2    H511244   0.638   4.682   9.838  0.3735  0.4800 -3.0311
  757MPD2    N111245   0.754   4.255  10.011  0.6891 -0.9929 -0.0516
  757MPD2    H711246   0.748   4.162  10.050  1.8585 -0.4475  1.3917
  758MPD2     C11247   1.605   3.297  15.944 -0.6543  0.2600  0.1838
  758MPD2    C111248   1.705   3.387  15.978  0.4135  0.6151 -0.5646
  758MPD2    C211249   1.673   3.522  15.982 -0.3227 -0.2580 -0.1959
  758MPD2    C311250   1.547   3.573  15.947 -0.3999 -0.3682 -0.2110
  758MPD2    C411251   1.444   3.485  15.918  0.2952 -0.4310 -0.3499
  758MPD2    C511252   1.479   3.350  15.919 -0.6626  0.1128 -0.1886
  758MPD2     H11253   1.753   3.591  16.007 -2.1051  2.5910 -2.4141
  758MPD2    H111254   1.349   3.522  15.881 -0.3203 -0.1885  1.4791
  758MPD2    H211255   1.612   3.189  15.937  1.2172  0.2397  2.2665
  758MPD2    H311256   1.401   3.278  15.899  0.8608 -2.0043  1.4782
  758MPD2     N11257   1.519   3.714  15.941  0.3928 -0.3044  0.4006
  758MPD2    H511258   1.424   3.748  15.951  1.0003  1.5822 -0.1357
  758MPD2    N111259   1.835   3.353  16.004  0.0142  0.1355 -0.5721
  758MPD2    H711260   1.909   3.411  16.041 -0.9821  1.5464 -0.8029
  759MPD2     C11261   0.348   2.551  10.288  0.2900  0.2344  0.3299
  759MPD2    C111262   0.418   2.455  10.357 -0.6296  0.1098 -0.5348
  759MPD2    C211263   0.515   2.382  10.286 -0.3207 -0.8136  0.2029
  759MPD2    C311264   0.550   2.414  10.156 -0.0625 -0.0395  0.1893
  759MPD2    C411265   0.465   2.501  10.088  0.0416  0.0291  0.7205
  759MPD2    C511266   0.363   2.564  10.152  0.2635  0.3207  0.7046
  759MPD2     H11267   0.570   2.305  10.338 -2.1449 -2.0242  0.3264
  759MPD2    H111268   0.477   2.527   9.984  1.9487  0.0083  0.9431
  759MPD2    H211269   0.266   2.598  10.341 -1.4350 -1.9387 -0.4395
  759MPD2    H311270   0.303   2.630  10.091  1.0671 -0.9738 -1.4999
  759MPD2     N11271   0.659   2.354  10.094 -0.1936 -0.4756  0.1345
  759MPD2    H511272   0.707   2.283  10.150  0.3856 -3.3886 -3.9846
  759MPD2    N111273   0.404   2.425  10.492  0.4575  0.3583 -0.2929
  759MPD2    H711274   0.438   2.331  10.508  0.2055  0.1719 -0.8346
  760MPD2     C11275   0.069   4.088  12.094 -0.5112 -0.7591  0.0507
  760MPD2    C111276   0.157   4.002  12.032 -0.2087  0.1421  1.1292
  760MPD2    C211277   0.171   3.874  12.077 -0.4391 -0.5084  0.3751
  760MPD2    C311278   0.100   3.829  12.185  0.2209 -1.2189  0.2857
  760MPD2    C411279   0.021   3.921  12.253  0.0281 -0.0267 -0.1895
  760MPD2    C511280   0.007   4.048  12.209  0.1018  0.2094 -0.1148
  760MPD2     H11281   0.243   3.809  12.028 -1.4558 -0.7249 -0.8566
  760MPD2    H111282   4.691   3.891  12.334  1.4412 -0.8217  0.6560
  760MPD2    H211283   0.053   4.193  12.076 -1.7110 -1.3710 -2.3507
  760MPD2    H311284   4.673   4.120  12.251 -1.4667 -0.6420 -1.2183
  760MPD2     N11285   0.103   3.697  12.239 -0.0320  0.0640 -0.0687
  760MPD2    H511286   0.061   3.684  12.330  3.6344  0.5949  1.6721
  760MPD2    N111287   0.230   4.035  11.918  0.3892 -0.5377 -0.6518
  760MPD2    H711288   0.305   3.974  11.888  1.5581  1.6988 -2.2535
  761MPD2     C11289   1.207   3.237  11.297 -0.4289 -0.6668  0.5900
  761MPD2    C111290   1.250   3.280  11.174  0.0745  0.4484  0.3473
  761MPD2    C211291   1.305   3.406  11.162  0.3000 -0.3809 -0.0736
  761MPD2    C311292   1.296   3.493  11.274 -0.9203  0.1341 -0.7190
  761MPD2    C411293   1.240   3.454  11.393 -0.3059 -0.5211  0.4802
  761MPD2    C511294   1.196   3.326  11.400  0.2991 -0.4785 -0.0800
  761MPD2     H11295   1.352   3.437  11.070  1.4825 -2.6928 -0.2624
  761MPD2    H111296   1.224   3.521  11.477 -1.9368  0.3066 -0.4967
  761MPD2    H211297   1.159   3.141  11.311 -1.0899 -0.5878 -1.1607
  761MPD2    H311298   1.157   3.291  11.495 -0.1756 -1.2009 -0.5375
  761MPD2     N11299   1.349   3.622  11.269 -0.2737  0.3426  0.1300
  761MPD2    H511300   1.308   3.697  11.323  3.8902  3.0603 -0.5384
  761MPD2    N111301   1.263   3.184  11.074  0.1609 -0.6559 -0.5032
  761MPD2    H711302   1.249   3.087  11.101 -1.7950 -0.3881 -0.5320
  762MPD2     C11303   1.454   3.205  10.263  0.0430 -0.1578  0.1994
  762MPD2    C111304   1.532   3.132  10.350  0.5961 -0.3785 -0.1540
  762MPD2    C211305   1.670   3.128  10.328  0.1127 -0.5474 -0.4344
  762MPD2    C311306   1.725   3.194  10.222 -0.9251  0.1219 -0.2681
  762MPD2    C411307   1.648   3.257  10.129  0.1680 -0.0884  0.4141
  762MPD2    C511308   1.513   3.260  10.149  0.0299 -0.2830  0.2660
  762MPD2     H11309   1.738   3.077  10.396 -2.4177  0.2812  2.7260
  762MPD2    H111310   1.685   3.306  10.040 -1.0436 -2.3672 -1.3634
  762MPD2    H211311   1.348   3.214  10.279 -0.5523 -0.0125 -3.8958
  762MPD2    H311312   1.443   3.299  10.076  2.1316 -1.3592 -2.3390
  762MPD2     N11313   1.864   3.193  10.214 -0.0045  0.6915 -0.4508
  762MPD2    H511314   1.916   3.139  10.282 -1.3959 -0.1803 -0.0864
  762MPD2    N111315   1.469   3.089  10.475  0.2306 -0.1440  1.0976
  762MPD2    H711316   1.372   3.115  10.487 -0.5711 -2.3490 -0.4964
  763MPD2     C11317   3.086   3.758  15.832 -0.1748 -1.1011  0.5176
  763MPD2    C111318   3.223   3.775  15.807  0.0337  0.4978  0.0824
  763MPD2    C211319   3.311   3.828  15.905  0.3232 -0.6197  0.3856
  763MPD2    C311320   3.260   3.860  16.029  0.4814 -0.7693 -0.3396
  763MPD2    C411321   3.128   3.840  16.051 -0.4648  0.1083 -0.5288
  763MPD2    C511322   3.048   3.782  15.959 -0.4248  0.2081  0.3942
  763MPD2     H11323   3.413   3.853  15.878  0.7010  0.3866  2.7024
  763MPD2    H111324   3.087   3.852  16.151 -1.1466  0.4522 -0.8441
  763MPD2    H211325   3.012   3.722  15.761  0.1712  3.5964 -2.2524
  763MPD2    H311326   2.943   3.774  15.987 -0.4564  2.0791  0.8401
  763MPD2     N11327   3.326   3.930  16.133 -0.4656  0.3838 -0.2913
  763MPD2    H511328   3.272   3.960  16.213 -1.2655 -0.5790 -0.4717
  763MPD2    N111329   3.282   3.742  15.683  0.3880 -0.7705 -0.0872
  763MPD2    H711330   3.382   3.722  15.686  0.1350 -2.3904 -2.2479
  764MPD2     C11331   1.690   0.552  17.098 -0.0828  0.0064  0.7451
  764MPD2    C111332   1.559   0.511  17.095  0.0333  0.1825 -0.6594
  764MPD2    C211333   1.513   0.434  17.198  0.4910  0.0888 -0.7632
  764MPD2    C311334   1.595   0.397  17.302  0.1580  0.9354 -0.2359
  764MPD2    C411335   1.722   0.449  17.310 -0.4344  0.4201 -0.3474
  764MPD2    C511336   1.771   0.519  17.204 -0.0844 -0.8806  0.2191
  764MPD2     H11337   1.410   0.400  17.199  0.3245  0.5033 -4.3562
  764MPD2    H111338   1.791   0.422  17.389  0.9819 -0.3245 -1.8411
  764MPD2    H211339   1.733   0.615  17.021  0.4457  0.5718  1.5080
  764MPD2    H311340   1.865   0.572  17.212 -1.8561  2.3024 -0.1083
  764MPD2     N11341   1.533   0.323  17.406 -0.0166 -0.5860  0.0090
  764MPD2    H511342   1.437   0.294  17.390 -1.0104  3.2216 -0.9795
  764MPD2    N111343   1.475   0.553  16.989 -0.3016 -0.1568 -0.0867
  764MPD2    H711344   1.386   0.506  16.981 -0.5912  0.3062  0.5265
  765MPD2     C11345   1.591   3.165  15.348 -0.3715 -0.3967 -0.1917
  765MPD2    C111346   1.594   3.223  15.470 -0.6893  0.1684  0.5752
  765MPD2    C211347   1.695   3.189  15.558 -0.1602 -0.6598 -0.4425
  765MPD2    C311348   1.795   3.105  15.517 -0.2220  0.5055  0.5103
  765MPD2    C411349   1.794   3.047  15.388 -0.1369 -0.1612 -0.3871
  765MPD2    C511350   1.691   3.084  15.307  0.5513 -0.6311 -0.5663
  765MPD2     H11351   1.695   3.230  15.658 -1.1270 -2.1276  0.1488
  765MPD2    H111352   1.865   2.970  15.361  0.5561 -0.0476  1.1007
  765MPD2    H211353   1.504   3.181  15.286  0.5660 -1.8270 -1.8879
  765MPD2    H311354   1.699   3.048  15.204 -1.0232 -0.1715 -0.8497
  765MPD2     N11355   1.896   3.082  15.613  0.0728  0.0948  0.5213
  765MPD2    H511356   1.877   3.109  15.709 -0.5540 -2.1946  1.0477
  765MPD2    N111357   1.490   3.316  15.492 -0.4117  0.1098  0.6194
  765MPD2    H711358   1.412   3.320  15.428  0.5341 -1.1150 -0.6120
  766MPD2     C11359   0.846   3.497  15.149  0.2343 -0.2156  0.0330
  766MPD2    C111360   0.973   3.465  15.191 -1.2836  0.1053  0.2035
  766MPD2    C211361   1.055   3.388  15.102 -0.8842  0.1688 -0.2175
  766MPD2    C311362   1.008   3.347  14.976 -0.5011 -0.0875 -0.3794
  766MPD2    C411363   0.875   3.384  14.944  0.0016  0.0719  0.3864
  766MPD2    C511364   0.797   3.458  15.029  0.6531  0.0303 -0.0436
  766MPD2     H11365   1.149   3.341  15.129  0.1362  0.8868 -2.4600
  766MPD2    H111366   0.842   3.360  14.844 -0.6426 -0.1137  0.6417
  766MPD2    H211367   0.780   3.567  15.199  0.0936 -0.2514 -0.1024
  766MPD2    H311368   0.702   3.500  14.999  0.5020 -1.0357 -1.0430
  766MPD2     N11369   1.079   3.289  14.873 -0.6238 -0.1910 -0.2114
  766MPD2    H511370   1.027   3.260  14.791 -0.1512  0.0420 -0.5901
  766MPD2    N111371   1.020   3.496  15.318  0.4194  0.3044  0.3098
  766MPD2    H711372   0.959   3.558  15.371  0.7593 -0.7021  1.8691
  767MPD2     C11373   0.760   3.684  14.703 -0.6120 -0.2593  0.2930
  767MPD2    C111374   0.886   3.642  14.690  0.1030 -0.2367 -0.0876
  767MPD2    C211375   0.914   3.541  14.596  0.2595  0.6868  0.2651
  767MPD2    C311376   0.815   3.480  14.515 -0.0476  0.4668  0.3270
  767MPD2    C411377   0.686   3.531  14.532  0.6574  0.4633  0.1050
  767MPD2    C511378   0.662   3.626  14.627 -0.1852  0.3722  0.1665
  767MPD2     H11379   1.016   3.505  14.592  0.7197  1.8059  1.8214
  767MPD2    H111380   0.598   3.492  14.482  0.9463  0.1692 -0.1719
  767MPD2    H211381   0.716   3.748  14.779 -0.7260  2.0436 -1.7196
  767MPD2    H311382   0.563   3.666  14.644 -0.1406  1.6373 -2.5553
  767MPD2     N11383   0.856   3.389  14.413  0.7442  0.0511  0.4323
  767MPD2    H511384   0.955   3.369  14.408  0.6596 -0.1473 -0.5310
  767MPD2    N111385   0.976   3.693  14.786  0.0255 -0.0840 -0.8028
  767MPD2    H711386   0.944   3.751  14.863  2.2978  2.2296 -1.5902
  768MPD2     C11387   1.688   2.012  10.447  0.2748  0.0091  0.5419
  768MPD2    C111388   1.624   1.944  10.547  0.2097 -0.5077 -0.1272
  768MPD2    C211389   1.665   1.960  10.680  0.4188 -0.1469 -0.2417
  768MPD2    C311390   1.785   2.014  10.722  0.2708 -0.3692  0.4169
  768MPD2    C411391   1.850   2.070  10.614  0.0574 -0.6746 -0.3252
  768MPD2    C511392   1.802   2.085  10.488 -0.5186  0.1747 -0.5245
  768MPD2     H11393   1.597   1.920  10.755 -0.8511  1.2323 -0.6611
  768MPD2    H111394   1.939   2.128  10.637 -2.0997  2.0942  1.0232
  768MPD2    H211395   1.653   2.018  10.345 -0.5345  1.3868  0.8999
  768MPD2    H311396   1.849   2.148  10.413 -0.5544 -0.8180 -1.3845
  768MPD2     N11397   1.827   2.031  10.853  0.3353  0.3221  0.0127
  768MPD2    H511398   1.910   2.089  10.862  0.0447  0.7901 -0.3248
  768MPD2    N111399   1.507   1.869  10.525  0.1768 -0.2045 -0.3392
  768MPD2    H711400   1.478   1.817  10.607  0.3569  2.8165  1.6256
  769MPD2     C11401   2.949   4.653  14.729  0.1816 -0.0089 -0.2958
  769MPD2    C111402   2.835   4.670  14.802 -0.3425  0.0378 -0.6148
  769MPD2    C211403   2.838   0.003  14.920 -0.6740 -0.2798  0.2337
  769MPD2    C311404   2.950   0.057  14.972 -0.1095  0.1914 -0.2208
  769MPD2    C411405   3.067   0.049  14.896 -0.2545  0.1591  0.3672
  769MPD2    C511406   3.067   4.708  14.780  0.6651 -0.3538 -0.4673
  769MPD2     H11407   2.741   0.022  14.964 -0.6712  1.2770 -0.4327
  769MPD2    H111408   3.165   0.088  14.921  0.1945 -0.1205 -0.9810
  769MPD2    H211409   2.955   4.599  14.635  0.5252 -0.1899 -0.1695
  769MPD2    H311410   3.156   4.701  14.718  1.7414  2.4210  0.7896
  769MPD2     N11411   2.954   0.137  15.087 -0.0028 -0.0293 -0.3172
  769MPD2    H511412   2.876   0.151  15.150 -1.2535  0.0351 -1.8587
  769MPD2    N111413   2.719   4.620  14.740 -0.0306 -0.3471  0.3955
  769MPD2    H711414   2.729   4.556  14.662 -1.5116 -2.3498  1.8558
  770MPD2     C11415   2.225   3.757  14.622 -0.1784  0.1881 -0.1516
  770MPD2    C111416   2.314   3.817  14.714  0.4534  0.4623  0.3062
  770MPD2    C211417   2.363   3.947  14.686 -0.8138 -0.3129 -0.3327
  770MPD2    C311418   2.313   4.015  14.579  0.5052 -0.8150  0.5392
  770MPD2    C411419   2.224   3.958  14.492  0.5553  0.0235 -0.1425
  770MPD2    C511420   2.183   3.828  14.511 -0.8506  0.3084  0.1708
  770MPD2     H11421   2.420   4.000  14.761 -0.7494 -1.2923  0.3051
  770MPD2    H111422   2.184   4.014  14.408 -3.1267  0.6313  2.0251
  770MPD2    H211423   2.189   3.656  14.635  0.1001  0.4840  2.8954
  770MPD2    H311424   2.115   3.781  14.440  0.5293 -2.8357  0.8986
  770MPD2     N11425   2.328   4.155  14.564 -0.1178 -0.3002  0.0160
  770MPD2    H511426   2.298   4.187  14.473 -1.3576  0.1849  0.5878
  770MPD2    N111427   2.326   3.755  14.836 -0.3618  0.2100  0.2142
  770MPD2    H711428   2.248   3.694  14.858  0.4902 -1.8101 -2.4100
  771MPD2     C11429   3.910   2.581  13.529  0.2754  0.0498  0.4533
  771MPD2    C111430   3.803   2.655  13.491  0.5616 -0.0402 -0.0013
  771MPD2    C211431   3.682   2.587  13.451 -0.4236 -0.0161  0.0086
  771MPD2    C311432   3.677   2.449  13.455  0.1557  0.0698 -0.0017
  771MPD2    C411433   3.779   2.379  13.499 -0.4142 -0.0473  0.5289
  771MPD2    C511434   3.893   2.446  13.540 -0.0847 -0.2469 -0.0601
  771MPD2     H11435   3.597   2.646  13.421 -0.6835 -0.5321 -0.2675
  771MPD2    H111436   3.776   2.271  13.507  1.1961 -0.1382  0.0048
  771MPD2    H211437   4.002   2.637  13.543 -1.0922  2.5480 -0.6358
  771MPD2    H311438   3.981   2.388  13.566 -1.0591 -0.9065  1.7894
  771MPD2     N11439   3.556   2.393  13.410  0.4476  0.3155 -0.4226
  771MPD2    H511440   3.483   2.451  13.368 -0.7994  0.4114  1.9048
  771MPD2    N111441   3.807   2.796  13.471 -0.7420 -0.2176 -0.7937
  771MPD2    H711442   3.717   2.841  13.460 -0.3604  0.9837  0.9558
  772MPD2     C11443   3.420   3.393  13.702 -0.3031  0.2375 -0.4249
  772MPD2    C111444   3.417   3.266  13.638  0.4073 -0.4689 -0.4871
  772MPD2    C211445   3.295   3.207  13.613  0.4866 -0.5112  0.2417
  772MPD2    C311446   3.184   3.261  13.662  0.3481  0.0560  0.3606
  772MPD2    C411447   3.186   3.376  13.726  0.3135  0.5768 -0.7598
  772MPD2    C511448   3.300   3.443  13.740 -0.1814 -0.2416 -0.0268
  772MPD2     H11449   3.294   3.107  13.571  2.5714 -0.9246  1.1596
  772MPD2    H111450   3.103   3.421  13.779 -0.9196  2.4337 -4.3601
  772MPD2    H211451   3.505   3.453  13.733  0.5860 -1.3816  0.2954
  772MPD2    H311452   3.303   3.539  13.789  1.9774 -0.1915 -0.2378
  772MPD2     N11453   3.059   3.199  13.660 -0.0088  0.4004 -0.5586
  772MPD2    H511454   2.977   3.241  13.703 -1.4987 -1.9710 -1.0774
  772MPD2    N111455   3.539   3.210  13.592 -0.6357 -0.1319 -0.0991
  772MPD2    H711456   3.543   3.123  13.541  0.5030 -0.2150  0.1228
  773MPD2     C11457   2.391   4.188  17.584  0.6807 -0.6098 -0.7729
  773MPD2    C111458   2.339   4.070  17.540  0.7052  0.4173  0.2353
  773MPD2    C211459   2.343   3.959  17.626 -0.0870  0.2447 -0.1261
  773MPD2    C311460   2.398   3.969   0.011 -0.2082  0.2289  0.5932
  773MPD2    C411461   2.445   4.089   0.053 -0.2284  0.0097 -0.4349
  773MPD2    C511462   2.444   4.192  17.706  0.1991  0.0646  0.1462
  773MPD2     H11463   2.294   3.864  17.607  1.5224 -1.2046  3.0187
  773MPD2    H111464   2.496   4.091   0.149 -0.5147 -0.5839 -0.2703
  773MPD2    H211465   2.390   4.284  17.533  0.1093 -0.2926 -0.1647
  773MPD2    H311466   2.489   4.286  17.737 -0.0274 -0.2317  1.3700
  773MPD2     N11467   2.402   3.843   0.083  0.8553  0.0033 -0.3053
  773MPD2    H511468   2.381   3.758   0.032  0.5409 -1.0860  1.6601
  773MPD2    N111469   2.274   4.060  17.414 -0.2795 -0.0294 -0.4685
  773MPD2    H711470   2.218   3.977  17.396  1.1312 -0.9252 -0.7083
  774MPD2     C11471   1.418   3.317  13.510  0.1825 -0.6856  0.5650
  774MPD2    C111472   1.545   3.313  13.557 -0.0083 -0.0833  0.2242
  774MPD2    C211473   1.634   3.423  13.539  0.8458  0.1236 -0.4564
  774MPD2    C311474   1.583   3.543  13.493  0.4720  0.4540  0.0185
  774MPD2    C411475   1.450   3.548  13.450  0.1355  0.2683 -0.3104
  774MPD2    C511476   1.371   3.434  13.454  0.6775 -0.1803 -0.2874
  774MPD2     H11477   1.733   3.415  13.584  1.4214 -1.7080 -2.0775
  774MPD2    H111478   1.415   3.637  13.400  0.1113  0.5673  0.2406
  774MPD2    H211479   1.352   3.231  13.511  0.6757 -1.0785 -0.9082
  774MPD2    H311480   1.273   3.434  13.410  0.0656 -1.8199  1.0950
  774MPD2     N11481   1.668   3.656  13.466 -0.3203  0.8914 -0.0462
  774MPD2    H511482   1.626   3.744  13.436 -1.1657  0.6728  0.5044
  774MPD2    N111483   1.589   3.193  13.620 -0.1662 -0.5458  0.2528
  774MPD2    H711484   1.530   3.111  13.607 -0.2503 -0.8076  2.1981
  775MPD2     C11485   3.124   4.638  15.485 -0.0334  0.1280 -0.4583
  775MPD2    C111486   3.196   4.727  15.562 -0.2097  0.4830 -0.2502
  775MPD2    C211487   3.280   0.088  15.504  0.1735 -0.9887  0.5163
  775MPD2    C311488   3.295   0.079  15.368  0.6055 -0.0772  1.0697
  775MPD2    C411489   3.241   4.705  15.291  0.8201 -0.2165  0.6340
  775MPD2    C511490   3.155   4.619  15.352 -0.3237  0.3315 -0.0803
  775MPD2     H11491   3.332   0.164  15.561  1.4209 -1.2826 -0.2330
  775MPD2    H111492   3.257   4.682  15.186 -1.5129 -0.9659  0.4285
  775MPD2    H211493   3.064   4.568  15.541  0.7873  1.5318  2.1626
  775MPD2    H311494   3.101   4.541  15.299  2.8866 -0.1992 -2.5446
  775MPD2     N11495   3.376   0.169  15.301 -0.1512  0.3209 -0.0935
  775MPD2    H511496   3.381   0.171  15.200  0.4164 -2.0419 -0.1148
  775MPD2    N111497   3.175   4.720  15.702  0.1495 -0.3725  0.7164
  775MPD2    H711498   3.140   4.633  15.739 -0.0663 -0.9867 -0.9439
  776MPD2     C11499   2.233   0.115  11.863 -0.5055 -0.3306 -0.4362
  776MPD2    C111500   2.095   0.091  11.842  0.0189 -0.6462 -0.2547
  776MPD2    C211501   2.028   0.179  11.762 -0.1455 -0.1616 -0.6251
  776MPD2    C311502   2.105   0.270  11.689  0.3321  0.9701 -0.6339
  776MPD2    C411503   2.240   0.282  11.705  0.6604  0.3849 -0.5140
  776MPD2    C511504   2.300   0.209  11.798 -0.1630  0.3256 -0.3601
  776MPD2     H11505   1.921   0.173  11.751 -0.4123  1.5825  1.0675
  776MPD2    H111506   2.296   0.352  11.645 -0.6806  0.8158 -1.2558
  776MPD2    H211507   2.286   0.059  11.938  0.3365  1.6822  0.4488
  776MPD2    H311508   2.407   0.216  11.813 -0.5905  3.3042  1.3359
  776MPD2     N11509   2.042   0.356  11.592 -0.0898  0.0712 -0.1161
  776MPD2    H511510   2.100   0.398  11.520  0.2230  1.4149  0.9056
  776MPD2    N111511   2.013   4.724  11.891  0.9418  0.2697  0.2147
  776MPD2    H711512   1.917   4.713  11.859  0.1020  0.9224  2.5355
  777MPD2     C11513   2.370   2.367   0.887  0.0329  0.2119 -0.6908
  777MPD2    C111514   2.454   2.289   0.969 -0.0322  0.0524  0.5880
  777MPD2    C211515   2.470   2.155   0.940  0.6558  0.6589  0.0140
  777MPD2    C311516   2.418   2.105   0.816 -0.2700  0.1268 -0.4212
  777MPD2    C411517   2.329   2.182   0.744  0.5957  0.4216 -0.3304
  777MPD2    C511518   2.305   2.309   0.780 -0.0119 -0.6830 -0.2448
  777MPD2     H11519   2.518   2.087   1.009  1.4088  1.1352 -0.0421
  777MPD2    H111520   2.280   2.134   0.660  2.2552 -1.0341 -0.4581
  777MPD2    H211521   2.362   2.474   0.899 -0.9745  0.0304  0.2889
  777MPD2    H311522   2.245   2.371   0.714  0.1560 -1.7983 -1.4453
  777MPD2     N11523   2.439   1.965   0.790  0.3580 -0.2989 -0.0729
  777MPD2    H511524   2.476   1.910   0.866  0.7424  1.9410  1.3554
  777MPD2    N111525   2.524   2.355   1.079  0.2473 -0.3834  0.0098
  777MPD2    H711526   2.502   2.452   1.101  2.0985 -0.1303  0.7044
  778MPD2     C11527   3.125   2.391  15.198 -0.4172  0.0086 -0.6517
  778MPD2    C111528   3.053   2.385  15.081  0.2460  0.2842 -0.3882
  778MPD2    C211529   3.100   2.435  14.964  0.1197  0.2446 -0.5924
  778MPD2    C311530   3.225   2.478  14.964  0.0148 -0.0212 -0.5977
  778MPD2    C411531   3.297   2.483  15.082 -0.5555  0.1279 -0.1179
  778MPD2    C511532   3.248   2.445  15.202  0.3632 -0.3732 -0.2883
  778MPD2     H11533   3.047   2.432  14.869  0.7658 -2.9561 -0.8554
  778MPD2    H111534   3.395   2.524  15.104  0.3049 -2.0829  0.1574
  778MPD2    H211535   3.092   2.368  15.298 -2.4823  0.2833 -1.2566
  778MPD2    H311536   3.304   2.466  15.292 -0.7283 -0.5467  0.4449
  778MPD2     N11537   3.280   2.516  14.846  0.2664  0.2081 -0.2719
  778MPD2    H511538   3.229   2.508  14.758  0.7279 -0.7061 -0.4512
  778MPD2    N111539   2.922   2.335  15.087 -0.0326 -0.2734  0.4574
  778MPD2    H711540   2.861   2.343  15.006  0.4929  1.4591  0.2366
  779MPD2     C11541   3.481   1.643  13.414 -0.5734  0.0797  0.2750
  779MPD2    C111542   3.451   1.639  13.550 -0.3347 -0.3336 -0.0882
  779MPD2    C211543   3.495   1.740  13.635  0.6524  0.9580 -0.2431
  779MPD2    C311544   3.550   1.853  13.581 -0.0142 -0.5508 -0.2503
  779MPD2    C411545   3.561   1.860  13.447 -0.0740  0.0696  0.4582
  779MPD2    C511546   3.527   1.762  13.361  0.1535 -0.7107  0.7100
  779MPD2     H11547   3.469   1.742  13.741  0.0842  0.0183 -0.3608
  779MPD2    H111548   3.581   1.954  13.396 -0.1761 -1.0875 -1.7385
  779MPD2    H211549   3.443   1.559  13.356  0.3683 -0.6805  0.7502
  779MPD2    H311550   3.549   1.779  13.256 -0.8205  1.6489  0.8904
  779MPD2     N11551   3.569   1.970  13.655  0.2387  0.1639  0.5535
  779MPD2    H511552   3.588   2.052  13.598  1.9369 -0.2956  0.4667
  779MPD2    N111553   3.396   1.521  13.613  0.5962 -0.2239  0.3374
  779MPD2    H711554   3.389   1.506  13.713 -1.1697  0.6190  0.3527
  780MPD2     C11555   2.921   1.174   1.030  0.2276 -0.0142 -0.4497
  780MPD2    C111556   2.887   1.114   0.910  0.5120  0.0526  0.5202
  780MPD2    C211557   2.937   1.179   0.791  0.2770  0.4565 -0.4441
  780MPD2    C311558   3.000   1.300   0.792  0.0206  0.5743  0.6929
  780MPD2    C411559   3.030   1.356   0.913 -0.3147 -0.0309 -0.8848
  780MPD2    C511560   2.987   1.296   1.031 -0.0249 -0.2880  0.0416
  780MPD2     H11561   2.912   1.145   0.691  0.8902  0.3549 -0.5633
  780MPD2    H111562   3.077   1.451   0.934 -2.1307  0.5902  0.3962
  780MPD2    H211563   2.891   1.128   1.123 -0.0428  2.5133  0.6879
  780MPD2    H311564   3.011   1.342   1.126 -0.4052 -2.0291  0.9802
  780MPD2     N11565   3.024   1.356   0.666  0.6008 -0.3490 -0.6255
  780MPD2    H511566   2.984   1.301   0.592  3.3434 -1.5702 -1.1902
  780MPD2    N111567   2.793   1.000   0.912  0.3723  0.2137 -0.4162
  780MPD2    H711568   2.761   0.961   0.999 -1.1185 -1.1038 -1.5493
  781MPD2     C11569   4.479   2.488  12.116  0.1789 -0.4760  0.6841
  781MPD2    C111570   4.568   2.488  12.222  0.4931 -0.1741  0.1062
  781MPD2    C211571   4.709   2.490  12.196 -0.1431 -0.3028  0.4469
  781MPD2    C311572   0.010   2.519  12.059 -0.0944 -0.3777 -0.2894
  781MPD2    C411573   4.655   2.530  11.960  0.3229 -0.3661  0.2162
  781MPD2    C511574   4.518   2.515  11.989 -0.2622 -0.3082 -0.7403
  781MPD2     H11575   0.039   2.467  12.279  0.4066 -1.9015 -0.4168
  781MPD2    H111576   4.684   2.553  11.858 -0.7205 -1.7509 -0.4018
  781MPD2    H211577   4.373   2.474  12.130 -0.1580  0.9756 -0.3970
  781MPD2    H311578   4.442   2.526  11.913  0.6796  0.7885 -1.5143
  781MPD2     N11579   0.147   2.529  12.020  0.8037 -0.6811 -0.2370
  781MPD2    H511580   0.168   2.556  11.924  1.4530 -0.0345  0.0864
  781MPD2    N111581   4.528   2.492  12.358  0.7293  0.2461  0.3810
  781MPD2    H711582   4.603   2.494  12.427 -0.7852  0.8090  1.9988
  782MPD2     C11583   1.893   4.095  10.376  0.2227 -0.2744 -0.3513
  782MPD2    C111584   2.029   4.065  10.388 -0.9061  0.5150 -0.1240
  782MPD2    C211585   2.115   4.132  10.475  0.0261  0.3624  0.5877
  782MPD2    C311586   2.066   4.238  10.549  0.0587  0.0241 -0.5632
  782MPD2    C411587   1.935   4.275  10.531 -1.1191  0.3482  0.3087
  782MPD2    C511588   1.852   4.215  10.436  0.6218 -0.4407 -0.0097
  782MPD2     H11589   2.221   4.115  10.487  0.1491  0.3504 -0.5601
  782MPD2    H111590   1.899   4.368  10.574  2.6520  1.2657  1.4901
  782MPD2    H211591   1.823   4.032  10.323 -0.9630  1.0712 -0.3834
  782MPD2    H311592   1.749   4.246  10.425  0.5081 -0.6454  0.4971
  782MPD2     N11593   2.163   4.306  10.630  0.0077 -0.0114  0.8314
  782MPD2    H511594   2.262   4.286  10.619 -0.1179  1.4183 -2.9324
  782MPD2    N111595   2.077   3.963  10.298 -0.4184 -0.6253 -0.1049
  782MPD2    H711596   2.013   3.911  10.239 -0.3652 -2.2945  1.2918
  783MPD2     C11597   1.651   3.462  10.787 -0.0326  0.1529 -0.5987
  783MPD2    C111598   1.699   3.594  10.786 -0.9828  0.2275  0.8425
  783MPD2    C211599   1.814   3.624  10.719 -0.2901  0.4538 -0.3992
  783MPD2    C311600   1.872   3.534  10.626 -0.4492 -0.0318 -0.0013
  783MPD2    C411601   1.823   3.408  10.622  0.3287 -0.3455  0.7040
  783MPD2    C511602   1.720   3.370  10.706 -0.3355  0.0280 -0.0078
  783MPD2     H11603   1.853   3.725  10.728  0.0498  0.2120  0.7864
  783MPD2    H111604   1.851   3.331  10.551 -0.3864  0.3222 -0.2913
  783MPD2    H211605   1.556   3.434  10.832  0.4680  0.2584  0.5217
  783MPD2    H311606   1.678   3.271  10.698  0.0907  0.0751 -2.9763
  783MPD2     N11607   1.975   3.576  10.541  0.5923 -0.0523 -0.1342
  783MPD2    H511608   2.000   3.674  10.543  0.8835 -0.1809  2.5571
  783MPD2    N111609   1.654   3.691  10.876 -0.1784 -0.1861 -0.1545
  783MPD2    H711610   1.575   3.665  10.934  0.9278 -1.4847  0.7791
  784MPD2     C11611   0.435   4.171   0.483  0.2089 -0.2596  0.6735
  784MPD2    C111612   0.436   4.275   0.579 -0.1674 -0.3041  0.1748
  784MPD2    C211613   0.354   4.381   0.564 -0.2161 -0.0437  0.0916
  784MPD2    C311614   0.271   4.386   0.455 -0.3415 -0.8482 -0.2393
  784MPD2    C411615   0.262   4.282   0.363  0.0866  0.2510  0.5639
  784MPD2    C511616   0.342   4.174   0.385  0.3154 -0.5224  0.2529
  784MPD2     H11617   0.357   4.461   0.638  2.8260  0.3436 -0.4562
  784MPD2    H111618   0.188   4.286   0.283 -1.0135 -0.1864  1.5527
  784MPD2    H211619   0.488   4.078   0.498 -2.5775 -1.9390  0.0221
  784MPD2    H311620   0.325   4.087   0.322 -0.9131 -1.2285  1.5330
  784MPD2     N11621   0.190   4.506   0.448 -0.3861  0.1770 -0.1653
  784MPD2    H511622   0.206   4.577   0.519 -0.3598 -0.8802  0.8901
  784MPD2    N111623   0.512   4.261   0.694 -0.1128  0.5896 -0.8498
  784MPD2    H711624   0.504   4.331   0.767 -1.0002  0.8788 -1.2191
  785MPD2     C11625   0.279   2.852  11.013  0.5422  0.1203 -0.4584
  785MPD2    C111626   0.175   2.920  11.068  0.0242  0.1461  0.3219
  785MPD2    C211627   0.046   2.866  11.045  0.6543  0.0041  0.0704
  785MPD2    C311628   0.023   2.755  10.967  0.3496  0.0660  0.2037
  785MPD2    C411629   0.127   2.686  10.914 -0.0127 -0.4818  0.4351
  785MPD2    C511630   0.252   2.732  10.946  0.1915  0.5950 -0.3516
  785MPD2     H11631   4.690   2.909  11.085  0.1264  0.8243 -2.0260
  785MPD2    H111632   0.119   2.600  10.848 -0.8803 -0.8094  0.9668
  785MPD2    H211633   0.384   2.875  11.025  1.2959 -3.5784 -0.1390
  785MPD2    H311634   0.327   2.671  10.898 -0.7088  0.0346 -1.0635
  785MPD2     N11635   4.632   2.711  10.949  0.4495  0.3518  0.2225
  785MPD2    H511636   4.562   2.768  10.995 -0.9843 -3.2125  2.4375
  785MPD2    N111637   0.209   3.035  11.138  0.3220  0.4307  0.1581
  785MPD2    H711638   0.305   3.069  11.144  1.1669 -1.6424 -1.4551
  786MPD2     C11639   3.602   0.768  14.680 -0.0501 -0.3059  0.2484
  786MPD2    C111640   3.689   0.666  14.707  0.3873  0.1395  0.0513
  786MPD2    C211641   3.771   0.684  14.816 -0.5912 -0.3052  0.3654
  786MPD2    C311642   3.789   0.798  14.894 -0.1352 -0.0837 -0.3936
  786MPD2    C411643   3.709   0.900  14.857 -0.4811 -0.3464 -0.3513
  786MPD2    C511644   3.628   0.884  14.751 -0.4806 -0.4223 -0.4715
  786MPD2     H11645   3.840   0.604  14.842 -2.8401 -2.1285  0.7168
  786MPD2    H111646   3.721   0.998  14.902  0.5275 -0.0009 -1.3720
  786MPD2    H211647   3.527   0.777  14.602 -0.7955  0.0879  1.0166
  786MPD2    H311648   3.577   0.970  14.710 -2.2449 -1.0783  0.3458
  786MPD2     N11649   3.885   0.828  14.999 -0.2611 -0.6751  0.1819
  786MPD2    H511650   3.887   0.917  15.048 -0.9312 -1.1789  1.1263
  786MPD2    N111651   3.706   0.549  14.629 -0.0843  0.3503  0.3288
  786MPD2    H711652   3.778   0.483  14.657  0.0665  0.1615 -0.4939
  787MPD2     C11653   4.166   0.133  14.726 -0.3508  0.0898  0.6206
  787MPD2    C111654   4.142   0.149  14.589  0.4454  0.1168  0.2669
  787MPD2    C211655   4.254   0.125  14.508 -0.7354 -0.4002 -0.2493
  787MPD2    C311656   4.376   0.108  14.560 -0.0203  0.3226  0.3891
  787MPD2    C411657   4.392   0.098  14.696 -0.2645  0.1378  0.2948
  787MPD2    C511658   4.287   0.100  14.779  0.3016 -0.5400 -0.0743
  787MPD2     H11659   4.243   0.140  14.401 -1.9342  0.1744 -0.0359
  787MPD2    H111660   4.483   0.060  14.740  0.6041  0.6128 -1.1178
  787MPD2    H211661   4.084   0.159  14.792 -1.3583 -1.2933 -0.0793
  787MPD2    H311662   4.299   0.077  14.884  2.0906 -0.7510 -0.3295
  787MPD2     N11663   4.484   0.098  14.469 -0.4486 -0.2522  0.0412
  787MPD2    H511664   4.449   0.087  14.374  0.0294 -0.3496 -0.1236
  787MPD2    N111665   4.005   0.185  14.549  0.4374 -0.3746 -0.1165
  787MPD2    H711666   3.936   0.209  14.620  1.0144  0.4003  0.1776
  788MPD2     C11667   1.199   4.098   0.771 -0.2432 -0.3041 -0.4378
  788MPD2    C111668   1.241   4.031   0.660 -0.2263 -0.8728 -0.4493
  788MPD2    C211669   1.232   4.101   0.536  0.4558  0.6109  0.2546
  788MPD2    C311670   1.184   4.228   0.523 -0.4144  0.6055 -0.2564
  788MPD2    C411671   1.150   4.291   0.641  0.4883 -1.1905  0.5399
  788MPD2    C511672   1.147   4.224   0.761 -0.1601 -0.2435 -0.4995
  788MPD2     H11673   1.254   4.042   0.448  0.0277  1.5754 -0.4974
  788MPD2    H111674   1.105   4.389   0.634  1.1878 -0.8703  0.6015
  788MPD2    H211675   1.185   4.042   0.862  1.4968 -0.6383 -0.3658
  788MPD2    H311676   1.107   4.262   0.854 -0.8480  1.3843 -1.4840
  788MPD2     N11677   1.150   4.294   0.401  0.1456  0.7300  0.7915
  788MPD2    H511678   1.118   4.389   0.416  1.4365  1.3636 -0.5831
  788MPD2    N111679   1.271   3.890   0.655 -0.7531 -0.4371 -0.1686
  788MPD2    H711680   1.296   3.866   0.560 -1.9216 -0.0554 -0.5701
  789MPD2     C11681   0.961   3.341  16.840  0.0498  0.0121  1.2355
  789MPD2    C111682   0.938   3.413  16.725  0.1825  0.2286  0.1452
  789MPD2    C211683   0.836   3.506  16.719 -0.0270  0.6529  0.6872
  789MPD2    C311684   0.760   3.536  16.835 -0.5521 -0.4119 -0.3981
  789MPD2    C411685   0.790   3.464  16.952 -0.1116  0.3198  1.1124
  789MPD2    C511686   0.892   3.370  16.957 -0.0407  0.2975 -0.5143
  789MPD2     H11687   0.818   3.560  16.626  1.4710 -2.5847 -1.4730
  789MPD2    H111688   0.728   3.476  17.040  3.3308 -0.1016  3.5783
  789MPD2    H211689   1.032   3.260  16.841 -0.7316 -0.6894 -2.0267
  789MPD2    H311690   0.901   3.307  17.045  2.8979  0.1795 -0.9122
  789MPD2     N11691   0.652   3.624  16.834 -0.2053  0.6944 -0.2068
  789MPD2    H511692   0.589   3.623  16.913 -0.7085  0.4312 -0.6115
  789MPD2    N111693   1.013   3.396  16.599 -0.4460 -0.5302  0.0197
  789MPD2    H711694   0.971   3.443  16.520  1.6650  0.7902 -0.3288
  790MPD2     C11695   2.502   0.749  13.162  0.4999  0.4347  0.5221
  790MPD2    C111696   2.508   0.618  13.205 -0.0579 -0.0638 -0.4398
  790MPD2    C211697   2.465   0.509  13.128  0.7898 -0.6377  0.4334
  790MPD2    C311698   2.430   0.541  12.994 -0.0152 -0.1775  0.1740
  790MPD2    C411699   2.426   0.672  12.951  1.1698  0.1699  0.7625
  790MPD2    C511700   2.458   0.775  13.038  0.0756  0.7670 -0.5644
  790MPD2     H11701   2.477   0.403  13.147  1.9016 -0.3059  1.5817
  790MPD2    H111702   2.397   0.699  12.850  0.4841 -0.1627  0.8739
  790MPD2    H211703   2.533   0.836  13.219 -0.8378  0.6710  0.8859
  790MPD2    H311704   2.453   0.875  12.996  0.9074  0.8894 -0.3578
  790MPD2     N11705   2.382   0.439  12.911 -0.4216  0.2869  0.2367
  790MPD2    H511706   2.375   0.462  12.812  0.7366  0.8543  0.2837
  790MPD2    N111707   2.565   0.602  13.337 -0.1354 -0.1646 -0.3645
  790MPD2    H711708   2.589   0.682  13.395 -1.0102 -1.8550  2.3388
  791MPD2     C11709   1.764   0.292  12.708  0.8395 -0.0443 -0.4061
  791MPD2    C111710   1.808   0.166  12.728  0.9870 -0.5603  0.0093
  791MPD2    C211711   1.708   0.076  12.745  0.3303 -0.3699  0.3288
  791MPD2    C311712   1.570   0.095  12.755  0.6213  0.1171  0.1555
  791MPD2    C411713   1.539   0.225  12.763  0.6549 -0.1156  0.0901
  791MPD2    C511714   1.636   0.324  12.734 -0.3475 -0.2548  0.5759
  791MPD2     H11715   1.729   4.706  12.733  0.8970  0.2586 -4.2028
  791MPD2    H111716   1.437   0.258  12.781  0.3549 -1.3549  0.6682
  791MPD2    H211717   1.839   0.370  12.705  0.5176  0.2007 -1.8544
  791MPD2    H311718   1.611   0.429  12.721 -2.4842 -1.0166 -1.2635
  791MPD2     N11719   1.484   4.718  12.768 -0.1155 -0.3450  0.2318
  791MPD2    H511720   1.522   4.625  12.781  3.2761  0.6457 -2.7328
  791MPD2    N111721   1.951   0.152  12.726  0.3045 -0.3484  0.1367
  791MPD2    H711722   2.019   0.227  12.717  1.4306 -1.3674  0.2814
  792MPD2     C11723   2.035   0.152  11.300  0.0389 -0.8777 -0.0382
  792MPD2    C111724   1.948   0.228  11.228 -0.3942  0.3637 -0.5375
  792MPD2    C211725   1.809   0.203  11.247 -0.0105 -0.3445  0.7486
  792MPD2    C311726   1.762   0.107  11.337 -0.1015  0.1366 -0.0459
  792MPD2    C411727   1.856   0.037  11.412  0.2795 -0.3515 -0.4005
  792MPD2    C511728   1.990   0.058  11.387  0.1452  0.1010  0.0225
  792MPD2     H11729   1.731   0.256  11.195 -0.8169 -1.7184  0.5463
  792MPD2    H111730   1.821   4.700  11.485 -4.6718 -1.0068 -3.4213
  792MPD2    H211731   2.141   0.162  11.284  0.0309  1.4943  1.3248
  792MPD2    H311732   2.062   0.008  11.451 -1.0619 -0.8129  0.6752
  792MPD2     N11733   1.627   0.098  11.380  0.3755 -0.1230 -0.2476
  792MPD2    H511734   1.611   0.037  11.460  0.0114 -1.1756 -1.1334
  792MPD2    N111735   1.997   0.313  11.123 -0.1111 -0.2214 -0.1520
  792MPD2    H711736   2.096   0.304  11.102 -0.4830 -0.8587 -1.5987
  793MPD2     C11737   0.987   0.397  10.739  0.3758  0.0031  0.7557
  793MPD2    C111738   1.123   0.386  10.767 -0.5242  0.2719  0.4188
  793MPD2    C211739   1.170   0.338  10.889 -0.2530  0.2362  0.7857
  793MPD2    C311740   1.082   0.311  10.991 -0.1567  0.6626 -0.5087
  793MPD2    C411741   0.941   0.324  10.962 -0.4501  0.3894  0.1669
  793MPD2    C511742   0.901   0.372  10.842 -0.1202  0.6649  0.0974
  793MPD2     H11743   1.277   0.328  10.904 -0.3409  1.3428  2.1812
  793MPD2    H111744   0.871   0.287  11.036  0.8726  0.9239  1.6899
  793MPD2    H211745   0.951   0.442  10.648 -0.1823 -3.2450 -0.6063
  793MPD2    H311746   0.795   0.376  10.819 -0.1875 -1.4195  0.0299
  793MPD2     N11747   1.136   0.254  11.103 -0.1671 -0.3770  0.0330
  793MPD2    H511748   1.237   0.244  11.104 -0.3990 -2.6156  2.1826
  793MPD2    N111749   1.216   0.398  10.656  0.7039 -1.1847 -0.7646
  793MPD2    H711750   1.313   0.382  10.684  0.0085 -1.3380  1.5509
  794MPD2     C11751   1.680   4.490  17.061  1.0392  0.3461  0.1398
  794MPD2    C111752   1.719   4.396  16.964  0.1412  0.0471 -0.3623
  794MPD2    C211753   1.651   4.377  16.842  0.6620 -0.3089 -0.1471
  794MPD2    C311754   1.545   4.454  16.819 -0.4188 -0.1471  0.0982
  794MPD2    C411755   1.500   4.541  16.913 -0.5406 -0.1569  0.5463
  794MPD2    C511756   1.567   4.565  17.026 -0.0385  0.1402  0.7708
  794MPD2     H11757   1.686   4.307  16.767 -0.5686  0.3788 -1.3674
  794MPD2    H111758   1.415   4.605  16.892 -0.1469  0.0268 -0.5175
  794MPD2    H211759   1.731   4.523  17.151 -1.0982  1.3936  0.9563
  794MPD2    H311760   1.538   4.636  17.103 -3.8746 -0.9389  0.3421
  794MPD2     N11761   1.482   4.453  16.691 -0.0581  0.2398 -0.8562
  794MPD2    H511762   1.414   4.529  16.685 -1.3453 -0.6530  1.9101
  794MPD2    N111763   1.831   4.305  16.983 -0.4042 -0.1331  0.2281
  794MPD2    H711764   1.863   4.246  16.907  0.7885 -1.3473  1.6718
  795MPD2     C11765   4.631   1.904  13.834  0.7329  0.1639  0.2150
  795MPD2    C111766   4.561   1.782  13.831 -0.1289  0.0497  0.6025
  795MPD2    C211767   4.601   1.675  13.912  0.4130 -0.0130  0.0821
  795MPD2    C311768   4.713   1.690  13.996 -0.4290  0.1092 -0.8503
  795MPD2    C411769   0.057   1.799  13.975 -0.4039  0.0441 -0.9464
  795MPD2    C511770   0.011   1.904  13.897 -0.1001 -0.1448  0.2674
  795MPD2     H11771   4.548   1.581  13.900  0.0801  0.4259 -2.0837
  795MPD2    H111772   0.154   1.808  14.023 -1.0736  0.6232  0.2652
  795MPD2    H211773   4.605   1.993  13.778 -1.1096  0.4056  1.4439
  795MPD2    H311774   0.073   1.992  13.888 -0.2204 -0.2693 -1.7623
  795MPD2     N11775   0.013   1.588  14.080  0.2607  0.4041 -0.1068
  795MPD2    H511776   0.104   1.601  14.124  1.1146 -1.9616 -1.1431
  795MPD2    N111777   4.450   1.758  13.744  0.1620 -0.1733  0.3442
  795MPD2    H711778   4.413   1.664  13.758  2.7700 -1.4436 -1.1293
  796MPD2     C11779   3.844   3.032  15.801 -0.9447  0.5623  0.2812
  796MPD2    C111780   3.867   3.125  15.903  0.4803 -0.2500 -0.3919
  796MPD2    C211781   3.892   3.255  15.875  0.4594 -0.2103 -0.1669
  796MPD2    C311782   3.882   3.300  15.748 -0.6382  0.3045  0.4596
  796MPD2    C411783   3.857   3.211  15.643  0.0105  0.3613  0.5470
  796MPD2    C511784   3.844   3.079  15.666 -0.4211  0.0594 -0.4994
  796MPD2     H11785   3.891   3.333  15.950 -0.6671 -0.7848  0.4067
  796MPD2    H111786   3.837   3.243  15.541 -1.8917 -0.1770  0.7587
  796MPD2    H211787   3.834   2.926  15.823  0.2171  0.7862  1.9067
  796MPD2    H311788   3.829   3.012  15.583 -0.8213 -1.6161  0.9147
  796MPD2     N11789   3.905   3.441  15.725  0.2259 -0.0986  0.4706
  796MPD2    H511790   3.944   3.494  15.803 -0.8283  0.5049  0.5818
  796MPD2    N111791   3.884   3.063  16.025  0.4182 -0.0551 -0.5437
  796MPD2    H711792   3.865   2.964  16.037  2.8230 -0.7642 -2.4780
  797MPD2     C11793   0.419   2.948  17.487  0.1306  0.1014 -0.3180
  797MPD2    C111794   0.381   3.079  17.519  0.0632  0.7058  0.3047
  797MPD2    C211795   0.271   3.129  17.462 -0.4246 -0.1004  0.8926
  797MPD2    C311796   0.199   3.057  17.369 -0.8818  0.2954  0.2194
  797MPD2    C411797   0.242   2.934  17.327 -0.3530  0.3082 -0.1085
  797MPD2    C511798   0.348   2.875  17.392  0.0822  0.0158  0.7522
  797MPD2     H11799   0.229   3.225  17.490  0.4450  0.0038  1.8502
  797MPD2    H111800   0.189   2.872  17.255  1.0585 -1.3718  0.2897
  797MPD2    H211801   0.503   2.898  17.533 -0.2668 -0.2239  0.0522
  797MPD2    H311802   0.376   2.772  17.370 -1.2392 -0.3361  0.7640
  797MPD2     N11803   0.087   3.114  17.314 -0.8151  0.3959 -0.2946
  797MPD2    H511804   0.077   3.211  17.343  0.8887  0.2137  0.8582
  797MPD2    N111805   0.440   3.162  17.614  0.5588 -0.1842  0.1840
  797MPD2    H711806   0.408   3.258  17.617  1.1911  0.0586 -0.6807
  798MPD2     C11807   0.232   3.797  17.361  0.4661  0.7790 -0.0087
  798MPD2    C111808   0.215   3.664  17.355 -0.6327 -0.3249 -0.4429
  798MPD2    C211809   0.302   3.593  17.434  0.6429 -0.1666  0.2004
  798MPD2    C311810   0.392   3.657  17.517 -0.3298  0.4703  0.7853
  798MPD2    C411811   0.412   3.796  17.516  0.2662  0.0329  0.6891
  798MPD2    C511812   0.331   3.862  17.431 -0.2500 -0.1103  0.5585
  798MPD2     H11813   0.292   3.485  17.438  2.0807 -0.3630 -1.9175
  798MPD2    H111814   0.494   3.843  17.569  0.6106  1.0160 -0.7236
  798MPD2    H211815   0.169   3.867  17.308  0.8160  1.2359  0.1728
  798MPD2    H311816   0.356   3.966  17.418  1.1286 -0.6549 -1.1272
  798MPD2     N11817   0.469   3.572  17.594 -0.2273  0.2136 -0.1982
  798MPD2    H511818   0.448   3.473  17.595 -0.0814  0.1810 -0.4775
  798MPD2    N111819   0.107   3.592  17.284  0.0182  0.3784  0.1787
  798MPD2    H711820   0.052   3.644  17.216 -0.3716 -0.3976 -0.1053
  799MPD2     C11821   4.262   4.280  14.623 -0.3746  0.3886 -0.0037
  799MPD2    C111822   4.210   4.223  14.510 -0.7572  0.0746  1.1917
  799MPD2    C211823   4.138   4.296  14.410  0.6497  0.4263 -0.2019
  799MPD2    C311824   4.132   4.434  14.428  0.1983  0.5872 -0.4875
  799MPD2    C411825   4.204   4.493  14.526  0.7048  0.1129  0.1674
  799MPD2    C511826   4.261   4.417  14.625 -0.0681 -0.0577 -0.3632
  799MPD2     H11827   4.094   4.236  14.330 -0.5092  0.1439  0.6510
  799MPD2    H111828   4.200   4.600  14.547  0.9535  0.3795 -1.1487
  799MPD2    H211829   4.298   4.219  14.705  0.0077 -1.3559 -1.4557
  799MPD2    H311830   4.302   4.473  14.709  0.1876  1.4231 -1.4880
  799MPD2     N11831   4.043   4.510  14.345  0.0354 -0.2013 -0.5285
  799MPD2    H511832   4.045   4.611  14.358 -0.7950 -0.0241 -1.7763
  799MPD2    N111833   4.232   4.082  14.482 -0.3174 -0.2768 -1.1422
  799MPD2    H711834   4.190   4.039  14.401 -0.6651 -0.1187 -1.0434
  800MPD2     C11835   4.298   0.968  14.761 -0.3006 -0.3768  0.0031
  800MPD2    C111836   4.392   0.941  14.663  0.4404  0.8516 -0.3192
  800MPD2    C211837   4.366   0.833  14.582 -1.0327  0.2236  0.2454
  800MPD2    C311838   4.258   0.756  14.607  0.2355 -0.2321 -0.2079
  800MPD2    C411839   4.175   0.781  14.713  0.4568 -0.2451 -0.0750
  800MPD2    C511840   4.196   0.887  14.799 -1.0510 -0.2762 -0.5031
  800MPD2     H11841   4.420   0.811  14.490 -0.3495 -2.1368  1.1912
  800MPD2    H111842   4.082   0.726  14.711 -0.4362  1.2984 -0.8578
  800MPD2    H211843   4.317   1.056  14.822  0.7070  0.7351 -1.9217
  800MPD2    H311844   4.123   0.930  14.867 -1.7990 -0.8711 -0.9276
  800MPD2     N11845   4.234   0.651  14.514 -0.2617 -0.6889 -0.8290
  800MPD2    H511846   4.309   0.635  14.447  0.0279 -0.3641 -0.5832
  800MPD2    N111847   4.503   1.030  14.645  0.5796  0.1423  0.4533
  800MPD2    H711848   4.490   1.124  14.681  1.4227 -0.0485  1.2641
  801MPD2     C11849   4.560   1.720  14.461  0.1052 -0.2428 -0.0089
  801MPD2    C111850   4.504   1.602  14.505 -0.0927  0.1622  0.6147
  801MPD2    C211851   4.386   1.606  14.576  0.1102  0.5872 -0.4029
  801MPD2    C311852   4.319   1.720  14.603 -0.0613 -0.6978  0.6795
  801MPD2    C411853   4.375   1.839  14.557  0.9752 -0.5022 -0.6104
  801MPD2    C511854   4.497   1.838  14.487 -0.1820  0.4075  0.0950
  801MPD2     H11855   4.350   1.512  14.617  0.9224  0.8811  0.9772
  801MPD2    H111856   4.333   1.938  14.571  1.4447 -0.4171  0.1928
  801MPD2    H211857   4.657   1.724  14.414 -0.3827 -1.9826 -1.1575
  801MPD2    H311858   4.541   1.928  14.447 -3.5856  3.4546  3.1089
  801MPD2     N11859   4.201   1.713  14.679 -0.2404  0.4095 -0.2787
  801MPD2    H511860   4.169   1.620  14.702  2.0287 -0.9933 -2.8628
  801MPD2    N111861   4.580   1.486  14.489  0.3103  0.0688  0.4346
  801MPD2    H711862   4.532   1.409  14.536 -1.8591  0.4048 -1.2449
  802MPD2     C11863   4.129   1.924   0.390  0.7156 -0.4255  0.6296
  802MPD2    C111864   4.058   1.990   0.283 -0.1163  0.9419 -0.2076
  802MPD2    C211865   4.103   1.964   0.157  0.8013  0.2082 -0.4222
  802MPD2    C311866   4.200   1.868   0.131 -0.8809  0.1483  0.2219
  802MPD2    C411867   4.255   1.798   0.228  0.5026  0.2338 -0.5080
  802MPD2    C511868   4.221   1.826   0.363  0.6363  0.3025 -0.6715
  802MPD2     H11869   4.062   2.029   0.081 -1.1536 -1.2139 -0.6009
  802MPD2    H111870   4.333   1.723   0.217  1.4914  1.1359  0.4015
  802MPD2    H211871   4.098   1.936   0.493  0.5670 -0.9117  0.6397
  802MPD2    H311872   4.264   1.778   0.450 -0.2683 -0.1222 -0.4671
  802MPD2     N11873   4.235   1.855  17.734  0.1929 -0.0060  0.7019
  802MPD2    H511874   4.179   1.912  17.671 -1.1045 -1.5227  0.4917
  802MPD2    N111875   3.962   2.097   0.301  0.6079 -0.3454 -0.1534
  802MPD2    H711876   3.927   2.143   0.218  1.4142 -0.1494 -0.3757
  803MPD2     C11877   4.538   4.670  11.643  1.0714 -0.9417  0.4997
  803MPD2    C111878   4.674   4.685  11.637 -0.6398  0.5442  0.2462
  803MPD2    C211879   0.017   4.625  11.735  0.8472  0.1761  0.0776
  803MPD2    C311880   4.690   4.554  11.834 -0.0678 -0.3085  0.4269
  803MPD2    C411881   4.556   4.548  11.848 -0.1864 -0.1242 -1.0052
  803MPD2    C511882   4.480   4.608  11.751 -0.1123  0.5027 -0.3490
  803MPD2     H11883   0.124   4.633  11.718  0.9153 -0.6486  0.1151
  803MPD2    H111884   4.511   4.502  11.935  0.9250  3.4636  1.4510
  803MPD2    H211885   4.472   4.710  11.567  0.6404 -2.5254  0.0271
  803MPD2    H311886   4.373   4.595  11.764  0.2997 -1.9977  0.5471
  803MPD2     N11887   0.043   4.502  11.940  0.2550  0.1131  0.1863
  803MPD2    H511888   0.002   4.455  12.020  0.9305 -1.1267 -0.1922
  803MPD2    N111889   4.734   0.044  11.550 -0.1004  0.6579  0.2412
  803MPD2    H711890   0.099   0.045  11.558  0.0166  1.7714 -1.3521
  804MPD2     C11891   4.485   1.510  16.660 -0.0057 -0.2719  0.3966
  804MPD2    C111892   4.485   1.495  16.798 -0.3719  0.3963  0.4371
  804MPD2    C211893   4.535   1.604  16.864 -0.1329  0.2545 -0.2244
  804MPD2    C311894   4.585   1.720  16.801 -0.0785 -1.0269  0.3238
  804MPD2    C411895   4.593   1.727  16.666 -0.4229  0.4111  1.0298
  804MPD2    C511896   4.541   1.621  16.597 -0.1635  0.4439  0.7269
  804MPD2     H11897   4.534   1.597  16.972 -1.5061 -0.2015 -0.2659
  804MPD2    H111898   4.627   1.808  16.603 -0.6857  0.5092  1.0162
  804MPD2    H211899   4.439   1.437  16.595 -0.2807  0.7410 -0.5646
  804MPD2    H311900   4.531   1.614  16.490 -0.5354 -2.7927  0.9643
  804MPD2     N11901   4.624   1.829  16.882 -0.4240  0.1529  0.6739
  804MPD2    H511902   4.609   1.815  16.982 -1.4460  1.3301  0.6997
  804MPD2    N111903   4.443   1.377  16.862 -0.6542  0.0734  0.2002
  804MPD2    H711904   4.455   1.371  16.963 -0.3280 -0.6889  0.1144
  805MPD2     C11905   3.458   4.134  14.982  0.0753 -0.3222 -0.6379
  805MPD2    C111906   3.524   4.238  14.939 -0.0810 -0.3578 -0.3967
  805MPD2    C211907   3.642   4.278  14.998 -0.9775 -0.4647  0.0020
  805MPD2    C311908   3.676   4.223  15.116 -0.3687  0.9461 -1.1755
  805MPD2    C411909   3.616   4.105  15.148 -0.6938 -0.0905 -1.0290
  805MPD2    C511910   3.503   4.071  15.088 -0.0551  0.5249 -0.0823
  805MPD2     H11911   3.689   4.369  14.962 -1.8377  0.0498  0.1662
  805MPD2    H111912   3.655   4.044  15.229  0.2039  2.4425  0.4561
  805MPD2    H211913   3.380   4.083  14.926  0.6219 -1.6214 -0.2222
  805MPD2    H311914   3.450   3.982  15.122  1.1742 -1.5798 -3.6745
  805MPD2     N11915   3.789   4.275  15.180 -0.4018 -0.0902 -0.0468
  805MPD2    H511916   3.830   4.352  15.129 -3.0820  0.2402 -1.7064
  805MPD2    N111917   3.493   4.301  14.814  0.3662 -0.5411 -0.4173
  805MPD2    H711918   3.562   4.362  14.770 -1.7101  1.6727 -0.6618
  806MPD2     C11919   4.067   3.916   0.509  0.1540 -0.1587 -0.6388
  806MPD2    C111920   4.105   4.047   0.536 -0.0710 -0.0542  0.3710
  806MPD2    C211921   4.102   4.136   0.427 -0.0433 -0.3479 -0.3541
  806MPD2    C311922   4.063   4.104   0.299  0.6943  0.6620 -0.2117
  806MPD2    C411923   4.013   3.975   0.286  0.1714  0.7770 -1.0814
  806MPD2    C511924   4.014   3.881   0.389  0.5207 -0.0473 -0.2831
  806MPD2     H11925   4.126   4.240   0.446 -0.3023 -0.5905  1.2670
  806MPD2    H111926   3.967   3.942   0.194  0.5113  0.3951 -1.1151
  806MPD2    H211927   4.059   3.851   0.595  0.9555  1.7857  0.8878
  806MPD2    H311928   3.967   3.784   0.378  1.9206 -0.5988 -1.3106
  806MPD2     N11929   4.063   4.201   0.190  0.2547  0.6890 -0.0052
  806MPD2    H511930   4.112   4.286   0.219  1.4100  0.4896 -1.3633
  806MPD2    N111931   4.136   4.084   0.671  0.1701  0.9664 -0.0425
  806MPD2    H711932   4.136   4.011   0.741 -1.7337 -0.8856 -1.9862
  807MPD2     C11933   3.883   3.871   1.310  0.0111  0.0781 -0.4140
  807MPD2    C111934   3.959   3.851   1.197  0.0418 -0.5780  0.0795
  807MPD2    C211935   3.967   3.730   1.149 -0.5062  0.0007  0.2911
  807MPD2    C311936   3.905   3.623   1.203 -0.2871  0.4218 -0.2096
  807MPD2    C411937   3.828   3.639   1.318  0.6690  0.6698 -0.1752
  807MPD2    C511938   3.815   3.761   1.369  0.8384 -0.4336 -0.0712
  807MPD2     H11939   4.026   3.717   1.059  0.0678  0.2970  0.6230
  807MPD2    H111940   3.762   3.565   1.362  2.0629  0.0631  0.8989
  807MPD2    H211941   3.875   3.966   1.361 -0.0386 -0.7113  1.0558
  807MPD2    H311942   3.747   3.776   1.452 -1.0347  0.8650 -1.8532
  807MPD2     N11943   3.938   3.499   1.139  0.0890 -0.5418  0.3801
  807MPD2    H511944   3.997   3.507   1.057 -1.2804 -0.3874 -0.6066
  807MPD2    N111945   4.031   3.955   1.130  0.7384  0.2782 -0.5288
  807MPD2    H711946   4.081   3.937   1.043  1.0220 -0.8288 -0.1409
  808MPD2     C11947   4.297   1.496   9.474 -0.6313 -0.0808 -0.2210
  808MPD2    C111948   4.275   1.524   9.607  0.3544 -0.4093  0.2876
  808MPD2    C211949   4.318   1.637   9.668 -0.2366 -0.3966 -0.5013
  808MPD2    C311950   4.373   1.740   9.591 -0.2361  0.3296 -0.0489
  808MPD2    C411951   4.382   1.717   9.454  0.1658 -0.9096  0.0359
  808MPD2    C511952   4.339   1.599   9.395 -0.2038 -0.6057 -0.2352
  808MPD2     H11953   4.307   1.642   9.776  0.3303  2.0191 -0.5605
  808MPD2    H111954   4.410   1.793   9.382  1.8626 -0.8398  0.7633
  808MPD2    H211955   4.253   1.409   9.427 -1.2136  0.4713 -0.7152
  808MPD2    H311956   4.347   1.590   9.287  0.4497  0.5782 -0.2832
  808MPD2     N11957   4.444   1.838   9.660  0.8438  0.7786  0.2484
  808MPD2    H511958   4.499   1.906   9.609  2.6937  0.1355  1.4092
  808MPD2    N111959   4.218   1.429   9.695  0.0852  0.0816  0.3511
  808MPD2    H711960   4.222   1.453   9.794 -0.8447 -1.0501  0.6612
  809MPD2     C11961   0.464   1.637   9.441  0.6205 -0.3254 -0.1747
  809MPD2    C111962   0.412   1.591   9.563  0.1297 -0.5229  0.7404
  809MPD2    C211963   0.333   1.672   9.639  0.6661  0.7671  0.0616
  809MPD2    C311964   0.288   1.793   9.588  0.6506 -0.2536 -0.2334
  809MPD2    C411965   0.336   1.831   9.469 -0.0738 -0.1003  0.3121
  809MPD2    C511966   0.424   1.760   9.399 -0.1884  0.3446  0.4216
  809MPD2     H11967   0.293   1.645   9.736  1.0278  0.0799  0.0165
  809MPD2    H111968   0.297   1.926   9.434  2.3713 -0.5991 -3.7358
  809MPD2    H211969   0.534   1.578   9.383 -0.6368 -0.2228 -1.7739
  809MPD2    H311970   0.467   1.798   9.306  0.9120 -1.6931  0.1055
  809MPD2     N11971   0.199   1.877   9.659 -0.6032 -0.4052 -0.2369
  809MPD2    H511972   0.174   1.955   9.598  0.8248  1.1356  1.1620
  809MPD2    N111973   0.429   1.465   9.617 -0.7048  0.0675  0.3536
  809MPD2    H711974   0.386   1.440   9.705 -0.2353 -0.5738  0.3991
  810MPD2     C11975   4.043   4.605   9.923 -0.1535 -0.4689  0.8603
  810MPD2    C111976   3.944   4.681   9.977 -0.6667  0.1559  0.3084
  810MPD2    C211977   3.977   0.076  10.010 -0.9864 -0.8794  0.1287
  810MPD2    C311978   4.104   0.127   9.996 -0.4194  0.1594 -0.8581
  810MPD2    C411979   4.199   0.044   9.946 -0.3394 -0.8369  0.5819
  810MPD2    C511980   4.172   4.651   9.906  0.4538  0.3749  0.2602
  810MPD2     H11981   3.898   0.139  10.051  0.2569  1.5178 -1.1729
  810MPD2    H111982   4.303   0.073   9.949 -1.2280  2.5488 -0.5703
  810MPD2    H211983   4.033   4.499   9.907 -1.5205  0.1829 -2.4900
  810MPD2    H311984   4.248   4.584   9.869  1.2946  0.6948  1.4155
  810MPD2     N11985   4.142   0.264  10.028 -0.2137  0.3741 -0.4481
  810MPD2    H511986   4.236   0.290  10.000  0.1102  0.1248  0.4230
  810MPD2    N111987   3.807   4.640   9.991  0.4517 -0.6275 -0.0411
  810MPD2    H711988   3.739   4.712  10.009 -0.5408 -1.1864 -1.5189
  811MPD2     C11989   2.963   0.006   9.978 -0.1195 -0.6277 -0.1853
  811MPD2    C111990   3.092   0.046   9.953  0.4098  0.0406  0.5601
  811MPD2    C211991   3.119   0.182   9.920 -0.4583  0.8257 -0.1913
  811MPD2    C311992   3.027   0.275   9.913  0.4019  0.6421  0.4387
  811MPD2    C411993   2.896   0.231   9.929  0.8944 -0.7080  0.1424
  811MPD2    C511994   2.865   0.101   9.958  1.1393 -0.7816 -0.0762
  811MPD2     H11995   3.222   0.216   9.916  0.2071 -0.9187  1.9322
  811MPD2    H111996   2.812   0.300   9.928 -0.2531 -2.1263 -1.2800
  811MPD2    H211997   2.930   4.647  10.019  0.7434 -1.1236 -0.6501
  811MPD2    H311998   2.761   0.083   9.983  1.4657  0.8865  2.4709
  811MPD2     N11999   3.054   0.407   9.870  0.1092  0.3701 -0.0249
  811MPD2    H512000   3.153   0.429   9.867  0.3683 -0.5361  1.5974
  811MPD2    N112001   3.195   4.686   9.972 -0.0662 -0.0943  0.1804
  811MPD2    H712002   3.169   4.593  10.004 -2.5305  0.8232  0.8921
  812MPD2     C12003   3.289   0.478  11.603 -0.2667 -0.5324  0.4621
  812MPD2    C112004   3.176   0.436  11.671  0.4358  0.1721 -0.4407
  812MPD2    C212005   3.203   0.404  11.804  0.4111  0.5865 -0.1104
  812MPD2    C312006   3.320   0.418  11.867 -0.7412  0.2256  0.3295
  812MPD2    C412007   3.426   0.469  11.800 -0.3956 -0.6664 -0.8375
  812MPD2    C512008   3.412   0.499  11.665 -0.1143 -0.2766  0.5218
  812MPD2     H12009   3.126   0.353  11.860  0.0935  0.7126 -0.4270
  812MPD2    H112010   3.524   0.475  11.846 -0.2849 -1.7794 -0.9338
  812MPD2    H212011   3.279   0.492  11.496  1.1708 -0.2351  0.3671
  812MPD2    H312012   3.501   0.531  11.613  0.2053 -2.8650 -0.5278
  812MPD2     N12013   3.330   0.367  12.001  0.0715  0.0026 -0.1167
  812MPD2    H512014   3.253   0.311  12.034  0.9448  0.1968  2.2617
  812MPD2    N112015   3.048   0.444  11.618  0.3377  0.0999  0.3965
  812MPD2    H712016   3.032   0.516  11.548  1.7447  0.9615  0.9581
  813MPD2     C12017   1.939   1.926  12.739  0.0822 -0.4176 -0.2235
  813MPD2    C112018   2.035   1.881  12.822 -0.0451 -0.0316 -0.0250
  813MPD2    C212019   2.035   1.915  12.962 -0.1020 -0.2423 -0.2561
  813MPD2    C312020   1.947   2.014  12.997 -0.5726 -0.0399  0.5056
  813MPD2    C412021   1.862   2.074  12.908  0.3509  0.5553 -0.2113
  813MPD2    C512022   1.850   2.016  12.782  0.2534 -0.1688  0.1936
  813MPD2     H12023   2.112   1.879  13.029 -0.1855  1.3889  0.7254
  813MPD2    H112024   1.780   2.141  12.931  0.2193  0.6710 -1.0463
  813MPD2    H212025   1.933   1.905  12.633 -0.3971  0.6511 -0.4091
  813MPD2    H312026   1.769   2.046  12.717  0.5056 -0.3869 -0.2185
  813MPD2     N12027   1.934   2.072  13.124 -0.0378 -0.2003  0.4352
  813MPD2    H512028   1.862   2.143  13.127  0.2792  0.1917 -0.9749
  813MPD2    N112029   2.130   1.793  12.762  0.1592  0.4101 -0.4883
  813MPD2    H712030   2.112   1.750  12.672 -0.2263  1.2289 -0.8073
  814MPD2     C12031   2.430   3.246  12.279 -0.3915  0.7361  0.1829
  814MPD2    C112032   2.393   3.334  12.174  0.1708  0.2403  0.8022
  814MPD2    C212033   2.460   3.454  12.169 -0.3679  0.3801 -0.1574
  814MPD2    C312034   2.560   3.480  12.259  0.0597  0.4061  0.3024
  814MPD2    C412035   2.580   3.401  12.372  0.1350  0.0066 -0.1908
  814MPD2    C512036   2.519   3.279  12.378 -0.8458 -0.0510  0.4303
  814MPD2     H12037   2.428   3.520  12.089  1.3905 -0.9532 -1.9895
  814MPD2    H112038   2.662   3.421  12.440 -1.5222 -2.3190  2.4970
  814MPD2    H212039   2.400   3.142  12.289  0.4664  0.3886 -0.8965
  814MPD2    H312040   2.553   3.211  12.455 -1.9883  1.4167  2.2395
  814MPD2     N12041   2.632   3.600  12.257  0.2797  0.4430 -0.0253
  814MPD2    H512042   2.684   3.634  12.338  1.1402  0.3127 -0.5319
  814MPD2    N112043   2.314   3.293  12.062  0.1184  0.1198  1.0583
  814MPD2    H712044   2.303   3.360  11.987  2.0156 -1.7204 -0.8741
  815MPD2     C12045   2.587   2.008  11.796 -0.3925 -0.1467 -0.1232
  815MPD2    C112046   2.539   1.882  11.779 -0.2772  0.4751  0.2458
  815MPD2    C212047   2.424   1.841  11.852 -0.2392  0.1683  0.2755
  815MPD2    C312048   2.362   1.932  11.937  0.1481  0.3835  0.1924
  815MPD2    C412049   2.431   2.042  11.976 -0.2962  0.4239 -0.2163
  815MPD2    C512050   2.539   2.083  11.902  0.2304 -0.5506 -0.1033
  815MPD2     H12051   2.371   1.747  11.834  0.3348 -0.0493 -0.2986
  815MPD2    H112052   2.404   2.115  12.051 -3.0084 -1.2122  0.4069
  815MPD2    H212053   2.675   2.040  11.744  1.2196 -0.3991  2.4326
  815MPD2    H312054   2.586   2.179  11.925  0.7579  0.0760 -3.8393
  815MPD2     N12055   2.239   1.895  11.994  0.5073 -0.1430  0.6911
  815MPD2    H512056   2.183   1.828  11.943 -0.1694 -0.6451  2.0842
  815MPD2    N112057   2.595   1.797  11.678 -0.1218  0.0948 -0.2059
  815MPD2    H712058   2.657   1.836  11.608  0.8402 -2.9298 -1.0296
  816MPD2     C12059   2.687   0.867  17.174  0.3013 -0.3275  0.0007
  816MPD2    C112060   2.789   0.956  17.208  0.1124  0.3228 -0.4968
  816MPD2    C212061   2.905   0.947  17.137 -0.4307  0.5870  0.5085
  816MPD2    C312062   2.932   0.837  17.055 -0.1644 -0.3424 -0.2578
  816MPD2    C412063   2.830   0.751  17.029  0.3667 -0.2946  0.2733
  816MPD2    C512064   2.706   0.767  17.079 -0.2045 -0.4309  0.1362
  816MPD2     H12065   2.982   1.024  17.138  1.5755 -1.4258  0.4217
  816MPD2    H112066   2.840   0.665  16.964 -0.3804  0.2998 -0.6244
  816MPD2    H212067   2.597   0.880  17.232  0.7799  0.0301  0.6680
  816MPD2    H312068   2.624   0.699  17.058  0.9045 -2.1476  1.4750
  816MPD2     N12069   3.051   0.833  16.982 -0.1226  0.0106 -0.4890
  816MPD2    H512070   3.112   0.914  16.985  1.9137 -1.5719 -0.0534
  816MPD2    N112071   2.763   1.074  17.284 -0.2107  0.1613  0.3494
  816MPD2    H712072   2.666   1.086  17.310 -0.9663 -0.7518 -1.9988
  817MPD2     C12073   2.571   2.853   9.189  0.5555 -0.6174 -0.6876
  817MPD2    C112074   2.442   2.803   9.184 -0.0196 -0.4434  0.7205
  817MPD2    C212075   2.345   2.897   9.201  0.4297 -0.2875  0.1269
  817MPD2    C312076   2.371   3.031   9.235 -0.5010  0.0058 -0.0164
  817MPD2    C412077   2.500   3.075   9.250 -0.3675  0.9039 -1.0709
  817MPD2    C512078   2.601   2.988   9.225 -0.0951 -0.3717 -0.2611
  817MPD2     H12079   2.240   2.867   9.203  0.1288  0.8405  1.0219
  817MPD2    H112080   2.528   3.164   9.305  0.4550  0.2032 -0.3455
  817MPD2    H212081   2.659   2.790   9.175 -0.7113 -2.2461 -1.3138
  817MPD2    H312082   2.704   3.010   9.251  0.1009  0.2268 -1.5168
  817MPD2     N12083   2.254   3.114   9.261 -0.1390  0.8704 -0.3018
  817MPD2    H512084   2.163   3.074   9.242  0.6813 -0.4323 -1.5176
  817MPD2    N112085   2.408   2.674   9.153 -0.4530  0.3307 -0.1680
  817MPD2    H712086   2.308   2.657   9.154 -0.5615  0.9246 -0.8927
  818MPD2     C12087   1.644   2.589   9.986  0.0849  0.6809  0.2163
  818MPD2    C112088   1.524   2.526   9.998 -0.1406  0.9750 -0.0877
  818MPD2    C212089   1.506   2.390   9.970  0.3706  0.0455  1.1814
  818MPD2    C312090   1.613   2.315   9.933  0.4110  0.8306 -0.0475
  818MPD2    C412091   1.742   2.371   9.932 -0.0887  0.2101  0.1026
  818MPD2    C512092   1.755   2.511   9.948  0.1155 -0.3179 -0.2599
  818MPD2     H12093   1.409   2.343   9.981 -0.0481  0.6084 -0.1653
  818MPD2    H112094   1.826   2.312   9.898 -1.8482 -2.3624  0.2334
  818MPD2    H212095   1.665   2.695   9.991  2.3862  0.3352 -1.9072
  818MPD2    H312096   1.846   2.565   9.923 -0.1598  0.1513 -0.2534
  818MPD2     N12097   1.600   2.170   9.923  0.5018  0.8154 -0.0231
  818MPD2    H512098   1.689   2.121   9.931 -0.6855 -1.2479  0.3676
  818MPD2    N112099   1.406   2.597  10.035  0.2765  0.5072  0.5631
  818MPD2    H712100   1.314   2.555  10.031  0.0949  0.9463  0.0840
  819MPD2     C12101   4.348   4.515  15.377 -1.1350 -0.9636  0.0214
  819MPD2    C112102   4.387   4.387  15.347 -0.2928  0.2118  0.4694
  819MPD2    C212103   4.506   4.340  15.404  0.5307  0.4226  0.6279
  819MPD2    C312104   4.587   4.422  15.488 -0.0591  0.0493 -0.6730
  819MPD2    C412105   4.541   4.548  15.524 -0.5054  0.1602  0.3121
  819MPD2    C512106   4.416   4.585  15.475  0.9258  0.0025  0.2240
  819MPD2     H12107   4.549   4.242  15.390 -0.1006 -0.0952  2.2707
  819MPD2    H112108   4.602   4.613  15.585  1.4709 -0.2904 -1.1857
  819MPD2    H212109   4.258   4.560  15.338 -1.0475  1.4530  2.6084
  819MPD2    H312110   4.383   4.683  15.508  0.2299 -0.2051  0.1532
  819MPD2     N12111   4.706   4.368  15.545  0.5881 -0.3618 -0.1577
  819MPD2    H512112   4.732   4.278  15.505  0.1696 -0.4626 -0.2032
  819MPD2    N112113   4.309   4.301  15.272  0.1031  0.4782 -0.1363
  819MPD2    H712114   4.225   4.338  15.229  0.9669 -0.7661 -2.8920
  820MPD2     C12115   3.827   3.973  14.445 -1.1351 -0.2881  0.5633
  820MPD2    C112116   3.812   4.091  14.512  0.0338 -0.2875 -0.3454
  820MPD2    C212117   3.862   4.108  14.642 -0.3483 -0.6595 -0.6693
  820MPD2    C312118   3.940   4.006  14.695  0.2247  0.2701  0.1804
  820MPD2    C412119   3.956   3.887  14.627 -0.0758 -0.3759  0.5690
  820MPD2    C512120   3.899   3.870  14.502  0.2150  0.8158  0.0667
  820MPD2     H12121   3.846   4.195  14.704  0.1627 -1.3328  0.4201
  820MPD2    H112122   4.005   3.798  14.662  0.6483 -1.1823 -2.4952
  820MPD2    H212123   3.780   3.956  14.348 -0.6660  1.3739  0.0404
  820MPD2    H312124   3.918   3.773  14.457  0.7103  1.1980 -0.5543
  820MPD2     N12125   3.998   4.012  14.821 -0.5087 -0.0208  0.2627
  820MPD2    H512126   4.041   3.923  14.840 -0.2844  0.3549  1.5138
  820MPD2    N112127   3.730   4.190  14.456 -0.0044 -0.6282  0.3122
  820MPD2    H712128   3.689   4.160  14.368 -1.5055  0.9706  0.4665
  821MPD2     C12129   3.958   0.759  13.844  0.5756 -0.6036  1.1188
  821MPD2    C112130   4.086   0.714  13.870  0.3365  0.3143 -0.3488
  821MPD2    C212131   4.200   0.777  13.816 -0.1629  0.2164  0.3905
  821MPD2    C312132   4.189   0.884  13.728  0.5991 -0.6622  0.7099
  821MPD2    C412133   4.059   0.925  13.705 -0.5065 -0.2957  0.7675
  821MPD2    C512134   3.948   0.863  13.757 -0.2600  0.0198  0.0683
  821MPD2     H12135   4.298   0.738  13.842 -0.6432 -1.5877 -0.5401
  821MPD2    H112136   4.037   1.007  13.638  2.1085 -0.6858 -0.5807
  821MPD2    H212137   3.865   0.719  13.884 -0.6161  3.8672  2.8034
  821MPD2    H312138   3.849   0.902  13.735  0.0156 -1.2629 -3.4573
  821MPD2     N12139   4.291   0.943  13.646  0.2568 -0.1092  0.6342
  821MPD2    H512140   4.262   1.011  13.577 -1.9841 -0.2752  1.4223
  821MPD2    N112141   4.115   0.616  13.969 -0.0668 -0.2122 -0.1137
  821MPD2    H712142   4.211   0.583  13.977 -0.6275 -1.0529  3.3627
  822MPD2     C12143   0.360   1.053  15.574 -0.3594  0.3614 -0.4534
  822MPD2    C112144   0.340   1.003  15.700 -0.4791  0.3560  0.4669
  822MPD2    C212145   0.290   1.087  15.795 -0.2326 -0.1558 -0.3773
  822MPD2    C312146   0.257   1.217  15.773  0.2768 -0.3454 -0.0562
  822MPD2    C412147   0.275   1.267  15.649 -0.5357 -0.0850  0.2427
  822MPD2    C512148   0.322   1.185  15.548 -0.1358 -0.2713  0.2841
  822MPD2     H12149   0.268   1.048  15.894  1.0773  2.1682  0.8252
  822MPD2    H112150   0.242   1.363  15.612 -0.7702  0.1689  1.0975
  822MPD2    H212151   0.410   0.997  15.496  0.6433  1.1743 -0.4044
  822MPD2    H312152   0.328   1.230  15.449  0.3788 -0.7313  0.1037
  822MPD2     N12153   0.205   1.293  15.880  0.1728 -0.1725  0.1859
  822MPD2    H512154   0.202   1.241  15.966 -3.0458 -1.4122 -0.6833
  822MPD2    N112155   0.382   0.873  15.743  0.5308 -0.5151 -0.4829
  822MPD2    H712156   0.366   0.843  15.839 -2.5642  0.2917 -0.7276
  823MPD2     C12157   0.080   1.473  16.700 -0.3963  0.1679  0.1769
  823MPD2    C112158   0.056   1.402  16.588 -0.6537 -0.5560 -0.4572
  823MPD2    C212159   0.029   1.266  16.602 -0.9762  0.2119  0.3775
  823MPD2    C312160   0.021   1.206  16.729 -0.2674  0.1707  0.0347
  823MPD2    C412161   0.042   1.288  16.844 -0.9087  0.2450 -0.3081
  823MPD2    C512162   0.086   1.418  16.826 -0.1612  0.4700  0.5989
  823MPD2     H12163   0.021   1.205  16.513  1.9664  1.3085 -0.6657
  823MPD2    H112164   0.041   1.239  16.941 -1.7887 -1.2257 -1.0449
  823MPD2    H212165   0.094   1.580  16.698 -1.7531  0.3164 -1.1476
  823MPD2    H312166   0.114   1.487  16.904 -0.2762  0.3505  0.7449
  823MPD2     N12167   4.720   1.068  16.746  0.1864  0.4239 -0.0805
  823MPD2    H512168   4.709   1.039  16.843 -2.6661 -0.8018 -0.7786
  823MPD2    N112169   0.067   1.460  16.465  0.1989 -0.2858 -0.2456
  823MPD2    H712170   0.106   1.553  16.477  2.1214 -0.9590 -1.2896
  824MPD2     C12171   0.767   0.034  15.817  0.1464  0.1608 -0.0775
  824MPD2    C112172   0.780   0.139  15.726 -0.0844 -0.4909 -0.1278
  824MPD2    C212173   0.863   0.121  15.616  0.4540 -0.1737 -0.3749
  824MPD2    C312174   0.928   4.735  15.600  0.5282 -0.4368 -0.0777
  824MPD2    C412175   0.914   4.636  15.694 -0.8757  0.2399 -0.2850
  824MPD2    C512176   0.834   4.655  15.800 -0.8454 -0.0726 -0.5279
  824MPD2     H12177   0.877   0.201  15.544 -1.4400 -1.0129 -1.6747
  824MPD2    H112178   0.947   4.533  15.680  2.9555  1.0711  2.8282
  824MPD2    H212179   0.708   0.042  15.908  0.0645  1.5759 -0.2566
  824MPD2    H312180   0.815   4.582  15.878  1.0912 -1.8448 -1.7212
  824MPD2     N12181   1.012   4.717  15.491  0.4184 -0.2323  0.3797
  824MPD2    H512182   1.026   0.057  15.425 -0.3227 -1.0124 -0.6733
  824MPD2    N112183   0.714   0.255  15.763 -0.1361 -0.7256 -0.8448
  824MPD2    H712184   0.664   0.252  15.851  1.0376 -2.5921 -0.2298
  825MPD2     C12185   1.572   0.303  14.971  0.1417  0.2658 -0.7626
  825MPD2    C112186   1.523   0.301  15.100 -0.5574 -0.3613  0.2941
  825MPD2    C212187   1.534   0.417  15.174 -0.0558  0.3289 -0.6592
  825MPD2    C312188   1.588   0.531  15.126  0.1135 -0.1980 -0.0822
  825MPD2    C412189   1.609   0.531  14.993 -0.0204  0.0968 -0.1349
  825MPD2    C512190   1.618   0.414  14.918  0.4718  0.4231 -0.4825
  825MPD2     H12191   1.509   0.413  15.280 -0.9078  0.2332 -0.8606
  825MPD2    H112192   1.638   0.624  14.945 -1.3983 -0.2575 -1.6513
  825MPD2    H212193   1.570   0.214  14.910  0.7418 -0.1887 -0.1135
  825MPD2    H312194   1.657   0.414  14.817  0.8302  0.5298 -0.3457
  825MPD2     N12195   1.597   0.655  15.193 -0.0993  0.7718  0.8498
  825MPD2    H512196   1.612   0.739  15.139  0.9057 -0.8207 -1.3192
  825MPD2    N112197   1.456   0.180  15.134  0.0723 -0.5135  0.1001
  825MPD2    H712198   1.456   0.106  15.064 -2.2755  1.6979 -2.2364
  826MPD2     C12199   1.234   0.279  13.613  0.3343 -0.0306  0.0350
  826MPD2    C112200   1.249   0.311  13.479  0.0240  0.0285 -0.4699
  826MPD2    C212201   1.140   0.374  13.416  0.0977 -0.5339  0.5346
  826MPD2    C312202   1.036   0.428  13.495  0.0776 -1.0529  0.0680
  826MPD2    C412203   1.035   0.412  13.627 -0.0769 -0.3596  0.2331
  826MPD2    C512204   1.122   0.319  13.682 -0.2089  0.9334 -0.3431
  826MPD2     H12205   1.144   0.389  13.308  1.8076  2.5025  1.0218
  826MPD2    H112206   0.947   0.443  13.682 -0.6945 -1.3383 -0.2170
  826MPD2    H212207   1.307   0.215  13.662  1.2382  0.6972 -0.3664
  826MPD2    H312208   1.114   0.309  13.790  2.4118 -2.6969 -0.4686
  826MPD2     N12209   0.944   0.512  13.428 -0.4220  0.4104 -0.0271
  826MPD2    H512210   0.949   0.517  13.327 -0.5121  1.1179  0.0063
  826MPD2    N112211   1.372   0.278  13.417  0.1767  0.3463  0.3704
  826MPD2    H712212   1.432   0.217  13.472 -2.9695 -0.0280  3.3723
  827MPD2     C12213   1.810   1.538   9.822  0.4663 -0.1296 -0.7281
  827MPD2    C112214   1.751   1.451   9.910  0.0029 -0.3325  0.2819
  827MPD2    C212215   1.630   1.399   9.871  0.0420  0.7401 -0.3436
  827MPD2    C312216   1.557   1.446   9.762 -0.3193 -0.4922  0.0077
  827MPD2    C412217   1.610   1.553   9.703 -0.8894 -0.1137  0.6689
  827MPD2    C512218   1.734   1.597   9.723 -0.1199  0.4746  1.1055
  827MPD2     H12219   1.588   1.313   9.922  0.9745  1.2239  1.2078
  827MPD2    H112220   1.562   1.609   9.624 -1.3119 -1.1245  0.2039
  827MPD2    H212221   1.910   1.580   9.833  0.2484 -0.0596  1.0783
  827MPD2    H312222   1.772   1.672   9.654  0.5139 -0.2088  0.7058
  827MPD2     N12223   1.428   1.393   9.747  0.1151 -0.4530  0.3118
  827MPD2    H512224   1.401   1.318   9.810  3.4664 -1.1340  0.9448
  827MPD2    N112225   1.822   1.416  10.030  0.1619  0.1330  0.0308
  827MPD2    H712226   1.923   1.428  10.031  0.1665  0.2842 -2.0257
  828MPD2     C12227   0.456   0.636  11.789  0.0634  0.1440  0.4809
  828MPD2    C112228   0.364   0.733  11.762  0.2712 -0.2462 -0.7067
  828MPD2    C212229   0.371   0.791  11.641  0.0378  0.5449  0.0129
  828MPD2    C312230   0.449   0.747  11.536 -0.3812 -0.1621 -0.0703
  828MPD2    C412231   0.540   0.642  11.561 -0.1231  0.3261  0.2397
  828MPD2    C512232   0.547   0.594  11.689  0.4711  0.0067  0.4239
  828MPD2     H12233   0.309   0.879  11.622 -0.4485  0.2609  0.2965
  828MPD2    H112234   0.603   0.594  11.488  1.0269  0.9225  0.8402
  828MPD2    H212235   0.441   0.575  11.878 -0.5034 -2.4994 -1.4181
  828MPD2    H312236   0.614   0.516  11.722  0.4420  0.0624  0.6202
  828MPD2     N12237   0.433   0.786  11.399 -0.1631 -0.5452  0.0598
  828MPD2    H512238   0.487   0.729  11.334  1.2141 -1.7748  2.2897
  828MPD2    N112239   0.273   0.780  11.859  0.3186 -0.0433 -0.2678
  828MPD2    H712240   0.205   0.849  11.831 -1.3779 -1.0714  1.3239
  829MPD2     C12241   4.251   1.208  11.781 -1.0502  0.1899  0.3732
  829MPD2    C112242   4.225   1.160  11.901  0.1060  0.2730 -0.2369
  829MPD2    C212243   4.321   1.082  11.966  0.0621 -0.4553  0.7970
  829MPD2    C312244   4.444   1.068  11.901 -0.3275 -1.0493 -0.6334
  829MPD2    C412245   4.467   1.126  11.776 -0.1597  0.0591  0.0105
  829MPD2    C512246   4.370   1.189  11.716 -0.4334 -0.4946  0.0962
  829MPD2     H12247   4.289   1.038  12.059 -1.7331  0.5897  0.6556
  829MPD2    H112248   4.553   1.111  11.713 -0.5932 -1.1883 -0.2793
  829MPD2    H212249   4.180   1.270  11.729  0.8886  2.5797  0.5725
  829MPD2    H312250   4.387   1.236  11.620  0.9689  1.4341  1.2686
  829MPD2     N12251   4.557   1.008  11.975 -0.4452 -0.6340 -0.0243
  829MPD2    H512252   4.644   1.027  11.927  0.2694 -1.9558  0.7531
  829MPD2    N112253   4.094   1.181  11.949 -0.2220  0.0185  1.1509
  829MPD2    H712254   4.037   1.236  11.885 -0.6537  0.1287  1.6389
  830MPD2     C12255   0.796   4.168  15.713  0.2173 -0.5144 -0.6081
  830MPD2    C112256   0.693   4.151  15.617 -0.0119  0.0562  0.4322
  830MPD2    C212257   0.733   4.134  15.486 -0.3382 -0.0373  0.7409
  830MPD2    C312258   0.866   4.133  15.455  0.4597 -0.7151 -0.3517
  830MPD2    C412259   0.968   4.149  15.552  1.1094  0.6501 -0.3042
  830MPD2    C512260   0.933   4.166  15.683 -0.4851 -0.4861  0.3786
  830MPD2     H12261   0.655   4.139  15.411 -0.0464 -0.9464  0.3775
  830MPD2    H112262   1.074   4.166  15.533  1.2932 -2.3529 -1.9201
  830MPD2    H212263   0.771   4.182  15.818  1.0741  1.2115 -0.6353
  830MPD2    H312264   1.015   4.182  15.751  0.2213 -1.0948 -0.3150
  830MPD2     N12265   0.918   4.136  15.325  0.4570  0.1419  0.6105
  830MPD2    H512266   1.018   4.145  15.316  0.0745  2.1595 -1.4932
  830MPD2    N112267   0.559   4.142  15.667 -0.2603 -0.4041  0.0046
  830MPD2    H712268   0.543   4.141  15.767  0.3927  2.1693  0.1220
  831MPD2     C12269   0.408   1.216  16.237 -0.2199  0.0489  0.5900
  831MPD2    C112270   0.441   1.123  16.133 -0.5153 -0.2836 -0.0853
  831MPD2    C212271   0.356   1.014  16.111  0.7075 -0.4479 -0.3306
  831MPD2    C312272   0.233   1.001  16.186 -0.1557 -0.1319  0.1184
  831MPD2    C412273   0.212   1.086  16.292 -0.0413  1.1393 -0.5340
  831MPD2    C512274   0.297   1.192  16.312  0.3032  0.0368  0.1246
  831MPD2     H12275   0.389   0.939  16.040 -2.0574 -1.3552 -0.6676
  831MPD2    H112276   0.125   1.082  16.357 -0.5778  1.0540 -1.2567
  831MPD2    H212277   0.467   1.306  16.243  0.4509 -0.1709 -2.6125
  831MPD2    H312278   0.272   1.262  16.391  0.2577  1.3850 -1.0816
  831MPD2     N12279   0.132   0.911  16.161  0.2183 -0.2329  0.6803
  831MPD2    H512280   0.056   0.907  16.228 -0.1342 -2.1513  0.1700
  831MPD2    N112281   0.551   1.151  16.043 -0.2934  0.5218 -0.8311
  831MPD2    H712282   0.590   1.244  16.036  0.2679  0.3182 -0.3437
  832MPD2     C12283   3.631   2.153  17.389  0.2016  0.0960  0.0764
  832MPD2    C112284   3.624   2.267  17.312 -0.3001  0.2794 -0.3888
  832MPD2    C212285   3.502   2.311  17.259 -0.6763 -0.3440 -0.0563
  832MPD2    C312286   3.383   2.255  17.313  0.8316  0.0423 -0.1950
  832MPD2    C412287   3.386   2.138  17.389  0.0208 -0.0878 -0.0781
  832MPD2    C512288   3.510   2.091  17.428  0.5925 -0.3317  0.3140
  832MPD2     H12289   3.488   2.411  17.219 -1.4567 -0.6463 -0.5317
  832MPD2    H112290   3.297   2.079  17.411  1.8375 -2.1278  1.7274
  832MPD2    H212291   3.727   2.111  17.417  0.6243 -0.3913 -2.1449
  832MPD2    H312292   3.506   1.995  17.478  2.5436 -0.8468 -0.5314
  832MPD2     N12293   3.254   2.303  17.284 -0.1536  0.1455  0.2724
  832MPD2    H512294   3.178   2.245  17.318 -0.9365  1.2638  0.4526
  832MPD2    N112295   3.746   2.337  17.275  0.0658  0.1323  0.3131
  832MPD2    H712296   3.833   2.297  17.310  0.1528  0.1222  0.0819
  833MPD2     C12297   0.898   3.364  12.798  0.0570  0.5057 -0.4401
  833MPD2    C112298   0.869   3.396  12.668  0.3149  0.0397  0.6170
  833MPD2    C212299   0.858   3.302  12.571 -0.2933 -0.4926  0.4016
  833MPD2    C312300   0.886   3.169  12.594  0.1786  0.4016 -0.3474
  833MPD2    C412301   0.929   3.129  12.718 -0.1109 -0.0566  0.2939
  833MPD2    C512302   0.936   3.229  12.816  0.1208  0.1591  0.5258
  833MPD2     H12303   0.816   3.329  12.474 -1.7842  0.2347  1.2589
  833MPD2    H112304   0.976   3.035  12.742 -0.1277  0.2903  1.7005
  833MPD2    H212305   0.900   3.437  12.877  0.7243  0.8548 -0.7744
  833MPD2    H312306   0.975   3.202  12.914 -1.5293 -1.8967  0.6235
  833MPD2     N12307   0.877   3.075  12.495 -0.0882 -0.3738 -0.5133
  833MPD2    H512308   0.890   2.977  12.520  0.1602  0.3083  2.0189
  833MPD2    N112309   0.836   3.526  12.626  0.9661 -1.0928 -0.8345
  833MPD2    H712310   0.816   3.545  12.528  2.2850  1.6716 -0.5747
  834MPD2     C12311   1.135   2.464  11.719 -0.1097 -0.0299 -0.5168
  834MPD2    C112312   1.078   2.565  11.641  0.1707 -0.1845 -0.6868
  834MPD2    C212313   1.052   2.688  11.699  0.0024  0.6191 -0.4806
  834MPD2    C312314   1.075   2.712  11.834  0.0827  0.0031 -0.7089
  834MPD2    C412315   1.142   2.608  11.904 -0.1211  0.1653  0.2645
  834MPD2    C512316   1.167   2.489  11.845  0.0515 -0.3041  1.1271
  834MPD2     H12317   1.002   2.766  11.642  0.4623  0.8500 -0.5634
  834MPD2    H112318   1.151   2.618  12.012  0.6605 -0.6954  0.2697
  834MPD2    H212319   1.148   2.365  11.678 -1.8516 -1.8224  3.2786
  834MPD2    H312320   1.207   2.404  11.900  2.1987  0.5456  0.8710
  834MPD2     N12321   1.033   2.831  11.895  0.2299  0.0010  0.7128
  834MPD2    H512322   0.955   2.873  11.847  1.0300  0.3828 -0.2578
  834MPD2    N112323   1.039   2.533  11.502  0.7281  0.1696 -0.2203
  834MPD2    H712324   1.052   2.437  11.472 -1.2780 -1.1549  3.0579
  835MPD2     C12325   0.415   1.301  10.930 -0.6382  0.1547  0.4541
  835MPD2    C112326   0.348   1.341  11.044  0.6005  0.2761 -0.3683
  835MPD2    C212327   0.391   1.293  11.171 -0.0540 -0.1180 -0.4988
  835MPD2    C312328   0.516   1.230  11.188  0.2189 -0.1168  0.3799
  835MPD2    C412329   0.590   1.205  11.076  0.1484 -0.3032 -0.8037
  835MPD2    C512330   0.538   1.231  10.948 -0.1522 -0.3168 -0.3402
  835MPD2     H12331   0.332   1.315  11.259 -1.9167 -0.5343 -1.6396
  835MPD2    H112332   0.691   1.165  11.083  0.8760  1.8523  1.2148
  835MPD2    H212333   0.385   1.312  10.827 -0.3523  0.6447  0.4192
  835MPD2    H312334   0.590   1.201  10.858  0.2894 -0.7472  0.0600
  835MPD2     N12335   0.569   1.195  11.316 -0.0486  0.0302 -0.4268
  835MPD2    H512336   0.659   1.146  11.316  0.2451  0.5762  0.2675
  835MPD2    N112337   0.231   1.423  11.044  0.0930 -0.0569  0.2186
  835MPD2    H712338   0.167   1.429  11.123 -1.3308  1.4629 -1.0356
  836MPD2     C12339   0.540   0.981  12.226  0.1415 -0.3386  0.4772
  836MPD2    C112340   0.459   1.035  12.131  0.4462  0.0423  0.4478
  836MPD2    C212341   0.333   1.074  12.167  0.1806 -0.8921 -0.1326
  836MPD2    C312342   0.294   1.073  12.299  0.2989  0.0438  0.4200
  836MPD2    C412343   0.378   1.028  12.393  0.1587 -0.2737  0.2228
  836MPD2    C512344   0.500   0.972  12.354  0.9366  1.1915 -0.0749
  836MPD2     H12345   0.261   1.116  12.098 -0.4496 -0.8849  0.5312
  836MPD2    H112346   0.351   1.030  12.498  0.6214  0.7263  0.3309
  836MPD2    H212347   0.637   0.944  12.194 -0.7998 -1.1957 -1.4047
  836MPD2    H312348   0.560   0.926  12.432 -1.0573 -0.0768  0.6964
  836MPD2     N12349   0.162   1.115  12.350  0.2768  0.1713  0.0706
  836MPD2    H512350   0.147   1.098  12.449 -0.6793  2.5767  0.3346
  836MPD2    N112351   0.514   1.049  12.004 -0.6653  0.3996 -0.1396
  836MPD2    H712352   0.607   1.012  11.984 -0.6076  1.3563 -1.7001
  837MPD2     C12353   3.350   1.052  10.209  0.1378 -0.1121  0.0132
  837MPD2    C112354   3.304   1.075  10.084 -0.0634  0.0327 -1.1191
  837MPD2    C212355   3.312   1.200  10.030 -0.3597 -0.0234 -0.2807
  837MPD2    C312356   3.370   1.302  10.107  0.5150 -0.5969 -0.0256
  837MPD2    C412357   3.422   1.272  10.235  0.4939  0.2256  0.1639
  837MPD2    C512358   3.417   1.147  10.283 -0.3872 -0.1126 -0.3730
  837MPD2     H12359   3.280   1.209   9.927  0.5066 -0.9174 -0.6255
  837MPD2    H112360   3.479   1.340  10.298 -1.4141 -1.2232  3.4363
  837MPD2    H212361   3.340   0.952  10.250 -0.4458  0.2019  0.6406
  837MPD2    H312362   3.464   1.120  10.377  0.1851  0.2162 -0.5655
  837MPD2     N12363   3.365   1.435  10.055  0.1021  0.9511 -0.5047
  837MPD2    H512364   3.336   1.444   9.958  2.5922 -1.3370 -1.4764
  837MPD2    N112365   3.255   0.972  10.004  0.3539  0.6282  0.3088
  837MPD2    H712366   3.231   1.006   9.911  1.0833  1.0377  0.2699
  838MPD2     C12367   1.594   3.692  11.565  0.3191  0.7683 -0.1572
  838MPD2    C112368   1.618   3.774  11.675 -0.2962 -0.5616  0.6953
  838MPD2    C212369   1.557   3.747  11.797 -0.2656 -0.2194 -0.2939
  838MPD2    C312370   1.489   3.631  11.816 -0.9646  0.1514 -0.6480
  838MPD2    C412371   1.458   3.559  11.705  0.6474  0.1522 -0.0193
  838MPD2    C512372   1.504   3.592  11.584 -0.1519  0.1207  0.0351
  838MPD2     H12373   1.591   3.806  11.881  2.1193 -1.5023 -0.3474
  838MPD2    H112374   1.409   3.462  11.702 -0.2624  0.6264 -0.5152
  838MPD2    H212375   1.639   3.701  11.466  0.0125 -2.4878 -0.5807
  838MPD2    H312376   1.486   3.524  11.503 -2.4201 -0.5450  1.0936
  838MPD2     N12377   1.467   3.579  11.944 -0.1927  0.5488  0.1029
  838MPD2    H512378   1.494   3.640  12.021  1.7786  0.8389 -0.8140
  838MPD2    N112379   1.729   3.859  11.676  0.2334 -0.3370 -0.5375
  838MPD2    H712380   1.753   3.911  11.759 -0.8579  0.1804 -0.5488
  839MPD2     C12381   1.920   3.403  12.110 -0.3700 -0.0799 -0.7222
  839MPD2    C112382   1.902   3.432  11.977 -0.0433 -0.4351 -0.5691
  839MPD2    C212383   1.962   3.540  11.923  0.3006 -0.5569  0.0264
  839MPD2    C312384   2.037   3.625  12.008  0.1467 -0.1633  0.9034
  839MPD2    C412385   2.051   3.597  12.139 -0.0923 -0.1327 -0.6877
  839MPD2    C512386   2.000   3.484  12.188 -0.3007  0.4415 -0.3074
  839MPD2     H12387   1.939   3.561  11.819 -1.0334 -1.5991  0.1134
  839MPD2    H112388   2.107   3.664  12.203 -0.2266  0.0057 -0.7146
  839MPD2    H212389   1.886   3.305  12.142 -3.2529  1.7294  1.7306
  839MPD2    H312390   2.014   3.470  12.295  0.4278 -0.9027 -0.5824
  839MPD2     N12391   2.094   3.741  11.950  0.0024  0.4157 -0.0964
  839MPD2    H512392   2.112   3.820  12.011 -0.6488 -0.9692  1.8848
  839MPD2    N112393   1.806   3.358  11.895 -0.0669 -0.1116  0.0091
  839MPD2    H712394   1.798   3.389  11.798 -2.5154 -1.8565 -0.3317
  840MPD2     C12395   2.365   1.629  10.209 -0.0626  0.0960 -0.0830
  840MPD2    C112396   2.296   1.604  10.323 -0.1005  0.7216 -0.0847
  840MPD2    C212397   2.327   1.669  10.436 -0.2948  0.1932 -0.3343
  840MPD2    C312398   2.425   1.767  10.438  0.4480  0.5464 -0.2115
  840MPD2    C412399   2.491   1.804  10.326  1.1519  0.0301  0.1359
  840MPD2    C512400   2.460   1.730  10.207  0.3186  0.0057 -0.0551
  840MPD2     H12401   2.289   1.634  10.531 -0.2227 -1.5473 -0.9512
  840MPD2    H112402   2.565   1.883  10.323  0.2088  1.0677  3.4540
  840MPD2    H212403   2.336   1.570  10.123  1.5962  0.2265 -0.7291
  840MPD2    H312404   2.510   1.751  10.113  0.6651  2.3615  0.6686
  840MPD2     N12405   2.472   1.839  10.550 -0.7096  0.2804 -0.3414
  840MPD2    H512406   2.536   1.915  10.530 -0.1958 -0.7542 -2.6636
  840MPD2    N112407   2.196   1.499  10.315  0.0916 -0.0409  1.1465
  840MPD2    H712408   2.165   1.469  10.223  1.4913 -0.1443  0.7066
  841MPD2     C12409   1.845   1.116  14.339 -0.0729 -0.1549  1.0227
  841MPD2    C112410   1.969   1.168  14.360  0.2659  0.0631  0.0639
  841MPD2    C212411   1.994   1.234  14.480 -0.5027  0.1199  1.1815
  841MPD2    C312412   1.901   1.241  14.582 -0.1020 -0.0298 -0.0813
  841MPD2    C412413   1.777   1.195  14.553 -0.1151  0.5930  0.5586
  841MPD2    C512414   1.751   1.133  14.436 -0.5437 -0.1517  0.2112
  841MPD2     H12415   2.098   1.250  14.505  0.4615 -3.2265 -0.8097
  841MPD2    H112416   1.697   1.197  14.627  1.5237 -0.8136  2.3651
  841MPD2    H212417   1.810   1.057  14.255 -2.3907 -1.4530  2.8826
  841MPD2    H312418   1.653   1.086  14.435 -1.2751  1.4428 -2.1330
  841MPD2     N12419   1.939   1.302  14.715 -0.5948 -0.9275  0.3718
  841MPD2    H512420   2.017   1.366  14.722 -0.6708 -0.7624 -0.2121
  841MPD2    N112421   2.070   1.150  14.269  0.3477  0.3193 -0.0665
  841MPD2    H712422   2.163   1.177  14.299 -0.7085  1.7503  1.9377
  842MPD2     C12423   2.791   2.573  17.174 -0.1657  0.5747  0.2527
  842MPD2    C112424   2.689   2.487  17.149 -0.9256 -0.3671  0.6280
  842MPD2    C212425   2.646   2.398  17.250  0.0431 -0.4135 -0.4424
  842MPD2    C312426   2.729   2.379  17.364  0.4110  0.0458  0.3329
  842MPD2    C412427   2.834   2.463  17.387 -0.8474 -0.0105  0.2492
  842MPD2    C512428   2.856   2.565  17.296 -0.1069  0.3835 -0.3081
  842MPD2     H12429   2.574   2.320  17.226 -0.6433  0.6313 -1.7579
  842MPD2    H112430   2.907   2.463  17.467 -1.2569  1.5184  0.6185
  842MPD2    H212431   2.828   2.639  17.097 -1.1001  0.5981 -0.1795
  842MPD2    H312432   2.936   2.638  17.308 -0.6555  1.2773 -2.0062
  842MPD2     N12433   2.701   2.264  17.444 -0.4537 -0.0447 -0.0314
  842MPD2    H512434   2.619   2.213  17.415 -0.5036 -1.1652  2.0824
  842MPD2    N112435   2.641   2.494  17.017  0.0372  0.2378 -0.0950
  842MPD2    H712436   2.660   2.578  16.964  0.4028  0.0276 -0.2921
  843MPD2     C12437   4.414   3.321  17.501  0.2825  0.1662  0.5899
  843MPD2    C112438   4.517   3.280  17.580  0.2747 -0.4057  0.2250
  843MPD2    C212439   4.610   3.379  17.622  0.7065 -0.2181  0.1061
  843MPD2    C312440   4.593   3.511  17.590 -0.1854  0.2704 -0.2464
  843MPD2    C412441   4.480   3.552  17.519 -0.4699  0.1612  0.5444
  843MPD2    C512442   4.388   3.453  17.474  0.2290 -0.2922 -0.1279
  843MPD2     H12443   4.694   3.369  17.689 -0.7363  1.1604  2.1107
  843MPD2    H112444   4.465   3.657  17.495 -0.4502  0.6038  2.4192
  843MPD2    H212445   4.343   3.246  17.469  0.5543  0.7009 -1.2166
  843MPD2    H312446   4.307   3.479  17.407 -0.4524 -1.8793  0.0832
  843MPD2     N12447   4.696   3.595  17.633  0.3635 -0.1696  0.2085
  843MPD2    H512448   0.032   3.546  17.686 -0.0589 -0.2869  0.6692
  843MPD2    N112449   4.537   3.142  17.605  0.2704  0.1601 -0.2475
  843MPD2    H712450   4.468   3.073  17.575 -0.1215  0.3153  0.2913
  844MPD2     C12451   2.859   1.787  16.777  0.1813 -0.3299 -0.0449
  844MPD2    C112452   2.924   1.853  16.673  0.2751 -0.1484  0.0651
  844MPD2    C212453   3.026   1.937  16.694 -1.1688 -0.1926  0.1939
  844MPD2    C312454   3.069   1.967  16.818  0.1745  0.1025 -0.2345
  844MPD2    C412455   3.003   1.906  16.922 -0.3544 -0.8545  0.5123
  844MPD2    C512456   2.892   1.830  16.900  0.6087 -0.5681 -0.6508
  844MPD2     H12457   3.081   1.980  16.611 -0.3206 -2.4250 -0.3839
  844MPD2    H112458   3.038   1.916  17.024  0.6064  1.0415 -0.0083
  844MPD2    H212459   2.774   1.721  16.765 -0.7421  0.9511 -0.4990
  844MPD2    H312460   2.841   1.791  16.987 -1.3649  1.8683 -0.7229
  844MPD2     N12461   3.189   2.039  16.832 -0.1269  0.8701  0.5929
  844MPD2    H512462   3.220   2.088  16.749  1.6226 -2.1692 -0.5436
  844MPD2    N112463   2.885   1.825  16.541 -0.2649  0.3330 -0.5844
  844MPD2    H712464   2.917   1.876  16.459 -1.4287  0.0992 -1.1769
  845MPD2     C12465   3.461   2.975  16.914 -0.5823 -0.1057  0.1128
  845MPD2    C112466   3.547   2.918  17.000 -0.0494 -0.3327  0.3072
  845MPD2    C212467   3.555   2.780  17.003 -0.6986 -0.5658 -0.6376
  845MPD2    C312468   3.490   2.704  16.903 -0.3210 -0.4664 -0.1303
  845MPD2    C412469   3.417   2.767  16.803 -0.4181 -0.0029  0.5588
  845MPD2    C512470   3.401   2.905  16.810 -0.0340 -0.2051 -0.1857
  845MPD2     H12471   3.611   2.730  17.081 -2.3030 -0.9864  0.2469
  845MPD2    H112472   3.363   2.716  16.724  0.6410  1.0609 -0.8646
  845MPD2    H212473   3.449   3.083  16.910 -0.7579 -0.0502  1.9856
  845MPD2    H312474   3.337   2.954  16.738 -1.9628 -0.5203  1.3214
  845MPD2     N12475   3.493   2.563  16.919  0.5571  0.4123  0.1283
  845MPD2    H512476   3.552   2.537  16.997  3.4008  0.4155 -2.0036
  845MPD2    N112477   3.609   2.999  17.097  0.1238 -0.2711  0.0617
  845MPD2    H712478   3.587   3.098  17.094 -0.7076 -0.4114  1.3975
  846MPD2     C12479   0.415   3.066  13.560 -0.6283 -0.0573 -0.0660
  846MPD2    C112480   0.325   3.164  13.568  0.0821 -0.2179 -0.3728
  846MPD2    C212481   0.296   3.221  13.693 -0.7570 -0.5281 -0.6928
  846MPD2    C312482   0.366   3.179  13.803 -0.8546  0.0029 -0.4070
  846MPD2    C412483   0.451   3.075  13.788  0.8435  0.2428 -0.5243
  846MPD2    C512484   0.491   3.033  13.666  1.3881  0.0630 -0.1133
  846MPD2     H12485   0.229   3.306  13.700 -0.2681 -0.2539  0.5505
  846MPD2    H112486   0.515   3.054  13.874 -0.7321  0.0622  0.6048
  846MPD2    H212487   0.439   3.024  13.463 -0.4275  1.2516 -0.5870
  846MPD2    H312488   0.577   2.966  13.662  2.7938  1.9288 -1.2364
  846MPD2     N12489   0.356   3.244  13.926 -0.3542 -0.5634  0.0566
  846MPD2    H512490   0.319   3.339  13.919 -0.6768 -0.6701  0.3121
  846MPD2    N112491   0.278   3.236  13.457  0.0919 -0.5247 -0.2795
  846MPD2    H712492   0.222   3.316  13.483  0.4739 -0.1466 -0.6161
  847MPD2     C12493   1.276   4.685  14.005  0.6388 -0.0747  0.3573
  847MPD2    C112494   1.341   0.063  14.040 -0.5439 -0.6323 -0.3127
  847MPD2    C212495   1.479   0.079  14.024  0.1046  0.4741 -0.5825
  847MPD2    C312496   1.557   4.716  13.972  0.2982 -0.1199 -0.6294
  847MPD2    C412497   1.493   4.599  13.930  0.4066 -0.5080  1.1788
  847MPD2    C512498   1.358   4.585  13.951  0.6968  0.2725  0.2596
  847MPD2     H12499   1.518   0.175  14.055  1.5958 -0.1002 -0.6624
  847MPD2    H112500   1.550   4.516  13.890  0.6585  0.2449 -0.0527
  847MPD2    H212501   1.174   4.667  14.036  0.6842 -2.0781 -0.6822
  847MPD2    H312502   1.306   4.491  13.939 -0.6781  0.9205  1.0348
  847MPD2     N12503   1.697   0.009  13.969  0.4828 -0.2086  0.3662
  847MPD2    H512504   1.726   0.098  14.008  0.3092  0.1665 -0.3652
  847MPD2    N112505   1.278   0.174  14.102 -0.1296 -0.0005 -0.4337
  847MPD2    H712506   1.331   0.261  14.099  0.6631 -0.5000 -1.0969
  848MPD2     C12507   2.943   2.546  16.517  0.2863  0.2519 -0.1765
  848MPD2    C112508   2.992   2.596  16.639 -0.1355 -0.3177 -0.2889
  848MPD2    C212509   3.039   2.727  16.637  0.1410  0.3666  0.7153
  848MPD2    C312510   3.019   2.808  16.527  0.1748 -0.0818 -0.0751
  848MPD2    C412511   2.965   2.754  16.416 -0.1751  0.3236  0.5711
  848MPD2    C512512   2.927   2.621  16.405  0.4226 -0.6011 -0.1304
  848MPD2     H12513   3.091   2.754  16.728 -0.3828  1.0653  0.8096
  848MPD2    H112514   2.950   2.819  16.331  1.4573 -0.2687 -0.1727
  848MPD2    H212515   2.907   2.444  16.507  0.7047  0.1780 -0.9430
  848MPD2    H312516   2.883   2.586  16.313  1.5501  0.9127 -1.2402
  848MPD2     N12517   3.059   2.940  16.520  0.2474  0.3027 -0.0419
  848MPD2    H512518   3.064   2.975  16.425  2.0464 -1.0584 -0.4539
  848MPD2    N112519   3.003   2.529  16.762 -0.3742 -0.1505 -0.5270
  848MPD2    H712520   3.048   2.578  16.838 -0.2850  3.4159 -2.8705
  849MPD2     C12521   2.299   2.128  14.082  0.4707 -0.0873  0.0634
  849MPD2    C112522   2.375   2.057  14.166  0.1160 -0.4019 -0.0193
  849MPD2    C212523   2.452   2.103  14.264  0.3277  0.0821 -0.1806
  849MPD2    C312524   2.473   2.240  14.273 -0.5645 -0.0301  0.3696
  849MPD2    C412525   2.402   2.318  14.189 -0.1576 -0.3138 -0.0695
  849MPD2    C512526   2.323   2.264  14.090 -0.0324  0.1808 -0.2859
  849MPD2     H12527   2.509   2.038  14.329 -0.6417  0.3123  0.8860
  849MPD2    H112528   2.409   2.426  14.185  0.8987 -0.4213 -1.1466
  849MPD2    H212529   2.233   2.093  14.004  0.1181 -0.5456  0.5635
  849MPD2    H312530   2.278   2.339  14.025  1.2986  1.1488 -0.0784
  849MPD2     N12531   2.568   2.289  14.356 -0.3201 -0.3387  0.0626
  849MPD2    H512532   2.613   2.217  14.412 -0.6164 -0.6377 -0.0830
  849MPD2    N112533   2.393   1.916  14.147  0.8972 -0.6993  0.0841
  849MPD2    H712534   2.465   1.875  14.206  0.4546  0.2113  1.2604
  850MPD2     C12535   0.117   0.408  14.655 -0.3290  0.1377 -0.1111
  850MPD2    C112536   0.164   0.340  14.765 -0.5728 -0.3378 -0.4904
  850MPD2    C212537   0.303   0.366  14.795  0.3732 -0.2969  0.0749
  850MPD2    C312538   0.376   0.468  14.728 -0.4164  0.2175  1.0481
  850MPD2    C412539   0.317   0.538  14.631  0.4924 -0.1595 -0.1001
  850MPD2    C512540   0.189   0.508  14.591 -0.0805  0.0805  0.2263
  850MPD2     H12541   0.354   0.301  14.866  2.6573  0.4235 -0.9067
  850MPD2    H112542   0.367   0.623  14.586 -2.6841  1.7300 -0.0426
  850MPD2    H212543   0.026   0.369  14.613  0.9829 -0.0657 -2.7427
  850MPD2    H312544   0.145   0.561  14.507 -0.4821  1.0885  1.0697
  850MPD2     N12545   0.506   0.500  14.763  0.1559 -0.4634  0.8129
  850MPD2    H512546   0.547   0.572  14.704  2.1703 -1.9801  0.3311
  850MPD2    N112547   0.076   0.246  14.822 -0.4998 -0.2944 -0.1952
  850MPD2    H712548   4.732   0.227  14.762 -0.6747 -0.3034  0.0377
  851MPD2     C12549   0.835   0.197  15.210  0.1933 -0.4298  0.1126
  851MPD2    C112550   0.728   0.117  15.158  0.3674 -0.1871  1.3005
  851MPD2    C212551   0.763   4.730  15.105 -0.3126 -0.4749  0.7507
  851MPD2    C312552   0.892   4.685  15.094  0.2429 -0.0159  0.1432
  851MPD2    C412553   0.994   0.038  15.133  0.3771 -0.0966 -0.0533
  851MPD2    C512554   0.963   0.157  15.195 -0.2837 -0.4124 -0.6449
  851MPD2     H12555   0.692   4.668  15.052  0.3679 -0.0507 -0.6682
  851MPD2    H112556   1.097   0.008  15.124  0.4480  0.4768 -1.1309
  851MPD2    H212557   0.816   0.295  15.252  1.1260  0.2981 -1.1578
  851MPD2    H312558   1.038   0.223  15.238 -1.1602  2.0625 -2.9643
  851MPD2     N12559   0.916   4.564  15.028  0.4142 -0.5209  0.0320
  851MPD2    H512560   0.834   4.512  14.998 -0.6210  1.7146 -0.9829
  851MPD2    N112561   0.596   0.161  15.179  0.3477 -0.6610  0.0960
  851MPD2    H712562   0.580   0.259  15.203  1.8196 -0.1572 -0.9912
  852MPD2     C12563   4.400   2.866  10.260  0.2561 -0.5301  0.1331
  852MPD2    C112564   4.469   2.904  10.371  0.1235 -0.3760 -0.6459
  852MPD2    C212565   4.588   2.979  10.357 -0.0879 -0.0110 -0.0053
  852MPD2    C312566   4.633   3.021  10.231 -0.3302  0.6887 -0.6756
  852MPD2    C412567   4.564   2.977  10.123 -0.0938  0.6941  0.4573
  852MPD2    C512568   4.456   2.896  10.138 -0.3716  0.2499 -0.7521
  852MPD2     H12569   4.647   2.995  10.446 -2.0369 -1.6306  1.5762
  852MPD2    H112570   4.588   2.999  10.019  0.4285  1.2698  0.7008
  852MPD2    H212571   4.310   2.805  10.257 -0.6779  0.8117  1.2829
  852MPD2    H312572   4.405   2.869  10.046 -0.0112  2.2184 -1.5326
  852MPD2     N12573   0.013   3.102  10.228  0.3936  0.0117 -0.5194
  852MPD2    H512574   0.061   3.122  10.316  0.2766  0.3771 -0.5356
  852MPD2    N112575   4.435   2.864  10.504 -0.5202  0.1581 -0.2117
  852MPD2    H712576   4.494   2.893  10.581  2.6285 -1.2988 -2.0810
  853MPD2     C12577   1.719   2.158  12.437 -0.1685  0.5130 -0.3888
  853MPD2    C112578   1.617   2.244  12.406 -0.0059 -0.3809 -0.0635
  853MPD2    C212579   1.584   2.254  12.271  0.0379 -1.0698  0.1941
  853MPD2    C312580   1.661   2.198  12.172 -0.3235 -0.2197  0.5683
  853MPD2    C412581   1.765   2.112  12.210  0.0768  0.5106  0.3132
  853MPD2    C512582   1.795   2.093  12.337 -0.0138  0.2056 -0.1598
  853MPD2     H12583   1.504   2.322  12.245  3.0619  2.2429 -0.4213
  853MPD2    H112584   1.826   2.061  12.136  0.8734  0.1268  1.2326
  853MPD2    H212585   1.753   2.135  12.537  0.3285  2.3448 -0.1426
  853MPD2    H312586   1.870   2.024  12.374  1.7116  1.4447 -1.3756
  853MPD2     N12587   1.644   2.229  12.032  0.0900  0.6122 -0.0006
  853MPD2    H512588   1.719   2.204  11.969 -0.3617  0.0999 -0.3395
  853MPD2    N112589   1.536   2.305  12.508  0.1370  0.3774  0.2429
  853MPD2    H712590   1.559   2.293  12.606 -1.5120  1.2288  0.7353
  854MPD2     C12591   3.879   3.230  12.985  0.0774 -0.0684 -0.0145
  854MPD2    C112592   3.786   3.162  13.058  0.3480  0.8477  0.7833
  854MPD2    C212593   3.809   3.030  13.093 -0.1124  0.4197  0.0804
  854MPD2    C312594   3.926   2.967  13.058  0.7287  0.6458  0.9675
  854MPD2    C412595   4.020   3.029  12.979  0.1812 -0.5692  0.3437
  854MPD2    C512596   3.994   3.165  12.953  0.7278 -0.6565 -0.3633
  854MPD2     H12597   3.739   2.975  13.155  1.6983 -0.2660  1.5192
  854MPD2    H112598   4.114   2.977  12.962 -0.0513 -0.9062  0.0994
  854MPD2    H212599   3.876   3.336  12.965 -0.2093 -0.2391 -0.8770
  854MPD2    H312600   4.070   3.213  12.891  1.3001 -0.0410  0.8197
  854MPD2     N12601   3.954   2.832  13.095 -0.1250  0.7279  0.3544
  854MPD2    H512602   4.052   2.804  13.093 -0.1894  0.5848 -1.3535
  854MPD2    N112603   3.672   3.242  13.096  0.2688 -0.5760 -0.0857
  854MPD2    H712604   3.681   3.342  13.085  1.8668 -0.6731  0.2278
  855MPD2     C12605   4.437   2.742  13.750  1.0300  0.0527 -1.0305
  855MPD2    C112606   4.413   2.613  13.726 -0.6395 -0.0018 -0.8017
  855MPD2    C212607   4.357   2.576  13.601  0.2680  0.8695  0.3304
  855MPD2    C312608   4.327   2.673  13.505 -0.1899 -0.1980 -0.3296
  855MPD2    C412609   4.364   2.803  13.532  0.5699 -1.0050 -0.1174
  855MPD2    C512610   4.425   2.837  13.653  0.2300 -0.2485 -0.3964
  855MPD2     H12611   4.329   2.473  13.585 -0.8483  1.1464  0.4964
  855MPD2    H112612   4.355   2.874  13.450 -0.7882  0.5753  1.4236
  855MPD2    H212613   4.471   2.774  13.848 -0.4601 -1.1396 -0.1112
  855MPD2    H312614   4.456   2.941  13.655  0.1757 -0.2345 -0.3109
  855MPD2     N12615   4.270   2.645  13.374  0.0230 -0.3501  0.6915
  855MPD2    H512616   4.243   2.723  13.315 -1.1337 -0.6286  0.8473
  855MPD2    N112617   4.435   2.509  13.816 -0.2001  0.1739 -0.1417
  855MPD2    H712618   4.416   2.414  13.785  1.6520 -0.1049 -0.4447
  856MPD2     C12619   1.236   3.322  13.815  0.1711  0.2360  0.1514
  856MPD2    C112620   1.284   3.448  13.837 -0.8604  0.2598 -0.6435
  856MPD2    C212621   1.215   3.553  13.782 -1.1429  0.2784 -0.7628
  856MPD2    C312622   1.100   3.543  13.697 -1.0243  0.8824 -0.3414
  856MPD2    C412623   1.061   3.417  13.671  0.5271  0.2363 -0.0325
  856MPD2    C512624   1.126   3.312  13.734 -0.1192 -0.0126 -0.6622
  856MPD2     H12625   1.244   3.652  13.813 -0.8940 -0.4997  1.4781
  856MPD2    H112626   0.983   3.401  13.598  0.3144 -1.9874  0.6953
  856MPD2    H212627   1.278   3.228  13.849 -1.1042 -0.0325  0.9938
  856MPD2    H312628   1.095   3.209  13.719 -0.8581 -0.1117  1.5724
  856MPD2     N12629   1.035   3.653  13.630 -0.2471 -0.4049  0.0398
  856MPD2    H512630   0.958   3.629  13.569  1.9804 -1.5091 -2.3647
  856MPD2    N112631   1.389   3.474  13.928  0.1829  0.1892  0.7109
  856MPD2    H712632   1.429   3.567  13.932  1.4983 -0.3574  0.4411
  857MPD2     C12633   3.073   0.480  12.683  0.7924  0.2837  1.0788
  857MPD2    C112634   3.090   0.609  12.634  0.1952  0.4081  0.4618
  857MPD2    C212635   3.132   0.714  12.716  0.3970 -0.2233 -0.1449
  857MPD2    C312636   3.160   0.689  12.849  0.1609 -0.5424  0.8225
  857MPD2    C412637   3.152   0.558  12.894 -0.2956 -0.3315 -0.2683
  857MPD2    C512638   3.112   0.453  12.811 -0.4561  0.1562  0.3636
  857MPD2     H12639   3.131   0.816  12.681 -1.6879 -0.2013 -0.0665
  857MPD2    H112640   3.184   0.527  12.993  1.5057  0.4411 -0.6065
  857MPD2    H212641   3.052   0.399  12.614 -1.4056  2.3775 -0.6736
  857MPD2    H312642   3.117   0.353  12.853 -1.6794  0.2670  0.7667
  857MPD2     N12643   3.187   0.803  12.929 -0.0242  0.2473 -0.4713
  857MPD2    H512644   3.209   0.893  12.888 -1.9377  0.3126 -1.3726
  857MPD2    N112645   3.075   0.631  12.497 -0.4694 -0.0091 -0.6462
  857MPD2    H712646   3.036   0.552  12.447  0.5274 -1.4139  0.7747
  858MPD2     C12647   3.155   4.404  16.668 -0.4953 -0.4941 -0.2820
  858MPD2    C112648   3.274   4.412  16.603 -0.1676 -0.1149  0.4820
  858MPD2    C212649   3.347   4.532  16.620 -0.1949 -0.0205  0.2542
  858MPD2    C312650   3.296   4.634  16.697  0.8590  0.1833  0.7553
  858MPD2    C412651   3.168   4.621  16.751 -0.5795  0.0849  0.6702
  858MPD2    C512652   3.094   4.509  16.721 -0.1620 -0.5510  0.0898
  858MPD2     H12653   3.444   4.547  16.575 -1.0355  0.6890 -1.3203
  858MPD2    H112654   3.115   4.692  16.813  0.9242  1.7416  0.0663
  858MPD2    H212655   3.098   4.313  16.651 -0.7189 -0.6874  1.4955
  858MPD2    H312656   2.995   4.510  16.765 -0.6370  0.9030 -1.0180
  858MPD2     N12657   3.364   0.022  16.729  0.2392  0.0379 -0.4814
  858MPD2    H512658   3.319   0.091  16.789  0.4375  0.6387 -1.0235
  858MPD2    N112659   3.321   4.296  16.530  0.2987 -0.1291  0.5083
  858MPD2    H712660   3.277   4.206  16.537  0.2699 -0.1979 -0.6095
  859MPD2     C12661   2.174   2.511  15.714  0.1296  0.7123 -0.2654
  859MPD2    C112662   2.120   2.432  15.619 -0.0116 -0.4833  0.3617
  859MPD2    C212663   2.038   2.329  15.661 -0.6133  0.6246 -0.3279
  859MPD2    C312664   2.021   2.302  15.798 -0.9308 -0.6282 -0.5899
  859MPD2    C412665   2.078   2.378  15.892 -0.1432 -0.6898  0.5412
  859MPD2    C512666   2.152   2.485  15.849  0.2223  0.1933  0.1046
  859MPD2     H12667   1.983   2.263  15.595 -0.0102  0.1536 -0.3518
  859MPD2    H112668   2.079   2.367  16.000 -0.2947  1.9277  0.8196
  859MPD2    H212669   2.231   2.594  15.674 -1.5069  3.0874  2.3356
  859MPD2    H312670   2.191   2.558  15.919  1.3948 -2.1373  1.8627
  859MPD2     N12671   1.940   2.205  15.858  0.1322 -0.8789  0.1605
  859MPD2    H512672   1.948   2.201  15.959  2.1260 -3.7661 -0.1100
  859MPD2    N112673   2.169   2.462  15.490  0.2115 -0.5132 -0.2284
  859MPD2    H712674   2.238   2.536  15.487  2.2748 -2.4343 -0.1547
  860MPD2     C12675   4.175   2.268  11.707 -0.1977  0.1365  0.3703
  860MPD2    C112676   4.186   2.252  11.846  1.1305  0.4084  0.1402
  860MPD2    C212677   4.075   2.269  11.920  0.4043 -0.5153 -0.2734
  860MPD2    C312678   3.953   2.302  11.868  0.1741 -0.3384  0.6295
  860MPD2    C412679   3.940   2.322  11.730 -0.1927 -0.3256  0.2944
  860MPD2    C512680   4.054   2.300  11.652  0.2505 -0.6082  0.0235
  860MPD2     H12681   4.082   2.238  12.024  1.1679  0.1931 -0.1093
  860MPD2    H112682   3.848   2.344  11.678  0.1597  0.4805  0.0028
  860MPD2    H212683   4.256   2.245  11.640 -0.9744 -0.0981 -0.4849
  860MPD2    H312684   4.057   2.337  11.550  1.1267 -0.0671  0.2465
  860MPD2     N12685   3.849   2.302  11.963 -0.0257 -0.3728 -0.2814
  860MPD2    H512686   3.877   2.280  12.058  0.6375 -0.4862 -0.5015
  860MPD2    N112687   4.301   2.223  11.917  0.2477  0.2247  0.0116
  860MPD2    H712688   4.285   2.194  12.013  2.4514 -1.5249 -0.1503
  861MPD2     C12689   3.260   0.889  10.663  0.2424 -0.0349 -0.0549
  861MPD2    C112690   3.147   0.848  10.734  0.6642 -0.2071  0.0895
  861MPD2    C212691   3.022   0.885  10.694  0.2692  0.3103 -0.1962
  861MPD2    C312692   3.006   0.963  10.582  0.2734 -0.0633  0.7024
  861MPD2    C412693   3.120   1.009  10.519  0.0411  0.1738 -0.3500
  861MPD2    C512694   3.243   0.981  10.563  0.5239 -0.3407  0.2178
  861MPD2     H12695   2.936   0.860  10.755 -0.8679 -1.7822 -2.7062
  861MPD2    H112696   3.127   1.065  10.426 -1.7715  1.6499  0.4166
  861MPD2    H212697   3.362   0.869  10.696  0.4482  1.6934  0.3450
  861MPD2    H312698   3.334   1.004  10.510  0.8608 -1.6633  0.2209
  861MPD2     N12699   2.877   0.994  10.526  0.0625  0.1895  0.4038
  861MPD2    H512700   2.869   1.065  10.453  2.7549  1.4493  1.3280
  861MPD2    N112701   3.157   0.773  10.853 -0.3747  0.3991 -0.0295
  861MPD2    H712702   3.073   0.783  10.908  0.9396  2.1279  1.6813
  862MPD2     C12703   2.233   1.084  10.153  0.5686 -0.6714 -0.8783
  862MPD2    C112704   2.362   1.083  10.204 -0.3562  0.4141 -0.2950
  862MPD2    C212705   2.408   0.963  10.268 -0.5872 -0.3150  0.3963
  862MPD2    C312706   2.322   0.859  10.295 -0.3619  0.6388  0.4741
  862MPD2    C412707   2.191   0.879  10.262 -0.0142  0.1950  0.1490
  862MPD2    C512708   2.147   0.975  10.184  0.2376 -0.2590 -0.1885
  862MPD2     H12709   2.514   0.941  10.277 -0.6645 -0.6656  0.4428
  862MPD2    H112710   2.122   0.798  10.284 -0.5965  0.1930 -1.7130
  862MPD2    H212711   2.203   1.166  10.088 -0.8976  0.0744  0.7266
  862MPD2    H312712   2.046   0.975  10.144  1.1742 -2.8093 -2.4841
  862MPD2     N12713   2.362   0.738  10.367  0.7035  0.4580 -0.2153
  862MPD2    H512714   2.291   0.667  10.385 -0.0389  0.7090 -2.2106
  862MPD2    N112715   2.446   1.190  10.167 -0.2853  0.0205 -0.2231
  862MPD2    H712716   2.413   1.248  10.091 -3.9868  0.0099  1.4001
  863MPD2     C12717   2.168   3.969  16.286 -0.8127  0.1908 -0.5607
  863MPD2    C112718   2.065   3.909  16.356 -0.2247  0.8600 -0.2835
  863MPD2    C212719   2.088   3.840  16.474 -0.7057 -0.7927  0.4310
  863MPD2    C312720   2.219   3.833  16.520  0.8557  0.6068  0.1890
  863MPD2    C412721   2.321   3.890  16.443 -0.2052 -0.7324  0.6134
  863MPD2    C512722   2.300   3.945  16.324 -0.0171 -0.0041 -0.9640
  863MPD2     H12723   2.006   3.803  16.534 -3.3085  0.7634 -2.1455
  863MPD2    H112724   2.424   3.878  16.473 -0.4493  1.1132  2.1976
  863MPD2    H212725   2.164   4.032  16.198 -0.5478 -0.7626 -1.2565
  863MPD2    H312726   2.376   3.987  16.259  0.6511  0.6167  0.2147
  863MPD2     N12727   2.255   3.761  16.640 -0.1190  0.2935  0.2890
  863MPD2    H512728   2.347   3.777  16.679 -0.7769  0.8716  1.5765
  863MPD2    N112729   1.942   3.923  16.299 -0.1512  0.1626  0.1261
  863MPD2    H712730   1.936   3.975  16.212 -0.0191  2.1295  1.3008
  864MPD2     C12731   2.544   0.077  17.077 -0.0467  0.0261  0.0526
  864MPD2    C112732   2.630   0.014  16.991 -0.0534  0.1510  0.1138
  864MPD2    C212733   2.719   0.093  16.915 -0.6640  0.4290  0.2029
  864MPD2    C312734   2.706   0.233  16.918 -0.3500  0.2835 -0.4140
  864MPD2    C412735   2.619   0.296  17.005 -0.5079 -0.5616 -0.1559
  864MPD2    C512736   2.543   0.218  17.089  0.0112 -0.5504  0.5081
  864MPD2     H12737   2.790   0.050  16.845 -1.7117  0.2798 -0.7706
  864MPD2    H112738   2.622   0.402  17.026 -0.6512  0.0937 -3.5410
  864MPD2    H212739   2.472   0.019  17.133 -0.1243  0.6431  0.5854
  864MPD2    H312740   2.487   0.252  17.176  0.3717 -0.7377  0.8121
  864MPD2     N12741   2.785   0.318  16.835 -0.6931 -0.0457  0.1859
  864MPD2    H512742   2.775   0.419  16.838 -0.5429 -0.1328  2.7917
  864MPD2    N112743   2.608   4.614  16.988  0.1546  0.1058  0.3159
  864MPD2    H712744   2.543   4.576  17.056 -1.0442  0.7674 -0.4632
  865MPD2     C12745   3.019   0.631  16.033 -0.8721 -0.0588 -0.1734
  865MPD2    C112746   3.003   0.535  16.133  0.2166  0.5800  0.1711
  865MPD2    C212747   2.939   0.567  16.253  0.8945  0.6151 -0.6465
  865MPD2    C312748   2.911   0.704  16.279 -0.1591 -0.1657 -0.0289
  865MPD2    C412749   2.933   0.802  16.180 -0.7707  0.2936  0.2402
  865MPD2    C512750   2.985   0.764  16.057  0.6456  1.0336 -0.4506
  865MPD2     H12751   2.910   0.490  16.324 -0.0701  1.9102  0.3841
  865MPD2    H112752   2.910   0.906  16.201 -0.4757  0.3170  0.4526
  865MPD2    H212753   3.064   0.611  15.936  1.8791 -0.2627  1.1475
  865MPD2    H312754   2.999   0.845  15.987  0.7129  0.4719 -1.0838
  865MPD2     N12755   2.853   0.751  16.404 -0.4650  0.2526  0.4477
  865MPD2    H512756   2.823   0.848  16.406 -0.4933  0.1916  2.6541
  865MPD2    N112757   3.034   0.404  16.095 -0.0808  0.3732  0.2172
  865MPD2    H712758   3.085   0.388  16.009 -0.5735  0.3823 -0.0704
  866MPD2     C12759   3.580   0.923  11.172 -0.4069  0.8119  0.5184
  866MPD2    C112760   3.567   0.937  11.036 -0.4802  0.9609  0.1030
  866MPD2    C212761   3.453   1.005  10.982  0.7392 -0.2653  0.1453
  866MPD2    C312762   3.366   1.070  11.076 -0.4115  0.9299 -0.4736
  866MPD2    C412763   3.386   1.056  11.212  0.0379 -0.4170  0.8023
  866MPD2    C512764   3.494   0.990  11.261 -0.2536  0.4206  0.5061
  866MPD2     H12765   3.443   1.027  10.876 -0.0548  0.8170  0.4445
  866MPD2    H112766   3.321   1.098  11.287 -0.1577  1.2485 -0.3108
  866MPD2    H212767   3.670   0.874  11.207  2.0523  4.6661 -0.4607
  866MPD2    H312768   3.520   0.993  11.366  0.1894 -2.7100  0.4894
  866MPD2     N12769   3.254   1.154  11.050  0.3641 -0.7491  0.5379
  866MPD2    H512770   3.192   1.180  11.126 -2.3518 -0.3142 -1.8175
  866MPD2    N112771   3.664   0.870  10.955  0.1095  0.1601 -0.0369
  866MPD2    H712772   3.732   0.805  10.992  2.1640  1.4028 -1.6313
  867MPD2     C12773   0.930   0.120  16.294 -0.9855 -0.0101 -0.6896
  867MPD2    C112774   1.047   0.103  16.358  0.0952 -0.6697 -0.3952
  867MPD2    C212775   1.113   0.202  16.423  0.6650 -0.8685 -0.0720
  867MPD2    C312776   1.055   0.319  16.432 -0.2603  0.0045 -0.6880
  867MPD2    C412777   0.935   0.347  16.375 -0.0579  0.4867 -0.2931
  867MPD2    C512778   0.878   0.246  16.300  0.6669 -0.0872 -0.7016
  867MPD2     H12779   1.207   0.191  16.476 -0.1469  1.2071  1.7638
  867MPD2    H112780   0.883   0.442  16.381 -1.4778 -0.1402 -2.3893
  867MPD2    H212781   0.881   0.040  16.240 -1.6483  0.1621 -0.3455
  867MPD2    H312782   0.785   0.279  16.255 -1.4611 -1.2173  2.8305
  867MPD2     N12783   1.106   0.426  16.505 -0.7889  0.0468 -0.3398
  867MPD2    H512784   1.044   0.506  16.513 -0.1192  0.2913  2.6157
  867MPD2    N112785   1.103   4.710  16.347 -0.3001 -0.0680  0.2502
  867MPD2    H712786   1.062   4.647  16.278 -2.7340 -1.7302  3.2303
  868MPD2     C12787   3.312   4.523  13.018  0.8181  0.6110 -0.4623
  868MPD2    C112788   3.359   4.425  13.094 -0.6456  0.2203  0.0083
  868MPD2    C212789   3.286   4.402  13.208  0.7865 -1.1209 -0.2522
  868MPD2    C312790   3.182   4.473  13.251 -0.7613 -0.2924  0.4486
  868MPD2    C412791   3.158   4.590  13.184 -0.3377 -0.4627  0.5346
  868MPD2    C512792   3.213   4.612  13.062 -0.2954 -0.5168  0.7243
  868MPD2     H12793   3.307   4.316  13.270  3.4898  0.4334  1.0021
  868MPD2    H112794   3.082   4.660  13.219 -0.3064 -1.3031  2.2664
  868MPD2    H212795   3.347   4.544  12.918 -0.8476  1.7175 -0.8220
  868MPD2    H312796   3.190   4.700  13.003  1.8022 -0.5808 -0.1738
  868MPD2     N12797   3.108   4.434  13.369  0.4305 -0.1976  0.1846
  868MPD2    H512798   3.143   4.354  13.422  1.8645 -0.1240 -0.6236
  868MPD2    N112799   3.477   4.348  13.053  0.1843 -0.1530  0.6274
  868MPD2    H712800   3.531   4.381  12.975 -0.7322  0.3030  0.1787
  869MPD2     C12801   4.695   2.053   1.150 -0.6551  0.2995 -0.1067
  869MPD2    C112802   4.705   2.130   1.031  0.4519 -0.6243  0.2570
  869MPD2    C212803   0.095   2.184   1.008  0.4308  0.0214  0.5995
  869MPD2    C312804   0.201   2.169   1.098 -0.1734 -0.1597  0.9232
  869MPD2    C412805   0.192   2.085   1.204  0.4953  0.3367 -0.5713
  869MPD2    C512806   0.069   2.022   1.229  0.4354 -0.2609 -0.3383
  869MPD2     H12807   0.118   2.261   0.935  0.8977  0.1996  0.9342
  869MPD2    H112808   0.270   2.075   1.277  0.6744 -0.1098 -0.8214
  869MPD2    H212809   4.597   2.009   1.168 -1.0030  1.0289 -0.2237
  869MPD2    H312810   0.070   1.949   1.310  0.8819 -2.6330 -2.4691
  869MPD2     N12811   0.327   2.237   1.089  0.7615 -0.6646  0.1031
  869MPD2    H512812   0.395   2.202   1.156  0.7023  0.2757  0.6421
  869MPD2    N112813   4.587   2.157   0.960 -0.9338 -0.0741  0.4452
  869MPD2    H712814   4.503   2.118   1.002  0.2109 -1.7963  1.1379
  870MPD2     C12815   0.085   0.449   1.538 -0.5091 -0.1981  0.4905
  870MPD2    C112816   0.044   0.455   1.408  0.0845 -0.1223 -0.1432
  870MPD2    C212817   4.672   0.537   1.376 -0.2686 -0.4588  0.5660
  870MPD2    C312818   4.619   0.625   1.473 -0.4218  0.6735  0.2832
  870MPD2    C412819   4.661   0.615   1.600  0.6153 -0.1217 -0.3221
  870MPD2    C512820   0.017   0.516   1.633 -0.0497 -0.1179 -0.2033
  870MPD2     H12821   4.630   0.544   1.276 -1.9141 -1.8384  1.1460
  870MPD2    H112822   4.623   0.673   1.683  1.3882  0.8422 -0.6503
  870MPD2    H212823   0.161   0.381   1.575 -2.1617 -1.4224  1.5958
  870MPD2    H312824   0.050   0.507   1.736  0.2648  0.1246 -0.2819
  870MPD2     N12825   4.518   0.719   1.435 -0.1208  0.3125  0.3417
  870MPD2    H512826   4.499   0.724   1.335 -2.7368 -1.2577  0.7501
  870MPD2    N112827   0.109   0.373   1.314  0.1362 -0.3365  0.1361
  870MPD2    H712828   0.187   0.313   1.338 -0.2141 -0.1480  1.7995
  871MPD2     C12829   0.244   0.563  16.241 -0.1756  0.1100  1.0859
  871MPD2    C112830   0.189   0.488  16.343  0.0288 -0.4763 -0.2545
  871MPD2    C212831   0.140   0.361  16.313 -0.1083 -0.5274 -0.0764
  871MPD2    C312832   0.150   0.303  16.184  0.3954  0.1889  0.8136
  871MPD2    C412833   0.192   0.384  16.087 -0.2814  0.0702 -0.3322
  871MPD2    C512834   0.239   0.505  16.119  0.2199  0.5404  0.3464
  871MPD2     H12835   0.092   0.300  16.389 -0.3212 -0.3500 -0.0684
  871MPD2    H112836   0.188   0.358  15.982 -0.4136  0.2297 -0.3667
  871MPD2    H212837   0.279   0.665  16.242 -1.0942  0.4386 -0.1996
  871MPD2    H312838   0.258   0.565  16.030  1.9606  0.6265  0.7740
  871MPD2     N12839   0.115   0.172  16.162  0.6423  1.0078  0.1404
  871MPD2    H512840   0.096   0.117  16.246  2.3462 -1.9898 -1.4100
  871MPD2    N112841   0.172   0.559  16.465 -0.1637 -0.6447 -0.1132
  871MPD2    H712842   0.206   0.655  16.471 -1.5536 -0.0964 -1.0584
  872MPD2     C12843   1.402   2.515  13.856  0.1104  0.7993 -0.4777
  872MPD2    C112844   1.381   2.650  13.834  0.8113 -1.0693 -0.5197
  872MPD2    C212845   1.271   2.710  13.889 -0.4055  1.0323  0.2164
  872MPD2    C312846   1.179   2.633  13.962 -0.4623 -0.1032  0.2294
  872MPD2    C412847   1.193   2.496  13.975  0.4361 -0.9312  0.1483
  872MPD2    C512848   1.312   2.440  13.926  0.1294 -0.5456 -0.1440
  872MPD2     H12849   1.262   2.817  13.878  0.7844  1.0452 -0.5991
  872MPD2    H112850   1.115   2.438  14.022 -0.6114  0.5076  0.1602
  872MPD2    H212851   1.493   2.462  13.830  0.2487  1.2071 -0.8296
  872MPD2    H312852   1.336   2.335  13.937  1.0681  0.0531  3.3680
  872MPD2     N12853   1.070   2.681  14.040 -0.6294 -0.0829 -0.4589
  872MPD2    H512854   1.041   2.618  14.114 -1.9932 -0.4937 -1.3598
  872MPD2    N112855   1.484   2.739  13.787 -0.5267  0.3218  0.8317
  872MPD2    H712856   1.461   2.837  13.797 -1.0793  0.2140  0.6041
  873MPD2     C12857   2.553   2.620   0.701  0.6487  0.5903  0.3934
  873MPD2    C112858   2.649   2.586   0.796  0.2286  0.2162  0.1869
  873MPD2    C212859   2.722   2.468   0.777 -0.4700 -0.4982  0.0411
  873MPD2    C312860   2.700   2.386   0.665 -0.4308  0.6860 -0.7276
  873MPD2    C412861   2.601   2.423   0.582  0.0096  0.0859 -0.6267
  873MPD2    C512862   2.519   2.529   0.607 -1.2692 -1.2000  0.3810
  873MPD2     H12863   2.782   2.430   0.859  1.0907 -0.5831 -1.1385
  873MPD2    H112864   2.565   2.349   0.512 -1.1579 -0.6267  0.7245
  873MPD2    H212865   2.507   2.718   0.693  1.6710  0.8829 -2.0174
  873MPD2    H312866   2.436   2.546   0.540  0.0478  3.0091 -0.2287
  873MPD2     N12867   2.753   2.254   0.652  0.3682  0.4010 -0.1299
  873MPD2    H512868   2.717   2.194   0.577 -0.6045  1.5483 -0.5829
  873MPD2    N112869   2.674   2.674   0.900  1.1397 -1.0053 -0.0086
  873MPD2    H712870   2.599   2.741   0.907  1.5483 -0.2641 -2.6101
  874MPD2     C12871   2.491   2.912  16.320  0.9244 -0.4349 -0.4121
  874MPD2    C112872   2.567   2.875  16.419  0.2003  0.2642 -0.8525
  874MPD2    C212873   2.673   2.949  16.463  0.2106 -0.3997 -0.0588
  874MPD2    C312874   2.690   3.080  16.423  0.4873  0.4497 -0.6471
  874MPD2    C412875   2.605   3.130  16.329 -0.6639 -0.9077 -0.1097
  874MPD2    C512876   2.511   3.043  16.283  0.7758 -0.4057 -0.3517
  874MPD2     H12877   2.746   2.894  16.521 -0.0421 -1.2553 -0.5425
  874MPD2    H112878   2.616   3.230  16.290  0.4999 -0.8729  0.2994
  874MPD2    H212879   2.426   2.835  16.280  0.4704 -0.1057 -0.3125
  874MPD2    H312880   2.452   3.073  16.196  1.0023 -0.5731 -0.5633
  874MPD2     N12881   2.799   3.155  16.466  0.3161 -0.1237 -0.0706
  874MPD2    H512882   2.864   3.109  16.528 -0.5595 -1.0067  0.1995
  874MPD2    N112883   2.535   2.747  16.485  0.2196 -0.7491 -0.0991
  874MPD2    H712884   2.479   2.687  16.426 -1.1041 -1.2891  1.7147
  875MPD2     C12885   3.575   1.011  14.142  0.8571  0.1173  0.6356
  875MPD2    C112886   3.504   1.131  14.127 -0.0742  0.5185 -0.6353
  875MPD2    C212887   3.488   1.216  14.235 -0.4198  0.4703  0.0270
  875MPD2    C312888   3.544   1.187  14.359 -0.1940 -0.2926 -0.1770
  875MPD2    C412889   3.603   1.060  14.375 -0.0384  0.5920 -0.5032
  875MPD2    C512890   3.600   0.969  14.270 -0.2791 -0.4026 -0.5630
  875MPD2     H12891   3.432   1.309  14.228  0.7535  1.1074 -0.7512
  875MPD2    H112892   3.634   1.034  14.475 -0.9126  0.4879 -0.2602
  875MPD2    H212893   3.583   0.936  14.064 -1.4974 -0.4162  0.9231
  875MPD2    H312894   3.637   0.867  14.277  0.6803 -0.0751 -0.8313
  875MPD2     N12895   3.536   1.271  14.465  0.1893 -0.2027  0.1760
  875MPD2    H512896   3.563   1.235  14.556  2.2535  3.6100  1.0509
  875MPD2    N112897   3.439   1.167  14.008 -0.0663 -0.1771  0.3104
  875MPD2    H712898   3.391   1.256  13.999 -1.1129 -0.5766  1.9413
  876MPD2     C12899   2.408   2.370  16.014  0.2649  0.3228  0.2811
  876MPD2    C112900   2.493   2.337  15.907  0.4917  0.1528  0.9196
  876MPD2    C212901   2.503   2.197  15.880 -0.3161 -0.1944  0.1700
  876MPD2    C312902   2.432   2.103  15.948 -0.5007 -0.3278 -0.5681
  876MPD2    C412903   2.368   2.139  16.068  0.0920 -0.1938 -0.4306
  876MPD2    C512904   2.357   2.272  16.096  0.3684 -0.4893  0.4068
  876MPD2     H12905   2.566   2.169  15.796 -2.8610  0.2075 -1.8730
  876MPD2    H112906   2.313   2.061  16.118  0.2375 -2.0312 -3.1392
  876MPD2    H212907   2.375   2.467  16.049 -0.2201  0.7746 -1.4635
  876MPD2    H312908   2.294   2.303  16.178 -1.1144  0.3664 -1.0735
  876MPD2     N12909   2.434   1.975  15.894  0.2454  0.3279  0.6013
  876MPD2    H512910   2.488   1.961  15.809 -3.3862  0.9435 -1.8072
  876MPD2    N112911   2.577   2.427  15.827  0.0064  0.2919 -0.1445
  876MPD2    H712912   2.629   2.386  15.751  0.4408 -0.6760  0.6732
  877MPD2     C12913   2.469   3.014  15.249 -0.8145 -0.1781  0.1999
  877MPD2    C112914   2.601   2.978  15.267  0.4690 -0.8129 -1.1449
  877MPD2    C212915   2.696   3.025  15.184  0.4989  0.5601 -0.1963
  877MPD2    C312916   2.662   3.090  15.065  0.5369  0.0146 -0.1902
  877MPD2    C412917   2.532   3.123  15.043 -0.3240 -0.0808 -0.1241
  877MPD2    C512918   2.438   3.086  15.136 -0.4393 -0.1470 -1.1863
  877MPD2     H12919   2.798   2.988  15.184 -0.7558 -2.9744 -1.0063
  877MPD2    H112920   2.515   3.178  14.951 -1.5145  2.0998  1.3978
  877MPD2    H212921   2.387   2.976  15.308 -0.2240 -0.2285  0.9974
  877MPD2    H312922   2.332   3.104  15.122 -0.1995  1.4933 -0.9086
  877MPD2     N12923   2.755   3.110  14.959 -0.1083 -0.3681  0.0233
  877MPD2    H512924   2.719   3.137  14.868 -0.3245 -0.6783  0.0148
  877MPD2    N112925   2.651   2.906  15.377  0.5040 -0.2925  0.1255
  877MPD2    H712926   2.750   2.898  15.394  0.2052 -0.1387  1.9650
  878MPD2     C12927   2.594   1.470  13.292  0.2718 -0.5559 -0.2293
  878MPD2    C112928   2.557   1.597  13.308  0.0734 -0.1247 -0.4148
  878MPD2    C212929   2.535   1.652  13.434  0.1578  0.2201  0.3118
  878MPD2    C312930   2.566   1.575  13.543  0.6907 -0.0304  0.5605
  878MPD2    C412931   2.618   1.445  13.526  0.6877 -0.0754  0.0763
  878MPD2    C512932   2.621   1.392  13.399 -0.0268 -0.5643  0.2930
  878MPD2     H12933   2.497   1.753  13.451 -1.3512 -0.6014  1.7917
  878MPD2    H112934   2.649   1.380  13.607 -0.9604  0.1171  0.8521
  878MPD2    H212935   2.608   1.423  13.195 -1.9645  1.2407 -1.4361
  878MPD2    H312936   2.665   1.293  13.391  0.2274 -0.4062 -0.2530
  878MPD2     N12937   2.560   1.640  13.668  0.0694 -0.3246  0.4021
  878MPD2    H512938   2.538   1.740  13.668 -0.2685 -0.3972  0.5196
  878MPD2    N112939   2.538   1.684  13.194 -0.1073 -0.5214 -0.4207
  878MPD2    H712940   2.545   1.637  13.105 -3.1766 -2.0757  0.1507
  879MPD2     C12941   3.118   3.093  17.237  0.4957 -0.0550  0.6355
  879MPD2    C112942   3.037   3.043  17.330 -0.1930  0.1464 -0.1048
  879MPD2    C212943   2.912   3.001  17.291 -0.3741 -0.3541  0.8032
  879MPD2    C312944   2.873   3.004  17.154 -0.2876 -0.1790  0.1973
  879MPD2    C412945   2.967   3.048  17.060  0.3638  0.4013 -0.4244
  879MPD2    C512946   3.093   3.078  17.107  0.5706  0.7500 -0.0355
  879MPD2     H12947   2.845   2.958  17.364  0.4188 -1.5052  0.8583
  879MPD2    H112948   2.942   3.055  16.955 -0.2296 -0.8076 -0.3661
  879MPD2    H212949   3.205   3.148  17.271  0.4435 -1.2976  2.7953
  879MPD2    H312950   3.169   3.116  17.040  2.4425 -2.9765 -0.0517
  879MPD2     N12951   2.751   2.957  17.103  0.6445  0.5257 -0.2186
  879MPD2    H512952   2.745   2.964  17.002 -1.4953 -1.5923 -0.2360
  879MPD2    N112953   3.077   3.058  17.467  0.0148  0.7725  0.2690
  879MPD2    H712954   3.156   3.121  17.480  0.0860  0.6168  0.5817
  880MPD2     C12955   4.033   0.329   0.186 -0.2426 -0.5775 -0.0077
  880MPD2    C112956   4.145   0.410   0.216  0.4583 -1.0130 -0.0557
  880MPD2    C212957   4.255   0.343   0.262 -0.9438  0.0258  0.3558
  880MPD2    C312958   4.261   0.204   0.275  0.2501  0.3635 -0.0158
  880MPD2    C412959   4.155   0.127   0.245  0.3301  0.0544  0.9204
  880MPD2    C512960   4.039   0.193   0.204 -0.1789  0.4150  0.0750
  880MPD2     H12961   4.334   0.402   0.306 -1.5506  0.6093  0.6748
  880MPD2    H112962   4.159   0.019   0.256 -0.4978 -0.2494 -1.7744
  880MPD2    H212963   3.937   0.366   0.152 -0.3674  1.0409  2.1109
  880MPD2    H312964   3.947   0.139   0.188 -0.6364  0.8689  1.1987
  880MPD2     N12965   4.377   0.145   0.322  0.2423  0.0451  0.1909
  880MPD2    H512966   4.455   0.208   0.339  0.9552 -0.6572 -0.4521
  880MPD2    N112967   4.133   0.557   0.213 -1.0022  0.5811  0.3765
  880MPD2    H712968   4.045   0.595   0.181 -1.5309 -2.3819 -1.7116
  881MPD2     C12969   4.111   1.407  17.424  0.1451  0.3701 -0.1005
  881MPD2    C112970   4.158   1.273  17.417 -0.5307 -0.4150  0.1432
  881MPD2    C212971   4.136   1.191  17.522 -0.0863  1.2787  0.8351
  881MPD2    C312972   4.087   1.236  17.646  0.0932 -0.9903  0.6464
  881MPD2    C412973   4.060   1.372  17.655  0.0278 -0.4532  0.1378
  881MPD2    C512974   4.068   1.459  17.546 -0.4166  0.0177 -0.2637
  881MPD2     H12975   4.172   1.089  17.524 -1.5005  0.7365 -1.4941
  881MPD2    H112976   4.016   1.405   0.007  1.9964 -0.1447  0.9460
  881MPD2    H212977   4.129   1.477  17.343  0.9652 -0.3626 -0.5517
  881MPD2    H312978   4.033   1.560  17.557  0.4864  0.2413  0.5913
  881MPD2     N12979   4.094   1.160   0.018 -0.0043 -0.0683 -0.6226
  881MPD2    H512980   4.075   1.203   0.108 -1.0520  0.2136 -0.9733
  881MPD2    N112981   4.204   1.235  17.292  0.2211  0.4320  0.3017
  881MPD2    H712982   4.196   1.305  17.219  1.0749 -1.9677 -2.1071
  882MPD2     C12983   2.984   2.946  14.264  0.4683 -0.1336  0.0523
  882MPD2    C112984   2.907   3.014  14.353 -0.5413  0.4286  0.0391
  882MPD2    C212985   2.783   2.970  14.384  0.0423  0.2569  0.4302
  882MPD2    C312986   2.728   2.856  14.327 -0.2513  0.9369 -0.9818
  882MPD2    C412987   2.801   2.793  14.231  0.5921  0.5455  0.3634
  882MPD2    C512988   2.928   2.838  14.202 -0.6119  0.6348  0.3064
  882MPD2     H12989   2.721   3.020  14.458 -1.0351  0.2617 -0.4661
  882MPD2    H112990   2.776   2.698  14.185 -0.3637  0.4311  1.1138
  882MPD2    H212991   3.087   2.969  14.240  0.4632  1.0480  1.1771
  882MPD2    H312992   2.987   2.779  14.133 -0.0763  0.0427  1.2749
  882MPD2     N12993   2.599   2.798  14.349  0.3733 -0.3478  0.2527
  882MPD2    H512994   2.578   2.714  14.296  0.5278 -0.0570 -0.2728
  882MPD2    N112995   2.977   3.106  14.434  0.1641 -0.1880 -0.3504
  882MPD2    H712996   3.078   3.098  14.427  0.5749  2.9112  2.0148
  883MPD2     C12997   4.251   2.868  16.085 -0.0385  0.3217 -0.1353
  883MPD2    C112998   4.293   2.989  16.040 -0.5110 -0.8301 -0.1272
  883MPD2    C212999   4.381   3.054  16.121  0.6500  0.5841  0.5150
  883MPD2    C313000   4.428   3.006  16.236 -0.1386  0.7339  0.2802
  883MPD2    C413001   4.380   2.888  16.283 -0.7806  0.7981  0.3259
  883MPD2    C513002   4.291   2.818  16.209 -0.4032 -0.3569  0.1381
  883MPD2     H13003   4.409   3.152  16.087  1.1644  0.3323  0.2092
  883MPD2    H113004   4.409   2.859  16.383  0.1924  1.7998  0.3322
  883MPD2    H213005   4.180   2.809  16.027 -0.1534  0.2864  0.0425
  883MPD2    H313006   4.254   2.720  16.237 -1.8540  0.0830 -0.2430
  883MPD2     N13007   4.521   3.082  16.309 -0.3843  0.9817 -0.3136
  883MPD2    H513008   4.552   3.171  16.273  1.8178  0.3390 -0.0591
  883MPD2    N113009   4.257   3.049  15.918  1.3374 -0.1013 -0.7478
  883MPD2    H713010   4.295   3.142  15.900  1.7420  0.3250  2.1688
  884MPD2     C13011   1.901   3.554  15.317 -0.8132 -0.2337 -0.2012
  884MPD2    C113012   1.909   3.669  15.245  0.2952  0.1392 -0.0916
  884MPD2    C213013   1.799   3.708  15.176  1.2291  0.2822  0.0233
  884MPD2    C313014   1.675   3.653  15.197 -0.0739 -0.2091 -0.1189
  884MPD2    C413015   1.671   3.533  15.265 -1.1508 -0.2184  0.3829
  884MPD2    C513016   1.787   3.481  15.311 -0.0635 -0.2248 -0.5717
  884MPD2     H13017   1.804   3.795  15.112 -1.4329  0.9048  0.6646
  884MPD2    H113018   1.584   3.468  15.271 -0.6373 -0.9564 -0.2787
  884MPD2    H213019   1.990   3.518  15.366  0.2301  1.1632 -1.0702
  884MPD2    H313020   1.784   3.382  15.355 -2.2190  0.2341  0.3383
  884MPD2     N13021   1.558   3.704  15.136  0.0435  0.4587 -0.0274
  884MPD2    H513022   1.577   3.780  15.072 -0.3584  0.3714 -0.2571
  884MPD2    N113023   2.030   3.741  15.219 -0.9347 -0.0489 -0.5923
  884MPD2    H713024   2.044   3.799  15.137  1.8195  0.0538 -0.0632
  885MPD2     C13025   4.576   3.631   0.312  0.4833 -0.3694  0.1746
  885MPD2    C113026   4.663   3.738   0.322  0.2543 -0.1090  0.2308
  885MPD2    C213027   4.650   3.838   0.231 -0.3073  0.2797 -0.7975
  885MPD2    C313028   4.541   3.851   0.141 -0.2030  0.0672  0.5298
  885MPD2    C413029   4.451   3.743   0.138  0.0938 -0.1627 -0.2798
  885MPD2    C513030   4.473   3.643   0.226 -1.0125  0.6187 -0.1995
  885MPD2     H13031   4.731   3.910   0.235 -0.1586 -0.0599  2.7858
  885MPD2    H113032   4.366   3.735   0.072 -0.0287  0.5335 -0.2083
  885MPD2    H213033   4.583   3.544   0.377 -1.4950  0.1705  1.1154
  885MPD2    H313034   4.407   3.557   0.225 -1.0700  0.6396  1.4544
  885MPD2     N13035   4.535   3.958   0.050  0.6201 -0.7288  0.2303
  885MPD2    H513036   4.606   4.030   0.054  0.2341 -0.2936 -0.6205
  885MPD2    N113037   0.044   3.732   0.402  0.0692 -0.2690 -0.2642
  885MPD2    H713038   0.058   3.648   0.458  3.5727  0.6457  0.2669
  886MPD2     C13039   1.155   2.552  15.405 -0.1382 -0.2186 -0.4551
  886MPD2    C113040   1.185   2.422  15.379  0.5918 -0.2274  0.0868
  886MPD2    C213041   1.208   2.384  15.248  0.0909 -0.8666 -0.5485
  886MPD2    C313042   1.187   2.475  15.145  0.8911 -0.5997  0.0644
  886MPD2    C413043   1.112   2.592  15.176 -0.2377 -0.0514 -0.0779
  886MPD2    C513044   1.101   2.623  15.304 -0.1872 -0.2837  0.0036
  886MPD2     H13045   1.240   2.283  15.225  0.3629 -1.2755  1.5698
  886MPD2    H113046   1.072   2.654  15.096 -0.4037 -0.2576 -0.1511
  886MPD2    H213047   1.137   2.592  15.504  1.5028  0.5510 -0.4707
  886MPD2    H313048   1.060   2.722  15.324  1.2880 -0.0542  1.8755
  886MPD2     N13049   1.218   2.444  15.011 -0.7581  0.0296  0.2987
  886MPD2    H513050   1.182   2.509  14.943 -1.0866 -1.4860 -0.9698
  886MPD2    N113051   1.221   2.329  15.481 -0.4728  0.0000  0.2310
  886MPD2    H713052   1.234   2.231  15.457  0.6780  0.7980 -2.3945
  887MPD2     C13053   1.694   2.407  16.173  0.1333  0.2334  0.6149
  887MPD2    C113054   1.660   2.429  16.037 -0.9597  0.4501  0.2203
  887MPD2    C213055   1.747   2.510  15.969  0.7269 -0.6442 -0.4762
  887MPD2    C313056   1.842   2.580  16.039  0.2906  0.1374  0.3212
  887MPD2    C413057   1.862   2.568  16.173  0.2536  0.6816  0.0829
  887MPD2    C513058   1.792   2.474  16.241  0.4083  0.3784  0.5784
  887MPD2     H13059   1.717   2.540  15.870 -0.0494  2.5221  0.7084
  887MPD2    H113060   1.944   2.616  16.225  0.2739  0.3504  0.3552
  887MPD2    H213061   1.645   2.330  16.231  1.5909 -0.8728  0.3771
  887MPD2    H313062   1.803   2.457  16.348 -0.7858 -0.1532  0.6246
  887MPD2     N13063   1.906   2.678  15.960  0.0995  0.3950 -0.2867
  887MPD2    H513064   1.873   2.696  15.865 -1.6341  0.3645  0.3058
  887MPD2    N113065   1.550   2.372  15.973  0.4774 -0.0099  0.2634
  887MPD2    H713066   1.540   2.394  15.874  0.8931 -0.6276  0.0823
  888MPD2     C13067   3.681   2.342  14.584  0.0790  1.2284 -0.4437
  888MPD2    C113068   3.671   2.383  14.716  0.1836  0.4886  0.4760
  888MPD2    C213069   3.740   2.493  14.758  0.1339  0.1279 -0.5785
  888MPD2    C313070   3.821   2.565  14.671 -0.3076  0.2848  0.0895
  888MPD2    C413071   3.843   2.515  14.544 -0.5973  0.8977  0.4041
  888MPD2    C513072   3.781   2.404  14.504 -0.2398 -0.3969  0.4985
  888MPD2     H13073   3.732   2.525  14.861 -0.2753 -1.2365 -0.1820
  888MPD2    H113074   3.893   2.576  14.471  0.8320  0.3992  0.9683
  888MPD2    H213075   3.646   2.248  14.544  0.3240  0.6894  0.6071
  888MPD2    H313076   3.794   2.371  14.402 -0.8511  0.6407  0.0964
  888MPD2     N13077   3.888   2.689  14.715 -0.2940  0.1351  0.5225
  888MPD2    H513078   3.879   2.715  14.813  0.0383 -0.7042  0.7772
  888MPD2    N113079   3.597   2.306  14.805  0.0909  0.0187  0.0826
  888MPD2    H713080   3.604   2.336  14.902  1.1578  0.1777 -0.0484
  889MPD2     C13081   3.232   1.554  12.950 -0.2466 -0.2615 -0.2615
  889MPD2    C113082   3.222   1.533  13.094 -0.4005 -0.3700  0.2214
  889MPD2    C213083   3.239   1.645  13.173  0.0543 -0.0093  0.0750
  889MPD2    C313084   3.265   1.769  13.113  0.4526  0.6185  0.7980
  889MPD2    C413085   3.257   1.783  12.977  0.1758  0.5078 -0.2347
  889MPD2    C513086   3.240   1.677  12.894  0.1650  0.1115  0.0099
  889MPD2     H13087   3.228   1.630  13.280 -1.1552 -0.4483 -0.1044
  889MPD2    H113088   3.264   1.876  12.923  2.3467  1.2926  1.3787
  889MPD2    H213089   3.208   1.472  12.882  0.4513 -1.2250  0.6403
  889MPD2    H313090   3.232   1.694  12.788  0.3618  0.3403  0.0321
  889MPD2     N13091   3.282   1.893  13.182 -0.3780 -0.5203  0.0038
  889MPD2    H513092   3.314   1.973  13.128  1.4863 -0.8114  0.6458
  889MPD2    N113093   3.224   1.401  13.153  0.3536  0.1062 -1.0564
  889MPD2    H713094   3.254   1.397  13.250  0.9505 -0.9969 -1.2757
  890MPD2     C13095   2.517   3.437  14.690 -0.6011 -0.5692  0.3773
  890MPD2    C113096   2.646   3.482  14.672  0.4725  0.4952  0.4972
  890MPD2    C213097   2.730   3.501  14.780 -0.1252  0.0248 -0.2165
  890MPD2    C313098   2.686   3.480  14.904 -0.0569 -0.2625  0.0969
  890MPD2    C413099   2.553   3.437  14.924 -0.7763 -0.7475  0.2222
  890MPD2    C513100   2.474   3.409  14.818  0.4777  0.2107 -0.4249
  890MPD2     H13101   2.834   3.526  14.766  0.8747 -2.0904  3.4791
  890MPD2    H113102   2.517   3.416  15.024  1.2351 -2.1689  0.6578
  890MPD2    H213103   2.449   3.412  14.610 -2.0527  2.2633  0.7403
  890MPD2    H313104   2.373   3.376  14.837  0.8294 -1.5174 -1.4731
  890MPD2     N13105   2.774   3.498  15.010  0.0322 -0.1269  0.3572
  890MPD2    H513106   2.869   3.526  14.989 -0.1235 -0.8612 -1.3298
  890MPD2    N113107   2.693   3.504  14.539  0.3941 -0.0280 -0.1154
  890MPD2    H713108   2.624   3.497  14.465 -1.9988 -1.1399  2.1865
  891MPD2     C13109   0.716   2.565  16.340 -0.0697  0.5773  0.0966
  891MPD2    C113110   0.652   2.570  16.465  0.4364  0.2501  0.3712
  891MPD2    C213111   0.718   2.533  16.583 -0.0962 -0.7237  0.1732
  891MPD2    C313112   0.848   2.484  16.573  0.0722 -0.3511  0.3291
  891MPD2    C413113   0.911   2.482  16.451  0.2254  0.1367  0.3286
  891MPD2    C513114   0.848   2.525  16.338  0.3852  0.3662 -0.1897
  891MPD2     H13115   0.671   2.519  16.679  0.0009 -1.2487  0.1443
  891MPD2    H113116   1.015   2.453  16.435 -0.7288 -2.4350 -1.2507
  891MPD2    H213117   0.669   2.587  16.245  0.8597 -2.0984 -0.9843
  891MPD2    H313118   0.894   2.510  16.240  0.4509  1.0231 -0.2629
  891MPD2     N13119   0.915   2.421  16.679 -0.5078 -0.6793 -0.1177
  891MPD2    H513120   0.884   2.438  16.774  1.3676 -0.0901  0.3860
  891MPD2    N113121   0.515   2.604  16.459  0.1488  0.1790  0.3070
  891MPD2    H713122   0.479   2.597  16.364 -1.9188 -2.1105  1.2916
  892MPD2     C13123   1.820   3.154  14.962 -0.0126 -0.1164  0.2290
  892MPD2    C113124   1.795   3.132  14.832  0.3280  0.8536  0.3112
  892MPD2    C213125   1.885   3.049  14.757 -0.5580  0.4509  0.3425
  892MPD2    C313126   2.005   2.992  14.817  1.0442 -0.2049  0.0671
  892MPD2    C413127   2.030   3.026  14.944 -0.2720 -0.0479  0.0481
  892MPD2    C513128   1.939   3.098  15.020  0.0841 -0.0375 -0.0223
  892MPD2     H13129   1.869   3.035  14.651  0.9714  1.2802 -0.0094
  892MPD2    H113130   2.132   3.008  14.976 -0.1284  0.0732 -0.3339
  892MPD2    H213131   1.756   3.224  15.015  1.1195 -0.3275  1.8858
  892MPD2    H313132   1.969   3.132  15.118  2.1816 -0.4785 -0.5034
  892MPD2     N13133   2.096   2.912  14.744 -0.4545 -0.0461  0.0569
  892MPD2    H513134   2.189   2.895  14.781  0.2217 -1.2499 -2.2238
  892MPD2    N113135   1.665   3.177  14.791  0.7402  0.1091 -0.0441
  892MPD2    H713136   1.611   3.220  14.866  3.1102  0.6821  1.3453
  893MPD2     C13137   3.932   1.796   2.257  0.2917  0.6965  0.8095
  893MPD2    C113138   3.873   1.842   2.139  0.3608 -0.6093 -0.7163
  893MPD2    C213139   3.749   1.902   2.142 -0.0085 -0.3203  0.5885
  893MPD2    C313140   3.685   1.924   2.262  0.3524 -0.2787  0.2508
  893MPD2    C413141   3.748   1.881   2.379  0.1085  0.7090  0.7910
  893MPD2    C513142   3.871   1.822   2.377 -0.1028  0.0434  0.0360
  893MPD2     H13143   3.687   1.926   2.057  0.3626  0.1934  0.4640
  893MPD2    H113144   3.690   1.879   2.471  0.2443 -2.5083  0.8068
  893MPD2    H213145   4.029   1.747   2.257  0.0594  0.2729 -0.8834
  893MPD2    H313146   3.915   1.790   2.471 -2.2660 -0.3280  0.9266
  893MPD2     N13147   3.558   1.989   2.275 -0.4794 -0.2246  0.0646
  893MPD2    H513148   3.519   1.991   2.369 -0.0947 -0.4012  0.2284
  893MPD2    N113149   3.940   1.811   2.020 -0.3329 -1.1963 -0.0487
  893MPD2    H713150   4.031   1.766   2.026  0.4619  0.0570 -2.4566
  894MPD2     C13151   1.593   3.446   1.012  0.2406  0.1228  0.2185
  894MPD2    C113152   1.554   3.557   1.091  0.5308  0.3372  0.1892
  894MPD2    C213153   1.564   3.684   1.027 -0.3673 -0.5914  0.2002
  894MPD2    C313154   1.619   3.699   0.901 -0.2580  0.2757  0.3431
  894MPD2    C413155   1.657   3.587   0.832  0.3529 -0.5594 -0.0185
  894MPD2    C513156   1.645   3.460   0.888  0.1657 -0.3485 -0.5205
  894MPD2     H13157   1.536   3.778   1.073  1.6612  1.6194 -3.0647
  894MPD2    H113158   1.706   3.592   0.736 -0.8495  1.6381 -0.5081
  894MPD2    H213159   1.592   3.343   1.047  0.1662 -0.0042 -0.1565
  894MPD2    H313160   1.667   3.370   0.832 -0.5580  0.3043 -1.8559
  894MPD2     N13161   1.657   3.820   0.841 -0.0306  0.1492  0.1196
  894MPD2    H513162   1.708   3.821   0.753 -2.6020 -1.3217 -1.3988
  894MPD2    N113163   1.509   3.548   1.223 -0.0905  0.5217  0.4430
  894MPD2    H713164   1.470   3.634   1.261  0.4728  0.7945  0.4091
  895MPD2     C13165   1.173   2.150  13.383 -0.8430 -0.6777  0.4729
  895MPD2    C113166   1.046   2.095  13.360  0.7223 -0.4261  1.1624
  895MPD2    C213167   1.035   1.962  13.384 -0.1606  0.1367  0.1192
  895MPD2    C313168   1.129   1.892  13.452  0.0389  1.2938  0.0198
  895MPD2    C413169   1.251   1.943  13.473 -0.1857  0.1578 -0.0978
  895MPD2    C513170   1.269   2.072  13.441 -0.2431  0.0545  0.3753
  895MPD2     H13171   0.935   1.920  13.380 -0.1111 -0.0530  0.8591
  895MPD2    H113172   1.330   1.894  13.528 -0.7838  0.8701  1.4071
  895MPD2    H213173   1.199   2.253  13.363  0.8154 -1.7181 -2.6078
  895MPD2    H313174   1.358   2.124  13.477  0.2528 -1.0815  0.8045
  895MPD2     N13175   1.096   1.760  13.493  0.0828 -0.6867  0.5660
  895MPD2    H513176   0.998   1.738  13.480 -0.5515  0.6642  2.9377
  895MPD2    N113177   0.936   2.172  13.334 -0.7544 -0.6946  0.2738
  895MPD2    H713178   0.844   2.130  13.326 -0.5155 -1.0221 -0.7479
  896MPD2     C13179   3.797   4.197   0.705  0.5680  1.1556  0.4123
  896MPD2    C113180   3.777   4.301   0.793 -0.1854 -0.5954 -0.0326
  896MPD2    C213181   3.707   4.273   0.912  0.3542 -0.0169  0.4065
  896MPD2    C313182   3.661   4.140   0.938 -0.5681  0.4605 -0.0796
  896MPD2    C413183   3.679   4.042   0.843 -0.5567  0.5148 -0.8317
  896MPD2    C513184   3.750   4.069   0.729 -0.4812 -0.3820  0.4649
  896MPD2     H13185   3.688   4.352   0.983 -0.2065  0.2892 -0.0864
  896MPD2    H113186   3.637   3.945   0.865  0.1457  0.9451  2.3711
  896MPD2    H213187   3.853   4.222   0.616 -0.5698 -1.4460 -1.0214
  896MPD2    H313188   3.771   3.995   0.653  0.2851 -1.6433  1.8928
  896MPD2     N13189   3.574   4.127   1.043 -0.2141 -0.6220  0.2556
  896MPD2    H513190   3.552   4.207   1.101  1.0748 -1.0861  1.3934
  896MPD2    N113191   3.843   4.422   0.762  0.0052 -0.7008 -0.4605
  896MPD2    H713192   3.887   4.429   0.671 -0.9379 -0.5367 -0.9087
  897MPD2     C13193   4.151   1.455  10.687  0.2215 -0.5210  0.2757
  897MPD2    C113194   4.054   1.526  10.623  0.6079 -0.8947  0.4801
  897MPD2    C213195   3.925   1.508  10.662 -0.0414  1.2851  0.2308
  897MPD2    C313196   3.894   1.434  10.780 -0.5454  0.4879  0.6202
  897MPD2    C413197   3.999   1.361  10.848  0.0162 -0.1820  0.5667
  897MPD2    C513198   4.122   1.375  10.797  0.1289  0.0360  0.4091
  897MPD2     H13199   3.845   1.563  10.613 -0.0871  1.1528  0.1579
  897MPD2    H113200   3.981   1.303  10.938 -0.2536  0.1748  0.7433
  897MPD2    H213201   4.252   1.460  10.649 -0.0019  0.1054 -0.2371
  897MPD2    H313202   4.198   1.304  10.828  1.6428  1.8020  0.7589
  897MPD2     N13203   3.763   1.441  10.833  0.2654 -0.1395  0.8029
  897MPD2    H513204   3.694   1.490  10.777  0.5854 -1.3150 -0.6382
  897MPD2    N113205   4.088   1.616  10.522 -0.2340  0.1513  0.2735
  897MPD2    H713206   4.186   1.643  10.517 -0.0424 -0.3783  1.1031
  898MPD2     C13207   0.729   2.563   0.262 -0.8010  0.9981 -0.3080
  898MPD2    C113208   0.857   2.520   0.273  0.4189 -0.2512 -0.3346
  898MPD2    C213209   0.958   2.594   0.229  0.8725  0.1193  0.3760
  898MPD2    C313210   0.950   2.724   0.179 -0.1780 -0.5874  0.5650
  898MPD2    C413211   0.826   2.769   0.176 -0.1049 -0.0890  0.3904
  898MPD2    C513212   0.717   2.691   0.218 -0.3301 -0.0131  1.1740
  898MPD2     H13213   1.055   2.547   0.218 -0.5490 -2.8786  0.7453
  898MPD2    H113214   0.801   2.866   0.135 -0.6468 -0.5089 -0.2801
  898MPD2    H213215   0.636   2.513   0.286  2.1754 -2.0970  4.5773
  898MPD2    H313216   0.623   2.742   0.204  0.3026  1.0265  0.6693
  898MPD2     N13217   1.064   2.796   0.134  0.3255  0.5566 -0.6806
  898MPD2    H513218   1.149   2.743   0.154  0.3605  1.0297  0.4116
  898MPD2    N113219   0.888   2.381   0.317 -0.2994 -0.0786 -0.4368
  898MPD2    H713220   0.988   2.367   0.329 -0.0417  0.5880 -1.8503
  899MPD2     C13221   2.089   3.040  16.901  0.0875  0.3178  0.5808
  899MPD2    C113222   2.167   3.115  16.990  1.0234 -0.2264  0.2665
  899MPD2    C213223   2.188   3.055  17.118  0.5784 -0.7160  0.2375
  899MPD2    C313224   2.123   2.941  17.158 -0.1618  0.0560  0.4267
  899MPD2    C413225   2.040   2.880  17.069 -0.8575  0.8292  0.0130
  899MPD2    C513226   2.025   2.931  16.940 -0.2376 -0.3142 -0.1116
  899MPD2     H13227   2.243   3.109  17.194 -2.2675  1.3888  0.8041
  899MPD2    H113228   1.981   2.793  17.098 -0.6753  0.3124 -1.1348
  899MPD2    H213229   2.080   3.083  16.802 -0.9342  2.0693  1.4419
  899MPD2    H313230   1.953   2.882  16.874 -0.3039  0.1442 -0.3836
  899MPD2     N13231   2.116   2.893  17.295 -0.1894  0.0427 -0.0437
  899MPD2    H513232   2.035   2.837  17.316 -2.2270  2.0448 -2.5277
  899MPD2    N113233   2.214   3.247  16.957  0.5584  0.1848 -0.4376
  899MPD2    H713234   2.185   3.286  16.868 -0.2705 -0.8482 -0.6097
  900MPD2     C13235   1.961   4.525  12.454 -0.1186  0.1047  0.6501
  900MPD2    C113236   1.893   4.406  12.444  0.3398 -0.5376 -0.4787
  900MPD2    C213237   1.782   4.393  12.360 -0.1561 -0.2534  0.2326
  900MPD2    C313238   1.736   4.500  12.284 -0.5665 -0.3396 -0.6082
  900MPD2    C413239   1.807   4.614  12.297  0.0046 -0.1790  0.3143
  900MPD2    C513240   1.912   4.632  12.381 -0.2115 -0.8171  0.3916
  900MPD2     H13241   1.730   4.298  12.349 -1.1159  0.6628 -2.8929
  900MPD2    H113242   1.773   4.703  12.245  0.4771  0.9125  1.8660
  900MPD2    H213243   2.050   4.533  12.515  2.8261  0.9508 -3.7937
  900MPD2    H313244   1.959   4.728  12.393 -0.8223 -0.7100  1.8898
  900MPD2     N13245   1.625   4.479  12.207 -0.0406 -0.0175  0.0218
  900MPD2    H513246   1.586   4.387  12.225  3.1254 -1.5469 -0.8666
  900MPD2    N113247   1.921   4.292  12.530  0.2066  0.4225  0.6472
  900MPD2    H713248   2.012   4.299  12.574  0.2589  0.1410  0.5862
  901MPD2     C13249   1.568   3.306  12.767 -0.0741 -0.2502 -0.0332
  901MPD2    C113250   1.682   3.316  12.843  0.2678 -0.7107  0.3819
  901MPD2    C213251   1.755   3.433  12.845  0.0785  0.4577  0.0683
  901MPD2    C313252   1.709   3.542  12.774 -0.3345  0.3978 -0.5872
  901MPD2    C413253   1.592   3.534  12.703 -0.6399  0.6507 -0.4051
  901MPD2    C513254   1.520   3.418  12.704 -0.9961 -0.3305 -0.2106
  901MPD2     H13255   1.842   3.441  12.908 -0.2396  0.4060  0.5112
  901MPD2    H113256   1.551   3.619  12.649  1.2188  2.3121  0.7851
  901MPD2    H213257   1.510   3.214  12.764  0.9239 -0.8938  0.2103
  901MPD2    H313258   1.422   3.412  12.657 -1.6039  1.6954  0.8086
  901MPD2     N13259   1.790   3.654  12.780  0.1625 -0.1758 -0.1430
  901MPD2    H513260   1.880   3.646  12.826  0.9311 -0.9261 -1.7872
  901MPD2    N113261   1.725   3.195  12.900 -0.5658 -0.0750  0.5902
  901MPD2    H713262   1.662   3.120  12.875 -1.1932  0.7169 -0.2219
  902MPD2     C13263   0.461   2.657  12.992 -0.1305 -0.6493 -0.8071
  902MPD2    C113264   0.596   2.668  12.999 -0.2991  0.0142  0.1301
  902MPD2    C213265   0.679   2.582  12.921  1.0086 -0.4998  0.4889
  902MPD2    C313266   0.611   2.497  12.830  0.4422 -0.1074 -0.3611
  902MPD2    C413267   0.473   2.487  12.825 -0.9405  0.0464  0.3715
  902MPD2    C513268   0.398   2.562  12.911 -0.4226 -0.7885 -0.1043
  902MPD2     H13269   0.787   2.590  12.919  1.0804 -1.6805 -0.2140
  902MPD2    H113270   0.419   2.434  12.747 -2.1621  1.1454  0.4665
  902MPD2    H213271   0.409   2.726  13.057  0.8541  1.1035 -1.8798
  902MPD2    H313272   0.290   2.567  12.913 -0.3463  1.6755 -2.3957
  902MPD2     N13273   0.677   2.421  12.735  0.0596 -0.1760  0.4764
  902MPD2    H513274   0.617   2.394  12.657 -0.2793 -2.7636  1.6517
  902MPD2    N113275   0.651   2.759  13.087 -0.1377  0.3807  0.3374
  902MPD2    H713276   0.587   2.789  13.160 -1.1050 -3.8242  1.2045
  903MPD2     C13277   0.658   2.082  11.946  0.2966  0.3588  0.5753
  903MPD2    C113278   0.599   2.133  12.063 -0.5077  0.3497 -0.1946
  903MPD2    C213279   0.465   2.126  12.079 -0.4524  0.0462  0.3378
  903MPD2    C313280   0.385   2.082  11.982  0.5596 -0.8129 -0.0331
  903MPD2    C413281   0.437   2.045  11.863  0.4746 -0.4751  0.3537
  903MPD2    C513282   0.576   2.044  11.844 -0.2320 -0.0019  0.3257
  903MPD2     H13283   0.416   2.158  12.170 -1.2463 -0.6315  0.1508
  903MPD2    H113284   0.380   1.998  11.783 -1.6338  0.6791  1.1891
  903MPD2    H213285   0.765   2.071  11.936  0.1192  0.0185 -0.9424
  903MPD2    H313286   0.606   1.999  11.750 -2.2172  0.6352 -0.6022
  903MPD2     N13287   0.248   2.078  12.015 -0.7784  0.5497  0.1755
  903MPD2    H513288   0.222   2.106  12.109 -1.6361 -0.4577  0.2362
  903MPD2    N113289   0.685   2.186  12.160 -0.1841  0.4362  0.5368
  903MPD2    H713290   0.784   2.173  12.141 -0.4750 -2.6459  1.1792
  904MPD2     C13291   0.684   1.725  13.891  0.2394 -0.8649 -0.5303
  904MPD2    C113292   0.686   1.739  14.030  0.5730  0.2925  0.0867
  904MPD2    C213293   0.805   1.739  14.101  0.2435  0.1900  0.3399
  904MPD2    C313294   0.922   1.729  14.038  0.3614 -0.3421  0.0490
  904MPD2    C413295   0.928   1.740  13.898  0.2132 -0.2047  0.1494
  904MPD2    C513296   0.806   1.732  13.830 -0.4389 -0.4365  0.0377
  904MPD2     H13297   0.787   1.725  14.207 -2.4037 -0.1068 -0.1341
  904MPD2    H113298   1.022   1.741  13.844  0.5805  1.3591  0.8037
  904MPD2    H213299   0.592   1.714  13.834 -1.1365  1.0363  1.3199
  904MPD2    H313300   0.798   1.733  13.722  0.5343 -2.3626 -0.0546
  904MPD2     N13301   1.030   1.717  14.124  0.0565  0.0114 -0.3276
  904MPD2    H513302   1.012   1.715  14.224  0.6301  1.6870 -0.1923
  904MPD2    N113303   0.564   1.739  14.101  0.1967 -0.4640  0.8950
  904MPD2    H713304   0.577   1.723  14.200 -0.9451  0.6624  1.2120
  905MPD2     C13305   0.300   1.409  13.611 -0.7869  0.2668 -0.7908
  905MPD2    C113306   0.376   1.517  13.591 -0.2861 -0.4741  0.2284
  905MPD2    C213307   0.499   1.505  13.539 -0.1041 -0.6410 -0.1294
  905MPD2    C313308   0.552   1.387  13.502 -0.0347 -0.1235  0.4159
  905MPD2    C413309   0.459   1.284  13.489 -1.0309  0.2362 -0.6628
  905MPD2    C513310   0.335   1.298  13.544 -0.2552  0.8480  0.9882
  905MPD2     H13311   0.566   1.590  13.548 -1.5284  0.3624  0.7920
  905MPD2    H113312   0.488   1.184  13.460  4.2295  1.8865 -1.0493
  905MPD2    H213313   0.208   1.417  13.667  0.2657  1.2834  0.8321
  905MPD2    H313314   0.267   1.214  13.550 -1.5082  1.9178  1.7261
  905MPD2     N13315   0.692   1.347  13.492 -0.9617 -0.0617 -0.1363
  905MPD2    H513316   0.710   1.248  13.479  1.4676  0.6112 -1.9584
  905MPD2    N113317   0.326   1.646  13.634 -0.7584 -0.3155  0.5266
  905MPD2    H713318   0.229   1.640  13.664 -0.7408 -0.6392  0.5221
  906MPD2     C13319   2.332   1.869  11.379  0.4687  0.2929 -0.1985
  906MPD2    C113320   2.313   1.797  11.258  0.2177  0.1334 -0.1557
  906MPD2    C213321   2.270   1.666  11.272 -0.1593  0.0202 -0.4534
  906MPD2    C313322   2.236   1.608  11.395  0.4034 -0.6747 -0.2877
  906MPD2    C413323   2.248   1.687  11.508  0.0559 -0.4981 -0.1467
  906MPD2    C513324   2.306   1.812  11.505 -0.3332  0.2638  0.0411
  906MPD2     H13325   2.257   1.606  11.183  0.1629  0.8458 -1.0549
  906MPD2    H113326   2.205   1.657  11.602 -1.5024 -1.3729 -1.1456
  906MPD2    H213327   2.371   1.970  11.384 -0.1614  0.5900 -1.1357
  906MPD2    H313328   2.335   1.860  11.598  0.0380 -1.7047  0.9372
  906MPD2     N13329   2.187   1.476  11.387 -0.0597 -0.3287  0.4869
  906MPD2    H513330   2.184   1.441  11.291  1.7907  1.4926 -0.2325
  906MPD2    N113331   2.334   1.848  11.130  0.0453 -0.5349  0.1830
  906MPD2    H713332   2.316   1.781  11.056  0.6530  1.9327 -2.2281
  907MPD2     C13333   1.682   1.011  15.989 -0.3674 -0.3955 -0.0568
  907MPD2    C113334   1.745   0.927  15.901 -0.8313  0.1347  0.6654
  907MPD2    C213335   1.847   0.851  15.942  0.1073 -0.7175 -0.0128
  907MPD2    C313336   1.899   0.861  16.066  0.1120  0.4740 -0.2084
  907MPD2    C413337   1.848   0.948  16.153  0.7424  0.7011 -0.3058
  907MPD2    C513338   1.733   1.019  16.115  0.2753  0.3540  0.9960
  907MPD2     H13339   1.896   0.783  15.873  0.4617 -0.8578  0.3751
  907MPD2    H113340   1.894   0.969  16.249  0.3282 -2.5097  0.6000
  907MPD2    H213341   1.593   1.069  15.968  1.0088  1.4400 -0.7753
  907MPD2    H313342   1.684   1.085  16.186 -2.2141 -0.7860  0.3269
  907MPD2     N13343   2.004   0.769  16.092 -0.1795 -0.2483  0.0445
  907MPD2    H513344   2.035   0.708  16.017 -0.6281  0.6554 -0.8745
  907MPD2    N113345   1.706   0.918  15.767  0.1619  0.4143 -1.1993
  907MPD2    H713346   1.747   0.842  15.713  1.6957 -0.0382  0.6013
  908MPD2     C13347   3.998   1.781   9.520  0.0575 -0.5194 -0.3139
  908MPD2    C113348   3.944   1.690   9.609 -0.6438 -0.0514  0.9110
  908MPD2    C213349   3.953   1.711   9.749  0.7868  0.2292 -0.3802
  908MPD2    C313350   4.020   1.820   9.799  0.1312 -0.2055 -0.1497
  908MPD2    C413351   4.072   1.914   9.706 -0.3596  0.2246 -0.3607
  908MPD2    C513352   4.065   1.891   9.568 -0.1012 -0.0745 -0.1089
  908MPD2     H13353   3.909   1.650   9.827  1.7142 -0.2815 -0.2680
  908MPD2    H113354   4.125   2.001   9.742 -0.2598 -0.4473  1.1024
  908MPD2    H213355   4.009   1.764   9.413 -0.6077  0.7122 -0.5864
  908MPD2    H313356   4.116   1.963   9.505 -2.3151  0.5337 -1.1986
  908MPD2     N13357   4.028   1.832   9.938 -0.4166 -0.5529 -0.3340
  908MPD2    H513358   3.994   1.755   9.995 -1.7150 -1.7843 -2.7455
  908MPD2    N113359   3.876   1.578   9.552  0.0385  0.1924 -0.4692
  908MPD2    H713360   3.888   1.565   9.452  0.2613  0.6856 -0.5056
  909MPD2     C13361   4.204   4.177  11.671 -0.6807 -0.2601  0.4361
  909MPD2    C113362   4.188   4.288  11.587 -0.0625 -0.0566  0.4609
  909MPD2    C213363   4.136   4.407  11.635  0.8018 -0.1672  0.2796
  909MPD2    C313364   4.125   4.425  11.768 -1.0040  0.2605  0.3658
  909MPD2    C413365   4.160   4.324  11.857 -0.9854  1.0039 -0.3912
  909MPD2    C513366   4.184   4.199  11.804  0.1019 -0.4230  0.0809
  909MPD2     H13367   4.130   4.490  11.566  2.2181  0.1546  0.5470
  909MPD2    H113368   4.160   4.331  11.966 -3.5168  0.2730 -0.3554
  909MPD2    H213369   4.242   4.080  11.641 -2.8298 -0.9228 -0.1595
  909MPD2    H313370   4.197   4.114  11.871 -1.4284  0.0881  1.0347
  909MPD2     N13371   4.080   4.546  11.807 -0.4339  0.0553  0.3770
  909MPD2    H513372   4.039   4.606  11.737 -1.2741  0.3912  1.1558
  909MPD2    N113373   4.223   4.290  11.453  0.3991  0.5062 -0.5638
  909MPD2    H713374   4.212   4.382  11.411 -1.0100  0.5492 -0.0693
  910MPD2     C13375   1.080   1.308  15.904  0.8251  0.0624  0.8682
  910MPD2    C113376   1.184   1.248  15.827  0.8704 -1.0769  0.7818
  910MPD2    C213377   1.201   1.292  15.693 -0.8737  0.3315 -0.0278
  910MPD2    C313378   1.115   1.386  15.637  0.1305  0.5880 -0.3883
  910MPD2    C413379   1.021   1.454  15.725  0.7379 -0.3737 -0.7183
  910MPD2    C513380   1.003   1.405  15.852 -0.2614  0.1173  0.1360
  910MPD2     H13381   1.279   1.251  15.630 -0.6403 -0.1869  0.6084
  910MPD2    H113382   0.946   1.516  15.675  0.1916 -0.8389 -0.4718
  910MPD2    H213383   1.048   1.280  16.004  1.0262 -1.7781  0.4280
  910MPD2    H313384   0.920   1.448  15.907 -0.0430 -0.2073  0.7180
  910MPD2     N13385   1.127   1.420  15.501  0.2246  0.1512  0.0021
  910MPD2    H513386   1.079   1.504  15.471 -1.4562 -0.6222  0.5325
  910MPD2    N113387   1.258   1.144  15.869  0.2672  0.1772  0.7493
  910MPD2    H713388   1.329   1.110  15.805  1.1162  1.6127  0.9471
  911MPD2     C13389   3.617   1.935  16.587  0.0028  0.0734  0.3183
  911MPD2    C113390   3.708   2.039  16.611  0.5403 -0.1639 -0.3053
  911MPD2    C213391   3.658   2.168  16.599 -0.3926  0.0847  0.0676
  911MPD2    C313392   3.529   2.192  16.561 -0.4375  0.4786 -0.4075
  911MPD2    C413393   3.443   2.087  16.538 -0.7436  0.8267 -0.4576
  911MPD2    C513394   3.483   1.960  16.559 -0.2652 -0.4071 -0.0942
  911MPD2     H13395   3.731   2.248  16.604  1.3429 -1.5393  0.7335
  911MPD2    H113396   3.336   2.094  16.518 -0.4571  0.6749 -2.0634
  911MPD2    H213397   3.641   1.831  16.605  1.2098  0.4171  0.6950
  911MPD2    H313398   3.409   1.882  16.542 -0.1745 -0.7060  0.9003
  911MPD2     N13399   3.473   2.321  16.527 -0.0285  0.3684 -0.2372
  911MPD2    H513400   3.380   2.316  16.486  1.0162  1.4970 -2.7490
  911MPD2    N113401   3.842   2.010  16.634  0.2449  0.3913  0.5094
  911MPD2    H713402   3.861   1.911  16.646 -1.4942  0.1225  0.9261
  912MPD2     C13403   2.985   2.376  15.942 -0.1112  0.6538 -0.1740
  912MPD2    C113404   3.037   2.351  16.067  0.8547 -0.2636 -0.5423
  912MPD2    C213405   2.993   2.228  16.125 -0.9348  0.3355 -0.4348
  912MPD2    C313406   2.926   2.130  16.059 -0.5864 -0.3692 -0.2491
  912MPD2    C413407   2.883   2.159  15.928 -0.2674 -0.1496 -0.4588
  912MPD2    C513408   2.911   2.279  15.878 -0.5839 -0.5358 -0.1576
  912MPD2     H13409   3.025   2.195  16.223 -0.4998 -3.0647 -1.7218
  912MPD2    H113410   2.814   2.099  15.869 -1.8790 -1.3140  2.6376
  912MPD2    H213411   3.003   2.470  15.891  0.9967  0.4802 -0.1036
  912MPD2    H313412   2.877   2.291  15.775  2.5498  0.1319 -1.1160
  912MPD2     N13413   2.887   2.015  16.121 -0.6011 -0.4187 -0.1795
  912MPD2    H513414   2.924   2.017  16.215 -1.0391 -1.2746  0.0192
  912MPD2    N113415   3.124   2.444  16.128 -0.1730  0.3121  0.2544
  912MPD2    H713416   3.140   2.530  16.077 -1.9042  0.0357 -0.7739
  913MPD2     C13417   3.506   2.567  10.668  0.0357 -0.0247  0.1852
  913MPD2    C113418   3.555   2.659  10.758 -0.1245 -0.2701 -0.9976
  913MPD2    C213419   3.537   2.795  10.736 -0.0400  1.1193 -0.2142
  913MPD2    C313420   3.483   2.836  10.616 -0.3436  0.4937 -0.0886
  913MPD2    C413421   3.449   2.745  10.515  0.0106  0.0398 -0.1585
  913MPD2    C513422   3.468   2.611  10.542 -0.0224 -0.1396 -0.2169
  913MPD2     H13423   3.575   2.869  10.806 -0.9480  1.5577 -0.1795
  913MPD2    H113424   3.420   2.787  10.420  0.9152  0.9946 -0.0123
  913MPD2    H213425   3.525   2.461  10.672 -1.3336 -0.2934 -0.4088
  913MPD2    H313426   3.436   2.537  10.469 -1.0878  0.6966 -0.5994
  913MPD2     N13427   3.457   2.976  10.590  0.3780 -0.8863 -0.1856
  913MPD2    H513428   3.391   3.003  10.518 -0.3429 -1.1825  0.3592
  913MPD2    N113429   3.611   2.606  10.879  0.0512  0.2723  0.4184
  913MPD2    H713430   3.630   2.506  10.881  1.0718  0.5028  2.0192
  914MPD2     C13431   1.528   2.872  12.330  0.2752 -0.1974 -0.0651
  914MPD2    C113432   1.588   2.990  12.375  0.4755  0.0846 -0.4643
  914MPD2    C213433   1.696   2.982  12.462  0.7764 -0.5687 -0.4245
  914MPD2    C313434   1.743   2.866  12.512 -0.5646 -0.6330 -0.1683
  914MPD2    C413435   1.672   2.749  12.480 -0.2330 -0.3493 -0.1729
  914MPD2    C513436   1.566   2.754  12.389  0.1971 -0.4092  0.3222
  914MPD2     H13437   1.751   3.070  12.494 -1.7451  1.1405 -0.8171
  914MPD2    H113438   1.683   2.658  12.537  0.1190 -0.1045  0.1453
  914MPD2    H213439   1.457   2.872  12.248  0.9027  1.5872 -0.6064
  914MPD2    H313440   1.501   2.667  12.382 -2.6454  1.8663 -1.7806
  914MPD2     N13441   1.837   2.867  12.617 -0.0310 -0.0727 -0.2969
  914MPD2    H513442   1.866   2.957  12.655  1.7597 -0.5628 -0.4933
  914MPD2    N113443   1.534   3.109  12.329  0.0977 -0.0233  0.5454
  914MPD2    H713444   1.453   3.101  12.269  0.8939 -2.6447 -0.1836
  915MPD2     C13445   0.482   3.691  15.668 -0.3908  0.4284  0.0783
  915MPD2    C113446   0.347   3.671  15.632  0.0832  0.5764  0.4957
  915MPD2    C213447   0.253   3.732  15.707 -0.9478 -0.3557 -0.3398
  915MPD2    C313448   0.289   3.797  15.826  0.0467 -0.3127  0.1867
  915MPD2    C413449   0.423   3.817  15.862 -0.4154 -0.4963  0.5548
  915MPD2    C513450   0.517   3.764  15.784  0.7580 -0.9711  0.0734
  915MPD2     H13451   0.149   3.719  15.677 -1.9048  0.2249  2.6917
  915MPD2    H113452   0.449   3.859  15.958 -0.9530 -3.2661  1.9286
  915MPD2    H213453   0.558   3.639  15.612  1.2768  0.1821  2.6099
  915MPD2    H313454   0.616   3.777  15.825  0.9638 -1.6945 -0.1902
  915MPD2     N13455   0.185   3.846  15.911 -0.2708  0.5312  0.6355
  915MPD2    H513456   0.093   3.857  15.869  0.8437 -1.6163 -2.3177
  915MPD2    N113457   0.314   3.593  15.517 -0.1498 -0.6285  0.1852
  915MPD2    H713458   0.394   3.572  15.458  0.2033  0.5424  0.2463
  916MPD2     C13459   2.964   1.888  15.645 -0.4372  0.1136 -0.3037
  916MPD2    C113460   2.917   1.757  15.642  0.6227 -0.2782 -0.3148
  916MPD2    C213461   2.965   1.664  15.545 -0.3037  0.2507 -1.0518
  916MPD2    C313462   3.052   1.708  15.449  1.2099  0.5628 -0.4581
  916MPD2    C413463   3.084   1.839  15.442 -0.2578  0.1376  0.1006
  916MPD2    C513464   3.038   1.924  15.536 -0.1446  0.0270  0.4972
  916MPD2     H13465   2.930   1.562  15.551 -2.7541  1.0477 -1.7516
  916MPD2    H113466   3.154   1.878  15.369  0.9003 -0.9771  0.6034
  916MPD2    H213467   2.938   1.951  15.729  0.9271  0.1112  0.1202
  916MPD2    H313468   3.075   2.025  15.521  0.8760 -0.4917 -0.4239
  916MPD2     N13469   3.114   1.610  15.368  0.3107  0.6525  0.2839
  916MPD2    H513470   3.082   1.515  15.383 -1.4115  1.0154 -1.0646
  916MPD2    N113471   2.810   1.733  15.729 -0.4131  0.5726 -0.0750
  916MPD2    H713472   2.793   1.808  15.796  1.4742 -0.9547  2.1314
  917MPD2     C13473   2.678   4.119  10.956  0.3354 -0.8314 -0.0980
  917MPD2    C113474   2.761   4.162  11.063 -0.2596  0.0655  0.4110
  917MPD2    C213475   2.879   4.231  11.036 -0.1878  0.0832  0.0298
  917MPD2    C313476   2.920   4.252  10.903 -0.1225  0.1428 -0.6253
  917MPD2    C413477   2.833   4.210  10.802 -0.1709  0.2230 -0.3521
  917MPD2    C513478   2.715   4.146  10.825 -0.0521 -0.5438 -0.3352
  917MPD2     H13479   2.950   4.263  11.112  0.0677  0.3664 -0.3236
  917MPD2    H113480   2.870   4.233  10.703  0.2570  1.4124  0.0761
  917MPD2    H213481   2.586   4.062  10.966  0.5946 -0.8686  1.9447
  917MPD2    H313482   2.653   4.117  10.741  2.5758  1.1739 -2.8867
  917MPD2     N13483   3.041   4.323  10.871  0.9879 -0.0008 -0.5310
  917MPD2    H513484   3.056   4.353  10.775 -0.1540  0.9887 -0.4026
  917MPD2    N113485   2.717   4.127  11.193  0.2407  0.0106  0.3782
  917MPD2    H713486   2.628   4.080  11.201 -1.5493  3.4193  0.6158
  918MPD2     C13487   3.057   4.416  12.108 -0.4537  0.5180  0.1208
  918MPD2    C113488   3.127   4.411  11.990  0.1339  0.0010 -0.0728
  918MPD2    C213489   3.064   4.345  11.882 -0.2631 -0.0816 -0.2133
  918MPD2    C313490   2.941   4.289  11.896  0.8302 -0.0323 -0.6294
  918MPD2    C413491   2.872   4.293  12.017  0.2516  0.3604 -0.7627
  918MPD2    C513492   2.929   4.361  12.123  0.0749  0.7488 -0.5677
  918MPD2     H13493   3.116   4.329  11.789  0.1404  0.3596 -0.0691
  918MPD2    H113494   2.773   4.253  12.034  1.1084 -0.9045  1.2175
  918MPD2    H213495   3.091   4.470  12.195  2.3330  0.7876 -1.1275
  918MPD2    H313496   2.872   4.375  12.214 -2.9385 -1.8273 -2.0517
  918MPD2     N13497   2.884   4.227  11.785 -0.0668  0.0795  0.0204
  918MPD2    H513498   2.914   4.249  11.691  0.2414 -0.9449 -0.1275
  918MPD2    N113499   3.265   4.448  11.978  0.2255  0.5882  0.2358
  918MPD2    H713500   3.305   4.417  11.890  2.4367  0.5683  1.2383
  919MPD2     C13501   3.499   2.272  11.163 -0.1180  0.6017  0.3583
  919MPD2    C113502   3.432   2.342  11.263 -0.0598  0.1913 -0.0995
  919MPD2    C213503   3.342   2.439  11.232 -0.2026 -0.0728 -0.7823
  919MPD2    C313504   3.309   2.466  11.097 -0.4600  0.8566  0.1990
  919MPD2    C413505   3.390   2.412  10.998 -0.5859 -0.1872 -0.2010
  919MPD2    C513506   3.474   2.313  11.038  0.0482 -0.3027 -0.7150
  919MPD2     H13507   3.287   2.486  11.313  0.4416 -2.3467  0.9563
  919MPD2    H113508   3.380   2.438  10.893 -1.6577 -1.1832 -0.3530
  919MPD2    H213509   3.563   2.186  11.175  0.1094  0.5456 -1.2780
  919MPD2    H313510   3.522   2.262  10.955 -0.3793 -1.4913 -0.2368
  919MPD2     N13511   3.229   2.562  11.044 -0.0544 -0.1627  0.0285
  919MPD2    H513512   3.222   2.574  10.944 -1.5992 -1.7208 -0.0516
  919MPD2    N113513   3.463   2.306  11.397 -0.3438 -0.1222 -0.0218
  919MPD2    H713514   3.538   2.238  11.410 -0.5831 -0.0616  1.6992
  920MPD2     C13515   3.273   3.474  10.804 -0.5839  0.5508 -0.0772
  920MPD2    C113516   3.162   3.453  10.726  0.2537  0.6927  0.0804
  920MPD2    C213517   3.107   3.322  10.721 -1.4372 -0.0394  0.1326
  920MPD2    C313518   3.155   3.222  10.807  0.5533  0.3250 -0.5641
  920MPD2    C413519   3.269   3.246  10.879 -0.1507  1.3636 -0.0071
  920MPD2    C513520   3.328   3.368  10.871  0.4642 -0.2225 -1.0999
  920MPD2     H13521   3.014   3.312  10.667 -0.8597  0.1221 -0.8769
  920MPD2    H113522   3.312   3.173  10.946 -0.8326  0.1931 -0.8612
  920MPD2    H213523   3.316   3.572  10.823 -0.5679  0.4172  0.5591
  920MPD2    H313524   3.410   3.386  10.939 -0.4926 -0.3443  0.0757
  920MPD2     N13525   3.081   3.102  10.827 -0.3271  0.2297  0.3928
  920MPD2    H513526   2.990   3.098  10.783 -0.2249  2.4778 -0.0380
  920MPD2    N113527   3.114   3.544  10.621 -1.0469  0.2961  0.6382
  920MPD2    H713528   3.044   3.502  10.560  0.4274  0.0989 -0.9537
  921MPD2     C13529   4.339   2.704  16.625  0.1096  0.5530 -0.9150
  921MPD2    C113530   4.448   2.618  16.618  0.3349 -0.4628  0.3610
  921MPD2    C213531   4.430   2.479  16.646 -0.6585 -0.1826  0.1777
  921MPD2    C313532   4.305   2.435  16.677  0.1882  0.4433 -0.1514
  921MPD2    C413533   4.193   2.516  16.689 -0.5115 -0.1284  0.1287
  921MPD2    C513534   4.216   2.653  16.662  0.4765  0.0836  0.1000
  921MPD2     H13535   4.514   2.414  16.621 -0.5553 -0.7178  1.8952
  921MPD2    H113536   4.094   2.480  16.712 -0.5601 -0.8582 -1.2122
  921MPD2    H213537   4.351   2.809  16.602  2.5596  0.4064 -0.3056
  921MPD2    H313538   4.132   2.719  16.679  1.1166  0.6124  1.2405
  921MPD2     N13539   4.278   2.296  16.702  0.3582 -0.2118  0.5317
  921MPD2    H513540   4.182   2.268  16.715  0.3190  0.8727  2.6947
  921MPD2    N113541   4.577   2.665  16.591 -0.2133  0.2349 -0.1849
  921MPD2    H713542   4.575   2.762  16.559  1.4435 -0.2277 -1.6750
  922MPD2     C13543   0.485   4.650  16.671  0.2125  0.0424  0.3811
  922MPD2    C113544   0.485   4.709  16.795 -0.5254  0.7876 -0.2148
  922MPD2    C213545   0.398   4.658  16.892 -0.2767  0.3802 -0.4254
  922MPD2    C313546   0.313   4.551  16.867  0.0214  0.1598  0.3587
  922MPD2    C413547   0.319   4.507  16.739  0.2852 -0.1389  0.3123
  922MPD2    C513548   0.407   4.546  16.644 -0.6148 -1.1053 -0.4789
  922MPD2     H13549   0.391   4.696  16.993 -3.7156  1.1826 -0.9631
  922MPD2    H113550   0.254   4.425  16.710  0.9333 -0.9944  1.2812
  922MPD2    H213551   0.541   4.692  16.588 -0.6214 -1.2248 -0.8204
  922MPD2    H313552   0.410   4.509  16.542  5.0157 -0.3224 -0.5596
  922MPD2     N13553   0.230   4.481  16.960  0.2458  0.3343 -0.1568
  922MPD2    H513554   0.162   4.413  16.925 -0.3496  1.0612 -0.4128
  922MPD2    N113555   0.561   0.089  16.831  0.1086  0.7920  0.2397
  922MPD2    H713556   0.541   0.142  16.915  1.5986  0.5558  0.7366
  923MPD2     C13557   2.556   2.306   9.482 -0.3432  0.2453  0.0192
  923MPD2    C113558   2.435   2.372   9.482  0.0914 -0.2479  0.3880
  923MPD2    C213559   2.438   2.513   9.475 -0.1280  0.1301 -0.1757
  923MPD2    C313560   2.553   2.579   9.491  0.5248  0.8542  0.2532
  923MPD2    C413561   2.670   2.505   9.496 -0.1689 -0.1896 -1.0435
  923MPD2    C513562   2.669   2.371   9.486  0.1688 -0.1944  0.0562
  923MPD2     H13563   2.347   2.569   9.455 -1.4874 -0.4864  4.1308
  923MPD2    H113564   2.763   2.561   9.503  0.1738 -1.1111  1.8821
  923MPD2    H213565   2.556   2.197   9.478 -1.0526  0.2329  0.3910
  923MPD2    H313566   2.765   2.323   9.476  0.3451  0.8488 -3.0701
  923MPD2     N13567   2.571   2.717   9.505  0.3915 -0.9197  0.1184
  923MPD2    H513568   2.664   2.756   9.514 -0.2719  0.8232 -0.3857
  923MPD2    N113569   2.318   2.292   9.466 -0.7713  0.0333  0.0131
  923MPD2    H713570   2.336   2.193   9.452  1.1752  0.7619 -2.6798
  924MPD2     C13571   2.187   0.069  15.712 -0.0997  0.0827 -0.0737
  924MPD2    C113572   2.157   0.041  15.843 -0.5240  0.1038 -0.4549
  924MPD2    C213573   2.205   0.131  15.934  0.4397 -0.3210  0.5174
  924MPD2    C313574   2.276   0.241  15.892  0.1317  0.3161 -0.7448
  924MPD2    C413575   2.314   0.263  15.764 -0.1499 -0.0108 -0.6943
  924MPD2    C513576   2.260   0.175  15.673 -0.3701 -0.1842  0.1634
  924MPD2     H13577   2.177   0.134  16.039  1.7619  1.8466  0.8108
  924MPD2    H113578   2.365   0.355  15.738  0.0737 -0.7038 -2.7284
  924MPD2    H213579   2.151   0.001  15.635 -0.1592 -0.9820  0.8939
  924MPD2    H313580   2.284   0.186  15.568 -0.4428  1.7629  0.3524
  924MPD2     N13581   2.300   0.332  15.994 -0.0093 -0.6547 -0.0102
  924MPD2    H513582   2.273   0.308  16.089  3.5808 -1.7239  0.7154
  924MPD2    N113583   2.072   4.669  15.869 -0.6371 -0.0830 -0.0376
  924MPD2    H713584   2.043   4.604  15.797 -0.9107  1.8292 -1.6449
  925MPD2     C13585   1.031   2.881  14.767 -0.5509  0.3284 -0.3575
  925MPD2    C113586   0.911   2.823  14.725 -0.3959  0.1061 -1.0673
  925MPD2    C213587   0.824   2.785  14.818 -0.2902 -0.0580  0.6655
  925MPD2    C313588   0.836   2.824  14.951  0.2153 -0.0813  0.0788
  925MPD2    C413589   0.952   2.884  14.993  0.1684 -0.4417 -0.1770
  925MPD2    C513590   1.053   2.898  14.901 -0.1801  0.0776 -0.4441
  925MPD2     H13591   0.736   2.733  14.781  1.2198 -2.2501  0.2050
  925MPD2    H113592   0.970   2.909  15.097 -0.6291  0.0183 -0.1446
  925MPD2    H213593   1.113   2.901  14.699  1.9147  0.7239  2.6772
  925MPD2    H313594   1.146   2.946  14.928  0.1020 -1.4200  1.2216
  925MPD2     N13595   0.732   2.797  15.045  0.2408 -0.1131  0.6217
  925MPD2    H513596   0.743   2.818  15.144  0.7526  1.4738  0.2356
  925MPD2    N113597   0.880   2.804  14.591  0.3718  0.2264 -0.1784
  925MPD2    H713598   0.806   2.738  14.567 -0.4421  1.0120  0.1674
  926MPD2     C13599   4.532   1.247  13.827  0.4238 -0.1082 -0.6064
  926MPD2    C113600   4.421   1.293  13.764  0.1363  0.1216 -0.1667
  926MPD2    C213601   4.431   1.346  13.635  0.5894  0.0252  0.8796
  926MPD2    C313602   4.552   1.362  13.572 -0.1258  0.3876  0.6639
  926MPD2    C413603   4.668   1.317  13.640  0.6842  0.5758  0.0342
  926MPD2    C513604   4.654   1.256  13.764  0.0732 -0.4357 -0.4526
  926MPD2     H13605   4.343   1.382  13.583  0.7388 -0.0650  0.5662
  926MPD2    H113606   0.027   1.299  13.591  1.3451 -1.9316  2.2411
  926MPD2    H213607   4.523   1.206  13.927 -0.6993 -1.2077 -1.1609
  926MPD2    H313608   0.009   1.231  13.818  0.7048  0.9319 -0.8802
  926MPD2     N13609   4.555   1.401  13.436 -0.2786 -0.0110  0.0066
  926MPD2    H513610   4.643   1.417  13.388 -1.8025 -0.0581 -2.7986
  926MPD2    N113611   4.299   1.294  13.837 -0.1601  0.6998 -0.6330
  926MPD2    H713612   4.223   1.342  13.790 -0.1572  0.5082 -0.8339
  927MPD2     C13613   4.030   3.054  17.550  0.1470 -0.3987  0.2055
  927MPD2    C113614   3.963   3.167  17.598 -0.2532  0.2377  0.2871
  927MPD2    C213615   3.952   3.272  17.515 -0.0748  0.3990 -1.0152
  927MPD2    C313616   4.005   3.268  17.385 -0.4660 -0.0656  0.2008
  927MPD2    C413617   4.067   3.153  17.342 -0.1058 -0.2986 -0.8728
  927MPD2    C513618   4.074   3.043  17.421  0.0983 -1.0526  0.7846
  927MPD2     H13619   3.913   3.366  17.551 -0.4603  0.4597 -1.5912
  927MPD2    H113620   4.118   3.152  17.246  0.5903 -0.5535 -0.5025
  927MPD2    H213621   4.054   2.979  17.624 -0.6826 -0.6670  0.2108
  927MPD2    H313622   4.132   2.954  17.401  0.8615 -0.2774 -0.4609
  927MPD2     N13623   3.993   3.383  17.304  0.2137 -0.2708  0.5804
  927MPD2    H513624   3.945   3.466  17.337  1.4164  0.2142  1.1037
  927MPD2    N113625   3.909   3.159  17.730 -0.3730  0.2392 -0.1223
  927MPD2    H713626   3.922   3.070   0.036  0.4159  0.7565  0.6307
  928MPD2     C13627   1.724   1.605   1.080 -0.6456 -0.5998 -0.2434
  928MPD2    C113628   1.842   1.660   1.123 -0.5985 -0.1898 -0.3774
  928MPD2    C213629   1.954   1.630   1.052 -0.5691  0.1636 -0.0733
  928MPD2    C313630   1.939   1.551   0.936 -0.1224 -0.6059  0.8902
  928MPD2    C413631   1.813   1.510   0.888  1.0693 -1.3409  0.4904
  928MPD2    C513632   1.707   1.530   0.972  0.7746 -0.0851 -0.1559
  928MPD2     H13633   2.044   1.689   1.069 -0.5630  0.0020  0.4351
  928MPD2    H113634   1.803   1.453   0.797 -0.8406 -0.6582  0.2578
  928MPD2    H213635   1.635   1.631   1.136  0.3002  1.3731  0.3653
  928MPD2    H313636   1.607   1.497   0.948  1.2779 -1.6725 -0.1187
  928MPD2     N13637   2.050   1.541   0.844 -0.0662  0.1195  0.3466
  928MPD2    H513638   2.028   1.538   0.745  0.1448  4.1418  0.1753
  928MPD2    N113639   1.843   1.748   1.231  0.0887 -0.1227  0.2010
  928MPD2    H713640   1.756   1.765   1.282  0.0748  0.0343  0.1273
  929MPD2     C13641   2.021   1.796  10.441  0.2302  0.7935  0.0829
  929MPD2    C113642   1.916   1.704  10.449 -0.1256 -0.9280 -0.3597
  929MPD2    C213643   1.831   1.687  10.341 -0.2798 -0.0378 -0.4113
  929MPD2    C313644   1.837   1.769  10.231  0.1402  0.2042 -0.0220
  929MPD2    C413645   1.945   1.848  10.222  0.0488  0.4222 -0.0046
  929MPD2    C513646   2.029   1.874  10.328  0.5318 -0.4371  0.2190
  929MPD2     H13647   1.740   1.628  10.354  0.1563 -0.3976  0.9998
  929MPD2    H113648   1.966   1.910  10.136  0.7427 -0.6920 -0.6322
  929MPD2    H213649   2.085   1.811  10.527  0.6685  0.0715 -0.1234
  929MPD2    H313650   2.111   1.944  10.319  0.2944 -0.2873 -0.7679
  929MPD2     N13651   1.747   1.769  10.124  0.7741  0.0979 -0.0987
  929MPD2    H513652   1.766   1.849  10.064 -1.0423  1.2885  0.9168
  929MPD2    N113653   1.904   1.635  10.570  0.3837  0.0552 -0.1327
  929MPD2    H713654   1.971   1.658  10.643  1.3371 -0.4172 -0.8551
  930MPD2     C13655   4.563   3.853  14.078 -0.0653  0.7249 -0.1950
  930MPD2    C113656   4.449   3.931  14.064 -0.0783  0.1618  0.0583
  930MPD2    C213657   4.375   3.921  13.948 -0.7252 -0.0398  0.0754
  930MPD2    C313658   4.401   3.835  13.845 -0.1105  0.4114  0.1352
  930MPD2    C413659   4.510   3.751  13.871 -0.0628  0.3273  0.3923
  930MPD2    C513660   4.580   3.754  13.984 -0.4204 -0.9886  0.0448
  930MPD2     H13661   4.292   3.991  13.940  1.6981  2.8629  0.1036
  930MPD2    H113662   4.534   3.676  13.797 -0.7582 -0.1046  0.6102
  930MPD2    H213663   4.626   3.846  14.166  1.4434 -0.5958 -1.3791
  930MPD2    H313664   4.670   3.693  13.989 -2.0673 -3.5677 -2.4981
  930MPD2     N13665   4.326   3.818  13.720 -0.2561  0.4395  0.1095
  930MPD2    H513666   4.365   3.745  13.662 -0.7681  2.0786 -2.3416
  930MPD2    N113667   4.419   4.038  14.154 -0.0554 -0.3520 -0.6928
  930MPD2    H713668   4.346   4.094  14.113  0.1523 -1.3139 -2.3754
  931MPD2     C13669   4.042   2.679   0.366 -0.4808 -0.2418  0.7081
  931MPD2    C113670   3.938   2.747   0.425  0.3604 -0.3417 -0.4220
  931MPD2    C213671   3.867   2.683   0.531  0.3313  0.0353  0.8334
  931MPD2    C313672   3.919   2.562   0.583 -0.5215 -0.2343  0.0854
  931MPD2    C413673   4.018   2.502   0.519  0.4301  0.9413  0.6150
  931MPD2    C513674   4.080   2.561   0.416 -0.1411  0.4698  0.3384
  931MPD2     H13675   3.790   2.744   0.575  1.2951  0.7850  1.4935
  931MPD2    H113676   4.050   2.403   0.551  1.2632  0.7805 -0.6900
  931MPD2    H213677   4.102   2.727   0.290 -0.9098  1.5137  1.4595
  931MPD2    H313678   4.173   2.521   0.378 -2.5379 -1.8318 -3.0425
  931MPD2     N13679   3.878   2.507   0.708  0.3107 -0.7962 -0.0409
  931MPD2    H513680   3.909   2.412   0.724  2.1634 -0.4013 -1.2177
  931MPD2    N113681   3.911   2.874   0.380 -0.5594 -0.4494  0.3662
  931MPD2    H713682   3.968   2.914   0.307 -0.8002 -0.3493  0.2313
  932MPD2     C13683   0.887   1.927  11.139 -0.3385  0.0150  0.2513
  932MPD2    C113684   0.955   2.016  11.228  0.3944 -0.1464  0.6303
  932MPD2    C213685   1.025   1.958  11.328 -0.0803  0.5477  0.0025
  932MPD2    C313686   1.026   1.818  11.349 -0.0808  0.5440 -0.5998
  932MPD2    C413687   0.957   1.731  11.259 -0.2894 -0.4186  0.0229
  932MPD2    C513688   0.891   1.792  11.160  0.2259 -0.2371  0.5647
  932MPD2     H13689   1.093   2.019  11.386  1.9476 -1.0413 -0.6910
  932MPD2    H113690   0.944   1.626  11.283  1.3484 -0.9982 -1.6296
  932MPD2    H213691   0.821   1.954  11.057  0.5382  2.6104  0.4086
  932MPD2    H313692   0.840   1.733  11.084 -0.9712 -0.5668  1.6138
  932MPD2     N13693   1.099   1.753  11.454  0.6553  0.1959 -0.4050
  932MPD2    H513694   1.101   1.651  11.456  0.3166  0.2081  0.3150
  932MPD2    N113695   0.959   2.162  11.217 -0.2156  0.1271  0.1552
  932MPD2    H713696   1.001   2.215  11.294  0.9491 -0.7978  0.1537
  933MPD2     C13697   1.449   2.244   1.719  0.6974  0.2015 -0.7673
  933MPD2    C113698   1.540   2.257   1.617  0.5653  0.6652 -1.3562
  933MPD2    C213699   1.519   2.353   1.513 -0.6076  0.3063 -0.1629
  933MPD2    C313700   1.402   2.432   1.511  0.0709 -0.1830  0.3236
  933MPD2    C413701   1.307   2.420   1.612 -0.3112 -0.3316 -0.5376
  933MPD2    C513702   1.329   2.318   1.707  0.5487 -0.2901 -0.1995
  933MPD2     H13703   1.580   2.351   1.424  0.1976  0.1874  0.3969
  933MPD2    H113704   1.216   2.479   1.624 -0.9664 -1.5420  0.3717
  933MPD2    H213705   1.451   2.169   1.797  0.6110  2.6988  1.6387
  933MPD2    H313706   1.255   2.308   1.785 -0.0502 -1.4635 -0.9180
  933MPD2     N13707   1.387   2.517   1.402 -0.6663  0.2846 -0.7896
  933MPD2    H513708   1.470   2.530   1.344  1.4610 -2.1476  1.7642
  933MPD2    N113709   1.645   2.166   1.619 -0.1348 -0.0057 -0.1749
  933MPD2    H713710   1.663   2.114   1.704  0.8056 -2.5867 -1.9576
  934MPD2     C13711   2.358   3.890   1.960 -0.2524 -0.3054  0.4518
  934MPD2    C113712   2.487   3.860   1.921  0.4409 -0.3842  0.0303
  934MPD2    C213713   2.505   3.828   1.790  0.1449  0.1947  0.5229
  934MPD2    C313714   2.407   3.825   1.692 -0.2392  0.4069 -0.1341
  934MPD2    C413715   2.279   3.865   1.736  0.6615 -0.3291 -0.1251
  934MPD2    C513716   2.259   3.889   1.872  0.3388  0.4533 -0.1100
  934MPD2     H13717   2.606   3.819   1.750 -0.0997 -1.6106  0.3094
  934MPD2    H113718   2.196   3.872   1.668  1.4360  0.5341 -0.9793
  934MPD2    H213719   2.334   3.926   2.059  0.0359 -0.0646  0.4356
  934MPD2    H313720   2.162   3.916   1.911  0.1397 -0.8693  0.3288
  934MPD2     N13721   2.430   3.797   1.552  0.2578  0.0354 -0.1198
  934MPD2    H513722   2.346   3.805   1.497  0.0648  0.6426  0.2569
  934MPD2    N113723   2.597   3.886   2.008  0.5977 -0.2537 -0.3701
  934MPD2    H713724   2.688   3.866   1.970  1.5574 -1.3570  2.5048
  935MPD2     C13725   2.996   3.125   1.053  0.4318  0.1706 -0.2772
  935MPD2    C113726   2.869   3.122   1.003 -0.3727 -0.2594 -0.3498
  935MPD2    C213727   2.778   3.217   1.050 -0.4696  0.9744 -0.7448
  935MPD2    C313728   2.813   3.312   1.146  0.3136 -0.0179 -0.6056
  935MPD2    C413729   2.944   3.306   1.199 -0.3796  0.2757  0.2822
  935MPD2    C513730   3.028   3.213   1.145  0.4423 -0.1569  0.6419
  935MPD2     H13731   2.674   3.212   1.018 -0.1601 -0.6846 -1.4765
  935MPD2    H113732   2.980   3.386   1.263  0.3445 -0.0668  0.2992
  935MPD2    H213733   3.071   3.054   1.022  0.3832 -0.1582  0.3580
  935MPD2    H313734   3.127   3.211   1.188  0.9389  3.8096 -0.3187
  935MPD2     N13735   2.723   3.410   1.188  0.5678  0.0683 -0.2758
  935MPD2    H513736   2.763   3.477   1.254  1.4347  0.2563 -0.9846
  935MPD2    N113737   2.831   3.039   0.904  0.0173 -0.1943 -0.8844
  935MPD2    H713738   2.734   3.039   0.873 -1.0781  0.4520  2.5996
  936MPD2     C13739   0.736   1.059  12.626  0.2251  0.7835  0.3772
  936MPD2    C113740   0.797   0.943  12.648  0.0106 -0.6812  1.1620
  936MPD2    C213741   0.910   0.908  12.571  0.8558 -0.1850  0.0138
  936MPD2    C313742   0.966   0.987  12.481  0.3605  0.7363  0.1820
  936MPD2    C413743   0.903   1.104  12.466 -0.6667  0.2781 -0.4175
  936MPD2    C513744   0.792   1.139  12.531 -0.5987  0.1487 -1.1508
  936MPD2     H13745   0.951   0.809  12.586  1.7956  0.1525 -0.3604
  936MPD2    H113746   0.943   1.177  12.397 -0.9342 -1.8794 -2.8447
  936MPD2    H213747   0.653   1.098  12.685  1.7827  2.6282  1.3835
  936MPD2    H313748   0.742   1.232  12.508 -0.6326  0.3689 -0.1604
  936MPD2     N13749   1.093   0.970  12.411  0.4685 -0.3059  1.0679
  936MPD2    H513750   1.127   1.048  12.356 -0.8530 -0.0987  0.5380
  936MPD2    N113751   0.774   0.846  12.748 -0.5993 -0.2060  0.3828
  936MPD2    H713752   0.819   0.755  12.742  0.1070  0.3252 -2.6031
  937MPD2     C13753   3.893   1.864  11.779  0.0807 -0.0518 -1.4944
  937MPD2    C113754   3.847   1.938  11.672 -0.4553  0.4127  0.2553
  937MPD2    C213755   3.937   1.977  11.574  0.1747 -0.2257  0.6356
  937MPD2    C313756   4.056   1.913  11.548  0.6862  0.0316 -0.4245
  937MPD2    C413757   4.102   1.836  11.649 -0.4982  0.4605 -0.2525
  937MPD2    C513758   4.019   1.805  11.758  0.1390  0.1854  0.1202
  937MPD2     H13759   3.906   2.047  11.497 -3.1001 -1.9192  0.4227
  937MPD2    H113760   4.200   1.790  11.642 -1.0869 -0.4402 -2.7230
  937MPD2    H213761   3.827   1.840  11.860 -1.6275 -0.3394 -2.9780
  937MPD2    H313762   4.062   1.736  11.829  4.5497  1.7491 -1.0486
  937MPD2     N13763   4.133   1.955  11.436  0.1606 -0.2654  0.0365
  937MPD2    H513764   4.092   2.029  11.379 -1.3168  1.0515  2.8340
  937MPD2    N113765   3.730   2.015  11.675  0.4201 -0.1177  0.7889
  937MPD2    H713766   3.724   2.068  11.588  1.2383 -1.6460 -0.2006
  938MPD2     C13767   2.003   3.456   0.687 -0.6177 -0.6337 -0.0238
  938MPD2    C113768   2.051   3.534   0.794  0.4269 -0.3935 -0.3363
  938MPD2    C213769   2.034   3.496   0.926  0.3126 -0.2737  0.5451
  938MPD2    C313770   1.967   3.383   0.955  0.2540 -0.7725 -0.7150
  938MPD2    C413771   1.927   3.307   0.851 -1.0170 -0.2956  0.2196
  938MPD2    C513772   1.947   3.339   0.719  0.1199 -0.0123 -0.0434
  938MPD2     H13773   2.057   3.566   1.005  0.6185  1.1993 -0.8541
  938MPD2    H113774   1.885   3.208   0.865 -1.4431 -0.1573 -0.0823
  938MPD2    H213775   2.022   3.479   0.583  0.6506 -2.1455 -0.1329
  938MPD2    H313776   1.925   3.266   0.642  0.3357 -0.7677  0.5996
  938MPD2     N13777   1.935   3.340   1.085 -0.1018 -0.3831 -0.4701
  938MPD2    H513778   1.889   3.250   1.094 -0.7073 -0.1940 -1.6113
  938MPD2    N113779   2.130   3.646   0.774  0.4294 -0.1042 -0.2347
  938MPD2    H713780   2.175   3.692   0.853 -0.2204 -2.6980  1.6556
  939MPD2     C13781   3.141   4.243   0.642  0.5998  0.8725  0.5994
  939MPD2    C113782   3.105   4.372   0.618 -0.4586 -0.2081  0.2672
  939MPD2    C213783   3.057   4.416   0.499  0.2987 -0.0421  0.3501
  939MPD2    C313784   3.041   4.332   0.389 -0.6854 -0.3943  0.3798
  939MPD2    C413785   3.064   4.194   0.414  0.9077  0.7095  0.0341
  939MPD2    C513786   3.116   4.154   0.534 -0.2147  0.9100  0.2156
  939MPD2     H13787   3.017   4.516   0.489 -0.9260 -0.5391  0.3243
  939MPD2    H113788   3.039   4.120   0.338  0.3821  0.5637  0.3478
  939MPD2    H213789   3.169   4.209   0.741  0.4817 -0.4575  0.1811
  939MPD2    H313790   3.124   4.047   0.544 -0.9128  0.8720  0.3480
  939MPD2     N13791   3.006   4.387   0.266  0.1702  0.0195  0.1962
  939MPD2    H513792   2.998   4.488   0.266  0.7966  0.0672 -0.6892
  939MPD2    N113793   3.124   4.464   0.723  0.3004 -0.1424  0.0415
  939MPD2    H713794   3.167   4.428   0.808  0.3864 -0.5916 -0.1961
  940MPD2     C13795   2.157   1.146  12.466  0.3313  0.6592 -0.3800
  940MPD2    C113796   2.173   1.070  12.581  0.1461 -0.0972 -0.0431
  940MPD2    C213797   2.100   0.950  12.597  0.2987 -0.0862  0.3917
  940MPD2    C313798   2.024   0.907  12.488  0.0385 -0.0181 -0.0390
  940MPD2    C413799   1.997   0.992  12.389  0.3347  0.4232 -0.2352
  940MPD2    C513800   2.067   1.109  12.376  0.5106 -0.2809  0.1045
  940MPD2     H13801   2.117   0.891  12.686  4.5048  0.5817  0.0579
  940MPD2    H113802   1.940   0.960  12.303 -0.4039  2.0676 -0.3624
  940MPD2    H213803   2.199   1.245  12.453 -0.6406  0.9679 -1.1727
  940MPD2    H313804   2.048   1.175  12.292  0.6734 -0.3694 -0.0028
  940MPD2     N13805   1.957   0.779  12.492  0.4186 -0.0943 -0.6289
  940MPD2    H513806   1.997   0.714  12.559  0.5536  0.8132  0.1718
  940MPD2    N113807   2.256   1.110  12.688 -0.0005  0.1680  0.2317
  940MPD2    H713808   2.259   1.046  12.767  0.7950  0.0366  0.0910
  941MPD2     C13809   0.521   0.622   9.991  0.6880 -0.7781  0.3930
  941MPD2    C113810   0.631   0.548  10.028  0.6260 -0.0400  0.2397
  941MPD2    C213811   0.612   0.419  10.085  0.0908  0.0681  0.1704
  941MPD2    C313812   0.487   0.366  10.096  0.5858  0.5010 -0.1585
  941MPD2    C413813   0.380   0.445  10.062 -0.3376 -0.3580  0.1917
  941MPD2    C513814   0.394   0.571  10.015  0.5822 -0.0084 -0.1494
  941MPD2     H13815   0.698   0.364  10.120  1.0533  2.5223  1.6129
  941MPD2    H113816   0.279   0.406  10.065 -0.4180 -0.0542  1.2620
  941MPD2    H213817   0.535   0.722   9.951  1.1285 -1.4813 -1.2019
  941MPD2    H313818   0.306   0.633   9.996  1.1036  0.7431 -0.1197
  941MPD2     N13819   0.460   0.234  10.139  0.2992 -0.3424  0.1744
  941MPD2    H513820   0.365   0.204  10.122  0.0084  1.6986 -1.8520
  941MPD2    N113821   0.764   0.589  10.003 -0.5547 -0.4089  0.4288
  941MPD2    H713822   0.835   0.527  10.041  0.5305 -0.3300 -1.4992
  942MPD2     C13823   0.133   2.452   9.651  0.3623  0.5300  0.1677
  942MPD2    C113824   0.162   2.393   9.775 -0.2580  0.0037 -0.2497
  942MPD2    C213825   0.280   2.318   9.781  0.4322  0.2103 -0.0511
  942MPD2    C313826   0.347   2.278   9.668  0.0784  1.0227  0.0364
  942MPD2    C413827   0.320   2.337   9.550 -0.9628 -0.0709 -0.5256
  942MPD2    C513828   0.211   2.425   9.541  0.4535  0.4077 -0.2996
  942MPD2     H13829   0.295   2.256   9.868 -1.4891  1.0111  0.8528
  942MPD2    H113830   0.372   2.312   9.458  0.6699 -0.2837  0.4587
  942MPD2    H213831   0.069   2.539   9.640 -2.2620 -1.4251 -0.0146
  942MPD2    H313832   0.182   2.470   9.446 -0.2420 -1.6148 -1.0376
  942MPD2     N13833   0.463   2.190   9.673  0.0670 -0.2729 -0.0698
  942MPD2    H513834   0.511   2.179   9.584 -0.6737  2.5933 -0.8453
  942MPD2    N113835   0.085   2.417   9.891  0.5938 -0.3921  0.7055
  942MPD2    H713836   0.119   2.386   9.982 -0.6029 -0.1328  1.2430
  943MPD2     C13837   4.511   4.150  10.296  0.7692  0.2494  0.3461
  943MPD2    C113838   4.535   4.096  10.178 -0.1901  0.3301 -0.3231
  943MPD2    C213839   4.585   4.170  10.070  0.2237  0.5142 -0.8583
  943MPD2    C313840   4.603   4.304  10.087 -0.3453 -0.7715 -0.3080
  943MPD2    C413841   4.579   4.363  10.202  0.2826  0.7290  0.0355
  943MPD2    C513842   4.532   4.287  10.307  0.3082  1.1843  0.0400
  943MPD2     H13843   4.621   4.118   9.982  2.7963 -2.6620  2.0377
  943MPD2    H113844   4.594   4.470  10.206 -1.2580  0.9083  0.9660
  943MPD2    H213845   4.471   4.092  10.378  0.9379  1.4417  1.2683
  943MPD2    H313846   4.506   4.338  10.398 -2.4079 -0.5932  0.2619
  943MPD2     N13847   4.647   4.386   9.972  0.0745  0.3183  0.1238
  943MPD2    H513848   4.676   4.481   9.994 -1.6295  1.0021 -0.6423
  943MPD2    N113849   4.501   3.958  10.160 -1.0868 -0.2822  0.5458
  943MPD2    H713850   4.440   3.923  10.234 -3.0261  0.2173 -0.8063
  944MPD2     C13851   3.957   3.486  10.807  0.0757  0.8636  0.5183
  944MPD2    C113852   4.055   3.575  10.756 -0.1232  0.1661 -0.6209
  944MPD2    C213853   4.078   3.701  10.810  0.4397  0.7797 -0.0116
  944MPD2    C313854   3.990   3.738  10.910  0.6255 -0.2043 -0.8034
  944MPD2    C413855   3.900   3.650  10.974 -0.2566 -0.1507 -0.0753
  944MPD2    C513856   3.886   3.524  10.919  0.1214  0.2270  0.6048
  944MPD2     H13857   4.144   3.773  10.763  1.6630  0.1554  0.7750
  944MPD2    H113858   3.839   3.671  11.061 -1.2367  0.0528 -0.8012
  944MPD2    H213859   3.936   3.387  10.768 -0.4362  0.1508  2.5906
  944MPD2    H313860   3.818   3.459  10.972  0.1089 -0.6984 -0.5660
  944MPD2     N13861   4.004   3.871  10.955  0.4585 -0.1638  0.7155
  944MPD2    H513862   4.067   3.928  10.900 -0.1757 -0.1012  0.0486
  944MPD2    N113863   4.141   3.523  10.654 -0.6910 -0.2969  0.1417
  944MPD2    H713864   4.128   3.424  10.639 -0.4373 -0.3435  0.2221
    1TMC1    C113865   2.940   1.548  13.433 -0.1069 -0.1058  0.4017
    1TMC1    C213866   2.938   1.546  13.300  0.0712  0.4128 -0.1460
    1TMC1    C313867   2.899   1.663  13.237 -0.4631  0.0408  0.7441
    1TMC1    C413868   2.895   1.657  13.503 -0.2295  0.1915  0.2690
    1TMC1    C513869   2.850   1.769  13.437  0.3654 -0.1963  0.0535
    1TMC1    C613870   2.865   1.779  13.304  0.3481  0.3580 -0.4255
    1TMC1     C13871   2.978   1.423  13.502 -0.3056  0.1979  0.3959
    1TMC1     O13872   2.989   1.324  13.428 -0.2028 -0.5802  0.1015
    1TMC1     H13873   2.984   1.473  13.235  2.4586  1.2559  0.5792
    1TMC1    H113874   2.876   1.654  13.609 -0.5720  0.4077  0.2112
    1TMC1    H213875   2.855   1.872  13.248 -0.2426  0.7221  0.2849
    1TMC1    C713876   2.846   1.894  13.512 -0.4870  0.0458  0.1966
    1TMC1    C813877   2.909   1.678  13.092 -0.0560  0.3763 -0.0599
    1TMC1    O113878   2.927   1.924  13.595 -0.0237  0.2371 -0.2845
    1TMC1    O213879   2.888   1.788  13.042  0.9750  0.0197 -0.2133
    1TMC1    O313880   2.759   1.987  13.457 -0.5343 -0.2573 -0.3293
    1TMC1    H313881   2.704   1.932  13.398 -1.1603  0.7003 -0.6440
    1TMC1    O513882   2.869   1.569  13.026 -0.2171 -0.2187  0.7030
    1TMC1    H513883   2.866   1.480  13.069  1.8393 -1.3145 -1.4107
    2MPD2     C13884   2.975   1.123  13.904 -0.6634 -0.2119 -0.1910
    2MPD2    C113885   3.001   1.253  13.950  0.3453 -0.7076  0.2669
    2MPD2    C213886   3.003   1.356  13.864  0.6005 -0.0318 -0.9060
    2MPD2    C313887   2.971   1.328  13.732  0.1495 -0.8404 -0.0369
    2MPD2    C413888   2.938   1.203  13.686 -0.1783  0.0427  0.4298
    2MPD2    C513889   2.947   1.098  13.775  0.5339 -1.1410 -0.1037
    2MPD2     H13890   3.030   1.457  13.892 -0.2489 -0.2457  0.6660
    2MPD2    H113891   2.905   1.184  13.585 -0.0443  0.4336  0.3134
    2MPD2    H213892   3.001   1.045  13.975  3.0984  0.9916 -0.2238
    2MPD2    H313893   2.921   0.997  13.746 -2.6328 -0.8773  1.8061
    2MPD2     N13894   2.981   1.431  13.642  0.2723  0.3281 -0.8085
    2MPD2    H513895   3.010   1.521  13.679 -2.1203  0.4553  0.7646
    2MPD2    N113896   3.001   1.269  14.093  0.0740  0.9526  0.3052
    2MPD2    H713897   2.999   1.182  14.146  0.7619 -0.6315 -2.2796
    3TMC2    C113898   2.933   1.359  14.289 -0.3410  0.1892  0.8200
    3TMC2    C213899   3.025   1.347  14.383  0.7243  0.3655  0.2123
    3TMC2    C313900   2.987   1.365  14.515 -0.1016  0.7787 -0.4755
    3TMC2    C413901   2.804   1.384  14.323 -0.9515  1.1394 -0.1519
    3TMC2    C513902   2.764   1.378  14.456 -0.0491 -0.3192 -0.8259
    3TMC2    C613903   2.860   1.377  14.556  0.2143  0.3546 -0.0619
    3TMC2     C13904   2.971   1.384  14.157  0.5129 -0.2505  0.1690
    3TMC2     O13905   2.961   1.496  14.117  0.1444  0.0072 -0.2617
    3TMC2     H13906   3.129   1.337  14.356  0.0472 -3.5176 -0.9608
    3TMC2    H113907   2.738   1.394  14.238  0.0121 -1.1261 -1.1823
    3TMC2    H213908   2.839   1.375  14.663 -3.4507  1.2310 -0.7631
    3TMC2    C713909   2.628   1.409  14.490  0.0211  0.5596  0.1596
    3TMC2    C813910   3.102   1.378  14.599 -0.0146  0.2987  0.9874
    3TMC2    O113911   2.591   1.417  14.607  0.0242 -0.3401 -0.1563
    3TMC2    O213912   3.207   1.316  14.606  0.2566  0.3888 -0.0154
    3TMC2    O513913   3.071   1.493  14.668  0.1969 -0.1005  0.0225
    3TMC2    H513914   2.984   1.537  14.663 -0.0436 -0.6128 -0.3090
    4TMC2    C113915   1.935   1.327  13.769 -0.0187  0.4226 -0.0298
    4TMC2    C213916   1.987   1.339  13.640 -0.5991 -0.3482 -0.6547
    4TMC2    C313917   2.117   1.374  13.626 -0.3875  0.7368 -0.1847
    4TMC2    C413918   2.006   1.362  13.883  0.2312 -0.6147  0.1404
    4TMC2    C513919   2.133   1.415  13.858 -0.1351 -0.4522 -0.3443
    4TMC2    C613920   2.191   1.417  13.734 -0.2011  0.6736  0.2488
    4TMC2     C13921   1.799   1.285  13.795 -0.6742  0.2702 -0.6048
    4TMC2     O13922   1.772   1.258  13.916 -0.2094  0.3132  0.4871
    4TMC2     H13923   1.932   1.301  13.554 -0.6441  1.5683 -1.4745
    4TMC2    H113924   1.967   1.358  13.985  0.1463  0.0065  0.1333
    4TMC2    H213925   2.299   1.431  13.726  0.0713 -1.8233 -0.3231
    4TMC2    C713926   2.219   1.420  13.978  0.0370 -0.2731 -0.3112
    4TMC2    C813927   2.180   1.350  13.497  0.0285  0.5137  0.4204
    4TMC2    O113928   2.338   1.391  13.954  0.3977 -0.1873 -0.0729
    4TMC2    O213929   2.143   1.271  13.410  0.2163  0.3439  0.3333
    4TMC2    O513930   2.281   1.443  13.483  0.5932 -0.6092  0.8831
    4TMC2    H513931   2.280   1.520  13.543 -2.7759 -0.5664  0.7564
    5MPD2     C13932   1.303   1.250  13.651 -0.0514  0.0732  0.0858
    5MPD2    C113933   1.378   1.272  13.535 -0.0448 -0.1479 -0.1070
    5MPD2    C213934   1.519   1.284  13.549  0.0512  0.1890 -0.2262
    5MPD2    C313935   1.578   1.275  13.673 -0.8054  0.0599 -0.7207
    5MPD2    C413936   1.503   1.264  13.784  0.2093  0.1573 -0.4047
    5MPD2    C513937   1.367   1.255  13.772  0.0713 -0.2043  0.0577
    5MPD2     H13938   1.579   1.302  13.460  3.1200  0.3146  1.8985
    5MPD2    H113939   1.531   1.267  13.889  0.4941 -2.6564 -0.3822
    5MPD2    H213940   1.198   1.221  13.649 -0.4217  1.6071 -3.2464
    5MPD2    H313941   1.308   1.246  13.863 -1.8808  1.0063 -1.0919
    5MPD2     N13942   1.718   1.278  13.681 -0.3653 -0.6061 -1.3949
    5MPD2    H513943   1.768   1.296  13.595 -1.6811 -2.3854 -2.5186
    5MPD2    N113944   1.307   1.265  13.412 -0.1015  1.0772  0.5045
    5MPD2    H713945   1.207   1.250  13.424  0.0846 -1.2596 -0.8913
    6MPD1     C13946   1.318   2.564  13.497  0.3899 -0.2324 -0.4714
    6MPD1    C113947   1.432   2.513  13.433  0.6310 -0.3504 -0.7754
    6MPD1    C213948   1.407   2.474  13.303 -0.1239  0.2730 -0.5178
    6MPD1    C313949   1.288   2.488  13.232  0.7263  0.3003  0.2781
    6MPD1    C413950   1.181   2.545  13.298 -0.1116  0.0923  0.1952
    6MPD1    C513951   1.200   2.590  13.429 -0.7064  0.3310  0.5729
    6MPD1     H13952   1.496   2.437  13.254  0.5502  2.3928 -0.9040
    6MPD1    H113953   1.082   2.551  13.253  0.7017 -1.3865 -1.7801
    6MPD1    H213954   1.319   2.592  13.602 -0.1410 -3.1448  0.2999
    6MPD1    H313955   1.108   2.626  13.475 -1.3748  1.4216 -1.6088
    6MPD1     N13956   1.266   2.429  13.107  0.3484  0.3749  0.0860
    6MPD1    H513957   1.182   2.462  13.060  0.2758  2.1621  1.4326
    6MPD1    N113958   1.546   2.477  13.506  0.0703 -0.0218 -0.2390
    6MPD1    H613959   1.628   2.461  13.447  1.1017 -0.2971  1.2607
    6MPD1    H713960   1.568   2.530  13.590  1.7783  2.8939 -2.4814
    7MPD2     C13961   0.811   1.852  13.054  0.2598  0.3576 -0.3755
    7MPD2    C113962   0.912   1.821  12.965  0.4874  0.2759  0.2725
    7MPD2    C213963   0.954   1.691  12.949 -0.7333 -0.8030 -0.2134
    7MPD2    C313964   0.902   1.597  13.031 -0.0055 -0.2311 -0.6589
    7MPD2    C413965   0.806   1.630  13.124  0.2234 -0.2207  0.1399
    7MPD2    C513966   0.757   1.759  13.135  0.2582  0.7823 -0.1912
    7MPD2     H13967   1.036   1.676  12.879  0.4466 -1.1702  1.2535
    7MPD2    H113968   0.758   1.559  13.190  1.7827  1.2918  2.8487
    7MPD2    H213969   0.776   1.954  13.065  0.1410  0.1447  1.2588
    7MPD2    H313970   0.679   1.782  13.207 -1.1711 -1.1380 -1.1174
    7MPD2     N13971   0.968   1.474  13.024  0.3422  0.0426  0.0379
    7MPD2    H513972   1.043   1.472  12.956  0.5377  0.8110  0.2358
    7MPD2    N113973   0.994   1.918  12.895  0.2547  0.1573 -0.4228
    7MPD2    H713974   1.069   1.879  12.838  2.1064  2.1616  0.6343
    8TMC3    C113975   1.048   1.264  13.075  0.1476  0.2467  0.1037
    8TMC3    C213976   1.122   1.256  13.188  0.7400  0.2660  0.2229
    8TMC3    C313977   1.261   1.258  13.171 -0.2277  0.9579  0.4944
    8TMC3    C413978   1.105   1.283  12.956  0.2055 -0.4603  0.3846
    8TMC3    C513979   1.242   1.284  12.937  0.1769 -0.1984  0.4170
    8TMC3    C613980   1.323   1.271  13.046 -0.3972  0.3980 -0.0039
    8TMC3     C13981   0.948   1.361  13.101  0.7751 -1.3596  0.0210
    8TMC3     O13982   0.879   1.344  13.202 -0.1888 -0.1881  0.9408
    8TMC3     H13983   1.073   1.243  13.283 -1.5007  1.1511 -0.8145
    8TMC3    H113984   1.046   1.295  12.866 -0.5054 -1.4939  0.7153
    8TMC3    H213985   1.431   1.262  13.038 -0.4932  0.1014 -0.9215
    8TMC3    C713986   1.271   1.398  12.850 -0.4553  0.3690 -0.2175
    8TMC3    C813987   1.357   1.275  13.288  0.4303 -0.7488 -0.5801
    8TMC3    O113988   1.176   1.471  12.826 -0.1071  0.5696 -0.0987
    8TMC3    O213989   1.475   1.273  13.253 -0.0274 -0.3657 -0.0878
    9TMC3    C113990   1.283   2.265  12.935 -0.5798 -0.4858  0.7203
    9TMC3    C213991   1.368   2.202  12.842 -0.8203  1.3584 -0.0908
    9TMC3    C313992   1.317   2.094  12.774  0.4056 -0.0737 -0.8214
    9TMC3    C413993   1.154   2.223  12.958 -0.6619 -0.0459  0.0004
    9TMC3    C513994   1.109   2.112  12.889 -0.2372 -0.1194 -0.2446
    9TMC3    C613995   1.189   2.049  12.796  0.0451 -0.1574  0.1408
    9TMC3     C13996   1.346   2.334  13.047 -0.4117 -0.2742 -0.3884
    9TMC3     O13997   1.441   2.272  13.095  0.2428  0.0455 -0.4762
    9TMC3     H13998   1.466   2.242  12.819 -0.1233 -0.8626 -1.0069
    9TMC3    H113999   1.089   2.257  13.038 -2.2016  0.8518 -1.6523
    9TMC3    H214000   1.142   1.978  12.730  1.5597 -1.0983  0.0972
    9TMC3    C714001   0.988   2.050  12.926  0.3318  0.2361  0.7715
    9TMC3    C814002   1.420   2.012  12.711 -0.3501  0.0226 -0.4709
    9TMC3    O114003   0.918   2.106  13.008  0.2677  0.4075  0.4608
    9TMC3    O214004   1.529   2.063  12.701  0.0011 -0.3210 -0.1079
   10MPD2     C14005   1.597   1.540  12.741  0.2362  0.0555 -0.4294
   10MPD2    C114006   1.460   1.540  12.772  0.2958  0.0406 -0.4853
   10MPD2    C214007   1.390   1.655  12.741  0.2950 -0.0131  0.1690
   10MPD2    C314008   1.459   1.766  12.704 -0.4959 -1.1865  0.2392
   10MPD2    C414009   1.593   1.770  12.680  0.4456 -0.0427 -0.1327
   10MPD2    C514010   1.656   1.648  12.690  0.2845 -0.4354  0.5083
   10MPD2     H14011   1.282   1.656  12.748  0.1069  1.1370 -2.5633
   10MPD2    H114012   1.653   1.858  12.662 -0.5664  0.8036  0.6431
   10MPD2    H214013   1.653   1.447  12.738  0.5861  0.2163  0.9592
   10MPD2    H314014   1.760   1.637  12.661  0.7578 -1.6372  2.6740
   10MPD2     N14015   1.379   1.881  12.717 -0.8308  0.0127  0.2825
   10MPD2    H514016   1.294   1.870  12.772 -0.1322  0.5977  1.4820
   10MPD2    N114017   1.402   1.417  12.821  0.0982 -0.0344 -0.1005
   10MPD2    H714018   1.466   1.339  12.828  0.6480  0.5864  1.8813
   11MPD2     C14019   2.333   1.471  14.468  0.4828  0.4990 -0.1941
   11MPD2    C114020   2.407   1.420  14.363 -0.0275 -0.3129  0.4256
   11MPD2    C214021   2.351   1.410  14.240 -0.1869  0.3946  0.4119
   11MPD2    C314022   2.219   1.455  14.219  0.0361  0.3639  0.1910
   11MPD2    C414023   2.141   1.497  14.324  0.1009 -0.4013  0.3510
   11MPD2    C514024   2.204   1.507  14.442 -0.0787  1.0143  0.2064
   11MPD2     H14025   2.422   1.380  14.164 -0.8669  0.1642 -0.1340
   11MPD2    H114026   2.043   1.537  14.304  0.8408  0.8044 -0.9366
   11MPD2    H214027   2.367   1.493  14.568  0.8271 -0.2098 -0.1512
   11MPD2    H314028   2.144   1.539  14.527 -1.0354 -0.5365  0.1215
   11MPD2     N14029   2.154   1.452  14.094  0.5162 -0.0991 -0.2709
   11MPD2    H514030   2.065   1.499  14.091  1.5216  1.7869 -0.5041
   11MPD2    N114031   2.544   1.395  14.378 -0.0042 -0.5104  0.5176
   11MPD2    H714032   2.584   1.341  14.302  3.2804  0.7115  1.3785
    1MPD1     C14033   0.088   2.445  17.229 -1.2508 -0.4279 -0.1007
    1MPD1    C114034   0.167   2.446  17.345 -0.0043 -0.7017  0.1870
    1MPD1    C214035   0.306   2.478  17.331 -0.3025  0.5375  0.4463
    1MPD1    C314036   0.358   2.521  17.214 -0.0902 -0.3288  0.7603
    1MPD1    C414037   0.278   2.515  17.100  0.1656  0.2126 -0.0322
    1MPD1    C514038   0.143   2.476  17.108 -0.5732  0.4921 -0.3123
    1MPD1     H14039   0.371   2.472  17.418  1.3257 -3.2263 -0.9883
    1MPD1    H114040   0.312   2.551  17.004 -1.6913  4.1592  0.7655
    1MPD1    H214041   4.716   2.430  17.224 -0.8923 -2.6558 -1.3740
    1MPD1    H314042   0.070   2.484  17.027  0.5052  0.3952 -1.2918
    1MPD1     N14043   0.487   2.564  17.195  0.5004 -0.3829 -0.4888
    1MPD1    H514044   0.513   2.577  17.098  0.4843  1.0174 -0.3080
    1MPD1    N114045   0.116   2.394  17.465 -0.1861 -0.2169 -0.9711
    1MPD1    H614046   0.148   2.453  17.541  2.6844 -1.2431 -1.4001
    1MPD1    H714047   0.014   2.401  17.464 -0.1551  0.4632  0.6193
    2MPD1     C14048   0.763   3.414  17.428 -1.3483 -0.9437 -0.0123
    2MPD1    C114049   0.669   3.346  17.356 -0.2285  0.8438 -0.1639
    2MPD1    C214050   0.681   3.215  17.323  0.4705  0.1978 -0.1711
    2MPD1    C314051   0.799   3.143  17.352 -0.4661 -0.4305 -0.0574
    2MPD1    C414052   0.896   3.215  17.421 -0.1157  0.4635 -0.3921
    2MPD1    C514053   0.882   3.348  17.441 -0.5386  0.0356  0.2175
    2MPD1     H14054   0.599   3.157  17.283  0.9526 -1.3847  1.1478
    2MPD1    H114055   0.994   3.176  17.448  0.2710  2.7909  1.6200
    2MPD1    H214056   0.757   3.515  17.467 -1.9149 -0.1622 -2.1370
    2MPD1    H314057   0.961   3.390  17.502  0.6986 -0.3519 -1.1115
    2MPD1     N14058   0.801   3.006  17.330 -0.4753 -0.0579  0.9990
    2MPD1    H514059   0.722   2.968  17.279  1.3061  0.3739 -2.0624
    2MPD1    N114060   0.538   3.392  17.352  0.2130 -0.0486 -0.2996
    2MPD1    H614061   0.486   3.369  17.268 -0.6176 -0.7176  0.3973
    2MPD1    H714062   0.534   3.494  17.358  1.6437 -0.0168 -0.1040
    3TMC3    C114063   0.873   2.793  17.297 -0.4042 -0.7095 -0.6708
    3TMC3    C214064   0.951   2.739  17.197 -0.6200 -0.1213 -0.3245
    3TMC3    C314065   0.897   2.647  17.113 -0.3017  0.3536  0.5919
    3TMC3    C414066   0.740   2.766  17.307  0.6868  0.9247 -0.1515
    3TMC3    C514067   0.693   2.670  17.220 -0.0943 -0.4687  0.6824
    3TMC3    C614068   0.768   2.606  17.127 -0.2367  0.1809 -0.3678
    3TMC3     C14069   0.909   2.917  17.357  0.1487  0.3109 -0.0793
    3TMC3     O14070   1.021   2.939  17.409  0.3158 -0.3137  0.5986
    3TMC3     H14071   1.040   2.794  17.169  0.7015 -1.3591  1.4055
    3TMC3    H114072   0.686   2.794  17.396  0.0609  0.4358 -0.3721
    3TMC3    H214073   0.723   2.529  17.066 -1.8577  0.9369 -0.1215
    3TMC3    C714074   0.581   2.601  17.285  0.2838 -0.2929  0.5471
    3TMC3    C814075   0.961   2.628  16.991 -0.1721  0.6865  0.4061
    3TMC3    O114076   0.590   2.590  17.408  0.7211 -0.1547  0.1846
    3TMC3    O214077   0.891   2.599  16.896 -0.2397  0.7903 -0.3792
    4MPD1     C14078   1.361   2.637  16.687 -0.3170  0.7201  0.2399
    4MPD1    C114079   1.411   2.619  16.811  0.4319 -0.5827  0.3758
    4MPD1    C214080   1.319   2.624  16.917  0.2159  0.2570 -0.0149
    4MPD1    C314081   1.181   2.641  16.892  0.4386  0.1806 -0.1858
    4MPD1    C414082   1.141   2.665  16.762 -0.3189  0.0875 -0.3098
    4MPD1    C514083   1.228   2.653  16.661  1.0153  0.1582 -0.4678
    4MPD1     H14084   1.357   2.617  17.018  0.4930  1.5260 -0.0239
    4MPD1    H114085   1.035   2.673  16.739 -0.7769 -2.0700  1.0813
    4MPD1    H214086   1.431   2.651  16.605 -1.9501  0.4476 -1.2122
    4MPD1    H314087   1.179   2.668  16.565  1.0378 -1.3886 -0.7128
    4MPD1     N14088   1.096   2.640  17.002  0.3495 -0.5313  0.3385
    4MPD1    H514089   1.141   2.625  17.091  0.5180 -2.0735 -0.0063
    4MPD1    N114090   1.546   2.639  16.830 -0.6279 -1.3832 -0.1250
    4MPD1    H614091   1.602   2.597  16.756 -0.7733 -1.4833 -0.1785
    4MPD1    H714092   1.571   2.599  16.921 -2.9012 -0.2872  0.9737
    1TCq1    O114093   1.539   4.323  11.498 -0.1641  0.7198 -0.1431
    1TCq1    C114094   1.532   4.336  11.634 -0.1369 -0.0920 -0.2134
    1TCq1    O214095   1.514   4.442  11.692 -0.2052 -0.0196  0.3975
    1TCq1    C214096   1.490   4.213  11.693 -0.2229  0.3160  0.4495
    1TCq1    C314097   1.421   4.112  11.625 -0.2751 -0.0068 -0.0021
    1TCq1    C414098   1.361   4.014  11.698 -1.0342 -0.1430  0.3871
    1TCq1    C514099   1.363   4.008  11.833  0.0183  0.4284  0.4271
    1TCq1    C614100   1.425   4.112  11.895 -0.5956  0.3655 -0.1005
    1TCq1    C714101   1.490   4.210  11.826 -0.7805  0.0897  0.5676
    1TCq1    C814102   1.441   4.112  12.041  0.4807 -0.2231 -0.6347
    1TCq1    O414103   1.539   4.169  12.086  0.1559  0.3451  1.1187
    1TCq1    C914104   1.238   3.968  11.644  0.0052  0.4191  0.0306
    1TCq1    O514105   1.154   3.917  11.729  0.0274  0.5766 -0.0663
    1TCq1    O614106   1.186   4.036  11.546  0.7999  0.2783 -0.8757
    1TCq1    H114107   1.558   4.233  11.463  0.5110 -0.6863  3.8061
    1TCq1    H214108   1.397   4.110  11.520  0.2853  3.7573 -0.2035
    1TCq1    H314109   1.319   3.921  11.879 -2.2373  0.8432 -0.9737
    1TCq1    H414110   1.539   4.292  11.876 -0.0271 -0.7829  1.2522
    2MPD1     C14111   1.380   3.873  12.499  0.3197 -0.0426 -0.1903
    2MPD1    C114112   1.278   3.824  12.419  0.1465  0.1490 -0.2082
    2MPD1    C214113   1.273   3.886  12.295  1.0705 -0.2235 -0.1917
    2MPD1    C314114   1.370   3.969  12.237 -0.0777  0.8913 -0.2284
    2MPD1    C414115   1.472   4.002  12.321  0.0644 -0.3409  0.7991
    2MPD1    C514116   1.468   3.962  12.450 -0.2397 -0.0440  0.0515
    2MPD1     H14117   1.184   3.878  12.233  1.7573  1.5102 -1.4179
    2MPD1    H114118   1.559   4.062  12.294 -0.5778  0.5093  0.6024
    2MPD1    H214119   1.406   3.843  12.600  1.3041 -1.3397 -0.8293
    2MPD1    H314120   1.552   3.992  12.512  1.1712 -0.0494 -1.8665
    2MPD1     N14121   1.357   4.021  12.104 -0.2379  0.5216 -0.2143
    2MPD1    H514122   1.281   3.992  12.043  0.0524  0.9916 -0.7995
    2MPD1    N114123   1.180   3.739  12.467  0.0015 -0.0599 -0.1200
    2MPD1    H614124   1.200   3.671  12.540 -1.5268  0.2381  0.5848
    2MPD1    H714125   1.144   3.680  12.391 -0.1159  1.6486 -1.3876
    1TMC1    C114126   3.778   3.643  10.110 -0.3086  0.2772  0.2087
    1TMC1    C214127   3.718   3.757  10.152  0.2919  0.2618  0.6982
    1TMC1    C314128   3.783   3.871  10.119 -0.3351 -0.3365 -0.1788
    1TMC1    C414129   3.885   3.644  10.025  0.3010  0.4403 -0.3671
    1TMC1    C514130   3.938   3.763   9.995  0.1618 -0.3120 -0.1010
    1TMC1    C614131   3.891   3.883  10.045  0.0991  0.3590  0.6400
    1TMC1     C14132   3.719   3.516  10.141  0.4816 -0.5873  0.0175
    1TMC1     O14133   3.602   3.515  10.189 -0.7599  0.4659  0.0629
    1TMC1     H14134   3.626   3.749  10.210  0.2233  0.2908  0.5941
    1TMC1    H114135   3.908   3.550   9.976 -0.2956 -0.5071  1.2022
    1TMC1    H214136   3.945   3.977  10.041 -1.8049  1.5791  3.2453
    1TMC1    C714137   4.050   3.752   9.900 -0.2702 -0.2591 -0.9353
    1TMC1    C814138   3.735   3.995  10.182 -0.9117  0.4807 -0.2757
    1TMC1    O114139   4.085   3.646   9.851  0.2650  0.4045  0.0908
    1TMC1    O214140   3.801   4.098  10.177 -0.8640 -0.1816  0.6586
    1TMC1    O314141   4.104   3.875   9.893 -0.7564 -0.4357 -0.0416
    1TMC1    H314142   4.043   3.948   9.918  0.2759  0.8906 -1.3310
    1TMC1    O514143   3.596   3.998  10.192 -0.1412 -0.4128 -0.1028
    1TMC1    H514144   3.547   3.914  10.199 -0.2183 -0.2710  1.1712
    2MPD1     C14145   3.731   3.023  10.285 -0.1132 -0.2774 -0.0783
    2MPD1    C114146   3.860   3.064  10.259  0.3396 -0.0092 -0.3149
    2MPD1    C214147   3.892   3.192  10.225 -0.2927  0.5146  0.2266
    2MPD1    C314148   3.785   3.283  10.192  0.6139 -0.1464  0.4022
    2MPD1    C414149   3.654   3.237  10.196 -0.0300  0.0222 -0.1019
    2MPD1    C514150   3.632   3.108  10.239  0.5921 -0.5067 -0.7153
    2MPD1     H14151   3.991   3.236  10.226  0.8914 -2.1728 -0.0930
    2MPD1    H114152   3.566   3.293  10.165  0.7913  0.8847 -0.8674
    2MPD1    H214153   3.707   2.927  10.328 -0.4259  0.9780  2.5659
    2MPD1    H314154   3.528   3.083  10.256 -0.3001  3.4298 -0.3274
    2MPD1     N14155   3.819   3.423  10.161  0.3044  0.3950 -0.1812
    2MPD1    H514156   3.914   3.458  10.168  1.0688 -1.5190 -1.0143
    2MPD1    N114157   3.963   2.987  10.315  0.4094 -0.6374 -0.3093
    2MPD1    H614158   4.058   3.011  10.284 -0.3262  2.7060 -0.0167
    2MPD1    H714159   3.953   2.887  10.305 -2.1658 -0.0852 -3.3074
    1MPD1     C14160   2.142   1.383  12.104 -0.2068 -0.1730  0.2056
    1MPD1    C114161   2.192   1.397  11.978 -0.6984 -0.0206 -0.1699
    1MPD1    C214162   2.315   1.460  11.967 -0.2789  0.4231 -0.6134
    1MPD1    C314163   2.371   1.518  12.079 -0.3645 -0.3572  0.5442
    1MPD1    C414164   2.313   1.512  12.211  0.3631 -0.0397 -0.4689
    1MPD1    C514165   2.194   1.442  12.218 -0.8394 -0.0363 -0.7195
    1MPD1     H14166   2.357   1.464  11.867 -0.8449 -1.0213 -0.9105
    1MPD1    H114167   2.348   1.570  12.295  1.4796  0.1272 -1.0413
    1MPD1    H214168   2.049   1.330  12.123  0.5568 -1.4318  0.3542
    1MPD1    H314169   2.130   1.447  12.305  1.2149  0.7085  0.7541
    1MPD1     N14170   2.489   1.588  12.045 -0.1497  0.0520  0.5821
    1MPD1    H514171   2.531   1.578  11.953  0.0443 -2.4513  0.9439
    1MPD1    N114172   2.135   1.327  11.875  0.7126 -0.3191  0.2798
    1MPD1    H614173   2.152   1.372  11.785 -1.0831  0.4240  0.3157
    1MPD1    H714174   2.034   1.317  11.878  0.6014  0.5904 -0.3574
    2MPD1     C14175   2.330   3.367  10.937  0.9623  0.4339  0.3494
    2MPD1    C114176   2.281   3.325  10.819  0.4951  0.3157 -0.1848
    2MPD1    C214177   2.338   3.215  10.757 -0.6516 -0.8650  0.2689
    2MPD1    C314178   2.448   3.154  10.813  0.2308 -0.4489  0.5248
    2MPD1    C414179   2.496   3.193  10.934 -0.0530  0.3578  0.5835
    2MPD1    C514180   2.426   3.292  10.995  0.0289  0.0568  0.3438
    2MPD1     H14181   2.288   3.173  10.670  1.6396 -2.3431 -0.3368
    2MPD1    H114182   2.570   3.148  11.000  0.6862  0.5919 -0.0829
    2MPD1    H214183   2.278   3.438  11.000  1.5495  0.2543  1.0409
    2MPD1    H314184   2.458   3.323  11.094 -0.7825  0.1300  0.5790
    2MPD1     N14185   2.510   3.038  10.758 -0.6239 -0.4925  0.1052
    2MPD1    H514186   2.581   2.991  10.813 -1.6692 -1.3486  0.7356
    2MPD1    N114187   2.157   3.367  10.776 -0.3082 -0.0501  0.2281
    2MPD1    H614188   2.134   3.462  10.802 -2.0780 -0.0797 -1.2214
    2MPD1    H714189   2.149   3.365  10.675  1.5072 -0.8435  0.1080
    3MPD1     C14190   2.555   2.541   9.844 -0.0155 -0.4649 -0.3909
    3MPD1    C114191   2.482   2.655   9.881 -0.6329 -0.2515  0.5102
    3MPD1    C214192   2.507   2.712  10.002  0.2036  0.3419  0.2674
    3MPD1    C314193   2.611   2.669  10.084 -0.4292  0.0119  0.0431
    3MPD1    C414194   2.691   2.564  10.043  0.5701 -0.5412  0.5179
    3MPD1    C514195   2.660   2.502   9.923  0.4214 -0.4125 -0.7071
    3MPD1     H14196   2.445   2.792  10.039 -0.7409  0.9933 -2.7546
    3MPD1    H114197   2.782   2.531  10.091  0.7728  1.3180  1.4184
    3MPD1    H214198   2.529   2.480   9.759 -2.9846 -0.4078  0.4682
    3MPD1    H314199   2.715   2.416   9.886  2.9616  1.1616 -0.6529
    3MPD1     N14200   2.622   2.732  10.216  0.6723  0.1124  0.0627
    3MPD1    H514201   2.547   2.788  10.255  0.7807  0.8855 -0.8325
    3MPD1    N114202   2.368   2.682   9.805  0.0402 -0.0367 -0.1893
    3MPD1    H614203   2.380   2.674   9.704  1.5801 -1.5393  0.0982
    3MPD1    H714204   2.335   2.777   9.819 -3.7279 -1.3662  0.1693
    4MPD2     C14205   2.837   2.293  11.972  0.1233  0.6786 -0.3439
    4MPD2    C114206   2.898   2.170  11.935  0.3960 -0.1056  0.9529
    4MPD2    C214207   2.956   2.162  11.815 -0.0502 -0.6236 -0.5249
    4MPD2    C314208   2.959   2.258  11.716 -0.5079 -0.0565 -0.1132
    4MPD2    C414209   2.916   2.379  11.759  0.6346  0.0210  0.0647
    4MPD2    C514210   2.837   2.392  11.877 -0.3592  0.1248 -0.1258
    4MPD2     H14211   3.009   2.072  11.786 -2.7591 -2.1426 -0.7692
    4MPD2    H114212   2.924   2.463  11.692 -0.1613  2.9394  3.6108
    4MPD2    H214213   2.792   2.308  12.069 -1.6935  0.5290 -1.1701
    4MPD2    H314214   2.784   2.485  11.892 -2.0318 -0.8164 -0.2351
    4MPD2     N14215   3.026   2.249  11.593  0.0733  0.3074  0.3622
    4MPD2    H514216   3.031   2.334  11.537  1.2780 -2.1500 -3.2525
    4MPD2    N114217   2.906   2.050  12.009 -0.0137 -0.2343 -0.3076
    4MPD2    H714218   2.952   1.972  11.963 -0.6785 -1.0630  0.4314
    5TMC3    C114219   2.839   1.879  12.143 -0.2264  0.4278 -0.0840
    5TMC3    C214220   2.706   1.833  12.148 -0.7408 -0.5933  0.2524
    5TMC3    C314221   2.679   1.718  12.079 -0.3609  0.0815 -0.7456
    5TMC3    C414222   2.931   1.815  12.068 -0.3069  0.3480  0.3058
    5TMC3    C514223   2.891   1.711  11.995 -0.0550  0.1191 -0.1786
    5TMC3    C614224   2.769   1.650  12.004  0.3807 -0.5181  0.2550
    5TMC3     C14225   2.836   2.020  12.118  0.7706  0.3057 -0.9832
    5TMC3     O14226   2.758   2.095  12.180  0.2350 -0.0227  0.6728
    5TMC3     H14227   2.638   1.890  12.211 -1.3314 -0.1243 -0.8085
    5TMC3    H114228   3.037   1.840  12.068 -0.3617  0.6232  2.2908
    5TMC3    H214229   2.735   1.564  11.947 -0.1029  0.3679 -0.7825
    5TMC3    C714230   2.940   1.721  11.863  0.1596 -0.6103  0.2042
    5TMC3    C814231   2.561   1.654  12.140  0.0214 -0.7076 -0.2043
    5TMC3    O114232   3.004   1.823  11.837 -0.0731 -0.4286 -0.3907
    5TMC3    O214233   2.540   1.674  12.261 -0.1838  0.3077 -0.1461
    6TMC3    C114234   2.579   2.878  10.597 -0.3596  0.0719  0.0527
    6TMC3    C214235   2.613   2.850  10.465 -0.4579 -0.0221  0.3074
    6TMC3    C314236   2.706   2.751  10.435 -1.0737 -0.5326 -0.6945
    6TMC3    C414237   2.632   2.803  10.697  0.0694  0.3368 -0.0325
    6TMC3    C514238   2.718   2.699  10.667  0.0888  1.1306 -0.8471
    6TMC3    C614239   2.758   2.675  10.537  0.0368  0.0286  0.2534
    6TMC3     C14240   2.494   2.992  10.626 -0.2098  0.5670 -0.5203
    6TMC3     O14241   2.452   3.053  10.528 -0.1587  0.1447  0.1257
    6TMC3     H14242   2.585   2.927  10.393  0.1476  0.2497  0.3551
    6TMC3    H114243   2.591   2.817  10.797  0.5182 -2.7376  0.5829
    6TMC3    H214244   2.837   2.605  10.513  0.9367  0.8200  0.8861
    6TMC3    C714245   2.748   2.590  10.756 -0.0738  0.6482  0.7084
    6TMC3    C814246   2.724   2.700  10.303  0.1853  0.3271 -0.0131
    6TMC3    O114247   2.838   2.509  10.739 -0.0216 -0.3277 -0.1998
    6TMC3    O214248   2.825   2.629  10.282  0.6140 -0.1023 -0.0702
    7MPD2     C14249   3.012   1.601  11.372 -0.6748 -0.2895  1.1593
    7MPD2    C114250   3.025   1.729  11.436  0.0388 -0.7986  0.1492
    7MPD2    C214251   2.983   1.732  11.569  0.0840  0.0745 -0.3405
    7MPD2    C314252   2.943   1.620  11.637 -0.4674  0.4303  0.3259
    7MPD2    C414253   2.929   1.501  11.568  0.1562  0.1260  0.9207
    7MPD2    C514254   2.965   1.489  11.439  0.2167  0.1764 -0.0544
    7MPD2     H14255   2.973   1.827  11.621  2.5109  1.6887 -2.8022
    7MPD2    H114256   2.908   1.411  11.626 -1.5867 -0.2657 -0.3205
    7MPD2    H214257   3.059   1.587  11.275 -0.1580 -1.4616  1.5898
    7MPD2    H314258   2.947   1.394  11.390  0.1254  0.1504  0.0300
    7MPD2     N14259   2.916   1.618  11.777  0.2421  0.0746  0.6022
    7MPD2    H514260   2.890   1.530  11.820 -0.9301 -0.1921 -0.6602
    7MPD2    N114261   3.083   1.840  11.377  0.1599  0.1951 -0.1114
    7MPD2    H714262   3.092   1.923  11.435 -2.4866 -1.1917  2.2791
    8TMC3    C114263   3.200   1.980  11.240 -0.4363  0.1984 -1.1990
    8TMC3    C214264   3.141   2.067  11.148  0.1084  0.1487  0.1451
    8TMC3    C314265   3.081   2.187  11.188 -0.2533 -0.0286  0.0835
    8TMC3    C414266   3.216   2.025  11.371  0.3930 -0.0097  0.7101
    8TMC3    C514267   3.154   2.139  11.406 -0.1332  0.7025  0.3217
    8TMC3    C614268   3.086   2.221  11.319  0.2830  0.6396 -0.1167
    8TMC3     C14269   3.122   1.855  11.246  0.2775 -0.0843 -0.2033
    8TMC3     O14270   3.122   1.776  11.151 -0.7441  1.3649  0.2901
    8TMC3     H14271   3.106   2.023  11.055 -0.2518 -0.7692  0.7249
    8TMC3    H114272   3.278   1.968  11.439  1.7586  0.2095 -0.3544
    8TMC3    H214273   3.046   2.316  11.352 -1.6417  0.7207 -2.6260
    8TMC3    C714274   3.096   2.135  11.548 -1.0739 -0.2349 -1.0160
    8TMC3    C814275   2.974   2.242  11.108  0.6742  0.5166 -0.7089
    8TMC3    O114276   3.098   2.021  11.587 -0.7481 -0.2826 -0.4959
    8TMC3    O214277   3.011   2.290  11.001 -0.5979  0.1775 -0.2229
    9MPD2     C14278   2.640   2.377  11.220  0.3345  0.3750 -0.6119
    9MPD2    C114279   2.756   2.356  11.136  0.0011 -0.7322 -0.3032
    9MPD2    C214280   2.754   2.421  11.008  0.8890 -0.4539  0.2118
    9MPD2    C314281   2.648   2.507  10.971  0.6431 -0.0680  0.9441
    9MPD2    C414282   2.545   2.529  11.061 -0.1227 -0.2265  0.9668
    9MPD2    C514283   2.541   2.452  11.173  0.3561 -0.1257 -0.5920
    9MPD2     H14284   2.834   2.399  10.939  1.6541  1.2899  0.5522
    9MPD2    H114285   2.452   2.580  11.039  1.3290  1.8864 -0.1874
    9MPD2    H214286   2.625   2.323  11.313  0.5367  0.8294 -0.3167
    9MPD2    H314287   2.458   2.472  11.240  0.9610 -1.0322  0.4279
    9MPD2     N14288   2.644   2.588  10.856 -0.3117 -0.4743  0.7227
    9MPD2    H514289   2.565   2.651  10.850  1.1316  1.2716  0.0559
    9MPD2    N114290   2.865   2.277  11.186  0.0109  0.4400 -0.3064
    9MPD2    H714291   2.855   2.227  11.274  1.2079 -0.2311 -0.5438
    1MPD1     C14292   4.026   1.076  16.794 -0.4813 -0.0919 -1.2772
    1MPD1    C114293   4.010   0.942  16.829 -0.2769  0.5840  0.0901
    1MPD1    C214294   3.960   0.925  16.954 -0.1724 -0.5054  0.3822
    1MPD1    C314295   3.940   1.018  17.049 -0.5168 -0.3610 -0.0089
    1MPD1    C414296   3.962   1.145  17.015 -0.0894 -0.4026  0.5980
    1MPD1    C514297   4.001   1.171  16.888  0.2388 -0.8471 -0.3647
    1MPD1     H14298   3.927   0.822  16.967 -0.9095 -0.4845 -1.3353
    1MPD1    H114299   3.924   1.232  17.067  0.7997  1.5208 -1.9899
    1MPD1    H214300   4.059   1.097  16.693 -0.4630 -0.2274 -1.2993
    1MPD1    H314301   3.994   1.276  16.863  0.2680 -0.4494  1.3239
    1MPD1     N14302   3.908   0.983  17.185 -0.3139  1.0306 -0.1801
    1MPD1    H514303   3.883   1.057  17.250  0.2179  1.7535 -0.7938
    1MPD1    N114304   4.037   0.842  16.739 -0.3230  0.5980 -0.2184
    1MPD1    H614305   4.081   0.762  16.785 -2.6068  0.4307  1.6812
    1MPD1    H714306   4.105   0.876  16.670  0.3663 -0.1800  0.0757
    2TMC2    C114307   3.794   0.912  17.566 -0.5400 -0.3124 -0.7162
    2TMC2    C214308   3.827   0.793  17.631  0.2945 -0.2157 -0.5850
    2TMC2    C314309   3.877   0.690  17.557  0.2338 -0.1020  0.5240
    2TMC2    C414310   3.810   0.931  17.431  0.1287  0.0810 -0.7529
    2TMC2    C514311   3.877   0.834  17.364 -0.5365 -0.8743 -0.4895
    2TMC2    C614312   3.909   0.710  17.420  0.2584  0.2156  0.5449
    2TMC2     C14313   3.749   1.026  17.642  0.0133 -1.1246 -0.5281
    2TMC2     O14314   3.767   1.135  17.585  0.4626  0.1789  0.0214
    2TMC2     H14315   3.832   0.785  17.739 -0.2612  1.1934 -0.4545
    2TMC2    H114316   3.789   1.026  17.385  1.6739  0.7587 -0.0728
    2TMC2    H214317   3.950   0.627  17.364 -2.5763 -1.8484  1.5574
    2TMC2    C714318   3.924   0.851  17.230  0.3584  0.4412 -0.8518
    2TMC2    C814319   3.919   0.570  17.629  0.0910 -0.0944 -0.7122
    2TMC2    O114320   3.952   0.743  17.177 -0.0867  0.6975  0.1106
    2TMC2    O214321   3.942   0.565   0.009  0.1616 -0.4995  0.4116
    2TMC2    O514322   3.897   0.467  17.543  0.4251  0.1021 -0.1036
    2TMC2    H514323   3.834   0.490  17.472  0.1092  0.7463  0.3786
    3MPD1     C14324   3.771   1.256   0.350 -0.1194  0.7541  0.2628
    3MPD1    C114325   3.738   1.124   0.370  0.7985  0.5822 -0.7971
    3MPD1    C214326   3.705   1.037   0.264 -0.1336  0.1474  0.2794
    3MPD1    C314327   3.727   1.091   0.135  0.0965 -0.5724 -0.4194
    3MPD1    C414328   3.780   1.217   0.116 -0.5962  0.2949  0.1273
    3MPD1    C514329   3.794   1.300   0.222  0.1730  0.7304 -0.2431
    3MPD1     H14330   3.660   0.941   0.284  0.0885  0.4915  2.4842
    3MPD1    H114331   3.813   1.261   0.023  0.3263  2.3757  1.4391
    3MPD1    H214332   3.795   1.323   0.432  0.9537  1.0611 -0.3009
    3MPD1    H314333   3.843   1.397   0.216  2.4564 -0.3779  0.3335
    3MPD1     N14334   3.727   0.999   0.022 -0.8294 -0.4608  0.6466
    3MPD1    H514335   3.718   0.900   0.046 -2.3907  0.1441  2.5625
    3MPD1    N114336   3.721   1.081   0.504  0.1897 -0.1107 -0.2087
    3MPD1    H614337   3.727   0.980   0.512  1.4193  0.0929  1.5307
    3MPD1    H714338   3.789   1.118   0.571  1.7347 -4.2353  0.5098
    1TMC1    C114339   1.752   0.564  13.868  0.5679  1.2197  0.0568
    1TMC1    C214340   1.776   0.538  13.737  0.1263 -0.6060  0.2941
    1TMC1    C314341   1.671   0.485  13.665  1.4208 -0.1929 -0.0860
    1TMC1    C414342   1.632   0.535  13.928  0.3306 -0.3225 -0.0105
    1TMC1    C514343   1.525   0.491  13.848 -0.2914 -0.0187  0.3129
    1TMC1    C614344   1.546   0.449  13.721 -0.1080  0.3512 -0.4973
    1TMC1     C14345   1.865   0.601  13.950 -0.3811  0.4714  0.3583
    1TMC1     O14346   1.840   0.658  14.051  0.2023  0.5441 -0.2088
    1TMC1     H14347   1.871   0.543  13.683 -0.4466  0.4704 -0.6050
    1TMC1    H114348   1.619   0.556  14.033 -0.5263  0.5076 -0.2801
    1TMC1    H214349   1.460   0.420  13.662  1.3892  0.1280 -2.5409
    1TMC1    C714350   1.413   0.435  13.915 -0.0384  0.1517 -0.1067
    1TMC1    C814351   1.656   0.539  13.533 -0.4699 -0.6437 -0.1570
    1TMC1    O114352   1.435   0.400  14.030 -0.3317 -0.0523 -0.7444
    1TMC1    O214353   1.564   0.610  13.495 -0.1857  0.0030  0.2885
    1TMC1    O314354   1.308   0.508  13.877  0.1563 -0.1189  0.5694
    1TMC1    H314355   1.302   0.536  13.783  1.1967 -0.5885  0.3561
    1TMC1    O514356   1.779   0.539  13.484 -0.2630  0.0644 -1.0670
    1TMC1    H514357   1.826   0.457  13.512 -3.4381 -1.0722  0.9646
    2MPD2     C14358   2.105   0.609  14.120 -0.3251  0.0973 -0.5781
    2MPD2    C114359   2.092   0.529  14.004 -0.3291 -0.2753  0.7207
    2MPD2    C214360   2.191   0.441  13.970  0.7872  0.0486 -0.1082
    2MPD2    C314361   2.309   0.424  14.043 -0.7802 -0.7898 -0.0909
    2MPD2    C414362   2.325   0.497  14.159 -0.4449 -0.3994 -0.0309
    2MPD2    C514363   2.221   0.589  14.191 -0.4134 -0.2610  0.5986
    2MPD2     H14364   2.174   0.387  13.878  0.1111  0.9098 -0.4759
    2MPD2    H114365   2.410   0.492  14.226 -1.1809 -1.0620  0.8607
    2MPD2    H214366   2.026   0.659  14.176  0.7128 -0.3467  1.2936
    2MPD2    H314367   2.244   0.652  14.276  1.9156  0.3139 -0.4420
    2MPD2     N14368   2.400   0.331  13.995  0.1292 -0.4418  0.1028
    2MPD2    H514369   2.365   0.260  13.931  2.8076  0.3197 -2.2239
    2MPD2    N114370   1.982   0.539  13.916 -0.5514  0.4489  0.0493
    2MPD2    H714371   1.985   0.486  13.829  0.5213 -0.2618  0.5158
    3TCq1    O114372   2.819   4.550  14.022  0.6027 -0.3068 -0.3484
    3TCq1    C114373   2.837   4.678  14.066  0.3422 -0.6185 -0.3451
    3TCq1    O214374   2.933   4.723  14.123  0.0671 -0.4551  0.1873
    3TCq1    C214375   2.726   0.011  14.003 -0.1008 -0.4293  0.8606
    3TCq1    C314376   2.696   4.709  13.879 -0.3050 -0.1270  0.6886
    3TCq1    C414377   2.597   0.043  13.807  0.0988 -0.4371  0.0850
    3TCq1    C514378   2.538   0.149  13.864 -0.4738 -0.1750 -0.0848
    3TCq1    C614379   2.576   0.186  13.990  0.1361  0.0058 -0.1596
    3TCq1    C714380   2.672   0.124  14.057 -0.0053 -0.4208  0.8119
    3TCq1    C814381   2.520   0.310  14.048 -0.4794  0.4705 -0.0620
    3TCq1    O414382   2.589   0.370  14.130 -0.5350 -0.2248  0.5401
    3TCq1    C914383   2.568   4.732  13.670  0.0973  0.8565 -0.6244
    3TCq1    O514384   2.536   0.083  13.580 -0.1842  0.1606  0.2526
    3TCq1    O614385   2.556   4.608  13.661  0.0637  0.1977 -0.1980
    3TCq1    H114386   2.722   4.536  14.014  0.2866  0.7281  1.6498
    3TCq1    H214387   2.736   4.622  13.828  2.6341  1.6294  0.0170
    3TCq1    H314388   2.468   0.209  13.807  1.3990 -0.0349 -2.2044
    3TCq1    H414389   2.685   0.162  14.158 -0.6801  0.0188  0.7347
    1MPD2     C14390   0.835   1.403  14.683  0.1724 -0.7710 -0.1467
    1MPD2    C114391   0.710   1.348  14.673 -0.6151  0.1409 -1.1519
    1MPD2    C214392   0.687   1.220  14.724 -0.5285 -0.9461 -0.7941
    1MPD2    C314393   0.789   1.144  14.784 -0.0331 -0.0130 -0.3384
    1MPD2    C414394   0.913   1.200  14.797 -0.0655  0.6857  0.6916
    1MPD2    C514395   0.931   1.324  14.744  0.6497 -0.0932  0.3570
    1MPD2     H14396   0.587   1.180  14.740 -0.5157 -1.0279 -0.9249
    1MPD2    H114397   0.995   1.145  14.843  0.3455 -0.6821 -1.7086
    1MPD2    H214398   0.869   1.490  14.628 -1.0760 -0.4504 -0.4010
    1MPD2    H314399   1.030   1.368  14.753  0.4065  0.7170 -0.9026
    1MPD2     N14400   0.760   1.020  14.850  0.2335  0.6157 -0.3100
    1MPD2    H514401   0.835   0.977  14.903  1.8400  1.2681 -2.0242
    1MPD2    N114402   0.597   1.409  14.630 -0.4513  0.0288 -0.3457
    1MPD2    H714403   0.511   1.356  14.635 -0.2292 -0.2835  0.1095
    2TMC3    C114404   0.432   1.581  14.624 -0.0949  0.1403 -0.2003
    2TMC3    C214405   0.358   1.504  14.704 -0.4928  0.7782 -0.2317
    2TMC3    C314406   0.235   1.543  14.746 -0.0296  0.4830 -0.5253
    2TMC3    C414407   0.394   1.707  14.601 -0.0478 -0.0182 -0.0852
    2TMC3    C514408   0.273   1.752  14.641 -0.2061 -0.8555  0.5755
    2TMC3    C614409   0.183   1.661  14.705 -0.6838  0.5563 -0.5586
    2TMC3     C14410   0.574   1.541  14.595 -0.0539 -0.2040  0.2077
    2TMC3     O14411   0.661   1.615  14.562 -0.1879 -0.5890 -0.3235
    2TMC3     H14412   0.384   1.401  14.724 -0.0187  0.9756  0.1731
    2TMC3    H114413   0.473   1.772  14.565  1.7363 -1.8749  0.5102
    2TMC3    H214414   0.087   1.692  14.744 -1.2527 -2.7884  0.7477
    2TMC3    C714415   0.201   1.852  14.563  0.9186  0.7549  0.2159
    2TMC3    C814416   0.137   1.447  14.798  0.2534  0.1306  0.1743
    2TMC3    O114417   0.082   1.855  14.577 -0.0139  0.6274 -0.7931
    2TMC3    O214418   0.025   1.485  14.804 -0.1054  0.0169 -0.0059
    3TCq1    O114419   0.803   2.663  13.781 -0.1774 -0.7884 -0.2921
    3TCq1    C114420   0.676   2.626  13.794 -0.0097  0.0121  0.2552
    3TCq1    O214421   0.583   2.706  13.776 -0.1760  0.7955 -0.1838
    3TCq1    C214422   0.668   2.518  13.886 -0.1392  0.4302 -0.1835
    3TCq1    C314423   0.756   2.515  13.994 -0.6732 -0.6730  0.3589
    3TCq1    C414424   0.727   2.462  14.116 -0.3044 -0.4118 -0.3683
    3TCq1    C514425   0.606   2.407  14.126  0.1957 -0.3744 -0.3328
    3TCq1    C614426   0.509   2.411  14.025 -0.1258  0.3508  0.5560
    3TCq1    C714427   0.543   2.461  13.903 -0.9443  0.3293  0.2705
    3TCq1    C814428   0.393   2.324  14.034 -0.0129  0.9152 -0.1501
    3TCq1    O414429   0.323   2.310  13.934 -0.0130 -0.2617 -0.5002
    3TCq1    C914430   0.825   2.451  14.216 -0.4727  0.1238  0.0052
    3TCq1    O514431   0.931   2.516  14.199  0.1378  0.1722  0.3111
    3TCq1    O614432   0.807   2.362  14.305 -0.7072  0.7402  0.2314
    3TCq1    H114433   0.865   2.589  13.766  0.6841  0.3013 -2.0895
    3TCq1    H214434   0.854   2.561  13.983 -0.7288 -0.1462  2.2229
    3TCq1    H314435   0.577   2.381  14.228 -0.2001  0.5954 -0.2038
    3TCq1    H414436   0.473   2.471  13.821  0.3225  1.1807 -0.6989
    4MPD2     C14437   0.180   2.147  14.133  0.8534 -0.4559 -0.7086
    4MPD2    C114438   0.310   2.145  14.183 -0.4504  0.2457 -0.0837
    4MPD2    C214439   0.348   2.052  14.283  0.0182  0.7915 -0.7539
    4MPD2    C314440   0.249   1.981  14.350 -0.2667 -0.4463  0.3264
    4MPD2    C414441   0.121   1.980  14.296  0.0504 -0.5270 -0.0740
    4MPD2    C514442   0.086   2.058  14.189 -0.8341 -0.2674  0.7104
    4MPD2     H14443   0.449   2.042  14.320  0.2232 -0.2150 -1.6182
    4MPD2    H114444   0.041   1.923  14.343  1.2059 -0.9124  1.4535
    4MPD2    H214445   0.157   2.217  14.054 -0.5839 -0.8721 -0.6491
    4MPD2    H314446   4.719   2.059  14.156 -0.3782 -0.3322 -0.7135
    4MPD2     N14447   0.285   1.907  14.463 -0.3831 -0.2869 -0.0722
    4MPD2    H514448   0.386   1.903  14.477 -0.2885  1.3415 -0.2389
    4MPD2    N114449   0.405   2.241  14.142  0.0069 -0.0067 -0.6806
    4MPD2    H714450   0.492   2.231  14.194 -1.5116 -0.1666  1.8091
    5TMC2    C114451   0.441   0.823  15.123  0.1755 -0.0190 -0.4094
    5TMC2    C214452   0.523   0.844  15.232 -0.1322  0.5389  0.0167
    5TMC2    C314453   0.650   0.876  15.212 -0.3225  0.8254 -0.3260
    5TMC2    C414454   0.498   0.828  14.993 -0.4304 -0.7373 -0.7634
    5TMC2    C514455   0.628   0.871  14.977  0.0334 -0.7519  0.2020
    5TMC2    C614456   0.706   0.889  15.087 -0.6269  0.2234  0.2160
    5TMC2     C14457   0.349   0.930  15.128  0.1305 -0.0393  0.2429
    5TMC2     O14458   0.381   1.035  15.174 -0.3417  0.1688 -0.1073
    5TMC2     H14459   0.471   0.841  15.327  0.2090 -0.7069  0.1604
    5TMC2    H114460   0.434   0.815  14.907 -0.8691  3.2889 -1.0529
    5TMC2    H214461   0.811   0.913  15.076 -0.5247  0.5439  1.7963
    5TMC2    C714462   0.642   0.956  14.861  0.5898 -0.1900 -0.0889
    5TMC2    C814463   0.730   0.948  15.313 -0.7213  0.2790 -0.0235
    5TMC2    O114464   0.548   0.955  14.789  0.4969  0.2001  0.1537
    5TMC2    O214465   0.838   1.001  15.285 -0.3873  0.3356  0.0637
    5TMC2    O514466   0.681   0.936  15.439 -0.6160  1.0822  0.2389
    5TMC2    H514467   0.598   0.884  15.439  0.3534 -0.4668 -0.1911
    6MPD2     C14468   0.002   1.199  14.874  0.4494  0.8765  0.4242
    6MPD2    C114469   0.133   1.217  14.899 -0.4879 -0.1193 -0.4179
    6MPD2    C214470   0.205   1.130  14.976  0.3241 -0.1312  0.0309
    6MPD2    C314471   0.154   1.013  15.007 -0.0264 -0.2897 -0.6215
    6MPD2    C414472   0.017   0.994  14.978 -0.0944  0.4548  0.7270
    6MPD2    C514473   4.676   1.083  14.916 -0.6987 -0.0232 -0.4983
    6MPD2     H14474   0.306   1.154  15.005  0.5896  0.8968 -1.7778
    6MPD2    H114475   4.704   0.899  14.994  1.4091 -0.5654 -0.8117
    6MPD2    H214476   4.677   1.271  14.820  1.5897  1.3723 -0.1980
    6MPD2    H314477   4.570   1.066  14.905 -0.4400 -1.8172 -0.1882
    6MPD2     N14478   0.234   0.906  15.058 -0.2891  0.1999 -0.2090
    6MPD2    H514479   0.213   0.811  15.028  0.3331 -0.3895  1.2253
    6MPD2    N114480   0.200   1.334  14.853  0.5188  0.1975  0.3610
    6MPD2    H714481   0.299   1.347  14.874  0.0713  2.3896  1.1237
  945NH4     N114482   3.235   3.497  12.898 -0.0372  0.3215 -0.0502
  945NH4     H214483   3.243   3.549  12.808 -0.0297  1.5623  0.6741
  945NH4     H314484   3.271   3.558  12.974 -0.3702 -0.9407  1.1077
  945NH4     H414485   3.286   3.409  12.875  0.9183  1.0307 -0.6589
  945NH4     H514486   3.138   3.470  12.922 -1.3258  3.5835 -1.5874
  946SOD     NA14487   4.466   0.056  13.453  0.1380 -0.0536  0.0536
  947SOD     NA14488   1.041   2.408  14.343 -0.3230 -0.3014  0.2886
  948SOD     NA14489   3.602   3.922  11.423  0.1183 -0.1684 -0.5625
  949SOD     NA14490   2.064   2.066   4.761  0.2245 -0.3517  0.0677
  950SOD     NA14491   4.552   0.651   0.370  0.3168  0.3959  0.3680
  951SOD     NA14492   3.021   1.297  16.703 -0.3387 -0.1471 -0.2729
  952SOD     NA14493   0.972   4.026  11.571  0.0706  0.0110 -0.5325
  953SOL     OW14494   0.438   1.042   4.879 -0.0696  0.0896  0.1166
  953SOL    HW114495   0.357   1.051   4.930 -0.5162 -0.3043 -0.5204
  953SOL    HW214496   0.454   1.136   4.866  0.4747 -0.1018 -0.5736
  954SOL     OW14497   4.034   3.848  17.670 -1.0614 -0.3066 -0.0696
  954SOL    HW114498   4.009   3.934  17.703  0.2934 -0.4269  1.2735
  954SOL    HW214499   4.129   3.851  17.668 -1.2003  1.5176 -3.6781
  955SOL     OW14500   3.053   2.578   2.549 -0.5106 -0.8610  0.1297
  955SOL    HW114501   3.068   2.524   2.627 -3.1916  1.0326  1.9805
  955SOL    HW214502   3.089   2.527   2.477 -0.1820 -1.4788  0.7274
  956SOL     OW14503   0.354   0.440   5.439  0.4217  0.6677 -0.2203
  956SOL    HW114504   0.437   0.449   5.486  0.4700 -0.1470 -0.1493
  956SOL    HW214505   0.317   0.354   5.459  0.4429  0.7025 -0.0367
  957SOL     OW14506   4.707   1.165  15.700 -0.1880  0.2039  0.2242
  957SOL    HW114507   4.672   1.246  15.664 -1.2817 -1.0717 -1.5907
  957SOL    HW214508   0.061   1.165  15.666  0.3036  1.1009  1.5051
  958SOL     OW14509   0.094   0.764   3.199  0.3819 -0.4534  0.3298
  958SOL    HW114510   0.177   0.792   3.240 -0.8553  2.2066  1.0276
  958SOL    HW214511   0.035   0.786   3.271  1.0261  0.2257  0.6529
  959SOL     OW14512   4.220   3.985   8.973  0.5361 -0.2424 -0.1524
  959SOL    HW114513   4.169   3.904   8.971 -0.8425  0.6905 -2.6808
  959SOL    HW214514   4.203   4.016   9.062 -1.6967 -0.4653 -0.5026
  960SOL     OW14515   0.006   3.078   3.687  0.1145 -0.1777  0.2014
  960SOL    HW114516   0.061   3.008   3.722  0.2591  0.2347  0.7932
  960SOL    HW214517   4.654   3.042   3.704  0.3775 -1.2751 -0.7710
  961SOL     OW14518   1.302   1.545   7.005 -0.2185  0.3708  0.3379
  961SOL    HW114519   1.224   1.514   6.959 -0.2467  2.4973 -1.0458
  961SOL    HW214520   1.303   1.639   6.988  4.2541 -0.0696 -1.8098
  962SOL     OW14521   1.867   4.604  10.850  0.3459  0.3698  0.1165
  962SOL    HW114522   1.897   4.652  10.927 -1.9923  0.2699  1.0679
  962SOL    HW214523   1.934   4.535  10.852 -0.8569 -0.8076  0.1900
  963SOL     OW14524   3.361   2.862  15.090 -0.0950 -0.2960 -0.4684
  963SOL    HW114525   3.384   2.929  15.025 -1.4243  0.8385  0.2360
  963SOL    HW214526   3.389   2.782  15.045  0.4370  0.2113 -1.0482
  964SOL     OW14527   2.507   0.783  14.740 -0.1118  0.2356 -0.0605
  964SOL    HW114528   2.584   0.739  14.704 -0.1287 -0.4661  0.7629
  964SOL    HW214529   2.510   0.864  14.688  1.1889  1.9961  2.7064
  965SOL     OW14530   4.100   3.464  16.009 -0.1424 -0.3489 -0.1721
  965SOL    HW114531   4.054   3.387  16.042 -0.3566 -0.9596 -1.8673
  965SOL    HW214532   4.024   3.514  15.979 -0.4780  0.1035  1.4592
  966SOL     OW14533   2.402   3.097   8.051 -0.2207  0.3123  0.4094
  966SOL    HW114534   2.428   3.186   8.075  0.2677 -0.1922  1.7608
  966SOL    HW214535   2.350   3.111   7.972 -2.1974 -2.3045  1.2538
  967SOL     OW14536   1.200   3.536   7.316 -0.4635  0.2190 -0.2425
  967SOL    HW114537   1.155   3.526   7.399  0.4559 -0.9827  0.1051
  967SOL    HW214538   1.287   3.529   7.356  0.0845  0.3626 -1.4137
  968SOL     OW14539   3.998   1.020   6.197  0.4719 -0.2553 -0.0165
  968SOL    HW114540   4.051   1.049   6.271 -0.1789 -0.3090  0.4723
  968SOL    HW214541   3.945   0.953   6.240 -0.1884 -0.7505 -1.5891
  969SOL     OW14542   4.702   4.599   2.389  0.0891 -0.0058  0.0806
  969SOL    HW114543   4.688   4.543   2.313  1.5462 -1.1369  0.6425
  969SOL    HW214544   4.705   4.685   2.347 -1.2614 -0.8244 -1.6771
  970SOL     OW14545   4.257   0.036   5.624  0.3788  0.1912  0.6528
  970SOL    HW114546   4.322   0.086   5.672 -0.6040  1.2908  0.8322
  970SOL    HW214547   4.195   0.106   5.603  0.3531 -0.4695 -1.5853
  971SOL     OW14548   4.517   2.079   9.517 -0.1720 -0.2062 -0.0421
  971SOL    HW114549   4.552   2.168   9.511 -0.0772 -0.3000 -0.8098
  971SOL    HW214550   4.587   2.032   9.472  0.2775  1.1582 -0.7554
  972SOL     OW14551   1.269   1.336  12.405  0.3014  0.0325  0.0876
  972SOL    HW114552   1.278   1.431  12.413 -2.1792  0.2781 -0.0600
  972SOL    HW214553   1.363   1.321  12.419  0.4412 -0.5336 -1.4396
  973SOL     OW14554   3.159   2.436   5.235  0.0295  0.4090 -0.2047
  973SOL    HW114555   3.213   2.485   5.173  0.0889  0.1092 -0.3919
  973SOL    HW214556   3.214   2.461   5.310 -2.0843  1.3120  1.0469
  974SOL     OW14557   1.520   0.266   1.110 -0.1687  0.3675  0.0047
  974SOL    HW114558   1.518   0.222   1.025  2.6108  1.8418 -0.7986
  974SOL    HW214559   1.611   0.255   1.136 -0.3050  1.4686  0.9368
  975SOL     OW14560   4.239   4.105   9.239  0.0452 -0.2176 -0.0679
  975SOL    HW114561   4.241   4.031   9.300 -1.2396 -1.0015 -0.9722
  975SOL    HW214562   4.330   4.113   9.212  0.7539  0.6322  2.5244
  976SOL     OW14563   2.931   0.594   0.760  0.1105 -0.0345 -0.0067
  976SOL    HW114564   2.859   0.531   0.751 -0.5520  0.8863 -1.1641
  976SOL    HW214565   2.945   0.622   0.670 -2.0429  0.6290 -0.1187
  977SOL     OW14566   2.771   3.778   7.162  0.2030  0.7604  0.3415
  977SOL    HW114567   2.682   3.751   7.137 -0.2676  0.9001  1.8410
  977SOL    HW214568   2.745   3.870   7.170 -0.7603  0.4782  0.5673
  978SOL     OW14569   3.360   1.565   9.580  0.2455 -0.2708  0.0054
  978SOL    HW114570   3.317   1.628   9.522  1.5231  0.4944 -0.1096
  978SOL    HW214571   3.432   1.625   9.600 -0.8188  1.0390 -0.1079
  979SOL     OW14572   1.925   2.776   3.377 -0.0510 -0.1088 -0.2905
  979SOL    HW114573   1.903   2.735   3.294  2.1113 -0.0869 -0.8861
  979SOL    HW214574   1.956   2.695   3.417 -0.1798 -0.6556 -1.2931
  980SOL     OW14575   1.252   3.255   7.468 -0.2491  0.0075  0.4655
  980SOL    HW114576   1.240   3.242   7.374  2.4098  2.8254 -0.2714
  980SOL    HW214577   1.298   3.176   7.496  1.4380  1.0528  0.6157
  981SOL     OW14578   1.854   2.037   2.971  0.9856 -0.5621  0.4800
  981SOL    HW114579   1.942   2.003   2.992  0.4868 -1.5306  1.0267
  981SOL    HW214580   1.859   2.132   2.977 -3.0518 -0.1884 -3.0160
  982SOL     OW14581   0.783   4.094   2.051 -0.1826 -0.4594 -0.0152
  982SOL    HW114582   0.696   4.132   2.066 -0.4984 -1.0499 -0.2955
  982SOL    HW214583   0.817   4.084   2.139 -0.0928  0.8069  0.0882
  983SOL     OW14584   0.358   3.901   1.413  0.0956  0.4905  0.1680
  983SOL    HW114585   0.346   3.884   1.319 -1.5445 -0.9995  0.6470
  983SOL    HW214586   0.443   3.864   1.436  0.0149  0.7901  0.9412
  984SOL     OW14587   1.849   0.801   2.507 -0.0940 -0.0514 -0.2930
  984SOL    HW114588   1.875   0.873   2.565 -0.3295 -0.6275  0.5258
  984SOL    HW214589   1.924   0.743   2.520 -1.9476 -1.9455  2.0660
  985SOL     OW14590   3.112   2.604  13.424 -0.7545 -0.0134  0.3870
  985SOL    HW114591   3.066   2.568  13.349 -1.0044 -2.0893  1.5400
  985SOL    HW214592   3.083   2.559  13.503 -0.8658  0.4756  0.6243
  986SOL     OW14593   1.011   3.355  12.212  0.2529  0.0784  0.0575
  986SOL    HW114594   0.921   3.324  12.219  0.5868 -0.1505  3.2552
  986SOL    HW214595   1.049   3.324  12.294 -0.5663 -0.3156  0.2854
  987SOL     OW14596   4.103   4.291   3.813 -0.3783 -0.7111 -0.1038
  987SOL    HW114597   4.179   4.246   3.776  0.0930  0.3378 -0.3968
  987SOL    HW214598   4.102   4.356   3.743  0.7222 -1.2429 -0.6231
  988SOL     OW14599   0.013   0.102   4.194  0.1437 -0.1849  0.5023
  988SOL    HW114600   4.666   0.149   4.190  0.2409 -0.0842 -0.3218
  988SOL    HW214601   0.055   0.128   4.276  1.5739 -2.7649  0.6123
  989SOL     OW14602   3.671   0.518  15.934  0.0659  0.3145  0.0631
  989SOL    HW114603   3.731   0.590  15.912  0.1373  0.2611  0.0830
  989SOL    HW214604   3.729   0.443  15.950 -1.6643 -0.9969  0.1867
  990SOL     OW14605   3.576   0.774   0.643 -0.4949 -0.4022 -0.4586
  990SOL    HW114606   3.550   0.761   0.552 -0.5348 -0.5328 -0.4297
  990SOL    HW214607   3.562   0.689   0.686 -0.4158 -0.3725 -0.3752
  991SOL     OW14608   0.343   0.189   4.744  0.1569  0.3899 -0.0277
  991SOL    HW114609   0.284   0.125   4.784  0.0819  1.7664  2.0428
  991SOL    HW214610   0.290   0.268   4.743  0.1017  0.3440 -0.5240
  992SOL     OW14611   3.535   3.296   5.196  0.1378 -0.0594 -0.0725
  992SOL    HW114612   3.552   3.253   5.112  0.3546  0.6583 -0.4002
  992SOL    HW214613   3.490   3.224   5.240 -0.7533  0.8225  0.4529
  993SOL     OW14614   2.777   0.978  16.800 -0.1976  0.2094  0.2092
  993SOL    HW114615   2.758   0.888  16.826  2.6917 -0.7442 -1.0068
  993SOL    HW214616   2.701   1.030  16.827 -0.9871 -0.4182 -0.7833
  994SOL     OW14617   2.817   0.112   5.094 -0.5157  0.3070 -0.7501
  994SOL    HW114618   2.742   0.056   5.071 -1.7459  2.5354 -2.1000
  994SOL    HW214619   2.824   0.170   5.019  0.1723 -0.1270 -1.0155
  995SOL     OW14620   2.704   2.041   4.770 -0.0708 -0.0786  0.3051
  995SOL    HW114621   2.781   2.078   4.813  0.1665 -0.1178 -0.0776
  995SOL    HW214622   2.701   2.103   4.697  2.5804 -0.3133 -0.0112
  996SOL     OW14623   1.391   2.692   2.779  0.5183 -0.2252  0.0344
  996SOL    HW114624   1.314   2.701   2.724 -0.4747 -0.2147  1.4262
  996SOL    HW214625   1.396   2.780   2.817  1.3814  0.2678 -1.2235
  997SOL     OW14626   4.510   2.328   7.023  0.6335 -0.1610 -0.0229
  997SOL    HW114627   4.476   2.358   7.107  0.0958 -1.7424  0.3260
  997SOL    HW214628   4.475   2.401   6.973 -1.7819 -2.1211 -1.2576
  998SOL     OW14629   4.084   2.240   9.516  0.0966  0.2905 -0.1422
  998SOL    HW114630   4.110   2.331   9.532 -1.0635  0.2900  1.8381
  998SOL    HW214631   4.159   2.216   9.462 -0.2264 -1.5806  0.2438
  999SOL     OW14632   4.454   0.083  15.864 -0.6689  0.2766  0.6945
  999SOL    HW114633   4.535   0.106  15.820 -0.2971 -0.9386  0.7348
  999SOL    HW214634   4.440   0.144  15.937  0.2464  1.4423 -0.1113
 1000SOL     OW14635   3.655   1.622   7.741 -0.3483 -0.1192  0.2286
 1000SOL    HW114636   3.632   1.578   7.659 -0.1060  2.5975 -1.3335
 1000SOL    HW214637   3.573   1.667   7.763 -0.4810 -0.0045 -0.4973
 1001SOL     OW14638   2.300   1.929   7.141 -0.4759  0.3783  0.4773
 1001SOL    HW114639   2.347   1.858   7.183 -2.6883 -1.7752 -0.6737
 1001SOL    HW214640   2.265   1.888   7.062  0.0552 -1.7996  1.3871
 1002SOL     OW14641   1.872   3.270   6.265  0.5984  0.0158 -0.4837
 1002SOL    HW114642   1.893   3.254   6.357 -2.1527  1.0860  0.3280
 1002SOL    HW214643   1.873   3.182   6.228  1.9311 -0.2199  0.1074
 1003SOL     OW14644   4.525   1.754   6.713  0.2071 -0.7849  0.3983
 1003SOL    HW114645   4.526   1.686   6.646 -0.3491 -0.4761  0.0705
 1003SOL    HW214646   4.434   1.760   6.743 -0.2478  0.3887 -1.1328
 1004SOL     OW14647   3.823   4.311   9.361 -0.3393  0.1410 -0.0553
 1004SOL    HW114648   3.868   4.321   9.277  0.6804 -0.1027  0.4648
 1004SOL    HW214649   3.896   4.302   9.423 -1.1771 -2.6971  0.5560
 1005SOL     OW14650   0.770   2.239   2.970  0.1199  0.2300 -0.3919
 1005SOL    HW114651   0.863   2.253   2.954 -0.3081  0.5356 -2.5284
 1005SOL    HW214652   0.758   2.147   2.947 -0.7457  0.4422 -0.8048
 1006SOL     OW14653   0.470   1.819   6.179  0.7728 -0.0023 -0.1734
 1006SOL    HW114654   0.517   1.888   6.133  1.5489 -0.3705  0.0653
 1006SOL    HW214655   0.377   1.835   6.168  0.5233  1.0830  3.5188
 1007SOL     OW14656   1.026   3.585   2.863  0.0804 -0.9221 -0.9013
 1007SOL    HW114657   1.055   3.633   2.941 -2.1492  0.8499 -1.1448
 1007SOL    HW214658   1.005   3.654   2.799 -3.0155 -1.6529 -0.6787
 1008SOL     OW14659   0.861   0.243   7.573 -0.2119 -1.4699  0.4417
 1008SOL    HW114660   0.846   0.248   7.478  1.2095  0.4199  0.3122
 1008SOL    HW214661   0.852   0.150   7.592 -0.8547 -1.3356  0.7951
 1009SOL     OW14662   0.119   0.439   5.888  0.7673  0.0470 -0.1674
 1009SOL    HW114663   0.123   0.443   5.793 -0.7840 -1.0684 -0.2783
 1009SOL    HW214664   0.064   0.511   5.918  0.4965 -0.1103 -0.2949
 1010SOL     OW14665   2.004   0.028  10.407  0.8232 -0.2198 -0.0537
 1010SOL    HW114666   1.921   4.718  10.418 -0.6755  1.6584 -3.2874
 1010SOL    HW214667   2.004   0.100  10.470  0.3876 -1.2999  1.1871
 1011SOL     OW14668   0.005   3.999  15.690 -0.2451  0.3613 -0.5569
 1011SOL    HW114669   0.084   3.999  15.635 -0.0625 -3.7430 -0.3578
 1011SOL    HW214670   4.676   4.039  15.633  0.4637  2.5144  0.1750
 1012SOL     OW14671   2.670   0.765   1.594  0.2422  0.5560 -0.0120
 1012SOL    HW114672   2.746   0.782   1.650 -0.5000  1.8974  0.5923
 1012SOL    HW214673   2.623   0.847   1.613 -0.7471 -0.1005  0.3913
 1013SOL     OW14674   0.886   1.549   5.843 -0.1251  0.9459  0.2219
 1013SOL    HW114675   0.815   1.555   5.906 -0.2994 -0.7084  0.1624
 1013SOL    HW214676   0.868   1.615   5.775  3.2786 -1.9216 -3.4369
 1014SOL     OW14677   2.093   1.433   6.238  0.3878  0.3299  0.2337
 1014SOL    HW114678   2.035   1.418   6.163  0.4400  1.8312 -0.1020
 1014SOL    HW214679   2.026   1.427   6.306  1.1206 -2.7242  0.7033
 1015SOL     OW14680   4.463   1.197   9.488  0.5042 -0.3591  0.3316
 1015SOL    HW114681   4.400   1.252   9.534 -2.4333 -1.5031 -2.3138
 1015SOL    HW214682   4.396   1.137   9.456  0.6772 -1.1623  1.4551
 1016SOL     OW14683   3.537   0.566   2.597 -0.5419  0.1184  0.3544
 1016SOL    HW114684   3.572   0.508   2.665  0.8611 -0.0797 -0.5243
 1016SOL    HW214685   3.525   0.507   2.522  0.0811  1.3617 -0.7276
 1017SOL     OW14686   2.180   3.298  12.768  0.4992 -0.2220  0.5282
 1017SOL    HW114687   2.198   3.226  12.828 -0.7729 -2.1872 -1.4425
 1017SOL    HW214688   2.262   3.345  12.783  0.6946 -0.7079  1.0008
 1018SOL     OW14689   1.475   2.131   7.562 -0.3445  0.4064  0.3436
 1018SOL    HW114690   1.528   2.158   7.637 -0.6802  0.9975  0.3738
 1018SOL    HW214691   1.510   2.046   7.538  2.4723  2.4165 -2.7557
 1019SOL     OW14692   1.101   1.875   2.219 -0.2853 -0.8824 -0.1950
 1019SOL    HW114693   1.073   1.787   2.194 -0.5173 -0.6100 -0.8928
 1019SOL    HW214694   1.115   1.863   2.313  2.4494  0.4098 -0.4496
 1020SOL     OW14695   1.273   0.169  16.879 -0.2755  0.1861 -0.5423
 1020SOL    HW114696   1.199   0.178  16.819 -0.0731 -0.2739 -0.8659
 1020SOL    HW214697   1.284   0.260  16.906  0.2905  0.0197 -0.1975
 1021SOL     OW14698   4.604   2.231   8.785 -0.3037  0.1362  0.3907
 1021SOL    HW114699   4.580   2.154   8.733 -1.4119  1.1518 -0.6149
 1021SOL    HW214700   4.686   2.245   8.739  0.2268  0.8128  1.5520
 1022SOL     OW14701   2.888   2.579   5.651 -0.3178 -0.5967  0.0266
 1022SOL    HW114702   2.954   2.575   5.720 -1.3542 -1.6569  0.9499
 1022SOL    HW214703   2.921   2.644   5.589  1.6486  1.4452  3.2091
 1023SOL     OW14704   0.669   0.589   3.280  0.4036 -0.8506 -0.2934
 1023SOL    HW114705   0.735   0.554   3.340  1.5235 -1.1121 -1.6972
 1023SOL    HW214706   0.592   0.533   3.290 -0.3396 -0.4624 -3.7965
 1024SOL     OW14707   3.943   0.367   1.254 -0.3688 -0.3882 -0.1266
 1024SOL    HW114708   3.962   0.296   1.315 -1.2976 -0.8075 -0.3262
 1024SOL    HW214709   4.033   0.397   1.240  0.2144 -2.3552 -0.4981
 1025SOL     OW14710   4.547   1.311  10.030 -0.3742 -0.0670  0.0112
 1025SOL    HW114711   4.577   1.395   9.995 -0.6371 -0.1730 -0.4525
 1025SOL    HW214712   4.600   1.295  10.108 -0.6233 -3.1273 -0.4562
 1026SOL     OW14713   1.580   4.637   7.842  0.7202 -0.0727 -0.0951
 1026SOL    HW114714   1.488   4.661   7.852  1.1688  1.0413  1.3069
 1026SOL    HW214715   1.566   4.560   7.898  0.1998 -0.4855 -0.7870
 1027SOL     OW14716   4.633   2.327   2.410  0.0239  0.0790 -0.1286
 1027SOL    HW114717   4.560   2.337   2.471  0.7673 -0.2590  0.8228
 1027SOL    HW214718   4.659   2.235   2.414  0.4045  0.1451 -1.0459
 1028SOL     OW14719   0.901   0.183   2.473 -0.1503  0.5370  0.0763
 1028SOL    HW114720   0.849   0.172   2.552  0.2241 -0.3888  0.1929
 1028SOL    HW214721   0.984   0.140   2.495 -0.7394 -0.6757 -0.0761
 1029SOL     OW14722   2.421   1.823   1.631  0.4669  0.0901  0.3004
 1029SOL    HW114723   2.399   1.786   1.717  0.5538 -0.2407  0.1792
 1029SOL    HW214724   2.370   1.904   1.632 -1.2463 -0.9818 -0.5256
 1030SOL     OW14725   3.856   2.362   2.986  0.3236  0.0379  0.2956
 1030SOL    HW114726   3.927   2.426   3.001 -1.9002  2.4271  0.6548
 1030SOL    HW214727   3.790   2.415   3.030 -0.1752 -0.3712  0.0324
 1031SOL     OW14728   3.632   4.502   5.638  0.4668 -0.1671  0.3273
 1031SOL    HW114729   3.627   4.576   5.700  3.8856 -0.0965  0.5204
 1031SOL    HW214730   3.597   4.440   5.702 -2.3812  0.1162 -0.9675
 1032SOL     OW14731   3.146   2.879   5.367 -0.1784 -0.1397  0.2664
 1032SOL    HW114732   3.162   2.826   5.445  0.4012 -1.1195 -0.5283
 1032SOL    HW214733   3.053   2.858   5.364 -0.1019 -0.3454 -0.5332
 1033SOL     OW14734   2.967   3.559   4.935  0.1700 -1.0376 -0.6242
 1033SOL    HW114735   2.989   3.595   4.849  2.9586 -0.8833  0.1488
 1033SOL    HW214736   3.053   3.525   4.957  1.5981  2.1480 -1.2907
 1034SOL     OW14737   2.381   2.054   6.776  0.5303 -0.7417 -0.2894
 1034SOL    HW114738   2.318   1.992   6.740 -0.9105  0.9811 -0.7523
 1034SOL    HW214739   2.324   2.130   6.790 -0.1760 -0.9605 -1.9128
 1035SOL     OW14740   2.809   3.397   3.339 -0.7244  0.7251  0.3565
 1035SOL    HW114741   2.859   3.453   3.279  1.7105  0.1655  1.8709
 1035SOL    HW214742   2.792   3.315   3.293 -1.2230  0.7276  0.5437
 1036SOL     OW14743   3.407   2.861  10.138 -0.3538  0.4647  0.1403
 1036SOL    HW114744   3.344   2.799  10.104 -0.9376  0.7208  0.7462
 1036SOL    HW214745   3.394   2.938  10.083 -1.6422 -0.4034 -0.7406
 1037SOL     OW14746   2.238   0.724  14.801  0.8992 -0.2070  0.8920
 1037SOL    HW114747   2.227   0.685  14.715 -3.2598  0.8492  0.9529
 1037SOL    HW214748   2.315   0.775  14.774 -0.2539  1.6311  1.0232
 1038SOL     OW14749   4.056   2.536   3.936  0.5877 -0.1372 -0.0280
 1038SOL    HW114750   3.965   2.527   3.963  0.5080 -0.6348 -0.4569
 1038SOL    HW214751   4.062   2.631   3.936  0.1955 -0.1089 -1.9685
 1039SOL     OW14752   0.332   3.075  12.682 -0.3020 -0.3182  0.3436
 1039SOL    HW114753   0.333   2.995  12.735  0.3365  2.3546  4.3997
 1039SOL    HW214754   0.252   3.051  12.635 -0.2986 -0.9191  0.6470
 1040SOL     OW14755   1.128   2.740   9.524  0.0425 -0.2387  0.0598
 1040SOL    HW114756   1.134   2.660   9.576 -0.0660  0.8527  1.7557
 1040SOL    HW214757   1.123   2.694   9.440 -1.0566  0.3534 -0.1968
 1041SOL     OW14758   4.297   2.698   2.122  0.4376 -0.3838  0.3873
 1041SOL    HW114759   4.206   2.699   2.092  0.1340 -0.0871  1.3170
 1041SOL    HW214760   4.336   2.672   2.039 -0.5381  0.7330 -0.4264
 1042SOL     OW14761   4.258   3.264   1.235  0.0842 -0.1235 -0.1206
 1042SOL    HW114762   4.267   3.200   1.306  0.2931 -0.1242 -0.1488
 1042SOL    HW214763   4.331   3.323   1.257  0.9650 -0.5605 -1.8471
 1043SOL     OW14764   3.896   4.227   6.700  0.4851  0.4667 -0.1165
 1043SOL    HW114765   3.976   4.187   6.667  0.1545  0.4588 -0.9124
 1043SOL    HW214766   3.855   4.224   6.614  0.2387  0.8960 -0.0099
 1044SOL     OW14767   2.201   4.514  11.721 -0.4693  0.5528 -0.1489
 1044SOL    HW114768   2.262   4.587  11.713  1.1796 -0.7796  0.3210
 1044SOL    HW214769   2.245   4.469  11.793 -0.6398 -0.5434 -0.7410
 1045SOL     OW14770   0.165   3.131   6.064 -0.1285 -0.3249  0.3488
 1045SOL    HW114771   0.172   3.062   6.130  0.7728  0.0718  0.6681
 1045SOL    HW214772   0.240   3.114   6.008  0.1995 -1.5269  1.1730
 1046SOL     OW14773   4.539   1.349  15.154  0.7789 -0.2990  0.1564
 1046SOL    HW114774   4.607   1.329  15.217  0.1046 -0.6286  0.7731
 1046SOL    HW214775   4.500   1.431  15.184  0.3157 -0.9347  1.2518
 1047SOL     OW14776   1.914   3.394   3.954 -0.0574  0.1209 -0.2459
 1047SOL    HW114777   1.957   3.357   4.031  2.2550  1.7491 -0.7815
 1047SOL    HW214778   1.955   3.337   3.889 -0.2187  2.3279 -2.2723
 1048SOL     OW14779   0.050   2.680   4.850 -0.1030  0.3071 -0.1668
 1048SOL    HW114780   0.081   2.591   4.830  0.0880  0.2170  0.5521
 1048SOL    HW214781   4.709   2.666   4.904  0.4710  0.0697  0.5899
 1049SOL     OW14782   2.198   0.602  16.645 -0.3138 -0.1014 -0.1375
 1049SOL    HW114783   2.128   0.589  16.709 -2.2728 -0.4446 -2.3499
 1049SOL    HW214784   2.190   0.697  16.636  0.6300 -0.0209 -0.1535
 1050SOL     OW14785   2.512   3.846   9.565  0.4495  0.1584 -0.0166
 1050SOL    HW114786   2.477   3.926   9.606  0.2075  0.8486 -1.5767
 1050SOL    HW214787   2.435   3.790   9.566  1.6985 -1.5503 -0.6890
 1051SOL     OW14788   3.673   1.477   5.247 -0.2269 -0.3617  0.5417
 1051SOL    HW114789   3.711   1.488   5.334  0.6013 -0.5143  0.2032
 1051SOL    HW214790   3.580   1.482   5.268 -0.0268 -0.5623  1.4865
 1052SOL     OW14791   3.118   4.141   5.860 -0.2556  0.4371  0.2534
 1052SOL    HW114792   3.032   4.102   5.877  0.5116 -1.3357  0.1235
 1052SOL    HW214793   3.091   4.232   5.870  0.8402  1.3081 -5.1336
 1053SOL     OW14794   3.911   2.009   6.520  0.0931  0.0054  0.1893
 1053SOL    HW114795   3.824   2.050   6.520  0.5840  0.9790 -2.5601
 1053SOL    HW214796   3.954   2.076   6.573  1.5162 -0.7670 -0.0112
 1054SOL     OW14797   3.392   0.269   1.961 -0.4113  0.0701  0.5078
 1054SOL    HW114798   3.380   0.359   1.993 -0.8272  0.1648  0.0786
 1054SOL    HW214799   3.484   0.260   1.939 -0.0997  3.6056  0.3123
 1055SOL     OW14800   0.813   4.484   4.566  0.1185 -0.1219 -0.0789
 1055SOL    HW114801   0.765   4.490   4.483 -0.8749  1.3823  0.5885
 1055SOL    HW214802   0.747   4.486   4.635  1.1332 -0.5049  0.8933
 1056SOL     OW14803   2.074   0.202   9.048  0.4271 -0.0437  0.4244
 1056SOL    HW114804   2.031   0.117   9.047  1.2421 -0.4286 -1.8297
 1056SOL    HW214805   2.018   0.261   9.098  0.2759 -0.9821  1.3609
 1057SOL     OW14806   3.951   3.596   4.256  0.4199  0.3819  0.4748
 1057SOL    HW114807   3.899   3.521   4.286 -2.5999  3.1083  2.0427
 1057SOL    HW214808   3.988   3.634   4.335  2.4268  0.4908 -0.5207
 1058SOL     OW14809   0.137   1.472  13.366 -0.3467  0.0895  0.6356
 1058SOL    HW114810   0.216   1.491  13.416 -1.2242  0.0856  1.9963
 1058SOL    HW214811   0.149   1.387  13.322 -2.8460  0.3373 -0.5227
 1059SOL     OW14812   3.721   2.498   6.459  0.1774 -0.2140 -0.8138
 1059SOL    HW114813   3.799   2.480   6.511 -0.2062 -1.7199 -0.7412
 1059SOL    HW214814   3.724   2.593   6.458 -1.2376 -0.1454  0.9724
 1060SOL     OW14815   1.959   1.566   4.015 -0.3227  0.4144  0.0212
 1060SOL    HW114816   2.031   1.505   4.001  0.3004  0.7506  1.7244
 1060SOL    HW214817   1.912   1.545   3.934  0.3001 -1.1398  0.0718
 1061SOL     OW14818   3.904   1.485  11.669  1.4478  0.0879 -0.0418
 1061SOL    HW114819   3.826   1.524  11.709  1.3911  0.3968 -0.4559
 1061SOL    HW214820   3.897   1.530  11.585 -1.4294  1.5589  0.9693
 1062SOL     OW14821   4.640   2.675   1.739  0.0573 -0.0417  0.3290
 1062SOL    HW114822   4.637   2.626   1.821 -2.5260 -2.6575 -1.3191
 1062SOL    HW214823   4.718   2.638   1.699 -1.4112 -2.7701 -0.0092
 1063SOL     OW14824   0.605   3.682  17.275 -0.3610 -0.4104 -0.4811
 1063SOL    HW114825   0.693   3.711  17.298 -0.8532  1.5015 -1.0356
 1063SOL    HW214826   0.557   3.746  17.327  2.2251  1.9196 -0.9597
 1064SOL     OW14827   1.040   3.905   5.184 -0.2420 -0.7087  0.0109
 1064SOL    HW114828   1.014   3.923   5.094 -0.5357  0.0182  0.2337
 1064SOL    HW214829   1.034   3.995   5.218 -0.4269 -0.3125 -1.0648
 1065SOL     OW14830   4.164   3.845   2.642 -0.3396  0.2522  0.3942
 1065SOL    HW114831   4.259   3.856   2.644 -0.5581  2.0550  0.2267
 1065SOL    HW214832   4.154   3.819   2.550  2.6454  0.5004 -0.0136
 1066SOL     OW14833   4.218   2.210  13.525 -0.4042 -0.2307 -0.0544
 1066SOL    HW114834   4.241   2.279  13.463  1.4918 -1.1710 -0.3838
 1066SOL    HW214835   4.156   2.167  13.465  0.1374 -2.1381  0.7277
 1067SOL     OW14836   0.614   3.416   7.699  0.0862 -0.7593 -0.2379
 1067SOL    HW114837   0.605   3.471   7.621 -0.8184 -0.7402 -0.1231
 1067SOL    HW214838   0.524   3.385   7.714 -0.3061  0.2840 -0.4167
 1068SOL     OW14839   2.292   0.021   8.956 -0.6465  0.1106  0.1282
 1068SOL    HW114840   2.233   0.091   8.985 -0.8332  0.1224 -0.2933
 1068SOL    HW214841   2.333   0.012   9.043 -1.3538  3.8365  0.8145
 1069SOL     OW14842   4.257   1.349   8.985 -0.8880 -0.2497 -0.2377
 1069SOL    HW114843   4.221   1.333   8.897  1.2644 -0.6631 -1.0444
 1069SOL    HW214844   4.245   1.264   9.027  1.1618  0.2848  1.4014
 1070SOL     OW14845   3.368   3.753   2.032  0.0687 -0.3495  0.1269
 1070SOL    HW114846   3.400   3.760   1.942 -0.6704  0.4494 -0.0741
 1070SOL    HW214847   3.453   3.781   2.068 -0.5624  1.3363  0.3053
 1071SOL     OW14848   1.962   2.461  12.928  0.0555  0.5912 -0.4541
 1071SOL    HW114849   2.020   2.423  12.863 -0.2380 -1.6088  0.5565
 1071SOL    HW214850   1.879   2.465  12.881  0.0922  1.5569 -0.4380
 1072SOL     OW14851   2.594   2.080  16.760  0.4368  0.0639  0.1096
 1072SOL    HW114852   2.550   2.024  16.697 -0.0602  2.7005 -1.8909
 1072SOL    HW214853   2.529   2.083  16.831  2.1712  1.0544  1.6708
 1073SOL     OW14854   3.145   2.791   6.156  0.3604  0.3284  0.3633
 1073SOL    HW114855   3.187   2.820   6.075 -2.4351 -1.3536 -1.6623
 1073SOL    HW214856   3.081   2.862   6.169 -0.4965 -0.0184 -1.9757
 1074SOL     OW14857   0.707   3.832   5.161  0.0496  0.1579 -0.8206
 1074SOL    HW114858   0.640   3.773   5.126 -1.6826  1.6568 -0.0000
 1074SOL    HW214859   0.711   3.884   5.082 -1.6423 -2.5510 -2.6880
 1075SOL     OW14860   0.971   0.132   9.232  0.4443  0.3001  0.1934
 1075SOL    HW114861   1.049   0.149   9.285  1.0943 -0.3950 -0.5429
 1075SOL    HW214862   1.022   0.079   9.170  1.9780  0.6108  1.1729
 1076SOL     OW14863   2.796   0.231   9.641 -0.2664 -0.7240 -0.4219
 1076SOL    HW114864   2.811   0.185   9.723  1.1629  1.8176  0.7237
 1076SOL    HW214865   2.848   0.311   9.646  1.0163 -1.5996  0.1723
 1077SOL     OW14866   4.587   2.223   6.348  0.0108 -0.2538  0.1543
 1077SOL    HW114867   4.616   2.290   6.287  0.7540 -0.6944  0.0340
 1077SOL    HW214868   4.538   2.169   6.286  0.4208  1.2254 -1.4760
 1078SOL     OW14869   1.874   3.345   2.619  0.3240  0.0007 -0.4453
 1078SOL    HW114870   1.848   3.412   2.556  1.2254  0.8530  0.0793
 1078SOL    HW214871   1.864   3.263   2.571  1.9078 -1.2591  1.3845
 1079SOL     OW14872   1.882   3.916   7.715  0.1257 -0.1558  0.3073
 1079SOL    HW114873   1.958   3.864   7.740 -0.1274 -1.1245 -0.9374
 1079SOL    HW214874   1.819   3.894   7.784 -0.6612  0.8580 -0.0900
 1080SOL     OW14875   0.740   2.889  16.868  0.2934  0.0907 -0.4256
 1080SOL    HW114876   0.799   2.928  16.932  0.3372 -2.1850  0.9304
 1080SOL    HW214877   0.767   2.797  16.872 -2.2193 -0.6148  0.7598
 1081SOL     OW14878   3.651   0.627   1.497  0.0414  0.4867 -0.0010
 1081SOL    HW114879   3.556   0.636   1.490  0.1021  0.1341 -1.2490
 1081SOL    HW214880   3.679   0.717   1.482  2.4789  0.1789  2.5421
 1082SOL     OW14881   2.077   1.042  15.647  0.7060  0.3560  0.3414
 1082SOL    HW114882   2.035   0.956  15.647  0.6448  0.3890 -0.1077
 1082SOL    HW214883   2.168   1.024  15.668  0.7803 -0.2055 -0.4521
 1083SOL     OW14884   1.790   3.043   3.357 -0.1211  0.2655  0.0054
 1083SOL    HW114885   1.829   2.961   3.386  0.7614  0.2453 -1.2224
 1083SOL    HW214886   1.789   3.083   3.443  0.2494 -0.5338  0.3864
 1084SOL     OW14887   0.455   4.443  11.190  0.0800  0.3175 -0.3104
 1084SOL    HW114888   0.386   4.475  11.248  1.7074  1.4721  0.9835
 1084SOL    HW214889   0.468   4.511  11.125 -1.7898  0.6152 -0.3784
 1085SOL     OW14890   0.497   1.908   5.373 -0.0485 -0.1810  0.6790
 1085SOL    HW114891   0.461   1.933   5.288 -0.7240 -1.2878  0.6319
 1085SOL    HW214892   0.411   1.887   5.409 -0.8349  0.7007 -0.6936
 1086SOL     OW14893   3.966   1.573  13.191 -0.1818  0.2571  0.5976
 1086SOL    HW114894   4.015   1.621  13.125 -0.6489  0.1232  0.1579
 1086SOL    HW214895   4.009   1.489  13.173  1.4728  1.4009 -0.7627
 1087SOL     OW14896   0.385   1.236   9.287  0.0649 -0.1000  0.5262
 1087SOL    HW114897   0.377   1.298   9.214  2.4959 -0.1504  0.2062
 1087SOL    HW214898   0.466   1.274   9.321 -0.8496  2.7063 -0.4156
 1088SOL     OW14899   3.279   3.989   4.753  0.1936  0.3976 -0.4355
 1088SOL    HW114900   3.360   3.967   4.705  0.5897 -0.5028  0.6323
 1088SOL    HW214901   3.264   4.060   4.691 -2.9922  1.6311  1.7570
 1089SOL     OW14902   2.645   3.571   8.769 -0.6192  0.6488 -0.4240
 1089SOL    HW114903   2.622   3.516   8.843 -0.2301  0.2547 -0.5995
 1089SOL    HW214904   2.690   3.643   8.814 -2.8639  0.9160  1.3712
 1090SOL     OW14905   0.886   4.586  10.220  0.0604 -0.2838  0.1579
 1090SOL    HW114906   0.975   4.567  10.249 -1.0336 -0.4659  3.3382
 1090SOL    HW214907   0.886   4.540  10.136 -0.3415 -1.9452  1.0656
 1091SOL     OW14908   2.479   4.259   7.693 -0.3279  0.0728 -0.3087
 1091SOL    HW114909   2.512   4.171   7.672 -0.4780 -0.3772  1.2914
 1091SOL    HW214910   2.531   4.271   7.772  0.8583  0.2653 -1.1246
 1092SOL     OW14911   2.633   4.390   4.930 -0.4445 -0.5691 -0.0426
 1092SOL    HW114912   2.724   4.371   4.906 -0.7638 -0.9034 -0.9699
 1092SOL    HW214913   2.613   4.305   4.971 -1.8402 -0.4125 -0.4327
 1093SOL     OW14914   0.778   1.812  10.209  0.1318 -0.8606 -0.2414
 1093SOL    HW114915   0.820   1.739  10.256  0.3212 -0.0074  0.9072
 1093SOL    HW214916   0.832   1.824  10.131 -1.1995  0.1821 -0.9902
 1094SOL     OW14917   1.789   0.610   0.247 -0.4064  0.0067 -0.4142
 1094SOL    HW114918   1.795   0.531   0.193 -0.4437  0.6379 -1.3545
 1094SOL    HW214919   1.726   0.665   0.201 -0.3194  0.2814 -0.2013
 1095SOL     OW14920   4.451   0.213   6.483  0.2068  0.0006 -0.0746
 1095SOL    HW114921   4.396   0.219   6.405 -0.3633  2.2961  0.4756
 1095SOL    HW214922   4.456   0.121   6.509 -1.0856 -0.4065 -1.2787
 1096SOL     OW14923   3.702   1.505   2.085 -0.0417  0.3160 -1.0185
 1096SOL    HW114924   3.736   1.583   2.130  1.7361  0.1865 -2.1135
 1096SOL    HW214925   3.609   1.512   2.106 -0.1236 -1.2029 -0.9107
 1097SOL     OW14926   4.376   3.855  15.504  0.3543 -0.7128 -0.7401
 1097SOL    HW114927   4.430   3.864  15.583  0.3931 -2.2478 -0.6054
 1097SOL    HW214928   4.375   3.946  15.474 -0.5263  0.0724  1.7066
 1098SOL     OW14929   1.868   3.281   4.923  0.6077  0.3148 -0.1285
 1098SOL    HW114930   1.822   3.211   4.971  3.2877 -1.1258  0.3054
 1098SOL    HW214931   1.959   3.253   4.919  0.6598  0.7970 -2.0856
 1099SOL     OW14932   3.336   0.840   7.585 -0.1557 -0.6193  0.8245
 1099SOL    HW114933   3.332   0.777   7.656 -1.5480 -2.3078 -0.7496
 1099SOL    HW214934   3.408   0.800   7.537  0.9566  0.9661  1.1528
 1100SOL     OW14935   2.604   3.280   5.205 -0.1896 -0.0437 -0.2412
 1100SOL    HW114936   2.575   3.321   5.123 -0.4913  1.8079  0.7851
 1100SOL    HW214937   2.561   3.331   5.274  0.8577 -0.0915  0.4479
 1101SOL     OW14938   1.829   1.142   9.709  0.3232  0.2175  0.8234
 1101SOL    HW114939   1.838   1.116   9.801 -0.9923  1.0595  1.1951
 1101SOL    HW214940   1.856   1.234   9.716  2.2440 -0.3838  1.2420
 1102SOL     OW14941   4.127   1.619   9.068  0.6259  0.0091 -0.0286
 1102SOL    HW114942   4.208   1.584   9.032  1.3321  1.1441  0.4472
 1102SOL    HW214943   4.136   1.714   9.057 -0.2564  0.4047  2.5839
 1103SOL     OW14944   4.450   3.329   7.612  0.1174  0.8411  0.6032
 1103SOL    HW114945   4.402   3.402   7.573  0.3073  0.4670 -0.3416
 1103SOL    HW214946   4.477   3.362   7.698  0.4533  1.5076  0.2447
 1104SOL     OW14947   4.573   3.441  14.927  0.3282 -0.4855  0.4060
 1104SOL    HW114948   4.601   3.371  14.869  1.6408  1.8911 -1.8375
 1104SOL    HW214949   4.490   3.404  14.959 -0.3086 -0.1970 -0.9398
 1105SOL     OW14950   1.388   1.887  13.845  0.2124  0.8801 -0.5099
 1105SOL    HW114951   1.332   1.838  13.905  3.9302 -0.7503  1.5962
 1105SOL    HW214952   1.382   1.834  13.766 -1.1088 -0.0074  0.1874
 1106SOL     OW14953   0.022   4.595   3.700 -0.6858  0.2302 -0.2350
 1106SOL    HW114954   0.107   4.590   3.745  0.4132  3.0364 -1.9966
 1106SOL    HW214955   4.722   4.678   3.730  1.1537  2.0502 -3.0798
 1107SOL     OW14956   0.476   0.179   2.067  0.3214  0.1369  0.0914
 1107SOL    HW114957   0.448   0.155   1.978  1.4572 -2.7869  0.5319
 1107SOL    HW214958   0.561   0.217   2.047  0.0036 -0.0232 -1.5667
 1108SOL     OW14959   3.419   0.719  13.915 -0.4027  0.1697 -0.1140
 1108SOL    HW114960   3.404   0.689  13.826 -1.4336  0.0711  0.0972
 1108SOL    HW214961   3.468   0.797  13.889 -0.9380  0.4342 -0.3289
 1109SOL     OW14962   1.586   4.431  12.631  0.0091 -0.4972 -0.0987
 1109SOL    HW114963   1.664   4.412  12.580  0.2639  0.5793 -0.1054
 1109SOL    HW214964   1.573   4.343  12.667 -2.9098  0.3931  1.0715
 1110SOL     OW14965   3.782   4.407   8.378 -0.0200 -0.0250  0.3208
 1110SOL    HW114966   3.713   4.342   8.385  0.6705 -0.7547  0.2790
 1110SOL    HW214967   3.769   4.459   8.457  3.2627  0.9978  0.2097
 1111SOL     OW14968   0.524   3.983   6.291 -0.0146  0.6909 -0.4657
 1111SOL    HW114969   0.463   3.961   6.220  0.8950 -1.4213 -0.5815
 1111SOL    HW214970   0.512   4.077   6.304 -0.5790  0.7495 -1.4526
 1112SOL     OW14971   3.313   3.637   9.042  0.7655  0.6833 -0.3993
 1112SOL    HW114972   3.354   3.554   9.064  2.4335  1.0757 -1.9644
 1112SOL    HW214973   3.266   3.644   9.124 -0.9647  0.9932 -1.4175
 1113SOL     OW14974   3.011   0.912   0.064  0.4691 -0.7214 -0.8174
 1113SOL    HW114975   3.039   0.980   0.126 -1.2515 -0.5910 -0.1884
 1113SOL    HW214976   3.065   0.944  17.734  0.4450 -1.6546 -1.2509
 1114SOL     OW14977   1.855   1.111   3.554 -0.3012 -0.5437  0.4138
 1114SOL    HW114978   1.762   1.127   3.573 -1.0444 -1.4280 -2.4987
 1114SOL    HW214979   1.892   1.137   3.638 -1.0665 -0.3403  0.6925
 1115SOL     OW14980   0.390   4.671  13.049  0.3704 -0.5109  0.1569
 1115SOL    HW114981   0.326   4.601  13.036 -0.9281  0.8635 -0.8789
 1115SOL    HW214982   0.466   4.615  13.068  0.1021 -1.1926 -0.8066
 1116SOL     OW14983   0.655   1.573  12.239 -0.0012 -0.1626  0.5003
 1116SOL    HW114984   0.659   1.480  12.213 -1.1639 -0.4007  1.1772
 1116SOL    HW214985   0.574   1.583  12.289  0.0977 -2.1039  1.0696
 1117SOL     OW14986   4.632   2.322   9.204  0.6805 -1.1998  0.6661
 1117SOL    HW114987   4.705   2.384   9.214 -0.2578 -0.0053  0.1963
 1117SOL    HW214988   4.626   2.292   9.295  0.0983  3.0620  2.0603
 1118SOL     OW14989   3.418   0.592   9.285 -0.1308  0.0005  0.3616
 1118SOL    HW114990   3.431   0.675   9.238 -0.3754 -1.5307 -2.3789
 1118SOL    HW214991   3.495   0.593   9.342 -0.7611 -2.6926  1.2636
 1119SOL     OW14992   2.528   0.413   2.079  0.1640  0.7960  0.3696
 1119SOL    HW114993   2.565   0.500   2.093  1.2834  0.7660 -2.6075
 1119SOL    HW214994   2.451   0.424   2.136 -0.0018 -1.3861  0.5904
 1120SOL     OW14995   0.314   4.481   1.405 -0.2757 -0.2402  0.2995
 1120SOL    HW114996   0.297   4.388   1.415  0.6200 -0.5364 -0.8989
 1120SOL    HW214997   0.371   4.484   1.328  0.8145 -1.4280  1.0579
 1121SOL     OW14998   1.539   2.795  14.084 -0.4266  0.2755  0.1805
 1121SOL    HW114999   1.513   2.835  14.002 -2.4245 -0.2005  0.5933
 1121SOL    HW215000   1.493   2.858  14.140  0.1471  1.9092 -1.2179
 1122SOL     OW15001   3.971   2.107   8.876  0.0031  0.4172 -0.9969
 1122SOL    HW115002   3.944   2.193   8.844 -0.1682 -0.0254 -2.0285
 1122SOL    HW215003   3.984   2.123   8.970  1.1960  0.0716 -1.0991
 1123SOL     OW15004   2.437   4.672   2.869 -0.3743 -0.0647 -0.2093
 1123SOL    HW115005   2.520   4.712   2.897 -0.9660 -0.4770  2.0976
 1123SOL    HW215006   2.390   4.660   2.952 -0.0591  0.4605  0.0462
 1124SOL     OW15007   2.719   0.120   4.381 -0.2133 -0.4541 -0.2688
 1124SOL    HW115008   2.781   0.079   4.442 -0.2871  0.4842  0.4306
 1124SOL    HW215009   2.686   0.197   4.428  0.3692 -0.2441 -0.1980
 1125SOL     OW15010   2.251   0.938   0.083  0.0635  0.4828  0.0138
 1125SOL    HW115011   2.228   1.019   0.036 -0.6387  1.7685  2.5384
 1125SOL    HW215012   2.296   0.894   0.011 -0.1594 -0.3919  0.4175
 1126SOL     OW15013   3.341   2.560   8.512 -0.1353 -0.2435  0.3158
 1126SOL    HW115014   3.326   2.508   8.432  1.2227  0.2665 -0.2761
 1126SOL    HW215015   3.255   2.600   8.525  0.2892  0.4808  0.8633
 1127SOL     OW15016   1.839   0.040   8.718  0.1250 -0.3496 -0.1693
 1127SOL    HW115017   1.790   0.075   8.643  0.3804  0.1073 -0.1238
 1127SOL    HW215018   1.877   4.701   8.673  2.6101  1.4964 -1.1332
 1128SOL     OW15019   0.023   1.146   7.463 -0.0981  0.1816 -0.2780
 1128SOL    HW115020   0.100   1.181   7.419 -0.4196 -0.1606 -1.1119
 1128SOL    HW215021   4.696   1.125   7.394 -1.4831  2.8652  0.1185
 1129SOL     OW15022   0.358   1.750   1.928  0.3669 -0.0485 -0.2755
 1129SOL    HW115023   0.366   1.836   1.970  2.1432 -2.0790  3.6043
 1129SOL    HW215024   0.267   1.746   1.957  0.4776 -0.8623 -0.0545
 1130SOL     OW15025   0.342   1.773   7.155 -0.1747  0.0413 -0.2170
 1130SOL    HW115026   0.326   1.864   7.181 -1.2896 -0.2180  0.0091
 1130SOL    HW215027   0.303   1.725   7.228  0.1047  0.4549  0.2078
 1131SOL     OW15028   1.046   2.486   3.703  0.0168  0.2870 -0.4193
 1131SOL    HW115029   0.973   2.544   3.679  0.5983  0.3900 -1.9695
 1131SOL    HW215030   1.003   2.435   3.771  1.0071 -1.2162 -0.9333
 1132SOL     OW15031   2.338   4.667   4.692 -0.6891 -0.1483  0.3771
 1132SOL    HW115032   2.309   4.639   4.606  1.1371 -0.0048 -0.2787
 1132SOL    HW215033   2.433   4.668   4.684 -0.8969  2.4420 -1.6814
 1133SOL     OW15034   4.672   2.645   2.372  0.1095 -0.3440  0.5288
 1133SOL    HW115035   4.690   2.620   2.281  0.7887 -1.2350  0.9043
 1133SOL    HW215036   4.696   2.563   2.415  4.5236  0.3764 -0.5088
 1134SOL     OW15037   1.159   0.364  14.889 -0.2191 -0.2917 -0.2516
 1134SOL    HW115038   1.086   0.323  14.842  0.5303 -1.6934 -0.1836
 1134SOL    HW215039   1.187   0.282  14.929  1.1649  0.3699  0.1266
 1135SOL     OW15040   1.043   4.155   3.960  0.3652 -0.4134  0.1145
 1135SOL    HW115041   1.044   4.162   3.864  0.3116 -0.2679  0.1233
 1135SOL    HW215042   1.076   4.066   3.965 -2.9160 -1.6404 -0.4686
 1136SOL     OW15043   1.314   2.739   4.706  0.1966  0.0828 -0.2403
 1136SOL    HW115044   1.235   2.787   4.681  1.2339  0.5535 -2.5841
 1136SOL    HW215045   1.279   2.710   4.791  1.9020  1.1160  0.8005
 1137SOL     OW15046   1.214   1.720  17.324 -0.3280 -0.1792  0.6245
 1137SOL    HW115047   1.217   1.788  17.257  1.0498 -1.4021 -0.5484
 1137SOL    HW215048   1.127   1.721  17.364 -0.6388  1.1822 -0.0914
 1138SOL     OW15049   0.785   3.694   8.929 -0.4344  0.3192 -0.3256
 1138SOL    HW115050   0.780   3.788   8.947 -0.1928  0.0770  0.9993
 1138SOL    HW215051   0.862   3.688   8.872  0.3462  2.9419  0.4522
 1139SOL     OW15052   0.025   4.139   1.886 -0.4958 -0.3344  0.0051
 1139SOL    HW115053   0.001   4.178   1.803 -1.5987 -0.1834  0.3928
 1139SOL    HW215054   0.077   4.063   1.860 -0.1546  0.5179 -1.8235
 1140SOL     OW15055   4.210   3.609   0.816 -0.0149 -0.6009 -0.1780
 1140SOL    HW115056   4.229   3.568   0.901 -0.8225 -2.9099 -1.1198
 1140SOL    HW215057   4.196   3.539   0.753 -0.9455 -0.0304 -0.6029
 1141SOL     OW15058   0.039   2.092   6.578  0.1180 -0.0357 -0.1045
 1141SOL    HW115059   4.728   2.153   6.635 -1.7426 -2.4187  0.8973
 1141SOL    HW215060   4.705   2.071   6.517  1.3445 -1.2198 -1.1006
 1142SOL     OW15061   3.620   0.643   3.484 -0.2374  0.2996 -0.6433
 1142SOL    HW115062   3.678   0.568   3.501  1.7434  2.2970  1.4579
 1142SOL    HW215063   3.543   0.611   3.530 -0.1495  0.4052 -0.4235
 1143SOL     OW15064   3.344   1.714   3.488 -0.0095  0.0209  0.0607
 1143SOL    HW115065   3.328   1.797   3.532  0.2296 -1.3580  2.7601
 1143SOL    HW215066   3.367   1.743   3.400 -2.0811  0.1789 -0.4253
 1144SOL     OW15067   2.544   0.221   4.853  0.0775  0.2371  0.1543
 1144SOL    HW115068   2.513   0.164   4.924  0.5762  1.0425  1.0240
 1144SOL    HW215069   2.478   0.290   4.852 -1.3694 -1.1515  0.3938
 1145SOL     OW15070   0.846   4.649  11.183 -0.5526 -0.7190 -0.3824
 1145SOL    HW115071   0.872   0.000  11.213  1.8142 -1.5411 -0.0522
 1145SOL    HW215072   0.890   4.637  11.098  1.1112 -0.4159  0.4441
 1146SOL     OW15073   1.501   2.169  17.617 -0.5068 -0.6786  0.4473
 1146SOL    HW115074   1.560   2.169  17.542 -1.3206 -0.7200 -0.1998
 1146SOL    HW215075   1.498   2.260  17.646  0.9276 -0.6169  0.3891
 1147SOL     OW15076   2.611   1.258   8.780 -0.1241  0.1654  0.1430
 1147SOL    HW115077   2.674   1.329   8.765  0.9673 -1.0559 -1.0030
 1147SOL    HW215078   2.573   1.285   8.864  0.3578  2.0361 -0.2286
 1148SOL     OW15079   4.377   1.869   3.794 -0.5377  0.1697  0.5949
 1148SOL    HW115080   4.339   1.834   3.875 -0.9598  1.4859  0.9667
 1148SOL    HW215081   4.461   1.899   3.829 -0.5441  1.4921 -0.5234
 1149SOL     OW15082   0.070   4.691   7.351 -0.5743 -0.1318 -0.0310
 1149SOL    HW115083   0.051   0.035   7.401 -0.2300 -1.0880  1.6320
 1149SOL    HW215084   0.131   4.726   7.286  0.6787  0.0774  1.2518
 1150SOL     OW15085   0.936   3.995  14.162 -0.1623  0.3725  0.5402
 1150SOL    HW115086   0.913   3.909  14.198 -0.7434 -0.0046 -0.7356
 1150SOL    HW215087   0.996   3.967  14.094 -1.0169 -1.2373  0.4332
 1151SOL     OW15088   3.409   3.944  11.310 -0.7360  0.3434 -0.0727
 1151SOL    HW115089   3.405   3.873  11.245 -0.0439 -1.5185  1.9230
 1151SOL    HW215090   3.376   4.026  11.273  0.2924  1.0311  0.5148
 1152SOL     OW15091   1.678   0.758   3.609 -0.2043 -0.8967  0.0425
 1152SOL    HW115092   1.766   0.781   3.638 -0.6180 -0.7723  1.2111
 1152SOL    HW215093   1.665   0.815   3.533  1.8926 -0.0849  0.2952
 1153SOL     OW15094   3.146   2.725   5.633  0.0831 -0.2655 -0.0087
 1153SOL    HW115095   3.210   2.659   5.659 -0.6652 -1.0494 -0.1398
 1153SOL    HW215096   3.199   2.799   5.663  1.4289 -0.9684 -0.6177
 1154SOL     OW15097   0.072   3.098   0.550 -0.2848 -0.4092  0.2441
 1154SOL    HW115098   0.098   3.006   0.552  1.2650  0.0554  1.3268
 1154SOL    HW215099   0.131   3.122   0.621  0.3352 -1.2700  0.0286
 1155SOL     OW15100   4.517   1.982   8.690  0.7514  0.1765 -0.2599
 1155SOL    HW115101   4.571   1.910   8.658  1.8863  0.2343  1.4668
 1155SOL    HW215102   4.441   1.936   8.724  1.0278 -0.3303 -0.3296
 1156SOL     OW15103   4.472   2.784   6.940  0.0828 -0.0875 -0.0272
 1156SOL    HW115104   4.404   2.771   6.874  0.7295 -2.3836 -0.2144
 1156SOL    HW215105   4.449   2.874   6.966  1.2054  0.1532  0.1177
 1157SOL     OW15106   3.614   2.464   2.652  0.6532 -0.2296 -0.2976
 1157SOL    HW115107   3.543   2.482   2.714 -0.3515  2.7063 -2.3594
 1157SOL    HW215108   3.611   2.371   2.630 -0.6154 -0.4731  0.9183
 1158SOL     OW15109   1.151   1.742   4.386 -0.2838  0.2218 -0.2849
 1158SOL    HW115110   1.068   1.695   4.397  0.6410 -0.6370  3.0533
 1158SOL    HW215111   1.182   1.762   4.474  1.2503  0.8205 -0.9602
 1159SOL     OW15112   2.982   1.714   5.702 -0.3452  0.3111 -0.2564
 1159SOL    HW115113   3.006   1.738   5.791  2.6621 -0.8561 -0.7438
 1159SOL    HW215114   3.043   1.760   5.644 -1.5155  1.1595 -0.8209
 1160SOL     OW15115   4.629   0.169   4.701 -0.2574  0.0401 -0.3931
 1160SOL    HW115116   4.582   0.248   4.728  1.8511  0.5650  1.7449
 1160SOL    HW215117   4.569   0.134   4.635 -1.6088 -3.1176  2.4921
 1161SOL     OW15118   0.529   2.030   2.643 -0.5173  0.4275  0.0737
 1161SOL    HW115119   0.440   2.057   2.617 -0.0052  1.7994 -0.2792
 1161SOL    HW215120   0.580   2.103   2.607  0.7482 -1.0914 -1.1748
 1162SOL     OW15121   0.905   1.491   0.146 -0.4538 -0.0714  0.0289
 1162SOL    HW115122   0.873   1.449   0.226 -0.4814 -1.1736 -0.5498
 1162SOL    HW215123   0.997   1.466   0.154 -0.4333  0.0566  0.1783
 1163SOL     OW15124   2.855   0.798   3.120 -0.1088 -0.6471 -0.2963
 1163SOL    HW115125   2.790   0.760   3.060  0.7524  1.9871 -2.8832
 1163SOL    HW215126   2.806   0.807   3.202 -0.1512 -0.4852 -0.3389
 1164SOL     OW15127   4.194   0.319   9.046  0.2981 -0.2864  0.0864
 1164SOL    HW115128   4.181   0.279   8.961  0.5620  0.6086 -0.3710
 1164SOL    HW215129   4.166   0.250   9.107 -1.3274  1.6189  1.5408
 1165SOL     OW15130   3.128   1.576   6.010 -0.1126  0.8519  0.4102
 1165SOL    HW115131   3.154   1.542   6.096 -1.7522 -0.3346  0.4407
 1165SOL    HW215132   3.137   1.491   5.967  0.0791  0.6619  0.8267
 1166SOL     OW15133   2.020   4.206   8.684 -0.2225  0.2358  0.1362
 1166SOL    HW115134   1.928   4.229   8.668 -0.1042 -0.3073 -1.3761
 1166SOL    HW215135   2.051   4.228   8.596 -1.4948 -1.3654 -0.7286
 1167SOL     OW15136   0.004   1.241  15.302  0.1586  0.0483 -0.4436
 1167SOL    HW115137   0.078   1.183  15.285  1.4711  1.7412 -0.5767
 1167SOL    HW215138   0.057   1.313  15.338 -2.6208  2.1640 -0.5768
 1168SOL     OW15139   1.847   0.739   2.926 -0.0761 -0.8217  0.0909
 1168SOL    HW115140   1.785   0.695   2.983  0.7419 -2.2889 -0.1635
 1168SOL    HW215141   1.780   0.784   2.873 -1.2906 -0.4572  1.9500
 1169SOL     OW15142   3.258   0.374  14.245  0.4227 -0.3930  0.0898
 1169SOL    HW115143   3.171   0.336  14.232 -0.3141  1.1615  0.3354
 1169SOL    HW215144   3.253   0.407  14.335 -1.9676  1.5816 -0.7721
 1170SOL     OW15145   1.870   2.472   2.512  0.2902 -0.0919 -0.1674
 1170SOL    HW115146   1.953   2.425   2.517 -0.7903 -1.9899 -0.0286
 1170SOL    HW215147   1.846   2.405   2.448  0.1981  0.4086 -0.6623
 1171SOL     OW15148   3.101   4.284   9.258  0.2217 -0.0897  0.1163
 1171SOL    HW115149   3.028   4.343   9.277  0.1945 -0.2871  0.6193
 1171SOL    HW215150   3.169   4.350   9.241  0.0716  0.1191  0.3429
 1172SOL     OW15151   2.190   3.441   7.736  0.2905 -0.0804 -0.5037
 1172SOL    HW115152   2.251   3.413   7.667  1.1801 -0.4028  0.4212
 1172SOL    HW215153   2.236   3.520   7.765 -1.3510  0.2648  1.0925
 1173SOL     OW15154   4.568   3.596   7.580 -0.6000 -0.1711 -0.2039
 1173SOL    HW115155   4.648   3.650   7.576  2.1723 -4.1301  1.8563
 1173SOL    HW215156   4.521   3.631   7.504 -1.5836 -1.4893 -0.1995
 1174SOL     OW15157   4.181   0.742   3.133 -0.3339  0.6266 -0.4055
 1174SOL    HW115158   4.104   0.741   3.190  0.1197 -0.0992  0.1995
 1174SOL    HW215159   4.246   0.736   3.203 -1.7647 -0.0606  0.8901
 1175SOL     OW15160   4.434   2.057  14.792 -0.0770 -0.0928 -0.1839
 1175SOL    HW115161   4.495   1.984  14.801  0.9807  0.3197 -4.0540
 1175SOL    HW215162   4.349   2.013  14.793 -1.3745  2.4145 -0.2776
 1176SOL     OW15163   0.213   0.899   3.699  0.1696  0.0118 -0.3598
 1176SOL    HW115164   0.288   0.904   3.758 -0.5094 -1.9032  0.6720
 1176SOL    HW215165   0.230   0.978   3.648 -2.6640  0.9618  0.1697
 1177SOL     OW15166   3.156   1.058   0.268 -0.2374 -0.4227 -0.0688
 1177SOL    HW115167   3.109   1.140   0.253  1.7700  0.8582  0.6264
 1177SOL    HW215168   3.185   1.065   0.359 -0.7590  1.4157 -0.0331
 1178SOL     OW15169   3.127   0.297   4.102  0.6873 -0.2334 -0.1486
 1178SOL    HW115170   3.097   0.235   4.035  1.1683 -0.8526  0.1982
 1178SOL    HW215171   3.106   0.240   4.176 -1.5039  0.0645 -0.5640
 1179SOL     OW15172   3.570   1.033   5.815  0.5128 -0.8990 -0.3874
 1179SOL    HW115173   3.619   0.956   5.843  0.7180 -0.8938 -0.7267
 1179SOL    HW215174   3.493   1.013   5.867  0.6967 -3.3326 -1.0720
 1180SOL     OW15175   2.168   1.212   8.382 -0.1298  0.4383 -0.7134
 1180SOL    HW115176   2.228   1.140   8.362 -1.5417 -0.8668 -0.2647
 1180SOL    HW215177   2.089   1.158   8.395 -0.9428  1.9222  0.5751
 1181SOL     OW15178   0.134   0.460   3.860 -0.2545  0.0855  0.1427
 1181SOL    HW115179   0.148   0.366   3.873 -1.4212  0.4212  3.8403
 1181SOL    HW215180   0.222   0.487   3.834  0.1695 -0.8810  0.5586
 1182SOL     OW15181   1.898   2.130   1.956 -0.2339  0.3570 -0.0737
 1182SOL    HW115182   1.827   2.192   1.974 -0.9786 -0.4368 -0.3085
 1182SOL    HW215183   1.846   2.066   1.908 -1.3184  1.1104  0.1162
 1183SOL     OW15184   2.323   3.548  17.365 -0.3871  0.3850 -0.4736
 1183SOL    HW115185   2.332   3.453  17.354 -3.0995 -0.0282  1.0834
 1183SOL    HW215186   2.287   3.552  17.453 -1.6882 -0.9434 -0.9602
 1184SOL     OW15187   1.195   3.725   3.515 -0.3334  0.1645  0.2931
 1184SOL    HW115188   1.213   3.703   3.423  0.4611 -2.1848  1.0019
 1184SOL    HW215189   1.217   3.642   3.557  3.2402  1.6035  1.1714
 1185SOL     OW15190   3.487   2.200   2.586 -0.8936  0.1723  0.3084
 1185SOL    HW115191   3.580   2.180   2.576 -1.0135  0.7590 -1.8440
 1185SOL    HW215192   3.456   2.111   2.570  0.4409 -0.2549  0.0526
 1186SOL     OW15193   1.026   0.016  14.647  0.4285  0.1220  0.1552
 1186SOL    HW115194   0.985   0.000  14.562  1.1396  0.8639 -0.3245
 1186SOL    HW215195   1.118   0.029  14.625  0.0854  0.5159 -1.0247
 1187SOL     OW15196   0.698   3.095   6.070 -0.3458 -0.0581 -0.3002
 1187SOL    HW115197   0.742   3.036   6.132 -1.3255 -0.5187 -0.0404
 1187SOL    HW215198   0.761   3.167   6.068 -0.7577  0.3744  1.3841
 1188SOL     OW15199   3.859   3.277   9.804  0.8026  0.1970  0.0857
 1188SOL    HW115200   3.895   3.190   9.821 -0.3275 -0.4087 -0.6096
 1188SOL    HW215201   3.932   3.332   9.832  0.3573 -0.1028  1.8534
 1189SOL     OW15202   1.683   4.644   7.379  0.3521  0.2115  0.1641
 1189SOL    HW115203   1.737   4.623   7.456  1.2260 -1.5432 -0.9444
 1189SOL    HW215204   1.617   4.697   7.423  0.5694  0.0955  0.6383
 1190SOL     OW15205   2.668   1.337   2.170  0.1459 -0.3118 -0.2855
 1190SOL    HW115206   2.722   1.288   2.232  0.4963 -1.7300 -1.6946
 1190SOL    HW215207   2.608   1.269   2.140  0.6314 -1.2265  0.8188
 1191SOL     OW15208   1.532   1.587   1.747 -0.6968  0.3490 -0.8625
 1191SOL    HW115209   1.453   1.540   1.723 -0.8400  0.8913 -1.4495
 1191SOL    HW215210   1.508   1.644   1.820 -0.4553 -0.9142  0.1970
 1192SOL     OW15211   2.596   2.941   8.447 -0.4600 -0.4903 -0.8185
 1192SOL    HW115212   2.689   2.948   8.468 -0.0669 -1.7468 -2.1649
 1192SOL    HW215213   2.589   2.997   8.370 -2.0143  1.7429  0.9483
 1193SOL     OW15214   1.171   3.866   1.972 -0.1305 -0.3592 -0.4022
 1193SOL    HW115215   1.197   3.814   2.048 -1.4831  0.2799  0.5118
 1193SOL    HW215216   1.076   3.855   1.970 -0.1829 -0.3418  1.9333
 1194SOL     OW15217   0.535   2.408   3.619  0.4581  0.1094 -0.4849
 1194SOL    HW115218   0.559   2.493   3.583  0.3807  0.6537  0.7479
 1194SOL    HW215219   0.507   2.437   3.706  1.4699 -0.1827 -0.0578
 1195SOL     OW15220   4.035   0.286   7.795  0.2191 -0.6508  0.0135
 1195SOL    HW115221   4.046   0.379   7.814  0.8238 -0.5462 -0.8655
 1195SOL    HW215222   4.061   0.276   7.704  0.3328 -2.0115  0.1924
 1196SOL     OW15223   1.216   4.614   6.448 -0.7702 -0.2062 -0.1296
 1196SOL    HW115224   1.169   4.554   6.390 -0.3653 -1.5550  0.9525
 1196SOL    HW215225   1.221   4.552   6.521  0.1104  0.6244  0.5091
 1197SOL     OW15226   3.848   1.261  17.374  0.0097  0.8339  0.1002
 1197SOL    HW115227   3.825   1.216  17.455 -0.7714 -0.6331 -0.9596
 1197SOL    HW215228   3.903   1.329  17.414 -1.1600  0.8546  1.6753
 1198SOL     OW15229   3.107   2.759   3.755 -0.3915  0.3984 -0.2752
 1198SOL    HW115230   3.019   2.752   3.792  0.2279 -0.8789  0.9569
 1198SOL    HW215231   3.100   2.751   3.660  2.7995  0.9987 -0.5666
 1199SOL     OW15232   2.480   0.046   9.163 -0.0476 -0.3726  0.7928
 1199SOL    HW115233   2.425   0.078   9.234 -1.1643  2.1614 -1.1779
 1199SOL    HW215234   2.548   4.733   9.208 -1.1618 -1.9069  0.8070
 1200SOL     OW15235   1.049   0.391   4.015  0.4284 -0.4295  0.1785
 1200SOL    HW115236   0.971   0.336   4.024 -1.0368  1.2214 -2.5389
 1200SOL    HW215237   1.047   0.449   4.092  2.5495  0.0209 -0.0935
 1201SOL     OW15238   4.435   1.560   3.396 -0.6468  0.3324  0.0186
 1201SOL    HW115239   4.497   1.627   3.427 -0.6905  1.5760 -2.5754
 1201SOL    HW215240   4.348   1.579   3.431 -0.7900  2.8396 -1.7225
 1202SOL     OW15241   4.607   0.473   8.231  0.4550  0.4008  0.1764
 1202SOL    HW115242   4.679   0.536   8.232 -1.5080  2.6046  0.8241
 1202SOL    HW215243   4.590   0.453   8.139  1.6645  0.4815 -0.0616
 1203SOL     OW15244   3.394   2.485   7.708  0.3528  0.0125  0.0619
 1203SOL    HW115245   3.346   2.561   7.740 -0.3209 -0.4768  0.1969
 1203SOL    HW215246   3.478   2.488   7.754 -0.2127 -2.0649  1.2242
 1204SOL     OW15247   0.403   3.652   2.499  0.8546 -0.7079 -0.3385
 1204SOL    HW115248   0.471   3.719   2.510  0.4438 -0.5175  1.0554
 1204SOL    HW215249   0.457   3.575   2.517 -1.8402 -2.0993  1.7826
 1205SOL     OW15250   2.878   3.304   1.975 -0.4813  0.3829 -0.1893
 1205SOL    HW115251   2.800   3.285   1.923  0.1714 -1.4468 -0.4869
 1205SOL    HW215252   2.847   3.281   2.063 -0.0948  0.4956 -0.0215
 1206SOL     OW15253   0.658   3.984   7.034  0.0740 -0.4576 -0.4381
 1206SOL    HW115254   0.748   4.003   7.008 -0.2229  1.8164  0.2043
 1206SOL    HW215255   0.603   4.053   6.997 -1.3586 -0.3067  1.9445
 1207SOL     OW15256   0.027   2.247   7.878 -0.2496  0.5129 -0.2361
 1207SOL    HW115257   0.056   2.167   7.834 -0.4483 -0.9109  2.2413
 1207SOL    HW215258   4.672   2.264   7.852 -1.5592 -1.0184  3.2890
 1208SOL     OW15259   2.173   2.176  10.573 -0.0503 -0.3210 -0.0595
 1208SOL    HW115260   2.257   2.221  10.562 -0.1571 -0.3519 -1.0461
 1208SOL    HW215261   2.120   2.222  10.508 -1.0916  2.6004  2.8553
 1209SOL     OW15262   0.987   3.806   6.786 -0.4776  0.2933 -0.0026
 1209SOL    HW115263   0.967   3.779   6.697  1.1815  0.7620 -0.5081
 1209SOL    HW215264   0.937   3.744   6.839  1.6733 -0.4712  1.1065
 1210SOL     OW15265   1.810   2.555  17.158  0.3897  0.1750 -0.3370
 1210SOL    HW115266   1.796   2.461  17.173  0.7760  0.0043 -1.0375
 1210SOL    HW215267   1.864   2.544  17.080  0.3355 -0.4075 -0.2948
 1211SOL     OW15268   3.549   2.595   9.399  0.0897 -0.4106  0.4400
 1211SOL    HW115269   3.564   2.609   9.305 -0.4861  0.1398  0.4302
 1211SOL    HW215270   3.626   2.540   9.412 -0.3267 -1.1985 -0.4174
 1212SOL     OW15271   0.686   2.067  10.232 -0.4982  0.1273 -0.4448
 1212SOL    HW115272   0.720   1.978  10.220 -1.4287  0.1541 -3.1397
 1212SOL    HW215273   0.653   2.060  10.322 -1.0797  3.2788 -0.4070
 1213SOL     OW15274   0.387   4.416  12.867 -0.3741  0.1112 -0.1376
 1213SOL    HW115275   0.349   4.394  12.952  1.0360 -1.0596  0.1962
 1213SOL    HW215276   0.311   4.438  12.814 -1.9309 -0.0075  2.0284
 1214SOL     OW15277   1.542   1.177   0.975  0.2050  0.0880  0.4224
 1214SOL    HW115278   1.521   1.105   1.034 -0.5921  0.4796  0.6115
 1214SOL    HW215279   1.461   1.227   0.961 -0.6959 -1.7435 -0.8984
 1215SOL     OW15280   1.557   0.074   5.577  0.1292  0.0136 -0.3645
 1215SOL    HW115281   1.514   0.142   5.628  1.5892  0.2999  0.5077
 1215SOL    HW215282   1.501   4.733   5.590 -2.3198  1.8977  0.1901
 1216SOL     OW15283   2.755   2.166   8.455  0.2333  0.5035 -0.5162
 1216SOL    HW115284   2.782   2.257   8.449 -1.1719  0.9175 -0.5801
 1216SOL    HW215285   2.712   2.160   8.540 -0.6506 -3.3915 -1.2082
 1217SOL     OW15286   2.221   1.451   5.936  0.0940  0.4137  0.0131
 1217SOL    HW115287   2.268   1.498   5.868 -2.5703  2.3252 -0.4996
 1217SOL    HW215288   2.178   1.523   5.981  1.4287  0.4752  1.1657
 1218SOL     OW15289   2.897   3.602   6.204 -0.3686  0.0393 -0.0393
 1218SOL    HW115290   2.979   3.648   6.188 -0.2792 -0.1573 -0.1449
 1218SOL    HW215291   2.914   3.577   6.295  0.5920  1.0107  0.0390
 1219SOL     OW15292   4.298   1.427   6.544 -0.0086 -0.0519 -0.4085
 1219SOL    HW115293   4.360   1.497   6.525 -2.1052  1.2464 -2.3895
 1219SOL    HW215294   4.215   1.459   6.509  0.2293  1.0337  0.0132
 1220SOL     OW15295   4.059   1.712   5.168 -0.3677  0.0109  0.1398
 1220SOL    HW115296   3.985   1.672   5.122  1.3070 -1.4705 -1.2601
 1220SOL    HW215297   4.052   1.790   5.112 -0.0355  0.4679  0.7298
 1221SOL     OW15298   2.042   2.740   9.961 -0.6479  0.0667 -0.1893
 1221SOL    HW115299   2.075   2.693  10.038 -1.7717 -1.0919 -0.4078
 1221SOL    HW215300   1.970   2.793   9.994 -1.2837 -1.0337  0.1984
 1222SOL     OW15301   0.178   0.691   8.176  0.5297  0.0006 -0.0702
 1222SOL    HW115302   0.223   0.623   8.125  0.8193  0.9395 -1.0638
 1222SOL    HW215303   0.174   0.755   8.105 -1.2997 -0.6866 -0.5946
 1223SOL     OW15304   2.900   1.006   8.531 -0.2777  0.1703  0.0383
 1223SOL    HW115305   2.805   0.990   8.533 -0.0390 -1.3076  0.0765
 1223SOL    HW215306   2.904   1.085   8.584 -1.6867  0.5083 -0.3524
 1224SOL     OW15307   3.148   1.775   4.649  0.3620  0.1673 -0.7230
 1224SOL    HW115308   3.179   1.691   4.615  2.4210  0.7210 -0.2248
 1224SOL    HW215309   3.080   1.801   4.586 -1.3780  0.1475  1.1576
 1225SOL     OW15310   2.543   3.814  16.702  0.3791 -0.7921  0.6661
 1225SOL    HW115311   2.568   3.839  16.791 -1.6663  1.4794  0.6007
 1225SOL    HW215312   2.559   3.900  16.663 -0.3344 -0.7649  0.4378
 1226SOL     OW15313   0.684   3.810   7.859 -0.1494 -0.0519  0.1195
 1226SOL    HW115314   0.647   3.896   7.882  1.7115  1.1016 -1.1716
 1226SOL    HW215315   0.653   3.808   7.768  1.9561 -2.4377 -0.5147
 1227SOL     OW15316   2.612   2.775   6.805 -0.1312  0.6854  0.0109
 1227SOL    HW115317   2.690   2.746   6.853 -1.5327 -2.2184  0.5431
 1227SOL    HW215318   2.638   2.751   6.715  0.7838  1.8366 -0.0264
 1228SOL     OW15319   2.746   3.808   8.166 -0.0805 -0.2522  0.0174
 1228SOL    HW115320   2.782   3.774   8.084  0.0710 -3.3230  1.3453
 1228SOL    HW215321   2.723   3.724   8.207 -4.2403  0.7412 -0.2804
 1229SOL     OW15322   2.183   1.100   3.068  0.0048 -0.1864 -0.1967
 1229SOL    HW115323   2.112   1.105   3.133  0.0470 -1.3406 -0.0672
 1229SOL    HW215324   2.146   1.066   2.986 -0.7428 -1.6826  0.7601
 1230SOL     OW15325   3.770   1.650   5.973  0.2022 -0.0194  0.2287
 1230SOL    HW115326   3.688   1.694   5.994 -0.3088 -0.1826 -1.4041
 1230SOL    HW215327   3.826   1.725   5.993 -0.5035  0.2697  1.1249
 1231SOL     OW15328   1.678   1.046  14.039  0.0941  0.0424  0.5659
 1231SOL    HW115329   1.684   1.137  14.010 -0.0313  0.0200  0.4720
 1231SOL    HW215330   1.767   1.035  14.073  0.2130  2.1240  0.9196
 1232SOL     OW15331   3.329   3.106   4.639  0.1737  0.3558  0.1352
 1232SOL    HW115332   3.302   3.065   4.721 -0.7713  0.3210 -0.1960
 1232SOL    HW215333   3.245   3.103   4.593 -1.7859  4.0146  3.4345
 1233SOL     OW15334   2.632   4.224  14.465  0.0637 -0.0938 -0.5048
 1233SOL    HW115335   2.643   4.162  14.537  1.8071  2.2994  1.2792
 1233SOL    HW215336   2.715   4.270  14.474 -0.2725  1.0135 -2.9263
 1234SOL     OW15337   3.561   3.867  10.935  0.3975 -0.0566 -0.1798
 1234SOL    HW115338   3.498   3.937  10.952  0.1176 -0.6163  1.0657
 1234SOL    HW215339   3.540   3.811  11.010  0.1829 -0.8133 -0.8035
 1235SOL     OW15340   1.857   2.260   5.765  0.1761  0.8913  0.2055
 1235SOL    HW115341   1.826   2.247   5.855  1.7582 -2.2182  0.3134
 1235SOL    HW215342   1.951   2.266   5.779  0.1159 -0.2607  1.0535
 1236SOL     OW15343   3.023   4.462   7.852 -0.1538 -0.2185  0.0760
 1236SOL    HW115344   2.961   4.405   7.808 -0.3740 -0.7264  1.0450
 1236SOL    HW215345   2.989   4.479   7.940 -0.9795 -1.9151  0.0736
 1237SOL     OW15346   1.904   0.919   3.136  0.8498  0.1232  0.4491
 1237SOL    HW115347   1.888   0.858   3.065 -0.1260  0.2970  0.5044
 1237SOL    HW215348   1.881   0.993   3.080  0.7116  0.5858  1.1069
 1238SOL     OW15349   2.395   2.489   0.263  0.4239 -0.0975 -0.0116
 1238SOL    HW115350   2.479   2.457   0.232  0.5544  0.7511 -0.5387
 1238SOL    HW215351   2.403   2.584   0.253  0.0641 -0.4040 -3.1371
 1239SOL     OW15352   1.549   1.716   5.921  0.3821  0.2991  0.5657
 1239SOL    HW115353   1.495   1.647   5.883  1.8448 -0.2773 -0.4432
 1239SOL    HW215354   1.605   1.737   5.847  1.0972  0.7582  1.2361
 1240SOL     OW15355   3.752   3.125   2.137 -0.0411 -0.3061 -0.4731
 1240SOL    HW115356   3.660   3.153   2.133 -0.1369 -0.6296 -0.5239
 1240SOL    HW215357   3.767   3.146   2.229  1.0274  0.5985 -0.8494
 1241SOL     OW15358   1.321   3.653   0.283  0.2782 -0.1469  0.2803
 1241SOL    HW115359   1.260   3.725   0.268  1.8592  0.7367 -1.8244
 1241SOL    HW215360   1.312   3.603   0.202 -1.6410 -2.0231  1.6274
 1242SOL     OW15361   4.665   1.454  10.526  0.4163  0.1402  0.0982
 1242SOL    HW115362   0.006   1.505  10.550  1.7469 -0.9950 -1.7374
 1242SOL    HW215363   4.678   1.377  10.581 -1.0991  1.5782  2.4704
 1243SOL     OW15364   2.971   4.188   3.903 -0.3392 -0.0811  0.7366
 1243SOL    HW115365   2.921   4.116   3.863  1.2015 -0.4343 -0.5384
 1243SOL    HW215366   3.059   4.153   3.913 -0.0134  0.8508  1.0936
 1244SOL     OW15367   0.792   4.137   7.448 -0.3709 -0.1441 -0.1462
 1244SOL    HW115368   0.722   4.073   7.434  0.3961 -0.7999 -0.9710
 1244SOL    HW215369   0.871   4.085   7.434 -0.2776 -0.0676  0.1032
 1245SOL     OW15370   3.101   0.721  10.370 -0.4597  0.5733  0.2082
 1245SOL    HW115371   3.137   0.757  10.289 -0.4053 -3.1410 -1.3911
 1245SOL    HW215372   3.092   0.796  10.428 -1.0856  2.0066 -1.7201
 1246SOL     OW15373   0.519   2.873   3.744  0.0268 -0.3845 -0.2012
 1246SOL    HW115374   0.599   2.841   3.785  1.9764  2.6017 -1.6486
 1246SOL    HW215375   0.502   2.950   3.799 -0.0407  2.1386 -3.7049
 1247SOL     OW15376   0.226   1.966  12.486  0.1419  0.3973 -0.2519
 1247SOL    HW115377   0.281   1.935  12.414  0.4583  0.8513 -0.2081
 1247SOL    HW215378   0.141   1.975  12.443  0.1332  1.9511  0.0745
 1248SOL     OW15379   3.088   0.678  15.053  0.2480  0.0334 -0.0994
 1248SOL    HW115380   3.017   0.619  15.076  0.8000 -0.3192  0.6743
 1248SOL    HW215381   3.150   0.667  15.124  0.1697  1.8589  0.2533
 1249SOL     OW15382   2.814   4.352  14.916 -0.6368 -0.3528 -0.0313
 1249SOL    HW115383   2.831   4.366  14.823 -0.6488 -1.0314 -0.1401
 1249SOL    HW215384   2.796   4.259  14.903  2.0199 -0.7441 -0.9902
 1250SOL     OW15385   1.952   3.252   6.510  0.0120  0.1237 -0.5851
 1250SOL    HW115386   2.035   3.205   6.517 -1.2418 -1.8347  1.2958
 1250SOL    HW215387   1.940   3.290   6.597 -0.3807 -1.7989  0.2052
 1251SOL     OW15388   2.104   3.305  16.658  0.1946 -0.2345  0.0034
 1251SOL    HW115389   2.140   3.291  16.570  2.2835 -0.7416  0.9423
 1251SOL    HW215390   2.027   3.355  16.632  1.2043  1.0816 -0.4349
 1252SOL     OW15391   0.611   3.156  16.862 -0.0914  0.5432 -0.3311
 1252SOL    HW115392   0.686   3.178  16.918 -2.7480 -1.8093  4.2146
 1252SOL    HW215393   0.619   3.061  16.873  1.4683  0.8495  1.3097
 1253SOL     OW15394   2.982   4.178   7.316  0.0932  0.2473 -0.4795
 1253SOL    HW115395   2.892   4.152   7.294 -1.3318  1.8001  3.4269
 1253SOL    HW215396   2.955   4.244   7.379  2.1372  1.6884 -1.1363
 1254SOL     OW15397   1.849   3.625   6.329 -0.1568  0.5164  0.1214
 1254SOL    HW115398   1.875   3.606   6.419  3.4902 -2.0857 -1.5140
 1254SOL    HW215399   1.769   3.574   6.313 -2.2357  3.5298  0.8515
 1255SOL     OW15400   4.348   2.162  10.002 -0.3098  0.4273  0.0273
 1255SOL    HW115401   4.254   2.150  10.011 -0.6227  3.1138  0.4716
 1255SOL    HW215402   4.355   2.203   9.915  1.8083  0.4567  0.1886
 1256SOL     OW15403   4.599   0.438   5.621  0.3887 -0.4455  0.0299
 1256SOL    HW115404   4.571   0.493   5.548 -0.7556 -3.1085 -1.5028
 1256SOL    HW215405   4.693   0.425   5.606  0.1207 -1.6643 -0.5118
 1257SOL     OW15406   2.569   0.230   6.417 -0.3934  0.1745  0.4101
 1257SOL    HW115407   2.602   0.318   6.398 -0.4177 -0.0494 -0.6331
 1257SOL    HW215408   2.475   0.244   6.412 -0.3043  0.1010 -1.2332
 1258SOL     OW15409   2.975   1.727   2.344  0.0211  0.6579 -0.1714
 1258SOL    HW115410   2.960   1.695   2.433  1.4843  1.4561  0.3604
 1258SOL    HW215411   2.887   1.738   2.308 -1.2476  1.6457  3.2820
 1259SOL     OW15412   3.108   2.626  11.888 -0.0855  0.2250 -0.2818
 1259SOL    HW115413   3.137   2.534  11.889  1.4595  0.7031 -0.8714
 1259SOL    HW215414   3.172   2.661  11.950 -2.2972 -0.3551  2.3011
 1260SOL     OW15415   4.603   0.496  11.734  0.0476  0.5505 -0.0227
 1260SOL    HW115416   4.569   0.586  11.726 -1.3012  0.0581  0.2307
 1260SOL    HW215417   4.536   0.452  11.682 -1.2122 -0.6016  2.5754
 1261SOL     OW15418   3.732   3.237  12.615  0.1886  0.0962  0.1397
 1261SOL    HW115419   3.733   3.178  12.539  1.2968  0.1329  0.1189
 1261SOL    HW215420   3.728   3.165  12.678 -2.7605  0.9784  0.9584
 1262SOL     OW15421   0.792   2.494   5.579 -0.2596  0.0925 -0.3280
 1262SOL    HW115422   0.851   2.526   5.511 -0.9344 -0.3861 -1.1224
 1262SOL    HW215423   0.852   2.445   5.635 -1.4101 -0.0060  0.8209
 1263SOL     OW15424   2.920   4.708  16.528  0.3708  0.3934  0.0117
 1263SOL    HW115425   2.992   4.645  16.530 -2.1026 -2.4630 -0.4156
 1263SOL    HW215426   2.946   0.037  16.593  0.2905 -0.4006  0.8307
 1264SOL     OW15427   3.575   1.360   7.647  0.2203  0.7086 -0.1914
 1264SOL    HW115428   3.528   1.382   7.566 -0.8792 -0.2124  0.1982
 1264SOL    HW215429   3.618   1.283   7.610  0.6322  0.1566  1.4689
 1265SOL     OW15430   2.193   4.634   3.814  0.3358  0.3088  0.4248
 1265SOL    HW115431   2.134   4.709   3.826  2.1714  1.8622 -0.1616
 1265SOL    HW215432   2.225   4.660   3.727  0.4782 -1.7195 -0.1201
 1266SOL     OW15433   0.113   4.041  16.920  0.3999  0.4081 -0.2209
 1266SOL    HW115434   0.121   3.968  16.858  1.0990 -0.3358  0.7297
 1266SOL    HW215435   0.022   4.042  16.949 -0.1088  0.3343 -1.8272
 1267SOL     OW15436   4.304   4.149   3.700 -0.5468  0.1824  0.0097
 1267SOL    HW115437   4.313   4.088   3.773  0.6576  1.0807  0.6096
 1267SOL    HW215438   4.288   4.082   3.634  0.4672  0.3058 -0.3486
 1268SOL     OW15439   1.179   4.186  15.959 -0.1944  0.3321  0.1502
 1268SOL    HW115440   1.213   4.133  16.031  1.4408 -0.1049 -0.9215
 1268SOL    HW215441   1.205   4.276  15.975  1.8184 -0.3238  0.6037
 1269SOL     OW15442   2.024   0.762   2.245 -0.4875 -0.8363 -0.8331
 1269SOL    HW115443   1.989   0.769   2.334  3.1187  1.5897  0.3657
 1269SOL    HW215444   2.111   0.729   2.269  0.0681 -0.3565 -2.2076
 1270SOL     OW15445   3.143   2.614  10.627  0.4841  0.0069  0.1331
 1270SOL    HW115446   3.112   2.538  10.677 -0.2976  0.5419  0.4666
 1270SOL    HW215447   3.196   2.572  10.559  1.0106  1.0998 -0.1398
 1271SOL     OW15448   4.215   1.076   4.167  0.7091  0.7009  0.1570
 1271SOL    HW115449   4.188   1.090   4.257  1.0054  2.1034  0.0202
 1271SOL    HW215450   4.297   1.125   4.169  0.6686  0.8096 -0.7524
 1272SOL     OW15451   2.483   0.661  12.150 -0.0342 -0.0605  0.6710
 1272SOL    HW115452   2.532   0.732  12.108 -0.3997  0.5592  1.2953
 1272SOL    HW215453   2.549   0.648  12.219  1.3811  2.8645 -0.1256
 1273SOL     OW15454   2.869   3.772  16.612 -0.0836  0.0247 -0.6432
 1273SOL    HW115455   2.794   3.775  16.673  0.2424  1.3565 -0.3131
 1273SOL    HW215456   2.935   3.775  16.682 -0.7196  2.1737 -0.1267
 1274SOL     OW15457   2.992   3.008  15.655  0.2757 -0.1373  0.1271
 1274SOL    HW115458   2.969   3.092  15.694 -0.5116  0.5030 -1.6968
 1274SOL    HW215459   3.007   3.031  15.563  0.3807  1.9491  0.6749
 1275SOL     OW15460   4.277   0.872  12.937 -0.0346 -0.1542 -0.1467
 1275SOL    HW115461   4.314   0.875  12.848 -0.2680 -0.0342 -0.2412
 1275SOL    HW215462   4.242   0.783  12.945  1.2014 -0.7753 -1.4973
 1276SOL     OW15463   1.802   2.662  16.525 -0.0837  0.0348  0.2915
 1276SOL    HW115464   1.892   2.686  16.549 -0.7850  1.7071  1.2774
 1276SOL    HW215465   1.781   2.574  16.555 -1.5269  0.3934  0.3239
 1277SOL     OW15466   2.794   2.014  11.260  0.0914  0.3179 -0.0271
 1277SOL    HW115467   2.736   1.941  11.244 -0.9997  1.5084 -1.4664
 1277SOL    HW215468   2.830   2.030  11.173 -0.7450  0.8791 -0.2620
 1278SOL     OW15469   1.366   0.007   7.101  0.1333  0.3746 -0.0599
 1278SOL    HW115470   1.442   0.035   7.051  1.1179  1.1905  1.8653
 1278SOL    HW215471   1.340   4.667   7.049  0.1836  0.9792 -0.9489
 1279SOL     OW15472   2.934   0.836   0.320  0.3866  0.7340 -0.6652
 1279SOL    HW115473   2.957   0.837   0.227 -1.6926  1.4057 -1.1679
 1279SOL    HW215474   2.994   0.902   0.355  0.7522  0.8838 -1.5739
 1280SOL     OW15475   1.699   2.318   1.995  0.0512  0.3143 -0.5951
 1280SOL    HW115476   1.607   2.295   2.002  0.3178 -1.3659 -2.4489
 1280SOL    HW215477   1.713   2.367   2.076 -2.4401 -0.2957  0.1728
 1281SOL     OW15478   0.908   3.070   6.805  0.0777  0.3910  0.4899
 1281SOL    HW115479   0.985   3.046   6.856 -0.4370 -2.7224 -0.1724
 1281SOL    HW215480   0.922   3.022   6.723 -0.7117  0.0158  0.5757
 1282SOL     OW15481   0.832   4.160   2.927  0.0048 -0.0385  0.3326
 1282SOL    HW115482   0.824   4.248   2.890  0.3783  0.4995  1.5233
 1282SOL    HW215483   0.863   4.115   2.848  3.8624  2.4499  0.4562
 1283SOL     OW15484   4.262   0.836   4.544  0.1807 -0.3601 -0.5242
 1283SOL    HW115485   4.332   0.835   4.479  1.9815  2.2787  1.3365
 1283SOL    HW215486   4.219   0.908   4.497  0.9244  0.3091 -0.1897
 1284SOL     OW15487   0.105   0.375   5.557 -0.7415  0.2623  0.7034
 1284SOL    HW115488   0.114   0.294   5.506 -2.9840 -1.5890  3.2728
 1284SOL    HW215489   0.167   0.426   5.504 -2.3863  2.5739  1.0088
 1285SOL     OW15490   2.083   2.356  10.050  0.0452  0.2351 -0.3742
 1285SOL    HW115491   2.130   2.381   9.970  1.4313  0.7267  0.6051
 1285SOL    HW215492   2.113   2.404  10.127 -2.6253 -0.8931  1.3677
 1286SOL     OW15493   1.295   2.998  12.741 -0.1119  0.5855  0.4116
 1286SOL    HW115494   1.221   2.953  12.782 -1.5038  2.0299 -0.5108
 1286SOL    HW215495   1.272   2.980  12.650  0.0001  2.7791 -0.0519
 1287SOL     OW15496   2.334   1.619   8.955  0.1062  0.0656 -0.0389
 1287SOL    HW115497   2.301   1.709   8.958 -2.7646 -1.0316  1.1924
 1287SOL    HW215498   2.299   1.575   9.032 -1.7708  0.0696 -0.9024
 1288SOL     OW15499   2.185   2.226   4.361 -0.3417  0.1713 -0.0244
 1288SOL    HW115500   2.178   2.154   4.299 -1.2301  0.7814 -0.6411
 1288SOL    HW215501   2.094   2.222   4.392  0.4495 -0.8179  2.1876
 1289SOL     OW15502   1.122   4.080   6.027 -0.3736 -0.2800 -0.1592
 1289SOL    HW115503   1.081   4.048   5.947 -1.0285  0.6414 -0.1945
 1289SOL    HW215504   1.185   4.010   6.045 -1.4632 -0.8402  1.5029
 1290SOL     OW15505   0.258   1.689   0.031  0.4710 -0.3818  0.1515
 1290SOL    HW115506   0.276   1.783   0.036  3.6671 -0.9926 -0.0885
 1290SOL    HW215507   0.218   1.689   0.119 -1.0685  1.0871 -0.5531
 1291SOL     OW15508   2.604   2.311   2.476 -0.2539 -0.0328  0.0234
 1291SOL    HW115509   2.644   2.285   2.393 -0.1948  0.5382 -0.1239
 1291SOL    HW215510   2.684   2.327   2.526 -0.7330  0.6275  0.5880
 1292SOL     OW15511   0.876   4.044   0.269 -0.3046  0.3216  0.2622
 1292SOL    HW115512   0.946   4.029   0.205 -1.1692 -1.3649 -0.3140
 1292SOL    HW215513   0.904   3.984   0.338 -1.4268  3.0301  3.0607
 1293SOL     OW15514   2.377   2.260   5.133 -0.2142 -0.0706  0.3034
 1293SOL    HW115515   2.407   2.197   5.068 -0.1048 -0.4053  0.6849
 1293SOL    HW215516   2.281   2.264   5.134 -0.1173  2.3907  0.0181
 1294SOL     OW15517   3.618   1.587   2.483  0.1005  0.6969  0.5019
 1294SOL    HW115518   3.590   1.499   2.458 -0.8355  1.5543 -1.4382
 1294SOL    HW215519   3.611   1.636   2.402 -0.3104 -1.7732 -0.9589
 1295SOL     OW15520   0.173   4.552  17.486  0.2677 -0.5630  0.2994
 1295SOL    HW115521   0.153   4.486  17.552  0.9689 -0.7480  0.3301
 1295SOL    HW215522   0.238   4.508  17.431  0.6077 -1.6274  1.5456
 1296SOL     OW15523   2.237   1.096  14.817  0.0820  0.2295  0.4602
 1296SOL    HW115524   2.291   1.047  14.879  0.3422 -1.3226 -0.9952
 1296SOL    HW215525   2.245   1.184  14.855 -0.2723 -0.6876  2.6908
 1297SOL     OW15526   2.677   3.471   4.105 -0.5161 -0.4961  0.3888
 1297SOL    HW115527   2.767   3.491   4.078 -1.5559  1.7819 -1.4321
 1297SOL    HW215528   2.697   3.414   4.179  0.0241 -1.2445 -0.3280
 1298SOL     OW15529   0.827   0.787   2.680 -0.1793  0.0667  0.1127
 1298SOL    HW115530   0.800   0.696   2.692  0.3810 -0.1482 -0.2675
 1298SOL    HW215531   0.749   0.842   2.684 -1.0274 -1.2010  1.2262
 1299SOL     OW15532   4.439   0.204   0.992  0.1057 -0.2777 -0.6068
 1299SOL    HW115533   4.346   0.223   0.980 -0.3435 -1.2775  1.2421
 1299SOL    HW215534   4.470   0.294   0.992 -0.5682 -0.0458  0.6645
 1300SOL     OW15535   1.448   2.968  16.726 -0.2962  0.3624  0.2182
 1300SOL    HW115536   1.536   2.937  16.703 -0.3658  0.2851  0.0570
 1300SOL    HW215537   1.460   3.004  16.814 -0.2922 -1.4730  0.9617
 1301SOL     OW15538   3.694   0.073   1.023 -0.4241 -0.4674 -0.5138
 1301SOL    HW115539   3.701   4.727   0.973 -1.8243 -1.0833  0.3087
 1301SOL    HW215540   3.766   0.058   1.084 -1.2950  0.8338  0.8061
 1302SOL     OW15541   0.220   0.649   1.849 -0.0407 -0.6568  0.0263
 1302SOL    HW115542   0.266   0.566   1.860 -0.2895 -0.7487  0.3714
 1302SOL    HW215543   0.297   0.703   1.831 -0.9114  1.2907  2.2434
 1303SOL     OW15544   1.281   2.707   0.361  0.4198 -0.4434  0.4789
 1303SOL    HW115545   1.366   2.664   0.372  0.0668 -0.8089  1.7956
 1303SOL    HW215546   1.322   2.792   0.352 -1.5292  0.5791  1.1817
 1304SOL     OW15547   1.254   0.063   7.348  0.3355  0.0110  0.1310
 1304SOL    HW115548   1.277   0.027   7.262  0.8132 -0.2792  0.3796
 1304SOL    HW215549   1.164   0.034   7.364  0.6330 -1.1941 -0.3936
 1305SOL     OW15550   3.189   0.970   6.261  0.3976 -0.1158  1.0417
 1305SOL    HW115551   3.111   1.020   6.284 -0.0629 -0.9360  1.2545
 1305SOL    HW215552   3.157   0.891   6.219  0.4741  0.6029 -0.3860
 1306SOL     OW15553   0.163   2.110   4.175  0.1365 -0.0995  0.4891
 1306SOL    HW115554   0.210   2.061   4.242 -0.5840 -1.4678 -0.0254
 1306SOL    HW215555   0.074   2.083   4.194 -0.2048 -0.9563 -2.3521
 1307SOL     OW15556   4.552   1.811   2.091  0.3891 -0.2810  0.2273
 1307SOL    HW115557   4.552   1.904   2.065 -0.7485 -0.4205 -0.2692
 1307SOL    HW215558   4.596   1.814   2.176 -2.3060  0.1431  1.6188
 1308SOL     OW15559   3.906   3.680  16.216  0.7454  0.1238 -0.5072
 1308SOL    HW115560   3.958   3.608  16.250 -0.5430  0.1066  1.3954
 1308SOL    HW215561   3.960   3.750  16.253  0.1588  0.0285  0.5171
 1309SOL     OW15562   2.999   0.537   4.795 -0.5680 -0.5850  0.4857
 1309SOL    HW115563   3.079   0.590   4.796  0.6810 -2.4957  0.7367
 1309SOL    HW215564   2.944   0.584   4.732  1.6329 -1.1408 -1.8316
 1310SOL     OW15565   0.296   2.129   2.531 -0.1775 -0.1123 -0.2642
 1310SOL    HW115566   0.253   2.198   2.481 -1.4145 -1.0421 -0.4934
 1310SOL    HW215567   0.263   2.142   2.620  0.4358  1.1371 -0.2214
 1311SOL     OW15568   2.298   0.451  12.166 -0.2025 -0.1068  0.1162
 1311SOL    HW115569   2.355   0.526  12.147  0.9748 -0.8921  0.5226
 1311SOL    HW215570   2.368   0.398  12.205  2.1173  2.6746 -0.2417
 1312SOL     OW15571   2.415   1.231   4.477 -0.3805 -0.5264  0.3326
 1312SOL    HW115572   2.334   1.201   4.434  0.4417  0.1609 -1.7000
 1312SOL    HW215573   2.421   1.318   4.438  0.3457 -0.0646  1.4789
 1313SOL     OW15574   0.505   3.371   7.262  0.0528 -0.2402 -0.1041
 1313SOL    HW115575   0.421   3.357   7.306  0.7960 -0.3963  1.2574
 1313SOL    HW215576   0.553   3.289   7.273 -1.1740 -0.7751  1.2194
 1314SOL     OW15577   0.436   0.862   6.760  0.1355 -0.3926  0.2535
 1314SOL    HW115578   0.443   0.921   6.835 -0.4251 -0.3074  0.2397
 1314SOL    HW215579   0.469   0.779   6.793 -0.2171 -0.0833  1.4054
 1315SOL     OW15580   3.228   0.123  11.161  0.4076 -0.1310 -0.2632
 1315SOL    HW115581   3.205   0.031  11.180 -0.8810  0.2830  0.2003
 1315SOL    HW215582   3.206   0.165  11.244 -0.6548  1.7565 -1.5174
 1316SOL     OW15583   0.587   2.951   4.240 -0.0274  0.5117  0.1721
 1316SOL    HW115584   0.617   2.906   4.319 -1.2895 -0.1192  0.2888
 1316SOL    HW215585   0.671   2.956   4.194  0.6282 -0.9793  1.1777
 1317SOL     OW15586   2.983   3.302   5.784 -0.6297 -0.3283 -0.5644
 1317SOL    HW115587   3.067   3.320   5.826 -0.8256  2.1264 -1.2201
 1317SOL    HW215588   2.930   3.366   5.830 -0.9319  1.8629 -3.9666
 1318SOL     OW15589   2.601   0.308  11.035 -0.9328 -0.2678  0.3588
 1318SOL    HW115590   2.535   0.374  11.015 -0.0419  0.1958 -1.0677
 1318SOL    HW215591   2.582   0.231  10.982  0.1597  0.3029 -0.8616
 1319SOL     OW15592   3.863   3.597  15.952  0.5717  0.3498  0.2685
 1319SOL    HW115593   3.811   3.671  15.919 -1.5448 -1.5437 -0.6076
 1319SOL    HW215594   3.875   3.627  16.042  1.7789 -0.9315  0.5245
 1320SOL     OW15595   4.581   3.074   6.737 -0.1017  0.0534  0.0658
 1320SOL    HW115596   4.653   3.135   6.755 -0.5088 -0.1771  2.4955
 1320SOL    HW215597   4.504   3.126   6.758 -0.6181 -0.2611 -1.1047
 1321SOL     OW15598   4.578   0.902  10.093  0.0000 -0.4406  0.0594
 1321SOL    HW115599   4.670   0.920  10.115  0.0580 -0.6692  0.0036
 1321SOL    HW215600   4.567   0.943  10.007 -0.9648  0.9037  0.8407
 1322SOL     OW15601   1.763   2.017  17.733  0.0874  0.6885  0.4069
 1322SOL    HW115602   1.707   2.071  17.678  0.3949 -1.4103 -1.9768
 1322SOL    HW215603   1.705   2.010   0.067  0.7290 -1.7415  0.6943
 1323SOL     OW15604   0.096   1.653   8.889  0.1878 -0.2988 -0.0809
 1323SOL    HW115605   0.137   1.586   8.943 -0.0615 -1.2016 -1.0108
 1323SOL    HW215606   0.091   1.726   8.951  0.0317 -0.9253  0.6388
 1324SOL     OW15607   4.724   4.306   3.624  0.3614  0.3246 -0.0069
 1324SOL    HW115608   0.002   4.394   3.658  2.4048 -0.6523  1.7288
 1324SOL    HW215609   4.632   4.307   3.601  0.4806  2.0371 -0.3850
 1325SOL     OW15610   1.722   1.076   0.315 -0.4070 -0.3203  0.4794
 1325SOL    HW115611   1.745   1.098   0.405 -1.4541  2.1673  0.1403
 1325SOL    HW215612   1.639   1.031   0.331 -0.1758 -0.3328  1.6727
 1326SOL     OW15613   0.128   1.576   5.913 -0.4600  0.2965  0.0730
 1326SOL    HW115614   0.195   1.509   5.904  1.2237  1.9450  0.2615
 1326SOL    HW215615   0.163   1.658   5.878  0.8703 -0.0965  0.4666
 1327SOL     OW15616   0.464   4.309   5.680  0.0532 -0.1913  0.5814
 1327SOL    HW115617   0.422   4.224   5.693 -2.3622  0.6841 -1.5454
 1327SOL    HW215618   0.479   4.309   5.585  0.2860 -0.0364  0.6201
 1328SOL     OW15619   3.316   2.493   5.679  0.4060  0.3651  0.6220
 1328SOL    HW115620   3.392   2.489   5.622 -0.3885 -3.5116 -0.2017
 1328SOL    HW215621   3.281   2.405   5.661  0.4485  0.4564  0.0883
 1329SOL     OW15622   0.676   3.496   8.670 -0.4436  0.0280 -0.2077
 1329SOL    HW115623   0.753   3.451   8.706 -0.7943 -1.4095 -1.2312
 1329SOL    HW215624   0.616   3.424   8.649  1.4650 -1.6248 -0.1011
 1330SOL     OW15625   3.327   1.761   6.556  0.1232  0.0889 -0.2968
 1330SOL    HW115626   3.352   1.767   6.464 -2.3813 -0.5339 -1.0049
 1330SOL    HW215627   3.375   1.684   6.584 -0.0034 -0.1772 -0.8237
 1331SOL     OW15628   1.414   1.297   6.836  0.4928 -0.4039 -0.3294
 1331SOL    HW115629   1.352   1.328   6.771  0.2565  2.5282  1.3352
 1331SOL    HW215630   1.420   1.364   6.904 -1.0705 -1.1135  0.5018
 1332SOL     OW15631   4.363   1.967   7.568  0.3584  0.2748  0.3713
 1332SOL    HW115632   4.435   1.905   7.569 -0.2846 -0.4925 -4.1387
 1332SOL    HW215633   4.320   1.942   7.487  0.1468  1.0031  0.2525
 1333SOL     OW15634   0.928   0.530   1.854 -0.0677  0.1805 -0.0729
 1333SOL    HW115635   1.022   0.549   1.846 -0.4958  2.3170  0.1095
 1333SOL    HW215636   0.922   0.537   1.949 -1.7311  1.1688 -0.2642
 1334SOL     OW15637   2.327   3.198   8.392 -0.6504  0.1577  0.0308
 1334SOL    HW115638   2.266   3.220   8.462 -0.5828 -0.6264  0.3428
 1334SOL    HW215639   2.366   3.135   8.453 -0.4725  0.9014  0.6854
 1335SOL     OW15640   2.123   1.741   3.302 -0.6182 -0.1226  0.3044
 1335SOL    HW115641   2.043   1.773   3.260 -0.9089 -0.6585  0.4440
 1335SOL    HW215642   2.114   1.795   3.381  2.2294 -1.8638  1.8350
 1336SOL     OW15643   0.408   0.095   6.490 -0.1341 -0.3910  0.2138
 1336SOL    HW115644   0.482   0.035   6.498  0.7928  0.7510  0.2964
 1336SOL    HW215645   0.328   0.058   6.528  0.0309 -0.6161  0.3405
 1337SOL     OW15646   0.005   1.217   2.038  0.1806  0.1134 -0.1879
 1337SOL    HW115647   0.011   1.300   1.992  2.2690 -0.0194 -0.1416
 1337SOL    HW215648   0.013   1.246   2.129  0.8087  2.4644 -0.9875
 1338SOL     OW15649   1.885   2.651   3.818  0.1102  0.7366 -0.3088
 1338SOL    HW115650   1.958   2.615   3.869 -0.3169 -1.6475 -1.4032
 1338SOL    HW215651   1.890   2.600   3.738 -0.9772  0.9568 -0.5089
 1339SOL     OW15652   2.140   2.267   5.857 -0.0784 -0.2517 -0.0694
 1339SOL    HW115653   2.218   2.227   5.896  0.0599  1.5474  1.5361
 1339SOL    HW215654   2.115   2.330   5.924  0.7079 -2.2087  2.0778
 1340SOL     OW15655   4.000   3.795   6.418  0.5600  0.0622 -0.5373
 1340SOL    HW115656   3.965   3.723   6.470 -1.2283  0.6590 -0.9073
 1340SOL    HW215657   3.937   3.789   6.347 -3.6669 -0.8538  3.2877
 1341SOL     OW15658   1.934   3.114   8.390 -0.3386  0.5118 -0.3623
 1341SOL    HW115659   1.959   3.198   8.352  1.1478 -0.8827 -2.4461
 1341SOL    HW215660   1.988   3.065   8.329 -0.0753 -1.0623  1.1313
 1342SOL     OW15661   4.597   3.600   4.436  0.1665 -0.0804  0.0783
 1342SOL    HW115662   4.617   3.586   4.343  1.7228 -0.4257  0.4735
 1342SOL    HW215663   4.671   3.649   4.471  0.7615  0.4392 -1.9281
 1343SOL     OW15664   3.161   1.190   8.875  0.1075 -0.0544 -0.1982
 1343SOL    HW115665   3.185   1.147   8.957  0.4591 -1.4835 -1.0589
 1343SOL    HW215666   3.074   1.156   8.858  0.0439  0.0278 -0.0414
 1344SOL     OW15667   2.880   1.050   5.027 -0.1355  0.1580 -0.0586
 1344SOL    HW115668   2.941   1.107   5.073 -0.8128 -0.5344  1.7092
 1344SOL    HW215669   2.929   0.969   5.010 -1.0735 -0.4406  0.0788
 1345SOL     OW15670   0.793   4.240   4.051  0.0946 -0.5815 -1.0002
 1345SOL    HW115671   0.736   4.163   4.046  0.4173 -0.7749 -1.7164
 1345SOL    HW215672   0.878   4.197   4.038 -0.0688 -1.2129 -0.0238
 1346SOL     OW15673   4.581   1.822  14.780  0.2827 -0.0694 -0.5662
 1346SOL    HW115674   4.527   1.802  14.703 -1.5627  1.1369  0.3892
 1346SOL    HW215675   4.667   1.836  14.741  1.4030  0.1414  1.9828
 1347SOL     OW15676   4.151   4.200   7.781  0.5489  0.3132  0.1761
 1347SOL    HW115677   4.137   4.113   7.817  1.8045 -0.1858 -0.5502
 1347SOL    HW215678   4.200   4.239   7.854 -2.7099  2.5221  1.1755
 1348SOL     OW15679   3.384   2.642   3.032  0.3621 -0.3033  0.3458
 1348SOL    HW115680   3.382   2.717   3.091 -0.8083 -0.0379 -0.0383
 1348SOL    HW215681   3.357   2.568   3.087  1.1756 -0.5231  0.4505
 1349SOL     OW15682   3.558   2.817   6.720  0.1715  0.4149  0.0499
 1349SOL    HW115683   3.586   2.726   6.714  1.3086  0.8965 -1.8803
 1349SOL    HW215684   3.518   2.812   6.807  2.4972 -0.5620  1.0518
 1350SOL     OW15685   1.965   4.375   9.307  0.0256  0.2552 -0.0821
 1350SOL    HW115686   1.922   4.455   9.336 -0.3632 -0.0985  0.3250
 1350SOL    HW215687   1.898   4.344   9.247  0.7259  1.0349 -1.2667
 1351SOL     OW15688   3.060   0.192   9.354 -0.4572 -0.4697 -0.6314
 1351SOL    HW115689   3.028   0.191   9.263 -0.3676 -1.0151 -0.6577
 1351SOL    HW215690   3.111   0.273   9.353 -1.2250  0.0107 -0.7061
 1352SOL     OW15691   1.012   3.615   4.532  0.5315 -0.9041  0.0522
 1352SOL    HW115692   0.979   3.693   4.487  1.2047 -1.0737 -0.7374
 1352SOL    HW215693   0.972   3.624   4.618 -3.4205 -2.0486 -1.6704
 1353SOL     OW15694   4.532   0.306   3.117 -0.4704  0.2903  0.5329
 1353SOL    HW115695   4.606   0.292   3.177 -0.4265 -0.7910  0.2256
 1353SOL    HW215696   4.470   0.361   3.165  0.8325  2.3440 -0.1326
 1354SOL     OW15697   3.633   2.625   5.227 -0.4913 -0.3538 -0.1456
 1354SOL    HW115698   3.631   2.532   5.248 -2.0699 -0.6935 -1.7715
 1354SOL    HW215699   3.649   2.622   5.132 -1.5308 -3.3040 -0.2141
 1355SOL     OW15700   0.938   0.711   7.899 -0.1529  0.4193 -0.3990
 1355SOL    HW115701   1.001   0.703   7.970  0.3838  0.8517 -0.8203
 1355SOL    HW215702   0.879   0.784   7.920  0.0053  1.0350 -2.0900
 1356SOL     OW15703   4.289   1.617   7.437  0.1534  0.7377 -0.7461
 1356SOL    HW115704   4.225   1.667   7.488 -0.6825 -0.9819 -0.1062
 1356SOL    HW215705   4.256   1.528   7.452  3.2574 -0.0291  1.5835
 1357SOL     OW15706   3.866   4.631   3.979 -0.1498  0.3918  0.4260
 1357SOL    HW115707   3.942   4.573   3.987  1.0156  1.6103 -1.8261
 1357SOL    HW215708   3.793   4.575   3.953  0.0163 -0.2603  1.3285
 1358SOL     OW15709   4.177   0.877   8.016  0.2788  0.1426  0.1239
 1358SOL    HW115710   4.120   0.825   8.072 -0.3715 -2.3822 -2.8497
 1358SOL    HW215711   4.259   0.828   8.023 -0.1590 -0.8044 -1.1387
 1359SOL     OW15712   0.291   4.623  14.622 -0.1154 -0.0078 -0.6652
 1359SOL    HW115713   0.219   4.593  14.677 -0.6355  1.1839 -0.6903
 1359SOL    HW215714   0.371   4.596  14.667  0.3393 -0.5122 -1.7716
 1360SOL     OW15715   2.115   4.699   7.811 -0.0751 -0.1047  0.4418
 1360SOL    HW115716   2.029   4.677   7.847 -0.7704 -1.0157 -1.7417
 1360SOL    HW215717   2.167   4.709   7.890 -0.2032  1.7697  0.3094
 1361SOL     OW15718   1.214   2.977   0.800  0.1028  0.4151 -0.3279
 1361SOL    HW115719   1.128   2.948   0.831  1.1053 -1.6739  0.4771
 1361SOL    HW215720   1.187   3.067   0.781  0.1983 -0.1080 -2.9982
 1362SOL     OW15721   0.510   0.105   7.039  0.0889 -0.1763 -0.1172
 1362SOL    HW115722   0.487   0.109   6.946 -0.3863 -4.1872 -0.1729
 1362SOL    HW215723   0.442   0.165   7.069 -1.2709 -0.1343 -3.2892
 1363SOL     OW15724   3.021   3.097   3.586  0.4419 -0.5555  0.2791
 1363SOL    HW115725   3.018   3.175   3.530  1.7477  0.7123  1.9754
 1363SOL    HW215726   3.114   3.077   3.588  0.6966  0.6402  0.4755
 1364SOL     OW15727   0.438   4.373   7.964  0.5269  0.1839 -0.2970
 1364SOL    HW115728   0.383   4.317   8.018  0.7134  0.1792 -0.1102
 1364SOL    HW215729   0.372   4.382   7.896 -0.7527  0.8602  1.0413
 1365SOL     OW15730   0.142   3.860   9.311  0.5153 -0.3366  0.4067
 1365SOL    HW115731   0.085   3.840   9.237  1.8620  0.5074 -0.8467
 1365SOL    HW215732   0.107   3.796   9.373 -0.6135 -0.7425 -0.6521
 1366SOL     OW15733   4.526   0.468   6.387 -0.0041  0.1064  0.4017
 1366SOL    HW115734   4.497   0.377   6.378  0.2177  0.2407 -1.5814
 1366SOL    HW215735   4.581   0.479   6.309  2.8310 -1.0289  2.2372
 1367SOL     OW15736   4.480   3.928   8.941  0.2426 -0.0058  0.5898
 1367SOL    HW115737   4.397   3.977   8.948  1.9069  2.8892  0.0703
 1367SOL    HW215738   4.449   3.851   8.894 -0.4284  0.2751  0.5706
 1368SOL     OW15739   3.799   0.773   8.028 -0.2066 -0.3405  0.1741
 1368SOL    HW115740   3.881   0.743   8.067 -0.5680  0.6476  1.6968
 1368SOL    HW215741   3.777   0.849   8.082 -1.2170 -0.6899  0.2530
 1369SOL     OW15742   2.099   0.449  13.644  0.2301 -0.3633 -0.3262
 1369SOL    HW115743   2.042   0.398  13.585 -0.3537  0.2884 -0.3228
 1369SOL    HW215744   2.158   0.484  13.577  0.6054 -1.0596 -0.3593
 1370SOL     OW15745   3.845   1.391   3.767  0.1833  0.4378  1.1127
 1370SOL    HW115746   3.808   1.322   3.823  3.5826 -0.8784  1.7593
 1370SOL    HW215747   3.904   1.347   3.706 -2.8518  0.1923 -1.6597
 1371SOL     OW15748   4.721   2.753   9.774  0.3954  0.4519  0.2205
 1371SOL    HW115749   4.701   2.846   9.778  0.7748  0.5200  0.5971
 1371SOL    HW215750   4.662   2.723   9.705 -0.4666 -0.7445  1.4667
 1372SOL     OW15751   2.880   4.015  10.105 -0.0433 -0.0693  0.1648
 1372SOL    HW115752   2.808   4.076  10.091 -0.5377 -0.2410  1.9959
 1372SOL    HW215753   2.934   4.065  10.166  1.4542 -1.4841  0.0092
 1373SOL     OW15754   3.908   2.694   4.731 -0.0227  0.9266  0.1577
 1373SOL    HW115755   3.821   2.659   4.714 -0.0824  0.1860  2.0442
 1373SOL    HW215756   3.960   2.629   4.684 -0.4055 -0.5868  1.8226
 1374SOL     OW15757   1.049   2.292  15.997 -0.3390  0.6616 -0.4653
 1374SOL    HW115758   1.060   2.388  15.997 -0.4344  0.6733 -0.9585
 1374SOL    HW215759   1.013   2.278  16.085  1.5479  0.4869  0.2800
 1375SOL     OW15760   3.780   1.903   7.414 -0.5360  0.2090 -0.1682
 1375SOL    HW115761   3.690   1.931   7.393  0.0963 -0.4126 -3.8187
 1375SOL    HW215762   3.778   1.808   7.403 -0.5078  0.0799  0.9736
 1376SOL     OW15763   4.576   2.487   0.384 -0.2189  0.1612  0.4155
 1376SOL    HW115764   4.556   2.494   0.477  0.7052 -1.2003  0.7319
 1376SOL    HW215765   4.630   2.565   0.370 -1.6882  1.1187  0.1568
 1377SOL     OW15766   3.657   2.963  11.202 -0.4909 -0.1971  0.2698
 1377SOL    HW115767   3.640   2.890  11.261  1.0658  0.9253  2.0922
 1377SOL    HW215768   3.645   2.910  11.123  0.0099 -0.2161  0.2081
 1378SOL     OW15769   2.873   0.240   8.398 -0.0012  0.2766 -0.1269
 1378SOL    HW115770   2.951   0.285   8.368 -0.2177 -0.8963 -2.4346
 1378SOL    HW215771   2.905   0.203   8.480 -1.6748 -0.5015  0.1939
 1379SOL     OW15772   3.184   4.326  15.121 -0.3007 -0.5042 -0.1369
 1379SOL    HW115773   3.112   4.300  15.178 -0.2575 -0.7347 -0.1879
 1379SOL    HW215774   3.257   4.334  15.183 -0.4547 -2.8668  0.3507
 1380SOL     OW15775   3.494   3.087   1.327 -0.5724  0.0658  0.7178
 1380SOL    HW115776   3.454   3.066   1.243 -0.4909 -0.3370  0.7780
 1380SOL    HW215777   3.418   3.124   1.371  0.2904  2.6196  0.0460
 1381SOL     OW15778   3.215   3.538   3.250 -0.7502 -0.4399  0.2849
 1381SOL    HW115779   3.181   3.624   3.275 -1.5610 -0.2976 -1.2370
 1381SOL    HW215780   3.243   3.540   3.158 -1.3946 -1.5466  0.0596
 1382SOL     OW15781   3.141   1.947   7.183  0.1578 -0.2435 -1.0255
 1382SOL    HW115782   3.078   1.994   7.128  0.5450  1.4583 -0.0272
 1382SOL    HW215783   3.194   1.907   7.113  0.5071  1.3163 -1.6543
 1383SOL     OW15784   3.870   3.476  12.639  0.4879 -0.3180  0.4077
 1383SOL    HW115785   3.867   3.496  12.545 -1.6675 -3.3162 -0.1714
 1383SOL    HW215786   3.827   3.390  12.644 -1.1333  0.4689  0.0042
 1384SOL     OW15787   0.075   0.621   8.427 -0.1242  0.0917 -0.7450
 1384SOL    HW115788   4.720   0.649   8.434  0.4384  1.9665 -1.1147
 1384SOL    HW215789   0.114   0.660   8.349 -0.4975 -0.4425 -1.2040
 1385SOL     OW15790   1.169   0.203   6.908 -0.0757  0.0441 -0.0513
 1385SOL    HW115791   1.091   0.164   6.868 -0.2101  1.2429 -0.9499
 1385SOL    HW215792   1.126   0.244   6.983 -2.6725 -2.1159 -0.3770
 1386SOL     OW15793   1.841   3.411  16.649  0.5302  0.6467  1.1026
 1386SOL    HW115794   1.815   3.501  16.666 -0.5679  0.6703 -0.7019
 1386SOL    HW215795   1.780   3.361  16.702  0.8001 -0.8461  0.0086
 1387SOL     OW15796   0.596   0.137   3.284 -0.0269 -0.4819 -0.4205
 1387SOL    HW115797   0.669   0.124   3.224  0.8759  0.3123  0.5145
 1387SOL    HW215798   0.535   0.080   3.237  0.8463 -2.5162  0.8914
 1388SOL     OW15799   1.492   4.247   3.410 -0.1245 -0.1917  0.0018
 1388SOL    HW115800   1.463   4.297   3.334  0.7174  0.6091  0.2226
 1388SOL    HW215801   1.510   4.163   3.367  3.2172 -0.0876  1.2090
 1389SOL     OW15802   2.477   0.500   4.674 -0.4026  0.1075 -0.3343
 1389SOL    HW115803   2.424   0.489   4.753 -1.1057  0.5560 -0.7428
 1389SOL    HW215804   2.539   0.563   4.711 -0.0360  0.5418 -1.6923
 1390SOL     OW15805   1.423   3.980   1.566  0.7180 -0.4163 -0.4639
 1390SOL    HW115806   1.408   4.040   1.639 -0.5641  2.3212 -3.0251
 1390SOL    HW215807   1.400   4.036   1.492  1.8848 -2.3154 -2.2671
 1391SOL     OW15808   0.355   2.613   8.278 -0.2108 -0.1736  0.8176
 1391SOL    HW115809   0.440   2.573   8.300  0.7440  2.1453  1.3145
 1391SOL    HW215810   0.375   2.658   8.196 -0.3965 -2.1380 -0.3339
 1392SOL     OW15811   2.166   0.077   5.403 -0.3543 -0.3391 -0.6158
 1392SOL    HW115812   2.122   0.068   5.319 -1.0107  1.0346 -0.4162
 1392SOL    HW215813   2.252   0.104   5.372  0.3371 -0.9412  0.7721
 1393SOL     OW15814   0.891   0.971   0.397 -0.2671 -0.3121  0.2452
 1393SOL    HW115815   0.806   0.930   0.415 -1.8236  1.7906 -2.2191
 1393SOL    HW215816   0.935   0.951   0.480  0.9998  0.1213 -0.3315
 1394SOL     OW15817   1.176   0.349  15.548 -0.4443 -0.3090 -0.1159
 1394SOL    HW115818   1.106   0.399  15.505  0.6583 -0.2533 -1.8804
 1394SOL    HW215819   1.248   0.356  15.485  1.3342 -2.4400  1.6904
 1395SOL     OW15820   3.231   2.079  15.850  0.6393  0.5772  0.4737
 1395SOL    HW115821   3.174   2.156  15.849 -0.2497 -0.1001 -0.1174
 1395SOL    HW215822   3.315   2.118  15.824  0.5021 -0.0542 -0.8761
 1396SOL     OW15823   2.036   1.710   9.487  0.2634  0.0235 -0.1237
 1396SOL    HW115824   1.992   1.630   9.458  0.4674 -0.7146  1.6407
 1396SOL    HW215825   2.071   1.746   9.405  0.7018 -1.9901 -0.8267
 1397SOL     OW15826   4.320   0.055  17.416 -0.1579 -0.1508 -0.4901
 1397SOL    HW115827   4.339   0.139  17.374 -2.5100 -0.1425 -1.5086
 1397SOL    HW215828   4.259   0.076  17.486  0.8344  0.1634  0.2863
 1398SOL     OW15829   0.446   3.871   2.073  0.2017 -0.3769  0.6675
 1398SOL    HW115830   0.393   3.812   2.126  0.5881  0.2412  1.7421
 1398SOL    HW215831   0.493   3.812   2.014 -1.4260  0.3370 -1.3160
 1399SOL     OW15832   0.799   4.365  12.057  0.8320  0.2940  0.4947
 1399SOL    HW115833   0.807   4.302  12.128 -0.7631 -1.0984 -0.5657
 1399SOL    HW215834   0.773   4.307  11.985 -0.1621  2.3672 -0.8450
 1400SOL     OW15835   1.532   2.558  10.633  0.0147  0.2974 -0.2743
 1400SOL    HW115836   1.534   2.464  10.615  1.7872  0.7660 -2.5421
 1400SOL    HW215837   1.447   2.557  10.675 -0.7176 -1.2072 -1.7810
 1401SOL     OW15838   1.260   1.613   3.068 -0.2625 -0.3306  0.9778
 1401SOL    HW115839   1.201   1.575   3.133 -0.8267  0.6530  1.0426
 1401SOL    HW215840   1.348   1.590   3.100 -0.7080 -1.9208  1.0867
 1402SOL     OW15841   2.032   1.754   7.881  0.2574 -0.6211 -0.0523
 1402SOL    HW115842   2.114   1.801   7.867 -0.1932  0.0431 -0.4226
 1402SOL    HW215843   2.051   1.669   7.921  3.8658  0.3060  0.2160
 1403SOL     OW15844   0.840   0.152   8.870 -0.1932  0.4579 -0.0486
 1403SOL    HW115845   0.846   0.242   8.901 -1.7069  0.9427 -1.1710
 1403SOL    HW215846   0.855   0.171   8.778 -1.4325  0.3069 -0.2877
 1404SOL     OW15847   2.564   4.669   5.326 -0.1098 -0.3301 -0.4334
 1404SOL    HW115848   2.599   4.591   5.282  0.8593  0.6159 -1.3384
 1404SOL    HW215849   2.519   4.632   5.402 -0.1585  0.1385 -0.2391
 1405SOL     OW15850   2.835   3.098   6.378 -0.5355  0.6820 -0.1627
 1405SOL    HW115851   2.785   3.179   6.379 -1.4675  0.0815  2.0215
 1405SOL    HW215852   2.791   3.048   6.308 -1.2908  1.4779 -0.2489
 1406SOL     OW15853   2.357   0.575   7.707 -0.2364  0.2106 -0.2006
 1406SOL    HW115854   2.329   0.547   7.620  2.5777 -1.0897 -0.7206
 1406SOL    HW215855   2.388   0.494   7.748  1.6655  1.9684  1.8259
 1407SOL     OW15856   3.895   3.608   3.127 -0.3434  0.4382 -0.2198
 1407SOL    HW115857   3.849   3.680   3.170  0.7711  0.7497  0.4523
 1407SOL    HW215858   3.979   3.650   3.111  0.4986 -1.3309 -0.3926
 1408SOL     OW15859   3.748   0.768  13.386 -0.6329 -0.0535  0.0518
 1408SOL    HW115860   3.828   0.820  13.398  0.6772 -1.1059 -4.2368
 1408SOL    HW215861   3.680   0.827  13.420  0.2398  0.9807  0.0242
 1409SOL     OW15862   0.148   2.525  11.708 -0.4232 -0.2081 -0.1288
 1409SOL    HW115863   0.055   2.500  11.707 -0.1485 -1.2348 -0.7115
 1409SOL    HW215864   0.155   2.562  11.620  2.1305  0.1152  0.2130
 1410SOL     OW15865   3.142   0.160   7.637  0.4645 -0.0189 -0.5370
 1410SOL    HW115866   3.128   0.068   7.658  0.2507  0.3806  1.1007
 1410SOL    HW215867   3.090   0.182   7.559 -0.0191  0.1061 -0.1810
 1411SOL     OW15868   2.601   3.635   2.540 -0.2388  0.2133 -0.0969
 1411SOL    HW115869   2.549   3.592   2.471 -1.8295  0.5375  0.8984
 1411SOL    HW215870   2.678   3.579   2.533 -1.1419 -1.1940  1.1973
 1412SOL     OW15871   1.937   1.268   8.107  0.2070  0.2952 -0.1018
 1412SOL    HW115872   1.933   1.172   8.114 -2.3858  0.2895 -1.6732
 1412SOL    HW215873   1.906   1.291   8.195  2.9435  0.5210  0.8052
 1413SOL     OW15874   4.486   4.077  16.667 -0.0322  0.0833 -0.6761
 1413SOL    HW115875   4.527   3.996  16.697 -1.7886 -1.5265 -2.6118
 1413SOL    HW215876   4.467   4.118  16.751  2.2394  0.9486 -0.5997
 1414SOL     OW15877   4.564   1.370   9.307 -0.2280 -0.2862  0.0615
 1414SOL    HW115878   4.580   1.293   9.252 -0.2831  0.0231 -0.3837
 1414SOL    HW215879   4.531   1.340   9.392  0.0936 -1.0392 -0.0719
 1415SOL     OW15880   1.827   1.350   1.223 -0.1033 -0.2316 -0.3589
 1415SOL    HW115881   1.791   1.361   1.311 -1.9481 -2.4963 -0.8425
 1415SOL    HW215882   1.810   1.439   1.191  1.4065  0.7665  1.5728
 1416SOL     OW15883   2.398   2.839   5.582 -0.2277  0.6733  0.3704
 1416SOL    HW115884   2.471   2.899   5.564 -1.4621  2.0576  0.0446
 1416SOL    HW215885   2.439   2.781   5.647  1.0559  0.7465 -0.3617
 1417SOL     OW15886   1.973   0.619  14.913  0.7111 -0.2681  0.4004
 1417SOL    HW115887   2.054   0.641  14.866 -0.1730  1.6095 -0.2444
 1417SOL    HW215888   1.911   0.660  14.852 -2.1710 -1.6259  2.4331
 1418SOL     OW15889   1.980   1.197   2.334  0.6290 -0.3499 -0.7678
 1418SOL    HW115890   2.033   1.149   2.397  0.1310  0.7838  0.5144
 1418SOL    HW215891   2.037   1.232   2.265 -0.6144  0.5346 -1.3488
 1419SOL     OW15892   0.751   3.201   4.519 -0.0715 -0.2019  0.0590
 1419SOL    HW115893   0.825   3.259   4.503  0.2867 -0.4427  0.8352
 1419SOL    HW215894   0.703   3.220   4.438 -0.8758  1.2467  0.8955
 1420SOL     OW15895   0.091   2.789  16.870 -0.3387 -0.2783 -0.3284
 1420SOL    HW115896   0.029   2.730  16.827  0.7991 -2.2788  0.7859
 1420SOL    HW215897   0.041   2.807  16.949  1.4265  4.0814 -0.1815
 1421SOL     OW15898   0.658   4.429  15.155 -0.6269 -0.2631  0.2640
 1421SOL    HW115899   0.706   4.431  15.238  0.4542 -2.3736 -0.3067
 1421SOL    HW215900   0.648   4.523  15.141 -1.8232 -0.2898  0.8791
 1422SOL     OW15901   4.357   2.088   6.984 -0.2031  0.2499 -0.6542
 1422SOL    HW115902   4.424   2.154   6.963  0.9174 -1.0468 -1.1484
 1422SOL    HW215903   4.400   2.057   7.063  1.2670  2.2200 -0.6722
 1423SOL     OW15904   3.720   3.949   8.864  0.2738 -0.0544 -0.3711
 1423SOL    HW115905   3.750   3.900   8.787 -2.0331 -1.5533 -0.3240
 1423SOL    HW215906   3.655   3.890   8.902 -0.6038  1.9849  1.2370
 1424SOL     OW15907   4.132   4.639   3.380 -0.0230  0.1146 -0.0747
 1424SOL    HW115908   4.108   4.681   3.297 -0.2291 -0.4129 -0.2778
 1424SOL    HW215909   4.080   4.682   3.448  0.7112  1.8672 -0.6034
 1425SOL     OW15910   2.760   4.494  15.132  0.2583  0.1975 -0.1040
 1425SOL    HW115911   2.756   4.584  15.100 -1.0218  0.0050 -0.4822
 1425SOL    HW215912   2.783   4.446  15.053 -0.0116 -1.8008  1.0040
 1426SOL     OW15913   4.448   2.913   3.180  0.4548  0.6859 -0.5896
 1426SOL    HW115914   4.502   2.920   3.101  0.7848 -0.6989 -0.4898
 1426SOL    HW215915   4.485   2.835   3.221  1.6558  1.8061  0.4867
 1427SOL     OW15916   2.014   0.952  14.959 -0.0641  0.2788  0.1611
 1427SOL    HW115917   2.068   1.005  14.901 -0.0439 -1.3430 -1.2861
 1427SOL    HW215918   2.009   0.873  14.905 -1.1744 -1.0216  2.1698
 1428SOL     OW15919   3.878   0.924   3.683 -0.8788  0.3114 -0.5512
 1428SOL    HW115920   3.815   0.857   3.710 -0.0668  0.5298  1.8442
 1428SOL    HW215921   3.864   0.909   3.589 -0.5130  1.7894 -0.8479
 1429SOL     OW15922   3.523   4.507   7.393 -0.5525 -0.3967  0.0252
 1429SOL    HW115923   3.477   4.458   7.461 -0.0043 -1.4572 -0.3623
 1429SOL    HW215924   3.609   4.484   7.428 -0.4826 -1.0606 -0.5858
 1430SOL     OW15925   1.482   3.991   8.920 -0.5331 -0.3492 -0.5586
 1430SOL    HW115926   1.405   3.971   8.868 -1.1807  0.1866  0.1937
 1430SOL    HW215927   1.516   3.903   8.934  0.3514  0.2117  0.8603
 1431SOL     OW15928   2.027   3.000   1.004 -0.0440  0.2701 -0.1990
 1431SOL    HW115929   1.949   2.945   0.999 -0.7441  1.1693  0.7899
 1431SOL    HW215930   2.048   2.978   1.095 -1.1726  0.1201  0.0299
 1432SOL     OW15931   0.106   4.721   3.181  0.3512  0.4259 -0.1729
 1432SOL    HW115932   0.077   4.636   3.216  1.0397 -0.9009 -2.7817
 1432SOL    HW215933   0.019   0.025   3.172 -0.8525 -2.3443 -1.0794
 1433SOL     OW15934   1.027   0.194  10.212  0.1252  0.0929  0.0937
 1433SOL    HW115935   1.080   0.119  10.185  0.4949  0.7318 -0.9640
 1433SOL    HW215936   0.953   0.144  10.247 -1.6375  0.0336 -3.6555
 1434SOL     OW15937   0.051   1.283   3.786  0.1877 -0.2410  0.0082
 1434SOL    HW115938   0.101   1.350   3.832 -1.0608 -1.0441  2.5295
 1434SOL    HW215939   0.028   1.326   3.704  0.4595 -2.4898 -1.2712
 1435SOL     OW15940   3.790   3.740   3.672 -0.0123 -0.0171  0.6242
 1435SOL    HW115941   3.738   3.783   3.739  0.1676 -1.5930  1.7909
 1435SOL    HW215942   3.767   3.649   3.693 -0.3991  0.0205  0.3556
 1436SOL     OW15943   1.363   0.019  11.068 -0.2084 -0.3318  0.0436
 1436SOL    HW115944   1.436   4.698  11.044  0.7757  1.2798 -0.7631
 1436SOL    HW215945   1.341   0.054  10.981  1.3216  3.1370  1.0623
 1437SOL     OW15946   2.278   1.061   1.870 -0.2739  0.2643 -0.6612
 1437SOL    HW115947   2.302   1.151   1.890  0.3822  0.6682 -3.3401
 1437SOL    HW215948   2.220   1.046   1.945  0.8643  1.3305  0.4121
 1438SOL     OW15949   3.377   1.431   5.772  0.5483 -0.5727  0.2297
 1438SOL    HW115950   3.384   1.520   5.807  1.3666  0.0691 -1.5739
 1438SOL    HW215951   3.472   1.418   5.774  0.4159 -1.4128  0.9571
 1439SOL     OW15952   0.238   1.903   3.186 -0.5065 -0.8194 -0.3090
 1439SOL    HW115953   0.169   1.943   3.132 -0.5220 -0.7508 -0.2383
 1439SOL    HW215954   0.319   1.922   3.138 -0.9938 -2.0235 -1.6170
 1440SOL     OW15955   1.830   2.778   9.349  0.1531  0.0173 -0.3923
 1440SOL    HW115956   1.857   2.705   9.404 -3.2493 -1.2158 -0.3302
 1440SOL    HW215957   1.743   2.801   9.384  0.7844  1.7760  0.0420
 1441SOL     OW15958   1.715   3.954   2.106 -0.2507 -0.7142  0.2366
 1441SOL    HW115959   1.777   3.906   2.052  0.4454  0.5064 -0.0643
 1441SOL    HW215960   1.731   3.925   2.196 -1.0650 -0.7333  0.3761
 1442SOL     OW15961   2.680   0.455   4.293 -0.4407  0.0533 -0.2347
 1442SOL    HW115962   2.700   0.547   4.273 -2.3372  0.3376 -0.7916
 1442SOL    HW215963   2.703   0.412   4.211  4.4702  3.3233 -0.5503
 1443SOL     OW15964   3.808   3.373  11.486  0.3688  0.1201  0.2875
 1443SOL    HW115965   3.878   3.390  11.424  1.4519 -1.4469  1.0820
 1443SOL    HW215966   3.819   3.442  11.552  1.9303 -1.0153  1.2090
 1444SOL     OW15967   2.676   1.887   4.329 -0.6369  0.1876  0.3511
 1444SOL    HW115968   2.697   1.917   4.241 -1.4867  1.6064  0.6301
 1444SOL    HW215969   2.678   1.966   4.382 -0.4567 -0.0764  0.7401
 1445SOL     OW15970   2.829   4.070   2.836 -0.1547  0.4539  0.3545
 1445SOL    HW115971   2.850   4.067   2.743  1.5573  0.6535  0.7452
 1445SOL    HW215972   2.900   4.016   2.871 -0.2429 -0.1435 -0.3866
 1446SOL     OW15973   1.544   3.653  16.783  0.3063  0.0138 -0.8336
 1446SOL    HW115974   1.637   3.674  16.797  1.0152 -2.4121 -1.9680
 1446SOL    HW215975   1.531   3.631  16.875 -0.9355  0.8567 -0.8098
 1447SOL     OW15976   2.877   3.284   9.763 -0.3324 -0.7733 -0.2609
 1447SOL    HW115977   2.858   3.321   9.849 -1.9710 -0.3723 -0.7980
 1447SOL    HW215978   2.842   3.357   9.713  0.7439 -0.4447 -0.5433
 1448SOL     OW15979   4.586   3.636   2.945 -0.0922 -0.7870 -0.0888
 1448SOL    HW115980   4.551   3.550   2.921  1.2927 -1.8543  1.7693
 1448SOL    HW215981   4.673   3.619   2.981 -0.0191  2.4559  1.2727
 1449SOL     OW15982   1.005   3.093   6.278 -0.4445  0.9095 -0.4852
 1449SOL    HW115983   0.927   3.044   6.252 -0.5875  0.6814  0.3831
 1449SOL    HW215984   1.054   3.082   6.197  0.1818 -1.6120  0.2572
 1450SOL     OW15985   3.085   1.301   1.440  0.0924 -0.0080 -0.4885
 1450SOL    HW115986   3.155   1.365   1.431 -1.1678  1.5385  0.8225
 1450SOL    HW215987   3.013   1.356   1.411  0.6021  1.4241  0.9608
 1451SOL     OW15988   0.897   0.576   8.290 -0.4938 -0.2296 -0.2929
 1451SOL    HW115989   0.802   0.590   8.294 -0.4015  0.7297 -1.2699
 1451SOL    HW215990   0.908   0.545   8.380  1.7179  1.3436 -0.0453
 1452SOL     OW15991   4.604   0.174  16.324 -0.4971  0.1079  0.5049
 1452SOL    HW115992   4.542   0.171  16.397 -3.2313 -1.1571 -1.8612
 1452SOL    HW215993   4.597   0.266  16.300  0.9656  0.2027  0.4427
 1453SOL     OW15994   4.639   2.326  15.912 -0.0095  0.3256  0.5407
 1453SOL    HW115995   4.580   2.393  15.945  0.4208  2.0266 -2.1907
 1453SOL    HW215996   4.613   2.300  15.824  2.0522 -0.8711  0.2687
 1454SOL     OW15997   1.061   3.613  15.992 -0.4182  0.2770 -0.0992
 1454SOL    HW115998   1.072   3.522  15.968 -0.5951  0.4256 -0.7510
 1454SOL    HW215999   0.967   3.609  16.012 -1.0058  1.2412 -2.5717
 1455SOL     OW16000   3.295   3.009   4.911  0.2794 -0.0891  0.5758
 1455SOL    HW116001   3.309   2.962   4.993  0.6840 -0.7626  0.1171
 1455SOL    HW216002   3.210   3.051   4.925 -0.0543 -0.4235 -0.4195
 1456SOL     OW16003   0.317   0.315  12.534  0.2609  0.5217  0.1755
 1456SOL    HW116004   0.344   0.254  12.603 -1.7443  0.9207  1.2867
 1456SOL    HW216005   0.224   0.315  12.556 -0.1097 -1.4105 -1.3194
 1457SOL     OW16006   4.603   0.376  15.124 -0.1303 -0.0181 -0.2982
 1457SOL    HW116007   4.650   0.328  15.192  1.0461  0.8107 -0.5240
 1457SOL    HW216008   4.517   0.392  15.162  0.2626 -1.9601  1.3899
 1458SOL     OW16009   4.005   2.868   0.756 -0.5620 -0.3584 -0.0092
 1458SOL    HW116010   4.063   2.792   0.755  1.5817  1.2699 -1.4117
 1458SOL    HW216011   3.935   2.842   0.697 -0.3729 -0.3412 -0.2407
 1459SOL     OW16012   2.380   2.234   4.582 -0.2263  0.0433 -0.3373
 1459SOL    HW116013   2.323   2.255   4.508  1.0093  3.2477 -0.3902
 1459SOL    HW216014   2.310   2.213   4.645 -0.1838  0.7509 -0.0494
 1460SOL     OW16015   2.784   0.738   2.305  0.4635 -0.0128 -0.2085
 1460SOL    HW116016   2.831   0.669   2.353  3.4845  1.8760 -0.5147
 1460SOL    HW216017   2.828   0.729   2.221  0.9509 -0.4499  0.0947
 1461SOL     OW16018   1.757   2.664   6.011 -0.3703  0.1896 -0.3237
 1461SOL    HW116019   1.746   2.680   5.917 -2.9309  1.7779  0.2335
 1461SOL    HW216020   1.669   2.642   6.044 -0.1418  0.2870  0.3442
 1462SOL     OW16021   1.708   0.402   3.627  0.0454 -0.0594 -0.3781
 1462SOL    HW116022   1.685   0.310   3.617 -0.0585 -0.1125  0.3514
 1462SOL    HW216023   1.625   0.434   3.662  0.0240 -0.1828 -0.3164
 1463SOL     OW16024   0.921   2.217   8.999  0.3018 -0.0935 -0.7644
 1463SOL    HW116025   0.991   2.154   8.986  0.0233 -0.3799 -0.8828
 1463SOL    HW216026   0.978   2.290   9.021  0.7160 -1.3289  2.1995
 1464SOL     OW16027   2.125   4.533   9.576 -0.1257 -0.2008  0.4328
 1464SOL    HW116028   2.086   4.583   9.648  0.9656  0.7490  0.3547
 1464SOL    HW216029   2.127   4.600   9.509  2.7349 -0.1554  0.5674
 1465SOL     OW16030   1.168   2.094  14.820 -0.2780  0.1653 -0.1730
 1465SOL    HW116031   1.133   2.129  14.902  3.0269  0.5404  1.0831
 1465SOL    HW216032   1.256   2.072  14.851 -1.1307 -1.7006  0.9113
 1466SOL     OW16033   3.292   0.588   3.590 -0.0363 -0.0611  0.1993
 1466SOL    HW116034   3.210   0.605   3.636 -1.0157 -1.9181 -0.8427
 1466SOL    HW216035   3.354   0.623   3.654  2.4786  0.9291 -2.8287
 1467SOL     OW16036   2.301   3.012   7.254 -0.6873  0.1205 -0.2599
 1467SOL    HW116037   2.293   3.018   7.349  2.5605 -0.7705  0.0546
 1467SOL    HW216038   2.382   3.062   7.246 -1.6719  1.7368  0.0101
 1468SOL     OW16039   2.157   2.954   1.263 -0.3388  0.3840  0.1704
 1468SOL    HW116040   2.156   2.859   1.247  1.2819  0.4034 -0.0624
 1468SOL    HW216041   2.248   2.975   1.242 -1.1697  1.1550 -2.6401
 1469SOL     OW16042   3.197   3.744   5.237  0.1675 -0.2847  0.5733
 1469SOL    HW116043   3.204   3.768   5.145  0.2785  0.8983  0.8925
 1469SOL    HW216044   3.283   3.704   5.252  1.7298  2.4304 -1.2683
 1470SOL     OW16045   2.645   1.108   4.398 -0.3107 -0.1576 -0.4382
 1470SOL    HW116046   2.562   1.153   4.412  0.4663  0.6505  1.6784
 1470SOL    HW216047   2.631   1.026   4.446  0.7498  1.0866  2.0251
 1471SOL     OW16048   2.263   0.648   7.947 -0.0499  0.0730  0.3533
 1471SOL    HW116049   2.336   0.597   7.981 -0.9031 -0.9970  0.5616
 1471SOL    HW216050   2.286   0.642   7.854 -1.8275  2.1326 -0.2385
 1472SOL     OW16051   3.567   0.208   6.443  0.2969  0.1874  0.3603
 1472SOL    HW116052   3.605   0.172   6.363  1.6568  0.6810  0.7938
 1472SOL    HW216053   3.636   0.255   6.489 -0.7619  1.0247  1.0816
 1473SOL     OW16054   3.493   0.852   4.512 -0.4076  0.2252  0.1330
 1473SOL    HW116055   3.565   0.794   4.537 -0.4998  0.9367  2.0844
 1473SOL    HW216056   3.497   0.841   4.417 -0.1224 -0.3997  0.2157
 1474SOL     OW16057   1.725   4.403   8.267 -0.3911 -0.0022  0.0327
 1474SOL    HW116058   1.796   4.348   8.298  0.6294  1.4819  0.3459
 1474SOL    HW216059   1.759   4.486   8.300 -1.1078  0.8934 -1.4759
 1475SOL     OW16060   2.375   2.096  12.397  0.3983  1.0462 -0.8763
 1475SOL    HW116061   2.322   2.171  12.420  0.0777 -0.7252  4.1147
 1475SOL    HW216062   2.321   2.059  12.327 -1.1396  1.1720  0.2402
 1476SOL     OW16063   1.647   3.752   4.094 -0.4265 -0.7874  0.9228
 1476SOL    HW116064   1.658   3.808   4.018 -0.9276 -3.9116 -1.4671
 1476SOL    HW216065   1.639   3.661   4.065  0.0603 -0.4194 -0.3816
 1477SOL     OW16066   0.187   2.262  14.749 -0.3315  0.2605  0.2239
 1477SOL    HW116067   0.174   2.327  14.680  2.2022  4.2695  3.4868
 1477SOL    HW216068   0.116   2.201  14.731  0.1900 -0.9968  2.3376
 1478SOL     OW16069   3.723   0.589   2.913  0.2771 -0.5371  0.4149
 1478SOL    HW116070   3.630   0.581   2.935  0.1889  0.4454  0.3744
 1478SOL    HW216071   3.770   0.613   2.993  1.2920  2.4746 -1.0907
 1479SOL     OW16072   0.910   3.366   4.228 -0.2766  0.2119  0.5568
 1479SOL    HW116073   0.956   3.433   4.178  1.1086  1.2035  3.2062
 1479SOL    HW216074   0.964   3.353   4.305 -0.3111  0.0759  0.5593
 1480SOL     OW16075   3.106   0.089   2.707 -0.1988 -0.2457 -0.3156
 1480SOL    HW116076   3.022   0.125   2.734 -0.5525 -0.3478 -1.2879
 1480SOL    HW216077   3.156   0.163   2.672 -1.5704  0.5440 -0.5982
 1481SOL     OW16078   3.581   3.918   5.039 -0.4279  0.6896 -0.0951
 1481SOL    HW116079   3.611   3.842   4.990 -0.6513  0.6598 -0.1844
 1481SOL    HW216080   3.631   3.987   4.995  0.8196 -0.2886 -0.2161
 1482SOL     OW16081   3.326   1.410   2.588 -0.2988  0.4961 -0.3871
 1482SOL    HW116082   3.246   1.389   2.637 -1.0759 -0.5546 -2.1280
 1482SOL    HW216083   3.356   1.323   2.561  1.7962  1.0526  0.1170
 1483SOL     OW16084   2.654   0.091  10.278 -0.0543  0.1266 -0.0791
 1483SOL    HW116085   2.707   0.113  10.355 -2.9268  0.3576  1.8496
 1483SOL    HW216086   2.648   0.177  10.238 -1.8314 -0.0378 -0.1511
 1484SOL     OW16087   1.752   1.709   7.863 -0.2913  0.8393  0.5569
 1484SOL    HW116088   1.845   1.730   7.867 -0.7918  3.7666 -2.5110
 1484SOL    HW216089   1.720   1.789   7.904 -0.9672  1.9578 -2.1558
 1485SOL     OW16090   3.899   2.918   9.122  0.4055 -0.3713  0.5806
 1485SOL    HW116091   3.933   2.993   9.172 -2.3097  0.2777  1.4189
 1485SOL    HW216092   3.987   2.891   9.094 -0.1272  0.3124 -1.7885
 1486SOL     OW16093   4.497   0.339   7.315 -0.2848  0.7969 -0.2284
 1486SOL    HW116094   4.505   0.328   7.221  1.5872 -0.6533  0.0845
 1486SOL    HW216095   4.525   0.431   7.323  3.1543 -0.3722  1.3466
 1487SOL     OW16096   1.498   1.959   0.452 -0.0832 -0.3672 -0.1255
 1487SOL    HW116097   1.554   1.898   0.500 -2.3412 -1.1315  1.5835
 1487SOL    HW216098   1.505   2.027   0.518  0.1889 -0.8873  0.3804
 1488SOL     OW16099   1.898   3.349   8.226  0.3664 -0.1844 -0.1635
 1488SOL    HW116100   1.966   3.416   8.216  0.1835  0.2393  1.4168
 1488SOL    HW216101   1.865   3.342   8.136  1.0684 -1.5830 -0.3126
 1489SOL     OW16102   4.273   1.731   2.361 -0.1447  0.1009 -0.8081
 1489SOL    HW116103   4.218   1.658   2.388 -0.4390  1.5036  2.4407
 1489SOL    HW216104   4.357   1.688   2.346  0.5086  0.7696  0.8549
 1490SOL     OW16105   4.260   0.490   6.898 -0.3488 -0.2352 -0.1857
 1490SOL    HW116106   4.229   0.528   6.981 -0.2266  1.0354 -0.7301
 1490SOL    HW216107   4.268   0.400   6.930  2.9838  0.6527  1.4546
 1491SOL     OW16108   1.390   4.037   7.854  0.1679  0.5103 -0.1708
 1491SOL    HW116109   1.473   4.077   7.827 -1.7576  2.6604 -2.8019
 1491SOL    HW216110   1.327   4.109   7.846  0.8965  1.0594 -0.9979
 1492SOL     OW16111   1.392   4.345   6.952  0.7184 -0.2025  0.4290
 1492SOL    HW116112   1.470   4.357   7.006 -0.0436  0.4625  1.3797
 1492SOL    HW216113   1.382   4.425   6.900 -0.1083 -1.5211 -1.4214
 1493SOL     OW16114   2.854   4.661   8.852 -0.3192 -0.1862  0.6618
 1493SOL    HW116115   2.897   4.633   8.933  2.6532 -0.7046 -1.0843
 1493SOL    HW216116   2.850   4.577   8.806 -0.3811  0.2213 -0.0708
 1494SOL     OW16117   4.147   4.659  11.379 -0.0510 -0.2202  0.0022
 1494SOL    HW116118   4.069   4.690  11.426 -0.2062  0.3144 -0.5946
 1494SOL    HW216119   4.110   4.643  11.292 -1.0415 -1.4844  0.6523
 1495SOL     OW16120   2.274   4.374   2.245 -0.2575 -0.6425  0.7600
 1495SOL    HW116121   2.192   4.412   2.214 -0.5439 -0.3548  1.8669
 1495SOL    HW216122   2.282   4.419   2.329  1.4561 -0.8956  0.7424
 1496SOL     OW16123   1.113   2.417   6.318  0.0206 -0.2073 -0.2245
 1496SOL    HW116124   1.206   2.405   6.339  0.0147 -1.0086 -0.6504
 1496SOL    HW216125   1.080   2.341   6.365  0.8485 -0.7345 -0.4872
 1497SOL     OW16126   4.124   2.043   4.787 -0.1523 -0.6015  0.2815
 1497SOL    HW116127   4.185   2.040   4.714 -0.2078 -0.6371  0.2358
 1497SOL    HW216128   4.061   1.975   4.763  0.2719  0.0005 -2.4954
 1498SOL     OW16129   0.293   1.761   4.943  0.4686  0.8308  0.3322
 1498SOL    HW116130   0.278   1.715   4.860  0.8119  0.1189  0.6719
 1498SOL    HW216131   0.387   1.777   4.940  0.8990 -1.0902  4.1777
 1499SOL     OW16132   0.577   0.452   5.572 -0.5403 -0.0091 -0.1328
 1499SOL    HW116133   0.652   0.415   5.526  0.1320  1.5439 -0.2829
 1499SOL    HW216134   0.592   0.402   5.652 -0.9945 -3.5679 -2.2686
 1500SOL     OW16135   4.440   4.211  12.310 -0.0689 -0.7050  0.1363
 1500SOL    HW116136   4.422   4.141  12.247  1.6209  0.5880 -1.7490
 1500SOL    HW216137   4.375   4.280  12.298  0.5860 -0.5983 -2.7380
 1501SOL     OW16138   0.169   1.136   9.787  0.1476 -0.2268  0.5106
 1501SOL    HW116139   0.205   1.219   9.820  1.2015 -1.4020  2.3084
 1501SOL    HW216140   0.173   1.154   9.693  1.5625  0.7857  0.7591
 1502SOL     OW16141   1.137   0.687   5.473 -0.4274 -0.7192  0.2784
 1502SOL    HW116142   1.146   0.611   5.530  0.3842 -0.0846  0.9886
 1502SOL    HW216143   1.220   0.733   5.487 -1.0636  0.2895  0.7422
 1503SOL     OW16144   2.889   3.577  12.746 -0.0814 -0.7113  0.2017
 1503SOL    HW116145   2.804   3.611  12.774 -0.4119 -0.7723 -0.7278
 1503SOL    HW216146   2.951   3.648  12.729 -1.7515  0.5389 -0.6589
 1504SOL     OW16147   0.269   0.616   9.374  0.5573  0.0983 -0.2802
 1504SOL    HW116148   0.189   0.572   9.345  0.5661  0.6917 -1.1889
 1504SOL    HW216149   0.288   0.587   9.464  2.5041  2.8602  0.1725
 1505SOL     OW16150   4.274   2.607   4.523  0.3459 -0.7430 -0.3724
 1505SOL    HW116151   4.223   2.684   4.497  1.8907  0.2966 -0.2918
 1505SOL    HW216152   4.203   2.560   4.569 -1.0301  2.3150  0.6226
 1506SOL     OW16153   3.838   1.528  12.880 -0.2372  0.3244  0.0923
 1506SOL    HW116154   3.894   1.452  12.896 -1.5026 -0.6335 -0.0266
 1506SOL    HW216155   3.767   1.506  12.940 -0.9129  2.9137  0.2706
 1507SOL     OW16156   1.226   4.330   5.992  0.1063  0.1544  0.0197
 1507SOL    HW116157   1.192   4.254   6.038 -2.4140  0.6677 -0.9842
 1507SOL    HW216158   1.146   4.381   6.000  1.5661  2.3582  0.6123
 1508SOL     OW16159   3.921   2.834   8.708  0.3710  0.3249  0.0074
 1508SOL    HW116160   3.962   2.773   8.770  0.1536 -2.2131 -2.3205
 1508SOL    HW216161   3.991   2.851   8.645 -0.3757 -1.5931 -1.3595
 1509SOL     OW16162   0.459   1.676  13.286  0.0240 -0.6757  0.6186
 1509SOL    HW116163   0.430   1.724  13.208 -0.9180 -0.5041  1.0629
 1509SOL    HW216164   0.441   1.746  13.349 -1.4402  1.3823 -2.0699
 1510SOL     OW16165   0.947   2.110   2.160  0.6063 -0.2576  0.5928
 1510SOL    HW116166   0.881   2.080   2.223 -0.0704 -1.2987 -0.6388
 1510SOL    HW216167   1.000   2.034   2.184 -1.6899 -2.1882 -0.4395
 1511SOL     OW16168   3.688   0.046   5.068 -0.6875 -0.3708  0.1838
 1511SOL    HW116169   3.741   0.116   5.030  0.9899 -2.0374 -0.5649
 1511SOL    HW216170   3.644   0.001   4.997 -1.0128  0.7270 -0.3055
 1512SOL     OW16171   1.117   0.258   2.858 -0.0686 -0.2911  0.2611
 1512SOL    HW116172   1.097   0.321   2.788 -1.2785 -0.3426  0.5523
 1512SOL    HW216173   1.207   0.280   2.883  0.2061 -0.1739 -0.8488
 1513SOL     OW16174   3.398   0.833   1.440  0.0712  0.3743  0.0370
 1513SOL    HW116175   3.347   0.761   1.401  0.7760  0.7470 -1.5793
 1513SOL    HW216176   3.347   0.911   1.419  1.0129  1.1168  0.5451
 1514SOL     OW16177   1.086   2.500   4.403  0.1303 -0.2355  1.0217
 1514SOL    HW116178   1.053   2.436   4.339 -1.3367 -0.2789  1.8177
 1514SOL    HW216179   1.175   2.467   4.397  0.8867  2.6383 -2.9212
 1515SOL     OW16180   1.682   3.690   8.637 -0.1517 -0.2924 -0.0794
 1515SOL    HW116181   1.618   3.698   8.707  1.1019 -1.2151  1.1784
 1515SOL    HW216182   1.715   3.600   8.637  1.1031  0.1733  0.1554
 1516SOL     OW16183   2.605   0.234   8.788  0.0336  0.2478 -0.4577
 1516SOL    HW116184   2.656   0.313   8.773  1.1939 -0.1763  1.2898
 1516SOL    HW216185   2.522   0.281   8.785 -0.2425 -0.1882  0.2490
 1517SOL     OW16186   1.126   0.707   3.169  0.0400  0.6004  0.3553
 1517SOL    HW116187   1.149   0.635   3.228  2.5469 -0.3844 -1.8047
 1517SOL    HW216188   1.060   0.747   3.226 -0.3051 -2.4105  2.0517
 1518SOL     OW16189   3.917   0.450  12.460  0.0176  0.2873  0.5096
 1518SOL    HW116190   3.846   0.498  12.419 -0.5845  0.4747  1.7706
 1518SOL    HW216191   3.967   0.412  12.387 -1.3031  1.6619 -1.0923
 1519SOL     OW16192   4.341   3.820   6.040 -0.5600 -0.2360  0.1454
 1519SOL    HW116193   4.422   3.832   5.991 -0.6409 -2.3505 -0.4757
 1519SOL    HW216194   4.368   3.833   6.131  0.0469  2.0159 -0.3383
 1520SOL     OW16195   3.227   3.078   9.375 -0.1348 -0.6774  0.2496
 1520SOL    HW116196   3.147   3.107   9.332  0.6066  0.1578 -0.5849
 1520SOL    HW216197   3.282   3.118   9.307  0.5823  1.9280  2.3456
 1521SOL     OW16198   2.531   2.487   6.677  0.1162  0.9131  0.7561
 1521SOL    HW116199   2.531   2.569   6.627  1.4156 -0.4542 -1.4629
 1521SOL    HW216200   2.520   2.431   6.601  1.8674  0.2924  0.9746
 1522SOL     OW16201   4.363   4.672   3.721 -0.1024  0.2358  0.8805
 1522SOL    HW116202   4.321   0.009   3.768 -1.1214 -0.8003  1.5749
 1522SOL    HW216203   4.439   4.667   3.778 -1.5140  2.0795  2.9596
 1523SOL     OW16204   0.596   1.026   3.042  0.7746  0.3721  0.6957
 1523SOL    HW116205   0.571   1.118   3.035  2.4473  0.8647  1.3354
 1523SOL    HW216206   0.691   1.034   3.041  1.2728 -5.2459 -0.1123
 1524SOL     OW16207   0.710   0.233  11.340  0.0960 -0.7899  0.4306
 1524SOL    HW116208   0.735   0.284  11.418 -1.5280  0.3521  0.2213
 1524SOL    HW216209   0.794   0.207  11.304 -0.1061 -1.2091  0.2632
 1525SOL     OW16210   1.091   0.932   0.624  0.4395  0.3949 -0.2542
 1525SOL    HW116211   1.174   0.959   0.584  0.0538  2.6268  0.4586
 1525SOL    HW216212   1.122   0.861   0.680  1.3393  1.6038  0.7672
 1526SOL     OW16213   0.996   2.946  16.529 -0.2753  0.1948  0.0887
 1526SOL    HW116214   1.039   2.941  16.614 -0.8577  0.4490  0.3955
 1526SOL    HW216215   1.065   2.918  16.469 -0.0844  0.0813  0.3635
 1527SOL     OW16216   0.370   2.983  15.951 -0.5628 -0.1943  0.2052
 1527SOL    HW116217   0.292   3.037  15.942 -1.4489 -1.3090  1.2228
 1527SOL    HW216218   0.344   2.928  16.025  3.8598  1.0989  2.6556
 1528SOL     OW16219   3.766   0.005   9.200  0.3772  0.3053 -0.1760
 1528SOL    HW116220   3.699   4.729   9.267  0.4356 -1.2266 -0.4061
 1528SOL    HW216221   3.806   0.087   9.231 -1.3102  2.4248 -3.6656
 1529SOL     OW16222   0.051   0.312   7.131  0.7780  0.0355  0.1087
 1529SOL    HW116223   0.074   0.277   7.045 -1.2515  1.2569 -0.9214
 1529SOL    HW216224   4.708   0.361   7.107  1.2859  1.0774  0.5571
 1530SOL     OW16225   1.598   2.143   4.371 -0.3817 -1.4008  0.8173
 1530SOL    HW116226   1.502   2.144   4.362 -0.2636 -1.2191 -0.3285
 1530SOL    HW216227   1.612   2.162   4.464  1.0959 -0.6297  0.4264
 1531SOL     OW16228   4.055   0.639   8.121  0.4296  0.1836 -0.3114
 1531SOL    HW116229   4.072   0.665   8.212  1.0994 -1.8643  0.1451
 1531SOL    HW216230   4.025   0.555   8.154 -0.9653  0.7096 -0.2460
 1532SOL     OW16231   3.037   0.673   7.250  0.1051  0.2197  0.1845
 1532SOL    HW116232   3.064   0.654   7.340  0.1498 -1.0183 -0.0883
 1532SOL    HW216233   3.097   0.742   7.222 -3.6812  2.4256 -2.4891
 1533SOL     OW16234   4.400   0.892  14.002  0.1282 -0.0649  0.6965
 1533SOL    HW116235   4.439   0.859  13.921 -2.9673 -0.3854 -0.6565
 1533SOL    HW216236   4.383   0.984  13.980 -0.3863 -0.1976  0.5529
 1534SOL     OW16237   4.332   0.946   9.348 -0.7467  0.6104 -1.0351
 1534SOL    HW116238   4.321   0.895   9.267 -1.3638 -2.5243  1.0265
 1534SOL    HW216239   4.368   0.876   9.402 -0.3145  1.5534 -0.1106
 1535SOL     OW16240   0.035   2.263  16.336  0.7894 -0.5116 -0.4442
 1535SOL    HW116241   0.010   2.242  16.426  0.9579  1.8300  0.1544
 1535SOL    HW216242   0.115   2.211  16.328  0.6020 -0.4006 -3.2358
 1536SOL     OW16243   1.316   3.744   4.992 -0.1294  0.1700 -0.4387
 1536SOL    HW116244   1.312   3.665   4.938  0.4745  0.9541 -1.6059
 1536SOL    HW216245   1.237   3.792   4.966 -0.6968  0.6568  2.1601
 1537SOL     OW16246   2.239   3.129   6.959  0.4518 -0.0687  0.0751
 1537SOL    HW116247   2.305   3.197   6.950 -1.5721  1.9985  0.9972
 1537SOL    HW216248   2.306   3.068   6.989 -0.7644 -1.3588  0.1845
 1538SOL     OW16249   4.327   4.352   5.077 -0.3153  0.0400  0.4698
 1538SOL    HW116250   4.346   4.358   5.171  0.2653 -0.3119  0.3764
 1538SOL    HW216251   4.401   4.396   5.035  0.1723 -1.8382 -0.6470
 1539SOL     OW16252   3.688   2.322  10.784  0.9490 -0.6546  0.2710
 1539SOL    HW116253   3.638   2.242  10.796 -1.7420  0.5983 -2.7498
 1539SOL    HW216254   3.686   2.330  10.689 -0.5899 -1.1770  0.2695
 1540SOL     OW16255   3.457   2.553   9.861 -0.1315  0.0539 -0.0555
 1540SOL    HW116256   3.373   2.517   9.833 -0.1122 -0.5655  0.6730
 1540SOL    HW216257   3.488   2.476   9.910  0.1280  0.6352  0.7017
 1541SOL     OW16258   3.651   3.038   8.447  0.1924 -0.3254  0.3790
 1541SOL    HW116259   3.726   2.994   8.408  0.7275 -0.0252  1.0869
 1541SOL    HW216260   3.673   3.033   8.540  4.2428 -2.0678 -0.6911
 1542SOL     OW16261   3.030   2.736   3.383  0.3979 -0.0473 -0.0404
 1542SOL    HW116262   2.983   2.726   3.300  0.9172 -1.4036 -0.1653
 1542SOL    HW216263   2.960   2.776   3.434  0.7558 -0.8450  1.0593
 1543SOL     OW16264   2.805   4.643   7.516  0.0137  0.5051  0.0287
 1543SOL    HW116265   2.740   4.582   7.481  1.6260 -0.7185 -0.8874
 1543SOL    HW216266   2.745   4.705   7.558 -2.1900 -1.4963 -0.2051
 1544SOL     OW16267   2.851   2.904   3.587  0.1283 -0.0191  0.1303
 1544SOL    HW116268   2.784   2.961   3.550 -0.1135 -1.9189 -2.3772
 1544SOL    HW216269   2.919   2.971   3.592  1.0478 -0.9219  0.0253
 1545SOL     OW16270   4.100   4.494  12.419 -0.4454  0.8084 -0.0891
 1545SOL    HW116271   4.109   4.460  12.509 -1.6094  0.8182  0.0236
 1545SOL    HW216272   4.006   4.479  12.413 -0.2914 -0.3079  0.1402
 1546SOL     OW16273   3.045   3.481   8.651  0.0854 -0.0228  0.1967
 1546SOL    HW116274   3.039   3.515   8.740  2.8013  1.9109 -0.3663
 1546SOL    HW216275   3.119   3.527   8.612  0.4338 -1.1879 -0.5204
 1547SOL     OW16276   1.062   2.977   7.461  0.2921 -0.7341  0.2829
 1547SOL    HW116277   1.037   2.907   7.521  1.7179  0.2124  1.9548
 1547SOL    HW216278   1.155   2.980   7.483  0.2177 -1.5776  0.6891
 1548SOL     OW16279   2.317   0.640   8.304 -0.1939 -0.1796 -0.2574
 1548SOL    HW116280   2.244   0.593   8.263 -2.3393  0.9792  2.1737
 1548SOL    HW216281   2.305   0.620   8.397 -1.3735  0.4738 -0.2580
 1549SOL     OW16282   0.246   0.168   6.013  0.1935 -0.0143 -0.3052
 1549SOL    HW116283   0.301   0.195   6.086 -0.5008  1.4187 -0.3067
 1549SOL    HW216284   0.192   0.247   6.010 -1.1419 -1.0668 -3.5971
 1550SOL     OW16285   3.182   3.587   9.280  0.3504  0.2059  0.1116
 1550SOL    HW116286   3.196   3.621   9.368 -0.1340 -3.7008  1.7104
 1550SOL    HW216287   3.133   3.506   9.299  0.4844 -0.6194 -3.1002
 1551SOL     OW16288   1.149   2.286   7.759  0.7135 -0.0272 -0.1824
 1551SOL    HW116289   1.093   2.338   7.817  2.2625 -0.0565  1.3326
 1551SOL    HW216290   1.092   2.315   7.688  1.9528 -0.0335 -1.1889
 1552SOL     OW16291   1.157   0.553   4.232  0.3633  0.2502 -0.5761
 1552SOL    HW116292   1.156   0.525   4.323 -0.2282 -1.0373 -0.9711
 1552SOL    HW216293   1.207   0.634   4.239  0.1282  0.3675 -0.2763
 1553SOL     OW16294   1.977   4.498   4.318 -0.1277 -0.2390  0.3819
 1553SOL    HW116295   2.010   4.563   4.255  1.2244 -1.3997 -0.1033
 1553SOL    HW216296   1.885   4.523   4.322 -0.2544 -0.2768 -2.2354
 1554SOL     OW16297   1.034   1.749   6.088 -0.0301  0.5012 -0.4375
 1554SOL    HW116298   1.009   1.783   6.174  2.8089 -0.0473  0.6132
 1554SOL    HW216299   0.977   1.800   6.031 -3.2949  0.0381  2.4034
 1555SOL     OW16300   2.552   0.142   1.955 -0.1056 -0.5092  0.1995
 1555SOL    HW116301   2.561   0.226   2.000  1.5915 -0.3769 -0.3840
 1555SOL    HW216302   2.616   0.144   1.884  1.1305  0.2266  1.3370
 1556SOL     OW16303   1.531   0.584  11.826 -0.2729 -0.0174 -0.2189
 1556SOL    HW116304   1.554   0.510  11.770 -0.3846 -1.1664  1.2437
 1556SOL    HW216305   1.455   0.563  11.880 -0.1971 -1.8744 -0.8252
 1557SOL     OW16306   2.061   1.342   9.701  0.0232  0.9870 -0.1656
 1557SOL    HW116307   2.124   1.414   9.691  0.7760  0.4749  0.7953
 1557SOL    HW216308   2.096   1.274   9.644  0.2980  2.6231 -1.9415
 1558SOL     OW16309   3.708   4.734  15.849 -0.0174  0.3750  0.4698
 1558SOL    HW116310   3.654   0.077  15.854  0.7811  0.9201  0.3845
 1558SOL    HW216311   3.694   4.709  15.758  1.3850  2.4895 -0.3195
 1559SOL     OW16312   3.285   4.010  16.664 -0.4121  0.0389  0.2014
 1559SOL    HW116313   3.202   4.031  16.707  0.2949 -0.1305  1.6428
 1559SOL    HW216314   3.325   3.958  16.732  0.4050 -1.1937 -1.2234
 1560SOL     OW16315   2.443   1.941   5.900  0.0943  0.0064 -0.3112
 1560SOL    HW116316   2.537   1.920   5.897 -0.6650 -3.3316 -0.2104
 1560SOL    HW216317   2.403   1.855   5.890 -0.7766  0.8599 -4.3627
 1561SOL     OW16318   0.933   2.137  15.809  0.0968 -0.5100  0.5495
 1561SOL    HW116319   0.845   2.175  15.807  1.5608  2.9140  1.0839
 1561SOL    HW216320   0.981   2.209  15.850  0.9711 -0.4629 -0.5732
 1562SOL     OW16321   0.404   2.354   5.821  0.2762  0.0496 -0.2590
 1562SOL    HW116322   0.417   2.364   5.726 -1.3008 -0.9933 -0.5861
 1562SOL    HW216323   0.436   2.264   5.827  0.4688  0.0722 -0.8627
 1563SOL     OW16324   2.931   4.427   1.965  0.1695  0.1361 -0.0849
 1563SOL    HW116325   2.995   4.477   2.015 -0.4389  2.4559 -1.6600
 1563SOL    HW216326   2.897   4.501   1.916  0.6320 -0.9529 -2.0523
 1564SOL     OW16327   1.079   4.001   0.103 -0.5771 -0.6520 -0.2056
 1564SOL    HW116328   1.060   3.910   0.082  0.2879 -0.5155 -1.5934
 1564SOL    HW216329   1.171   4.007   0.075 -0.0028 -0.6714  1.6190
 1565SOL     OW16330   2.441   1.968   3.815 -0.3354  0.2443 -0.0159
 1565SOL    HW116331   2.421   1.875   3.818 -1.4703  0.5809  2.1346
 1565SOL    HW216332   2.511   1.963   3.749  1.1573 -0.3394  1.6282
 1566SOL     OW16333   2.729   2.155  13.145  0.1991  0.1606 -0.3948
 1566SOL    HW116334   2.821   2.140  13.121  0.1199  0.4498 -0.8968
 1566SOL    HW216335   2.738   2.202  13.228  0.2185  1.7203 -1.2580
 1567SOL     OW16336   4.013   3.712  12.414 -0.2996  0.2125  0.0047
 1567SOL    HW116337   3.979   3.651  12.349  0.8241 -1.5421  1.0798
 1567SOL    HW216338   3.939   3.773  12.423 -0.8367 -0.2690 -1.1094
 1568SOL     OW16339   2.537   2.522  12.673  0.5527  0.1766 -0.4197
 1568SOL    HW116340   2.454   2.540  12.629  0.8856  2.0455 -0.2718
 1568SOL    HW216341   2.536   2.574  12.754 -1.1521  0.9523 -0.9307
 1569SOL     OW16342   3.361   2.263  10.675 -0.1274  0.0266  0.1896
 1569SOL    HW116343   3.379   2.258  10.581  1.1022 -0.1084  0.4383
 1569SOL    HW216344   3.291   2.329  10.674  0.0583  0.2278  0.3425
 1570SOL     OW16345   4.566   1.944   3.965 -0.1026 -0.2424  0.3602
 1570SOL    HW116346   4.646   1.898   3.938  0.6929 -0.5986  3.3575
 1570SOL    HW216347   4.599   2.026   4.003 -1.0832  0.5940 -0.5866
 1571SOL     OW16348   0.941   1.999   4.436  0.0938 -0.5897  0.4492
 1571SOL    HW116349   0.972   1.927   4.382 -3.6026 -1.0828 -1.0075
 1571SOL    HW216350   0.962   2.074   4.381 -0.0130 -1.5786 -0.9201
 1572SOL     OW16351   3.335   1.414  16.318 -0.4564 -0.1618 -0.4339
 1572SOL    HW116352   3.408   1.353  16.325  1.1104  1.5107 -2.3547
 1572SOL    HW216353   3.318   1.415  16.224  0.9520 -1.6138 -0.7028
 1573SOL     OW16354   2.422   2.908   0.038 -0.0880 -0.3578 -0.2272
 1573SOL    HW116355   2.421   2.842   0.108 -1.0431 -0.0423  0.0695
 1573SOL    HW216356   2.479   2.865  17.717  1.2000  2.6928 -1.1160
 1574SOL     OW16357   3.413   2.143   6.462 -0.4452 -0.3638  0.2466
 1574SOL    HW116358   3.328   2.160   6.420 -1.3815 -4.1033  0.5520
 1574SOL    HW216359   3.432   2.070   6.403  0.2251 -0.8349  1.0470
 1575SOL     OW16360   1.629   0.336   8.165  0.4561  0.1034  0.2879
 1575SOL    HW116361   1.672   0.411   8.124 -0.3609 -0.1677 -1.0546
 1575SOL    HW216362   1.636   0.346   8.260 -1.5308  0.0213  0.4378
 1576SOL     OW16363   3.675   4.086   8.202  0.8495 -0.2773  0.4138
 1576SOL    HW116364   3.731   4.080   8.125 -2.8693  1.0870 -2.3527
 1576SOL    HW216365   3.744   4.069   8.266  0.9756 -0.4008  0.2440
 1577SOL     OW16366   2.361   3.870  14.203 -0.3002 -0.0180 -0.2680
 1577SOL    HW116367   2.297   3.824  14.149 -0.7145 -1.0561  1.1202
 1577SOL    HW216368   2.438   3.834  14.159 -1.1576 -1.8454 -0.2957
 1578SOL     OW16369   1.293   3.521   2.664 -0.0817 -0.0441  0.2965
 1578SOL    HW116370   1.251   3.593   2.712 -1.4400 -1.2525  0.8969
 1578SOL    HW216371   1.321   3.559   2.581 -0.1144 -0.1543  0.2352
 1579SOL     OW16372   3.199   3.614  14.513  0.4730 -0.1670 -0.5821
 1579SOL    HW116373   3.233   3.700  14.538  0.4336  0.0962 -1.4324
 1579SOL    HW216374   3.114   3.617  14.556  1.0998  0.2362  0.6583
 1580SOL     OW16375   1.129   1.601   7.620  0.2126 -0.6385  0.1986
 1580SOL    HW116376   1.187   1.545   7.569 -0.1584  0.0180 -0.9448
 1580SOL    HW216377   1.172   1.682   7.592 -0.8676 -0.2947 -0.4738
 1581SOL     OW16378   0.736   1.386  11.871 -0.2248 -0.1009 -0.0362
 1581SOL    HW116379   0.803   1.364  11.806  0.2038  1.7970 -0.2321
 1581SOL    HW216380   0.763   1.323  11.937 -2.2586 -1.3269 -0.3471
 1582SOL     OW16381   0.849   4.251   3.371  0.3997 -0.9738  0.3470
 1582SOL    HW116382   0.864   4.345   3.361 -2.2930 -0.7225 -1.2485
 1582SOL    HW216383   0.845   4.247   3.467 -1.1172  3.6525  0.4702
 1583SOL     OW16384   2.502   1.013   1.656  0.1649 -0.0421  0.6015
 1583SOL    HW116385   2.547   1.098   1.658  1.2107 -0.5626 -1.3083
 1583SOL    HW216386   2.426   1.033   1.711 -1.2063 -2.1827 -0.5513
 1584SOL     OW16387   0.618   2.501   7.992  0.1296  0.6648 -0.3428
 1584SOL    HW116388   0.599   2.579   8.044  1.7181  0.7234  0.1383
 1584SOL    HW216389   0.702   2.468   8.024  0.3423  1.0831 -0.4764
 1585SOL     OW16390   3.902   3.607   6.575 -0.9922 -0.2755  1.1244
 1585SOL    HW116391   3.885   3.525   6.529  1.7644 -0.0049 -0.4027
 1585SOL    HW216392   3.940   3.567   6.653  0.6551  0.6785  0.8169
 1586SOL     OW16393   0.920   1.642   6.691 -0.0242 -0.0332  0.2093
 1586SOL    HW116394   1.013   1.655   6.709  0.5336 -0.2522 -2.5613
 1586SOL    HW216395   0.895   1.724   6.650 -2.1904  0.0711  1.7385
 1587SOL     OW16396   1.035   4.400   7.649 -0.1124  0.9790 -0.1663
 1587SOL    HW116397   1.106   4.464   7.652 -0.8987  1.8767 -0.7088
 1587SOL    HW216398   1.082   4.318   7.629  0.9021  1.6756 -0.6125
 1588SOL     OW16399   1.565   1.842   6.597  0.0342 -0.5056 -0.5150
 1588SOL    HW116400   1.629   1.913   6.601 -0.3597 -0.0997 -1.6191
 1588SOL    HW216401   1.514   1.861   6.518 -0.2516 -0.4142 -0.3091
 1589SOL     OW16402   3.285   2.845   7.455  0.0942  1.0062  0.5535
 1589SOL    HW116403   3.208   2.888   7.420 -0.1372  0.1233 -0.0142
 1589SOL    HW216404   3.317   2.914   7.513  1.3707  0.3132  0.6926
 1590SOL     OW16405   1.792   4.499   8.913 -0.1660  0.1932  0.4849
 1590SOL    HW116406   1.800   4.550   8.833  0.8088  0.0884  0.5107
 1590SOL    HW216407   1.882   4.498   8.946 -0.4628 -1.0045  1.2826
 1591SOL     OW16408   4.459   1.404   7.624  0.3059 -0.1006 -0.5841
 1591SOL    HW116409   4.380   1.386   7.573 -1.6209  0.4591  2.2361
 1591SOL    HW216410   4.449   1.499   7.628  0.3123 -0.1682  0.7881
 1592SOL     OW16411   4.322   4.662   9.297 -0.2343 -0.0812 -0.3299
 1592SOL    HW116412   4.335   4.615   9.215  1.3909  0.5860 -0.4721
 1592SOL    HW216413   4.265   4.599   9.340  0.7101 -0.3677  0.5156
 1593SOL     OW16414   1.559   1.218   4.766 -0.9425 -0.1186 -0.5614
 1593SOL    HW116415   1.508   1.144   4.800 -3.0666  1.5759 -0.0968
 1593SOL    HW216416   1.650   1.219   4.797 -0.6918 -0.4959 -1.2910
 1594SOL     OW16417   4.496   3.338   4.737 -0.3140  0.0677  0.5397
 1594SOL    HW116418   4.443   3.259   4.726  1.6356 -1.1366 -0.2091
 1594SOL    HW216419   4.444   3.401   4.688  0.0843  0.9175  1.2071
 1595SOL     OW16420   4.186   2.796   3.356  0.2129  0.3519  0.0111
 1595SOL    HW116421   4.218   2.869   3.301 -0.5227 -0.0869 -0.9916
 1595SOL    HW216422   4.244   2.825   3.427 -0.6359  0.8859  0.4775
 1596SOL     OW16423   2.374   1.226   6.077 -0.3099  0.1095  0.4500
 1596SOL    HW116424   2.464   1.252   6.055 -0.9929  2.1977  0.1835
 1596SOL    HW216425   2.329   1.309   6.066 -1.6797 -0.8737 -1.3917
 1597SOL     OW16426   1.644   1.998   3.157 -0.2373  0.2114 -0.2227
 1597SOL    HW116427   1.579   2.068   3.145 -1.0218 -0.6274 -0.9050
 1597SOL    HW216428   1.725   2.022   3.114 -0.1909  0.2140 -0.1333
 1598SOL     OW16429   0.165   3.796  11.181  0.0373 -0.0504 -0.2851
 1598SOL    HW116430   0.079   3.839  11.183 -0.9499 -2.0522 -0.2986
 1598SOL    HW216431   0.232   3.864  11.193 -0.1537  0.0611  0.1693
 1599SOL     OW16432   3.221   2.426  10.404  0.0121 -0.0418  0.1644
 1599SOL    HW116433   3.162   2.478  10.350  0.0081 -1.7508 -1.4885
 1599SOL    HW216434   3.237   2.359  10.337  4.5978  1.9869 -0.7320
 1600SOL     OW16435   3.855   3.152   2.394 -0.1227 -0.0654  0.2112
 1600SOL    HW116436   3.820   3.188   2.476 -0.7698  0.0043 -0.0906
 1600SOL    HW216437   3.833   3.062   2.419  0.6054 -1.2494 -3.4497
 1601SOL     OW16438   2.823   0.727   0.550  0.3068  0.2387  0.0200
 1601SOL    HW116439   2.794   0.804   0.599  1.6750  1.6419 -1.3676
 1601SOL    HW216440   2.900   0.766   0.508  0.9759 -1.0174  0.0987
 1602SOL     OW16441   3.432   4.549  15.814 -0.4693  0.3082 -0.2607
 1602SOL    HW116442   3.467   4.516  15.732 -2.2904 -1.8475 -0.1605
 1602SOL    HW216443   3.485   4.629  15.816 -0.8340  0.4601  3.3179
 1603SOL     OW16444   1.051   0.883   6.884  0.8991  0.0725  0.7489
 1603SOL    HW116445   1.030   0.960   6.832  0.9733  0.1122  0.7773
 1603SOL    HW216446   1.101   0.833   6.821 -2.2826 -0.8508 -1.0402
 1604SOL     OW16447   0.747   1.659  14.919 -0.3083 -0.1722  0.3221
 1604SOL    HW116448   0.660   1.699  14.917 -2.0197 -3.9293 -0.1488
 1604SOL    HW216449   0.729   1.569  14.946  0.6487  0.0129  1.5490
 1605SOL     OW16450   0.176   4.114   3.951  0.1050 -0.0636  0.5380
 1605SOL    HW116451   0.257   4.121   3.900 -0.9843  1.3799 -1.0081
 1605SOL    HW216452   0.207   4.164   4.026  0.1517  0.7024  0.0081
 1606SOL     OW16453   4.095   0.373  15.368  0.3584 -0.1330 -0.3416
 1606SOL    HW116454   4.029   0.433  15.404  0.7115  0.9257 -1.4362
 1606SOL    HW216455   4.047   0.336  15.295  1.9968 -1.9423 -0.4955
 1607SOL     OW16456   1.273   1.845   4.836  0.5300  0.0054 -0.2476
 1607SOL    HW116457   1.272   1.784   4.909  0.2452  2.1358  1.5186
 1607SOL    HW216458   1.205   1.798   4.787  1.4972 -2.8535  1.1691
 1608SOL     OW16459   1.443   1.499  15.393 -0.0971  0.0788 -0.4276
 1608SOL    HW116460   1.484   1.417  15.365  2.0659  1.7709 -2.2356
 1608SOL    HW216461   1.524   1.550  15.401  1.7076 -2.9787  0.8337
 1609SOL     OW16462   2.264   1.933   8.905 -0.2290  0.4228 -0.7354
 1609SOL    HW116463   2.294   1.994   8.838  4.0964 -3.2207 -2.1837
 1609SOL    HW216464   2.208   1.998   8.947 -0.8783 -0.8510  0.3800
 1610SOL     OW16465   2.726   2.215   2.270 -0.2975  0.2973 -0.5409
 1610SOL    HW116466   2.686   2.273   2.205  1.8978  1.0406 -1.2108
 1610SOL    HW216467   2.771   2.160   2.205 -0.9643  2.8232 -3.1345
 1611SOL     OW16468   0.296   1.069   7.715  0.4380  0.3023 -0.7031
 1611SOL    HW116469   0.389   1.090   7.723  0.1198  1.2532  0.5376
 1611SOL    HW216470   0.266   1.136   7.776 -0.8320  0.0800 -1.0945
 1612SOL     OW16471   4.567   3.038   1.365  0.7850  0.1190 -0.4533
 1612SOL    HW116472   4.595   2.987   1.441 -1.1552 -1.3810 -0.7366
 1612SOL    HW216473   4.652   3.075   1.342  0.7702 -0.4989 -1.4822
 1613SOL     OW16474   0.904   2.675   6.576  0.0285 -1.1001  0.1367
 1613SOL    HW116475   0.817   2.672   6.615 -0.0814  2.7005  0.1749
 1613SOL    HW216476   0.954   2.661   6.657 -1.8459  0.3752  1.5416
 1614SOL     OW16477   2.781   4.691   2.465  0.1316 -0.1295  0.1336
 1614SOL    HW116478   2.838   4.615   2.476  1.2903  0.3949 -2.2457
 1614SOL    HW216479   2.849   0.020   2.442  0.6936 -0.7980 -0.0871
 1615SOL     OW16480   0.315   0.156  17.404  0.2664 -0.3907 -0.2589
 1615SOL    HW116481   0.261   0.218  17.355 -0.8488 -1.4482 -0.3644
 1615SOL    HW216482   0.373   0.219  17.447  0.8836 -0.5197 -0.9025
 1616SOL     OW16483   3.370   0.675   6.557 -0.2833 -0.3210  0.1615
 1616SOL    HW116484   3.410   0.726   6.486 -0.0364 -0.5138  0.1616
 1616SOL    HW216485   3.373   0.748   6.619  2.1579  1.3626 -1.9290
 1617SOL     OW16486   1.962   3.530   8.912 -0.0415 -0.4163 -0.2374
 1617SOL    HW116487   2.024   3.600   8.931 -0.2364 -0.1223 -0.6998
 1617SOL    HW216488   2.018   3.453   8.909  1.2840  0.6331 -2.6248
 1618SOL     OW16489   0.802   2.745  16.087 -0.0351 -0.0355  0.4062
 1618SOL    HW116490   0.822   2.791  16.168  0.4290  1.5563 -0.6063
 1618SOL    HW216491   0.748   2.809  16.039  0.7784 -1.3475 -2.2721
 1619SOL     OW16492   1.615   0.539   7.929 -0.1999  0.0895  0.3477
 1619SOL    HW116493   1.562   0.609   7.890 -0.9525  0.0793  1.3612
 1619SOL    HW216494   1.589   0.473   7.864  0.8546  0.8521 -0.8590
 1620SOL     OW16495   0.035   2.850  14.579 -0.0068 -0.7435  0.3509
 1620SOL    HW116496   0.130   2.840  14.572 -0.0427 -0.8531  0.0440
 1620SOL    HW216497   0.006   2.827  14.491  1.1810 -2.2202  0.3481
 1621SOL     OW16498   3.547   4.412   4.583  0.1437  0.0425 -0.3087
 1621SOL    HW116499   3.504   4.386   4.501 -1.9511  0.9639  0.5049
 1621SOL    HW216500   3.591   4.333   4.613  1.2130  0.7468 -0.0442
 1622SOL     OW16501   2.034   4.604  13.101 -0.4781  0.8750 -0.1648
 1622SOL    HW116502   2.083   4.652  13.168  3.1493 -1.5738 -1.0069
 1622SOL    HW216503   1.949   4.582  13.138  1.0599 -3.6248  0.7002
 1623SOL     OW16504   4.551   1.584   4.036 -0.3113  0.1232 -0.4843
 1623SOL    HW116505   4.601   1.647   3.984 -1.3011  0.9067 -0.4753
 1623SOL    HW216506   4.470   1.635   4.032  0.2550  1.0667  0.1121
 1624SOL     OW16507   3.592   1.621  12.003 -0.0449 -0.0490  0.1847
 1624SOL    HW116508   3.618   1.713  12.016  0.4820 -0.2608  0.6078
 1624SOL    HW216509   3.637   1.580  12.077 -2.4716 -1.2288  0.9784
 1625SOL     OW16510   1.707   3.800  10.463 -0.1867  0.3136  0.0942
 1625SOL    HW116511   1.778   3.804  10.527 -0.0744  1.2016 -0.0827
 1625SOL    HW216512   1.717   3.711  10.430 -1.4041  1.0220 -2.1817
 1626SOL     OW16513   0.200   0.061  12.344  0.2344 -1.2775  0.4669
 1626SOL    HW116514   0.150   0.075  12.264 -1.3167 -0.3301  1.5908
 1626SOL    HW216515   0.285   0.095  12.318  0.0770 -0.2206  1.3167
 1627SOL     OW16516   3.291   0.498   2.889  0.0500  0.1216 -0.3866
 1627SOL    HW116517   3.207   0.457   2.903 -0.8993  1.7529 -1.2658
 1627SOL    HW216518   3.324   0.443   2.817 -2.7934 -2.4805  0.3449
 1628SOL     OW16519   3.379   4.488   6.711 -0.3331  0.2851 -0.0663
 1628SOL    HW116520   3.467   4.452   6.717  0.2516  1.6417 -0.3614
 1628SOL    HW216521   3.383   4.525   6.622 -2.0627  0.9062  0.0980
 1629SOL     OW16522   2.155   0.955  10.569  0.0916  0.3329 -0.1435
 1629SOL    HW116523   2.143   0.861  10.554 -0.3523  0.8209 -2.9004
 1629SOL    HW216524   2.127   0.995  10.486 -0.7239 -0.0675 -0.0553
 1630SOL     OW16525   4.089   3.494  14.532 -0.0709 -0.2839  0.0289
 1630SOL    HW116526   4.103   3.536  14.447  0.5744 -1.7896 -0.6057
 1630SOL    HW216527   4.169   3.510  14.582  0.4919  0.5564 -1.1349
 1631SOL     OW16528   2.341   2.159  16.440  0.3876 -0.4396 -0.3845
 1631SOL    HW116529   2.424   2.111  16.433 -0.8688 -2.6461 -0.0204
 1631SOL    HW216530   2.375   2.245  16.416 -1.5754 -0.0553 -1.7608
 1632SOL     OW16531   0.609   1.786   8.452 -0.2086 -0.3218  0.6961
 1632SOL    HW116532   0.656   1.812   8.373 -1.3067 -0.7162 -0.0847
 1632SOL    HW216533   0.598   1.869   8.499 -0.9630  0.1769 -0.3519
 1633SOL     OW16534   3.143   1.098   4.754 -0.0640  0.5383  0.2603
 1633SOL    HW116535   3.225   1.106   4.802  0.7735 -3.4853 -0.4941
 1633SOL    HW216536   3.125   1.006   4.772 -0.0159 -0.0696 -2.7277
 1634SOL     OW16537   4.673   2.028   8.143  0.3162  0.3324 -0.5469
 1634SOL    HW116538   4.697   2.014   8.051  2.1054 -2.4493  0.3625
 1634SOL    HW216539   4.579   2.019   8.133  0.7429 -1.8627 -2.4977
 1635SOL     OW16540   0.535   0.017  11.213  0.3664  0.5708  0.1507
 1635SOL    HW116541   0.572   4.704  11.139  1.6290 -1.4984  2.1549
 1635SOL    HW216542   0.606   0.065  11.256  1.0994 -1.0205  0.7159
 1636SOL     OW16543   4.259   1.295  15.270 -0.1599  0.1394  0.2881
 1636SOL    HW116544   4.199   1.243  15.323  0.4678  0.0382  0.8979
 1636SOL    HW216545   4.320   1.225  15.247 -1.5502 -0.9951  0.0511
 1637SOL     OW16546   0.645   3.826   4.599  0.3678 -0.4640 -0.6565
 1637SOL    HW116547   0.670   3.918   4.593 -0.9542 -0.1027 -0.6015
 1637SOL    HW216548   0.559   3.824   4.643 -1.1994  3.3054 -3.6344
 1638SOL     OW16549   3.467   4.329   1.438  0.1822 -0.3863  0.0502
 1638SOL    HW116550   3.508   4.363   1.358 -4.7056  0.1296 -2.3097
 1638SOL    HW216551   3.524   4.254   1.455 -0.6231 -0.9844  0.1573
 1639SOL     OW16552   3.492   4.412  12.749  0.2514 -0.3800 -0.2927
 1639SOL    HW116553   3.557   4.473  12.783 -0.6347 -0.6759  1.9230
 1639SOL    HW216554   3.539   4.374  12.675  1.3171  1.0590 -0.3605
 1640SOL     OW16555   4.025   4.278   8.729  0.0972 -1.0162 -0.6903
 1640SOL    HW116556   4.022   4.361   8.777 -1.2594 -0.0471 -2.4452
 1640SOL    HW216557   3.951   4.285   8.668 -2.1539  0.0520  2.1500
 1641SOL     OW16558   2.461   3.078   2.881  0.5052  0.2178  0.5086
 1641SOL    HW116559   2.439   3.061   2.790  0.3551 -1.4651  0.8652
 1641SOL    HW216560   2.542   3.028   2.875 -0.2190 -0.8453 -0.2971
 1642SOL     OW16561   4.027   3.863   1.695 -0.0868 -0.3379  0.0382
 1642SOL    HW116562   4.053   3.947   1.657 -1.0955 -0.4887 -0.9814
 1642SOL    HW216563   4.108   3.846   1.743 -0.8523  1.2604  1.8847
 1643SOL     OW16564   2.232   4.323   2.829 -0.7220 -0.0737  0.0712
 1643SOL    HW116565   2.175   4.278   2.766 -2.6501 -0.0618  1.7972
 1643SOL    HW216566   2.293   4.370   2.771 -2.5105 -0.3759 -2.0857
 1644SOL     OW16567   1.650   2.367   5.612  0.1308  0.4119  0.4237
 1644SOL    HW116568   1.734   2.349   5.655 -1.0945 -1.2049  2.1583
 1644SOL    HW216569   1.630   2.459   5.625  0.0490  0.8685 -3.0653
 1645SOL     OW16570   3.971   0.619   7.586  0.3883  0.0473  0.1909
 1645SOL    HW116571   4.047   0.647   7.535 -0.4419 -0.1705 -1.1806
 1645SOL    HW216572   3.998   0.605   7.677  0.9502  2.4107  0.3867
 1646SOL     OW16573   1.959   2.458   6.001 -0.4248 -0.2759  0.7766
 1646SOL    HW116574   1.900   2.384   6.014 -0.0670 -0.2159  2.7493
 1646SOL    HW216575   1.898   2.528   6.026  0.3215  0.4788  0.4750
 1647SOL     OW16576   1.854   2.960   7.264 -0.0034  0.3719 -0.0219
 1647SOL    HW116577   1.838   2.897   7.334 -1.6667  2.6327  1.6707
 1647SOL    HW216578   1.779   2.953   7.205 -0.0439  0.9497 -0.0423
 1648SOL     OW16579   1.297   1.622   8.495 -0.0554  0.1747  0.2660
 1648SOL    HW116580   1.283   1.714   8.475  1.1246  0.3141  0.1043
 1648SOL    HW216581   1.239   1.578   8.433 -1.6220  0.1693  1.7224
 1649SOL     OW16582   4.225   3.398   2.784 -0.4793 -0.2666  0.6105
 1649SOL    HW116583   4.152   3.455   2.807  1.0576  2.6205 -1.7422
 1649SOL    HW216584   4.242   3.425   2.694 -0.1393 -0.0696  0.7355
 1650SOL     OW16585   4.200   0.696   8.759  0.3276  0.2874 -0.0811
 1650SOL    HW116586   4.184   0.733   8.846  1.2194 -0.6810  0.4964
 1650SOL    HW216587   4.136   0.625   8.759 -1.0234  1.4944  1.5773
 1651SOL     OW16588   2.227   2.749  13.928 -0.0081 -0.6685 -0.3443
 1651SOL    HW116589   2.154   2.805  13.953  2.3445  1.6683  1.2555
 1651SOL    HW216590   2.226   2.677  13.991  1.6248  0.0917  0.5773
 1652SOL     OW16591   2.984   0.001   7.345 -0.1785  0.0142 -0.0455
 1652SOL    HW116592   2.924   4.690   7.404  1.4744  2.2708  3.4010
 1652SOL    HW216593   3.064   4.689   7.367  0.9024  0.7999 -2.2525
 1653SOL     OW16594   1.533   2.773  11.452  0.6802  0.1753  0.2258
 1653SOL    HW116595   1.572   2.742  11.370  1.5095 -0.2528  0.7880
 1653SOL    HW216596   1.607   2.825  11.483  1.3161  0.1167 -1.1889
 1654SOL     OW16597   4.540   4.181   8.027  0.0337  0.1918 -0.9893
 1654SOL    HW116598   4.492   4.114   8.075 -3.3548  3.6954  0.4792
 1654SOL    HW216599   4.469   4.242   8.004  0.8661  2.1067  1.5207
 1655SOL     OW16600   1.797   2.757   9.050 -0.2018  0.5379  0.1860
 1655SOL    HW116601   1.872   2.816   9.054  0.0469  0.1701  1.0503
 1655SOL    HW216602   1.792   2.729   9.142 -0.6874 -0.7263 -0.2207
 1656SOL     OW16603   1.010   1.042  17.453  0.1541 -0.1873 -0.1987
 1656SOL    HW116604   1.008   1.108  17.522  0.0395 -0.6025  0.1895
 1656SOL    HW216605   1.102   1.040  17.425  0.5561 -3.2835  1.3293
 1657SOL     OW16606   0.772   3.752   2.250 -0.0147 -0.9585 -1.0574
 1657SOL    HW116607   0.846   3.730   2.306 -3.7906 -0.4665  4.1533
 1657SOL    HW216608   0.724   3.814   2.305  0.5916  0.3376 -1.9910
 1658SOL     OW16609   1.710   3.456   4.115  0.0915  0.1060  0.0438
 1658SOL    HW116610   1.784   3.418   4.066 -0.4643 -0.4588 -0.3534
 1658SOL    HW216611   1.644   3.397   4.079 -0.1849  0.3526  0.1545
 1659SOL     OW16612   2.339   4.185   5.345 -0.5569  0.4776  0.3185
 1659SOL    HW116613   2.368   4.174   5.436 -1.2884  1.3216  0.6524
 1659SOL    HW216614   2.253   4.142   5.349  1.1249 -2.8014  0.8614
 1660SOL     OW16615   3.196   0.361   8.340  0.8265 -0.4905  0.1694
 1660SOL    HW116616   3.197   0.419   8.264  0.5537  0.3144  0.7749
 1660SOL    HW216617   3.200   0.273   8.302  0.0130 -1.0480  1.3506
 1661SOL     OW16618   0.262   1.547   7.347 -0.5066 -0.1523  0.1076
 1661SOL    HW116619   0.273   1.598   7.427 -0.5248 -1.3194  0.8667
 1661SOL    HW216620   0.183   1.495   7.361  0.3222 -0.6698  2.8577
 1662SOL     OW16621   2.141   1.632   6.462  0.4420  0.0115  0.0015
 1662SOL    HW116622   2.132   1.598   6.373  0.9158  1.4876 -0.6040
 1662SOL    HW216623   2.053   1.661   6.486  0.1062 -1.6753  0.8049
 1663SOL     OW16624   2.695   2.272   5.393 -0.1656  0.2321 -0.3487
 1663SOL    HW116625   2.761   2.342   5.389 -0.0423  0.2143  1.2516
 1663SOL    HW216626   2.715   2.225   5.474  1.1744 -0.7279 -1.2470
 1664SOL     OW16627   3.875   4.496   7.035 -0.1190  0.2724 -0.1344
 1664SOL    HW116628   3.798   4.470   7.086  0.0291  1.3741  0.6596
 1664SOL    HW216629   3.851   4.589   7.026  0.0096  0.5086  1.8632
 1665SOL     OW16630   3.074   3.527   1.931 -0.1632  0.0641 -0.1820
 1665SOL    HW116631   3.025   3.454   1.968 -1.5642  2.7135  3.1534
 1665SOL    HW216632   3.132   3.479   1.871  0.1504  0.6302 -0.3253
 1666SOL     OW16633   0.326   0.089  11.953 -0.1104 -0.0908  0.6369
 1666SOL    HW116634   0.400   0.035  11.923 -0.3841  0.5118 -1.1399
 1666SOL    HW216635   0.320   0.154  11.882 -2.2283 -0.3718  0.5748
 1667SOL     OW16636   0.193   2.213   5.101  0.1598  0.8643  0.8675
 1667SOL    HW116637   0.111   2.214   5.052  0.1842  1.4193  0.8392
 1667SOL    HW216638   0.200   2.129   5.146 -1.4188 -1.1506 -2.6737
 1668SOL     OW16639   0.496   3.268   3.698 -0.3482  0.6149  0.2274
 1668SOL    HW116640   0.591   3.259   3.694 -0.5932 -1.6934 -0.1536
 1668SOL    HW216641   0.492   3.230   3.786 -0.8310 -0.8575 -0.4435
 1669SOL     OW16642   4.155   0.725   2.491 -0.2291 -0.0897  0.4527
 1669SOL    HW116643   4.183   0.817   2.488 -2.1210  0.4979  0.9372
 1669SOL    HW216644   4.136   0.712   2.398  2.1305 -2.6597  0.3234
 1670SOL     OW16645   4.467   4.327   3.826  0.3714  0.7078 -0.2069
 1670SOL    HW116646   4.412   4.341   3.748 -2.1797  0.2297  1.5172
 1670SOL    HW216647   4.471   4.231   3.820 -2.4963  0.6935 -1.5764
 1671SOL     OW16648   3.359   1.175   3.043  0.1589  0.3131 -0.0929
 1671SOL    HW116649   3.437   1.218   3.010 -0.5740  0.6594 -1.3757
 1671SOL    HW216650   3.373   1.085   3.012 -1.8934  0.3881 -1.2380
 1672SOL     OW16651   0.654   4.570   0.371  0.0187  0.0282  0.1863
 1672SOL    HW116652   0.672   4.608   0.285 -2.2101  2.3137  0.7441
 1672SOL    HW216653   0.558   4.570   0.367 -0.0239  2.4626  1.7250
 1673SOL     OW16654   0.685   0.186   2.310 -0.4525 -0.4529  0.5175
 1673SOL    HW116655   0.743   0.143   2.373  1.8151  0.9412 -0.6121
 1673SOL    HW216656   0.678   0.270   2.357  0.9176 -0.9317  1.5818
 1674SOL     OW16657   0.808   4.599   2.466  0.5040 -0.2678  0.1766
 1674SOL    HW116658   0.886   4.654   2.457  1.1557 -1.1493  0.4560
 1674SOL    HW216659   0.838   4.531   2.406 -0.0841  1.7064 -2.3837
 1675SOL     OW16660   4.123   4.162  16.590  0.1922  0.1816  0.4087
 1675SOL    HW116661   4.097   4.249  16.619  0.5244  0.8356 -1.2872
 1675SOL    HW216662   4.052   4.140  16.530 -0.6748  2.0749  0.7329
 1676SOL     OW16663   4.224   2.822   3.729  0.5220 -0.1217 -0.0238
 1676SOL    HW116664   4.135   2.809   3.694 -0.1520  0.7136  1.3873
 1676SOL    HW216665   4.267   2.897   3.689  0.0558 -0.1239 -0.5344
 1677SOL     OW16666   0.047   2.098   6.177  0.1420 -0.2282 -0.1179
 1677SOL    HW116667   0.054   2.155   6.100 -0.9842  1.2260  0.8294
 1677SOL    HW216668   4.730   2.139   6.246  0.2044  1.0123 -0.8014
 1678SOL     OW16669   1.523   0.595   6.379 -0.4204  0.0331 -0.3604
 1678SOL    HW116670   1.575   0.563   6.452 -0.7493 -1.0578 -0.5992
 1678SOL    HW216671   1.505   0.686   6.401  1.0220  0.1554  0.3153
 1679SOL     OW16672   2.165   2.577   1.373  0.1496  0.0251 -0.6956
 1679SOL    HW116673   2.122   2.631   1.439 -1.2333 -2.2233  0.2381
 1679SOL    HW216674   2.259   2.586   1.383 -0.0139 -0.0002  0.8372
 1680SOL     OW16675   2.629   2.107   6.185  0.3969 -0.3157 -0.1553
 1680SOL    HW116676   2.638   2.120   6.280 -0.5060  0.8535 -0.2434
 1680SOL    HW216677   2.534   2.113   6.173  0.1040  0.1429  2.2041
 1681SOL     OW16678   0.513   1.328   6.896 -0.1837  0.4162  0.0754
 1681SOL    HW116679   0.475   1.367   6.974 -0.1432  1.9555 -0.6630
 1681SOL    HW216680   0.452   1.255   6.891  0.9780 -0.4864 -0.8160
 1682SOL     OW16681   3.909   1.460  16.608 -0.5057 -0.5715  0.0136
 1682SOL    HW116682   4.003   1.476  16.606 -0.8416  1.4460  0.5350
 1682SOL    HW216683   3.880   1.451  16.698  1.3923 -1.4156  0.5367
 1683SOL     OW16684   2.086   1.201   0.405  0.1539 -0.0006 -0.8393
 1683SOL    HW116685   2.074   1.142   0.330 -0.9338  0.1638 -0.8029
 1683SOL    HW216686   2.073   1.287   0.366  0.2693  0.1446 -0.5559
 1684SOL     OW16687   0.677   0.459   9.307  0.4861  0.4430 -0.0896
 1684SOL    HW116688   0.770   0.439   9.293 -0.6407 -3.2404 -2.2288
 1684SOL    HW216689   0.681   0.428   9.397 -1.4604 -2.5009 -1.0370
 1685SOL     OW16690   3.332   1.717   7.609  0.0437  0.4302 -0.0234
 1685SOL    HW116691   3.393   1.790   7.609  0.1473  0.3318  2.3835
 1685SOL    HW216692   3.266   1.745   7.545 -2.0639  0.0052  1.9384
 1686SOL     OW16693   0.732   3.409   1.868 -0.8109  0.4425  0.5169
 1686SOL    HW116694   0.750   3.459   1.948  1.3572  0.1886  0.1785
 1686SOL    HW216695   0.809   3.436   1.817 -0.8640  0.0207  0.2134
 1687SOL     OW16696   1.802   1.355   0.230  0.2287 -0.0374  0.3899
 1687SOL    HW116697   1.880   1.321   0.186  0.8655  0.2962  1.2697
 1687SOL    HW216698   1.755   1.279   0.264 -3.1543  1.5194 -0.8528
 1688SOL     OW16699   2.499   3.786   7.329 -0.3960 -0.1488 -0.7835
 1688SOL    HW116700   2.509   3.732   7.250 -3.2151 -1.5937 -0.1765
 1688SOL    HW216701   2.482   3.720   7.397  1.7788  0.7853  0.6647
 1689SOL     OW16702   2.564   1.874  12.487  0.1443  0.0209 -0.3554
 1689SOL    HW116703   2.497   1.811  12.460  0.3707 -1.0234  1.5198
 1689SOL    HW216704   2.530   1.955  12.450  0.9982  1.0468  1.0958
 1690SOL     OW16705   2.509   4.708  11.755 -0.6848  0.1508  0.2994
 1690SOL    HW116706   2.574   0.033  11.790  1.3642 -1.7878 -0.1466
 1690SOL    HW216707   2.469   0.014  11.679 -0.3327  0.5761  0.3451
 1691SOL     OW16708   4.179   1.716   7.194  0.0036  0.8611  0.5929
 1691SOL    HW116709   4.213   1.655   7.259 -0.6097  0.0480  0.1521
 1691SOL    HW216710   4.221   1.793   7.232  1.7998 -1.5106  3.3589
 1692SOL     OW16711   0.269   1.044   8.659 -0.5185 -0.2619 -0.2548
 1692SOL    HW116712   0.345   1.102   8.649  0.3079 -1.2185  0.5876
 1692SOL    HW216713   0.279   1.006   8.746 -2.2110 -0.3532 -0.0994
 1693SOL     OW16714   1.635   2.044   8.830  0.2004  0.1844 -0.2984
 1693SOL    HW116715   1.607   2.008   8.746  0.0862 -0.9078  0.2075
 1693SOL    HW216716   1.731   2.039   8.833  0.1491 -0.4393  0.3737
 1694SOL     OW16717   0.357   1.314   3.067 -0.7871  0.3754  0.9495
 1694SOL    HW116718   0.274   1.270   3.084  0.4062 -1.1558  2.8244
 1694SOL    HW216719   0.368   1.288   2.975 -1.5958  1.7268  0.4723
 1695SOL     OW16720   3.181   2.928  13.190  0.3678  0.2227 -0.4295
 1695SOL    HW116721   3.226   2.902  13.271 -0.5742 -0.3091 -0.0650
 1695SOL    HW216722   3.236   2.887  13.124 -1.0435  0.1944 -1.5861
 1696SOL     OW16723   1.446   1.130  10.339  0.0385  0.0849 -0.0296
 1696SOL    HW116724   1.521   1.116  10.396 -0.1188  1.6796  0.5884
 1696SOL    HW216725   1.445   1.226  10.343 -0.3223  0.0769  0.0971
 1697SOL     OW16726   4.322   3.586   0.525  0.0722  0.6779  0.0947
 1697SOL    HW116727   4.364   3.501   0.515 -0.3118  0.3049  1.6602
 1697SOL    HW216728   4.262   3.584   0.450  0.5131 -0.2896 -0.2305
 1698SOL     OW16729   0.131   2.425  13.375  0.2766  0.0739 -0.0641
 1698SOL    HW116730   0.165   2.342  13.408 -0.1393 -0.2983 -0.5748
 1698SOL    HW216731   0.070   2.421  13.449 -2.8358 -2.1787 -2.7467
 1699SOL     OW16732   2.166   2.710   5.607 -0.1543 -0.3689 -0.2045
 1699SOL    HW116733   2.257   2.741   5.613 -0.4484  0.4770 -0.0524
 1699SOL    HW216734   2.127   2.752   5.684 -0.7961 -3.0075  0.9172
 1700SOL     OW16735   2.102   1.349  16.986  0.3217  0.3415  0.3568
 1700SOL    HW116736   2.039   1.300  16.934  0.6499  0.7051 -0.3807
 1700SOL    HW216737   2.054   1.361  17.068  0.0396  3.1342 -0.1974
 1701SOL     OW16738   3.424   3.166   6.822  0.5029 -0.9895  0.3807
 1701SOL    HW116739   3.352   3.208   6.775  0.1056 -0.5092  1.4359
 1701SOL    HW216740   3.451   3.105   6.753 -2.0159 -2.0046  0.3068
 1702SOL     OW16741   4.055   2.656   7.487  0.4040  0.2494  0.1973
 1702SOL    HW116742   4.125   2.720   7.478  1.1344 -0.5196  0.4247
 1702SOL    HW216743   3.979   2.708   7.460 -0.8241 -1.2565  0.7069
 1703SOL     OW16744   0.346   1.223   8.976 -0.2895 -0.0774 -0.1026
 1703SOL    HW116745   0.297   1.187   8.902  1.1671 -0.5564 -0.8372
 1703SOL    HW216746   0.420   1.165   8.994 -0.4528 -0.1540  0.3213
 1704SOL     OW16747   1.277   0.908  11.976  0.4518  0.1773 -0.4444
 1704SOL    HW116748   1.241   0.996  11.962 -0.1317 -0.0908 -0.6605
 1704SOL    HW216749   1.200   0.855  11.999  0.4795 -0.2914 -1.4504
 1705SOL     OW16750   1.686   4.543  12.892  0.0255 -0.1765 -0.0326
 1705SOL    HW116751   1.756   4.534  12.827 -0.2421 -0.8477 -0.2276
 1705SOL    HW216752   1.726   4.580  12.971  0.0778 -1.3972  0.5164
 1706SOL     OW16753   0.427   1.445   8.672 -0.2842 -0.2082 -0.1764
 1706SOL    HW116754   0.418   1.474   8.581 -1.8932 -0.4660 -0.1142
 1706SOL    HW216755   0.454   1.523   8.721  0.3769 -0.2859 -0.4262
 1707SOL     OW16756   3.266   3.918   8.364 -0.0523 -0.0759 -0.1621
 1707SOL    HW116757   3.312   3.925   8.448 -1.8271  0.1138  0.7941
 1707SOL    HW216758   3.339   3.925   8.302 -2.1537  0.7403 -2.5115
 1708SOL     OW16759   3.065   0.089   3.889  0.0542  0.0215  0.0703
 1708SOL    HW116760   3.010   0.014   3.867 -3.1884  2.4408 -0.0349
 1708SOL    HW216761   3.142   0.047   3.926  0.7808 -0.3453 -1.8426
 1709SOL     OW16762   3.856   1.849  16.380  0.4878  0.1465 -0.0376
 1709SOL    HW116763   3.798   1.836  16.456  1.4019 -0.0804  0.6206
 1709SOL    HW216764   3.797   1.899  16.324 -1.0708 -1.3092  0.3030
 1710SOL     OW16765   3.703   2.545   8.993  0.0409 -0.1028  0.4897
 1710SOL    HW116766   3.744   2.459   8.993 -0.0261 -0.1470 -1.2013
 1710SOL    HW216767   3.710   2.564   9.086  1.4464  0.8083  0.2061
 1711SOL     OW16768   2.336   0.367   6.082 -0.4702  0.8598  0.4958
 1711SOL    HW116769   2.280   0.421   6.137 -1.3003  1.9152 -1.4071
 1711SOL    HW216770   2.380   0.445   6.048  0.1552  0.4933  0.4604
 1712SOL     OW16771   0.948   1.123   5.311 -0.2185 -0.2924  0.1557
 1712SOL    HW116772   0.906   1.130   5.397  0.3001 -0.4157  0.4201
 1712SOL    HW216773   1.034   1.102   5.347  0.4562  0.1181 -1.2138
 1713SOL     OW16774   0.272   4.487   7.199 -0.3294  0.6915 -0.4200
 1713SOL    HW116775   0.354   4.502   7.246  0.3709 -0.5951 -1.2637
 1713SOL    HW216776   0.234   4.575   7.188 -1.8327 -0.1955 -2.1714
 1714SOL     OW16777   1.362   0.448   2.271 -0.4276  0.0956 -0.3335
 1714SOL    HW116778   1.290   0.425   2.212 -0.9898 -0.7481  0.6700
 1714SOL    HW216779   1.337   0.539   2.287 -0.0839  0.3151 -1.0713
 1715SOL     OW16780   2.720   2.422   5.848 -0.8961 -0.0999  0.1056
 1715SOL    HW116781   2.788   2.416   5.915 -0.1523 -0.6882 -0.7020
 1715SOL    HW216782   2.769   2.471   5.782 -0.5826 -0.5703 -0.0077
 1716SOL     OW16783   1.621   3.449   7.754 -0.2670 -0.7157 -0.0439
 1716SOL    HW116784   1.607   3.508   7.828  1.9752  0.7020 -0.7369
 1716SOL    HW216785   1.608   3.358   7.780  2.7698 -1.0443  0.3667
 1717SOL     OW16786   3.836   0.058   8.823  0.5849  0.9067  0.4505
 1717SOL    HW116787   3.913   0.103   8.856  2.2574 -1.4159 -0.2732
 1717SOL    HW216788   3.771   0.128   8.812 -0.7151 -0.0448  2.1010
 1718SOL     OW16789   2.781   4.398   3.901 -0.0177  0.3253 -0.1911
 1718SOL    HW116790   2.699   4.358   3.874 -0.8137  3.5871 -2.6657
 1718SOL    HW216791   2.832   4.324   3.934 -1.1375 -1.1608 -1.8013
 1719SOL     OW16792   0.093   3.602   3.152 -0.5253  0.0293  0.2291
 1719SOL    HW116793   0.130   3.672   3.206  0.0983 -0.0819 -0.0569
 1719SOL    HW216794   0.078   3.543   3.226 -0.0235  0.4477  0.6692
 1720SOL     OW16795   1.626   4.068   3.250  0.4503  0.2895 -0.1342
 1720SOL    HW116796   1.563   4.005   3.284 -1.2161  1.7617 -0.5192
 1720SOL    HW216797   1.704   4.013   3.246  0.0359 -0.5755  3.0705
 1721SOL     OW16798   4.201   2.317   3.090  0.4583 -0.0764 -0.3412
 1721SOL    HW116799   4.169   2.393   3.138 -0.5651  0.1445 -1.3716
 1721SOL    HW216800   4.256   2.365   3.028 -0.4744  1.4410 -0.0030
 1722SOL     OW16801   3.354   3.052   0.748 -0.3309 -0.5293 -0.3139
 1722SOL    HW116802   3.303   3.094   0.818  0.7910 -0.5286  0.5064
 1722SOL    HW216803   3.427   3.021   0.801 -0.3348 -1.5066 -0.8888
 1723SOL     OW16804   2.939   3.534   6.479  0.6874  0.5513 -0.8961
 1723SOL    HW116805   3.032   3.512   6.485  0.5350  0.0922 -0.1466
 1723SOL    HW216806   2.913   3.524   6.571 -2.7846  1.0488 -1.8412
 1724SOL     OW16807   1.715   3.875   0.021 -0.3183  0.0180  0.5098
 1724SOL    HW116808   1.701   3.959   0.065 -2.3653 -0.4289  0.6780
 1724SOL    HW216809   1.675   3.884  17.677  2.9464  1.3798 -0.8698
 1725SOL     OW16810   3.689   0.373   3.721 -0.0809  0.8232 -0.4850
 1725SOL    HW116811   3.600   0.382   3.685 -1.3069 -0.8776  2.0711
 1725SOL    HW216812   3.745   0.365   3.644 -1.0376  0.8381 -1.1897
 1726SOL     OW16813   3.154   3.261   4.255  0.2129  0.0440  0.4239
 1726SOL    HW116814   3.085   3.233   4.315  0.8318 -3.7355 -0.5934
 1726SOL    HW216815   3.127   3.236   4.166  0.2706  3.3834 -0.5144
 1727SOL     OW16816   4.118   0.108   9.198  0.2826 -0.2581 -0.6628
 1727SOL    HW116817   4.199   0.078   9.240  1.0467  2.8997  0.1011
 1727SOL    HW216818   4.065   0.028   9.190 -1.1093  0.4906  1.1527
 1728SOL     OW16819   0.960   1.572  12.332  0.0360  0.5387 -0.0723
 1728SOL    HW116820   0.984   1.503  12.394 -0.9859  1.6963  1.6217
 1728SOL    HW216821   0.869   1.550  12.312 -0.1612  2.2244 -0.9641
 1729SOL     OW16822   0.412   2.966   5.461  0.3480 -0.1813  0.1297
 1729SOL    HW116823   0.494   2.986   5.507  0.6501 -0.1285 -0.4314
 1729SOL    HW216824   0.379   3.055   5.449 -1.2283 -0.7618  0.3030
 1730SOL     OW16825   0.957   2.668   7.142  0.1318 -0.0058 -0.2741
 1730SOL    HW116826   0.897   2.634   7.076  0.2850 -1.3698  0.2917
 1730SOL    HW216827   1.032   2.619   7.107  1.0409  0.2083  1.3760
 1731SOL     OW16828   1.635   1.412   7.116  0.6841 -0.1160  0.0987
 1731SOL    HW116829   1.698   1.463   7.168  0.8579  0.2704 -0.4964
 1731SOL    HW216830   1.557   1.421   7.171 -0.4886 -1.2285 -1.3983
 1732SOL     OW16831   4.390   3.879  15.100  0.3780  0.2571  0.4226
 1732SOL    HW116832   4.424   3.806  15.048  1.2606 -0.9187  2.6758
 1732SOL    HW216833   4.411   3.943  15.032  1.2795  0.0974  0.5482
 1733SOL     OW16834   3.870   2.571   3.609 -0.3281  0.0040 -0.0063
 1733SOL    HW116835   3.908   2.509   3.545  1.1382  0.7403  0.1463
 1733SOL    HW216836   3.937   2.639   3.608 -1.9945  1.6235  1.0160
 1734SOL     OW16837   0.252   2.244   8.609  0.2488  0.2404  0.0409
 1734SOL    HW116838   0.276   2.185   8.681  0.0598 -0.2221 -0.2743
 1734SOL    HW216839   0.313   2.208   8.544 -2.0865 -2.6103 -0.5804
 1735SOL     OW16840   1.502   1.649  13.640  0.5898  0.3356  0.1535
 1735SOL    HW116841   1.412   1.659  13.609  0.5393 -1.2219 -0.1812
 1735SOL    HW216842   1.557   1.677  13.567  1.0863 -1.4258 -0.1423
 1736SOL     OW16843   4.241   4.274   8.347  0.1267 -0.0706 -0.7551
 1736SOL    HW116844   4.236   4.213   8.420  1.4574  1.7308  0.8229
 1736SOL    HW216845   4.200   4.353   8.383  0.6702 -1.5964  3.1293
 1737SOL     OW16846   2.587   0.345   9.806  0.2283  0.0679 -0.3047
 1737SOL    HW116847   2.673   0.376   9.777  0.6312 -1.3107 -0.5986
 1737SOL    HW216848   2.563   0.286   9.735 -0.3823 -1.3813  1.0848
 1738SOL     OW16849   0.663   2.743   2.049 -0.4171 -0.1405 -0.3771
 1738SOL    HW116850   0.660   2.769   1.957  1.6071 -2.1150 -0.9992
 1738SOL    HW216851   0.660   2.828   2.092 -0.6933  0.5150 -1.6896
 1739SOL     OW16852   3.874   0.028  16.064  0.1863 -1.0220  0.2434
 1739SOL    HW116853   3.808   0.022  15.995  1.5290  2.6262 -1.3691
 1739SOL    HW216854   3.819   0.033  16.142  0.0157 -1.4056  0.1459
 1740SOL     OW16855   4.311   1.924   5.718 -0.1248  0.0805  0.2972
 1740SOL    HW116856   4.270   1.985   5.655 -1.1231 -0.9145 -0.0092
 1740SOL    HW216857   4.238   1.874   5.753 -0.8588  1.9488  1.4445
 1741SOL     OW16858   1.393   1.766  16.523  0.4285  0.2475 -0.3480
 1741SOL    HW116859   1.370   1.857  16.502 -0.9256 -0.5839 -2.5656
 1741SOL    HW216860   1.419   1.738  16.435 -0.9996 -0.4741 -0.5510
 1742SOL     OW16861   2.974   3.922   8.566 -0.1632  0.2464 -0.0197
 1742SOL    HW116862   2.999   3.881   8.649  0.4605 -0.8506 -0.7511
 1742SOL    HW216863   3.055   3.969   8.545  0.0357 -0.3432 -0.5352
 1743SOL     OW16864   0.997   2.968  16.975  0.3374  0.0048  0.2072
 1743SOL    HW116865   1.045   2.996  16.896  0.4119 -1.8015 -0.3752
 1743SOL    HW216866   1.064   2.933  17.034  1.5515 -1.6111 -2.1243
 1744SOL     OW16867   3.816   0.313   2.041 -0.4816  0.1020 -0.9737
 1744SOL    HW116868   3.902   0.312   2.000  0.5888  1.7742  1.2076
 1744SOL    HW216869   3.815   0.220   2.066 -1.3631  0.7401  1.3389
 1745SOL     OW16870   2.500   0.181   1.051  0.0786  0.2807 -0.3421
 1745SOL    HW116871   2.568   0.248   1.051  0.3454  0.0489 -3.8964
 1745SOL    HW216872   2.423   0.233   1.028 -0.5366 -0.3488  0.2922
 1746SOL     OW16873   0.393   2.254   3.419 -0.5339  0.3608 -0.1686
 1746SOL    HW116874   0.449   2.301   3.482 -0.5442  1.9498 -1.3459
 1746SOL    HW216875   0.392   2.175   3.474  0.8325  0.1195 -0.4846
 1747SOL     OW16876   4.179   4.537   8.479  0.1728  0.5646 -0.4567
 1747SOL    HW116877   4.264   4.556   8.519 -0.0252  0.0519  0.1995
 1747SOL    HW216878   4.128   4.533   8.560  0.0228 -1.2482 -0.6556
 1748SOL     OW16879   0.890   3.524  13.386  0.4607 -0.3057 -0.5225
 1748SOL    HW116880   0.843   3.597  13.345 -0.2290  0.2896  1.3515
 1748SOL    HW216881   0.830   3.451  13.370 -0.9688  0.9751 -1.0733
 1749SOL     OW16882   0.130   3.050   2.070 -0.1010 -0.4666  0.6105
 1749SOL    HW116883   0.043   3.082   2.091  1.1905  2.3734  1.6531
 1749SOL    HW216884   0.164   3.024   2.156  2.8709  0.2780 -0.3247
 1750SOL     OW16885   1.268   0.594   1.101  0.1609 -0.0938 -0.0544
 1750SOL    HW116886   1.242   0.526   1.039 -2.2454 -0.2476  1.1518
 1750SOL    HW216887   1.363   0.581   1.102  0.2382  0.6097  1.3933
 1751SOL     OW16888   2.660   1.990   3.617 -0.2882 -0.5045  0.6172
 1751SOL    HW116889   2.725   2.015   3.682 -1.0084 -0.3305  1.2683
 1751SOL    HW216890   2.725   1.942   3.565 -0.1465 -0.2363  0.5473
 1752SOL     OW16891   1.111   3.091   3.980 -0.7321 -0.2180 -0.5538
 1752SOL    HW116892   1.151   3.046   3.905 -1.0141 -1.1916 -0.1235
 1752SOL    HW216893   1.127   3.177   3.941  1.4953 -0.4360 -0.1362
 1753SOL     OW16894   3.045   0.025   6.047  0.6342 -0.8306  0.3526
 1753SOL    HW116895   3.050   4.725   5.959 -0.6626  0.3308 -0.1904
 1753SOL    HW216896   2.951   0.018   6.060  0.5613 -0.3606  0.0579
 1754SOL     OW16897   1.295   4.726  17.071 -0.1142 -0.1222 -0.1921
 1754SOL    HW116898   1.296   0.042  17.152  1.3466 -2.3878  1.2398
 1754SOL    HW216899   1.276   0.058  17.006 -0.3908 -0.9372 -0.9666
 1755SOL     OW16900   1.782   0.510   4.894 -0.0521  0.2282  0.3296
 1755SOL    HW116901   1.705   0.560   4.869  0.8833  0.9574 -1.0854
 1755SOL    HW216902   1.828   0.568   4.954 -0.6755  0.2645  0.7743
 1756SOL     OW16903   3.966   3.661  11.512  0.2547 -0.2136 -0.0650
 1756SOL    HW116904   4.000   3.584  11.559  0.8286  0.7341  1.0818
 1756SOL    HW216905   3.946   3.726  11.579 -1.7004 -0.5791 -0.3012
 1757SOL     OW16906   1.810   4.665   0.070  0.4246 -0.3647  0.3720
 1757SOL    HW116907   1.715   4.668   0.085  0.5130 -0.1021  0.8961
 1757SOL    HW216908   1.815   4.642  17.719 -1.8632 -1.9604  0.6208
 1758SOL     OW16909   3.250   0.208   2.523  0.0813  0.0527  0.0883
 1758SOL    HW116910   3.339   0.179   2.506  0.4826 -0.1964  2.5911
 1758SOL    HW216911   3.256   0.297   2.488 -0.2299  0.8537  2.0990
 1759SOL     OW16912   2.647   3.672   3.249 -0.2377  0.1578  0.2435
 1759SOL    HW116913   2.618   3.734   3.317  1.4800  1.8649 -0.5633
 1759SOL    HW216914   2.731   3.713   3.226 -0.9860  1.0685 -0.8393
 1760SOL     OW16915   3.237   2.469   7.473 -0.0450  0.0847 -0.4140
 1760SOL    HW116916   3.224   2.562   7.460 -0.8582 -0.1480 -1.2548
 1760SOL    HW216917   3.324   2.462   7.512  0.8204 -0.1530 -2.4146
 1761SOL     OW16918   4.542   1.703   8.126  0.2082  0.5137  0.0105
 1761SOL    HW116919   4.477   1.766   8.093  0.6553  0.2052 -1.4862
 1761SOL    HW216920   4.562   1.728   8.216 -0.0391  0.2349  0.1426
 1762SOL     OW16921   2.469   4.430   8.434 -0.2340 -0.6184  0.1195
 1762SOL    HW116922   2.555   4.471   8.445 -1.3041  1.0730  2.0708
 1762SOL    HW216923   2.410   4.456   8.504  1.4044  5.8125 -0.8792
 1763SOL     OW16924   4.114   3.849  17.340 -0.8904  0.0303  0.3190
 1763SOL    HW116925   4.055   3.915  17.303 -2.9795 -2.3337 -0.5984
 1763SOL    HW216926   4.056   3.786  17.383 -2.6577  1.5564  0.1445
 1764SOL     OW16927   0.331   0.281   9.282  0.2011  0.6657 -0.3144
 1764SOL    HW116928   0.240   0.264   9.306  0.4859 -1.5802 -0.8969
 1764SOL    HW216929   0.376   0.216   9.336  0.5440  0.5273 -0.7678
 1765SOL     OW16930   0.144   2.557  13.111 -0.5866  0.1874  0.3707
 1765SOL    HW116931   0.119   2.513  13.193  0.4943 -0.8908  0.1185
 1765SOL    HW216932   0.188   2.485  13.066  1.6303  1.2980  0.7669
 1766SOL     OW16933   0.951   1.771  17.454 -0.4341  0.0355  0.1541
 1766SOL    HW116934   0.947   1.866  17.470 -1.8810  0.3528 -2.0003
 1766SOL    HW216935   0.943   1.738  17.544 -0.5276 -1.5863 -0.4484
 1767SOL     OW16936   2.214   2.041   0.138 -0.4155  0.2345  0.4300
 1767SOL    HW116937   2.202   2.136   0.144 -1.1404  0.2629 -1.4163
 1767SOL    HW216938   2.295   2.037   0.187 -1.2763  0.6724  1.8914
 1768SOL     OW16939   2.908   1.473   1.341 -0.1081  0.3422  0.1259
 1768SOL    HW116940   2.903   1.563   1.309 -1.1980  0.1925 -0.1307
 1768SOL    HW216941   2.820   1.445   1.316 -0.4689  2.7905 -1.3377
 1769SOL     OW16942   2.861   2.834   5.363 -0.3814 -0.7328  0.3293
 1769SOL    HW116943   2.787   2.803   5.311 -1.1513 -0.0078  1.0017
 1769SOL    HW216944   2.884   2.920   5.329 -3.0832  0.5676  1.8337
 1770SOL     OW16945   4.138   0.343   3.389 -0.1471  0.6754  0.4963
 1770SOL    HW116946   4.113   0.305   3.305  0.5223  2.1324 -0.3617
 1770SOL    HW216947   4.175   0.267   3.434  0.9564  0.6531 -0.4613
 1771SOL     OW16948   1.599   2.062  13.433 -0.3023 -0.0316 -0.3790
 1771SOL    HW116949   1.587   1.975  13.394  0.2913 -0.2786 -0.0094
 1771SOL    HW216950   1.641   2.033  13.515  1.3590  0.7776 -0.9587
 1772SOL     OW16951   4.154   2.871   9.480  0.7346 -0.2776  0.0145
 1772SOL    HW116952   4.070   2.910   9.505  1.1653  0.1913  0.7615
 1772SOL    HW216953   4.209   2.949   9.467  3.2364 -1.8294  1.3343
 1773SOL     OW16954   3.639   0.009   7.265 -0.0345 -0.0792 -0.1116
 1773SOL    HW116955   3.585   4.676   7.304  0.2789 -1.2963 -1.8537
 1773SOL    HW216956   3.587   0.023   7.186 -0.0479  1.3677  0.1600
 1774SOL     OW16957   0.665   2.096   5.724  0.1769 -0.1483 -0.1014
 1774SOL    HW116958   0.638   2.089   5.633  0.9175 -3.2917 -0.0970
 1774SOL    HW216959   0.757   2.075   5.715  0.3634 -0.2480  1.9037
 1775SOL     OW16960   1.858   3.017   9.824  0.4741 -0.0248  0.0341
 1775SOL    HW116961   1.772   3.011   9.865  0.4233  2.7774  0.3465
 1775SOL    HW216962   1.889   3.106   9.840 -2.1296  0.8309  0.2992
 1776SOL     OW16963   3.381   4.617   3.210  0.1225  0.3046  0.0744
 1776SOL    HW116964   3.438   4.541   3.194  0.6064  0.0272  3.0505
 1776SOL    HW216965   3.419   4.655   3.289  0.7306 -1.2336  0.5264
 1777SOL     OW16966   4.068   1.127  15.888 -0.9440  0.2803 -0.2160
 1777SOL    HW116967   4.023   1.208  15.912  0.5150  0.0220  3.4665
 1777SOL    HW216968   3.999   1.061  15.897 -0.0413 -0.7810 -1.0426
 1778SOL     OW16969   3.866   0.408   4.545  0.1468 -0.5660 -0.5801
 1778SOL    HW116970   3.960   0.416   4.529  0.6102 -2.4473  1.1129
 1778SOL    HW216971   3.851   0.321   4.583  0.6261 -0.6124 -0.4870
 1779SOL     OW16972   3.102   1.211   9.297  0.2343 -0.6599  0.3367
 1779SOL    HW116973   3.031   1.148   9.282  0.0008  0.1263 -1.8523
 1779SOL    HW216974   3.073   1.285   9.244 -1.9653 -1.3151  0.6461
 1780SOL     OW16975   0.329   2.997   2.273 -0.2376 -0.4555  0.4407
 1780SOL    HW116976   0.379   3.072   2.241 -0.4394  0.0435  1.3055
 1780SOL    HW216977   0.335   3.010   2.367  1.4877 -3.8329  0.8119
 1781SOL     OW16978   0.969   0.222   7.959  0.1632 -0.5187 -0.2624
 1781SOL    HW116979   0.932   0.146   8.004 -0.1500  0.7487  1.6528
 1781SOL    HW216980   0.936   0.297   8.009 -0.9229 -0.9519 -0.3287
 1782SOL     OW16981   3.584   3.653   5.950  0.1173 -0.1206 -0.2101
 1782SOL    HW116982   3.589   3.566   5.910 -0.0955  0.3184 -1.1993
 1782SOL    HW216983   3.673   3.687   5.937  1.1873 -2.2023  1.7246
 1783SOL     OW16984   1.529   3.937   7.068 -0.2033  0.2712  0.4370
 1783SOL    HW116985   1.438   3.954   7.091 -0.3001 -0.2333  0.4273
 1783SOL    HW216986   1.527   3.896   6.981 -0.4540  1.5093 -0.1379
 1784SOL     OW16987   0.825   4.393   2.823  0.6449  0.0182  0.0894
 1784SOL    HW116988   0.739   4.429   2.845  0.7966  1.4672 -1.6394
 1784SOL    HW216989   0.885   4.468   2.819  3.0762 -1.6998  4.2179
 1785SOL     OW16990   2.459   1.605   2.308  0.5781  0.2250 -0.0244
 1785SOL    HW116991   2.373   1.644   2.298  0.8934  0.9098 -0.0704
 1785SOL    HW216992   2.488   1.644   2.390  0.4101  0.0653  0.1105
 1786SOL     OW16993   0.931   1.833   4.905  0.1955  0.2579 -0.2060
 1786SOL    HW116994   0.922   1.743   4.875 -0.8500  0.9095 -1.8266
 1786SOL    HW216995   0.955   1.885   4.828  0.0824  1.0596  0.2966
 1787SOL     OW16996   1.316   1.568   5.054  0.1643  0.0720 -0.1215
 1787SOL    HW116997   1.319   1.605   5.143  0.7372  1.7509 -0.8342
 1787SOL    HW216998   1.405   1.534   5.049  0.8636  1.6942  1.2682
 1788SOL     OW16999   3.103   2.092   4.484  0.9018 -0.0194  0.4683
 1788SOL    HW117000   3.176   2.078   4.544  1.1968  0.6469  0.2656
 1788SOL    HW217001   3.047   2.025   4.521 -0.9933  0.2867 -1.8548
 1789SOL     OW17002   0.222   0.865   2.546  0.1260 -0.0517 -0.1475
 1789SOL    HW117003   0.182   0.937   2.498 -1.2506 -2.3330 -2.4106
 1789SOL    HW217004   0.297   0.841   2.491 -0.5425 -0.9395 -0.6819
 1790SOL     OW17005   2.034   3.127   8.654 -0.5625 -0.2335 -0.8396
 1790SOL    HW117006   2.062   3.036   8.644 -1.4671 -0.6620  0.5507
 1790SOL    HW217007   1.988   3.126   8.570  0.5460 -0.6111 -1.4360
 1791SOL     OW17008   3.378   3.285  12.820  0.1403  0.1168  0.0495
 1791SOL    HW117009   3.424   3.311  12.739  2.9637  0.1010  1.6420
 1791SOL    HW217010   3.409   3.194  12.823 -1.9049 -0.6319 -1.3583
 1792SOL     OW17011   1.571   1.657   0.357  0.8642 -0.0197 -0.3058
 1792SOL    HW117012   1.488   1.697   0.332  0.6215  0.2986  1.0033
 1792SOL    HW217013   1.632   1.708   0.304  0.2862 -2.5565 -3.3680
 1793SOL     OW17014   0.447   1.391  12.015 -0.0078  0.2826  0.7338
 1793SOL    HW117015   0.362   1.357  12.044 -0.7104  0.4827 -1.0899
 1793SOL    HW217016   0.423   1.466  11.960 -0.8935 -0.1702  0.5053
 1794SOL     OW17017   0.436   3.596   6.852  0.4978  0.0567  0.6994
 1794SOL    HW117018   0.504   3.536   6.884 -0.8851 -0.7176  2.2248
 1794SOL    HW217019   0.376   3.607   6.926 -1.2131  0.8025 -0.8195
 1795SOL     OW17020   1.646   3.916  14.973  0.2576 -0.0375 -0.1575
 1795SOL    HW117021   1.718   3.881  14.920  1.2509  2.9571 -0.7560
 1795SOL    HW217022   1.624   3.996  14.926  2.3273  0.5738 -0.0712
 1796SOL     OW17023   4.601   0.045  16.640 -0.5698  0.7591  0.4248
 1796SOL    HW117024   4.611   4.691  16.672  0.1711  0.6805 -0.0458
 1796SOL    HW217025   4.693   0.062  16.623 -0.0938  0.8009  3.0283
 1797SOL     OW17026   0.711   3.922   7.299 -0.3661 -0.7223 -0.9418
 1797SOL    HW117027   0.705   3.939   7.205  1.4250  0.7462 -0.7924
 1797SOL    HW217028   0.780   3.855   7.301  0.9343  0.6897  1.3687
 1798SOL     OW17029   3.861   0.719   2.374  0.4162  0.0679  0.1044
 1798SOL    HW117030   3.890   0.806   2.401  0.6657  0.1939 -0.5923
 1798SOL    HW217031   3.768   0.732   2.353  0.4073 -1.1140 -0.5615
 1799SOL     OW17032   4.709   2.465   2.714  0.0425 -0.1752  0.0105
 1799SOL    HW117033   4.677   2.380   2.743  0.9102 -0.5251 -0.0359
 1799SOL    HW217034   4.681   2.529   2.779  0.8424 -0.4536  0.6295
 1800SOL     OW17035   2.378   1.057   6.331 -0.0551 -0.6072  0.1735
 1800SOL    HW117036   2.404   1.115   6.403 -2.4197 -0.2398  0.7427
 1800SOL    HW217037   2.356   1.115   6.258  0.5477 -1.3747 -0.6052
 1801SOL     OW17038   1.485   0.204  12.027  0.1904 -0.5655 -0.0161
 1801SOL    HW117039   1.511   0.113  12.039  0.7397 -0.3033  0.7922
 1801SOL    HW217040   1.569   0.247  12.011 -0.3048  0.2755 -0.3357
 1802SOL     OW17041   1.265   2.049   3.914  0.0458  0.2816 -0.5674
 1802SOL    HW117042   1.335   2.068   3.852  0.6332  3.0238  0.9047
 1802SOL    HW217043   1.288   2.111   3.983 -0.1053  1.3458 -1.4766
 1803SOL     OW17044   3.660   3.005   1.540 -0.4065 -0.1656 -0.0741
 1803SOL    HW117045   3.733   3.024   1.480 -1.3701 -1.2270 -1.5625
 1803SOL    HW217046   3.586   3.022   1.482 -0.9306  0.5627  0.8109
 1804SOL     OW17047   1.818   2.621   0.190 -0.2406  0.1425  0.1732
 1804SOL    HW117048   1.901   2.662   0.215 -0.0618  0.9056 -1.6896
 1804SOL    HW217049   1.780   2.692   0.140  0.4256 -0.6924 -1.5140
 1805SOL     OW17050   4.068   2.987   7.988  0.8593 -0.0727  0.4577
 1805SOL    HW117051   4.124   3.059   7.960 -2.1401  2.2496  0.4583
 1805SOL    HW217052   4.042   2.956   7.901  2.5850 -1.1204  0.2977
 1806SOL     OW17053   3.093   1.604   2.119 -0.3225 -0.1637 -0.7040
 1806SOL    HW117054   3.075   1.615   2.212  2.1370  2.8231 -0.5748
 1806SOL    HW217055   3.004   1.590   2.086 -0.5659  1.4609 -0.7258
 1807SOL     OW17056   3.165   0.413   4.462 -0.2392  0.4381 -0.5906
 1807SOL    HW117057   3.178   0.409   4.556  0.5756  0.7967 -0.6921
 1807SOL    HW217058   3.160   0.507   4.444 -0.5897  0.3808 -0.8079
 1808SOL     OW17059   4.368   1.683  10.114 -0.1405  0.1706  0.0662
 1808SOL    HW117060   4.438   1.731  10.158  0.1868 -1.2240  1.0625
 1808SOL    HW217061   4.365   1.721  10.026 -1.3676 -0.6061 -0.2247
 1809SOL     OW17062   0.988   3.246   5.373  0.8430  0.6775  0.2173
 1809SOL    HW117063   0.948   3.320   5.328 -1.9748 -0.7088  0.4126
 1809SOL    HW217064   1.036   3.293   5.442  0.1914  0.1816  1.0138
 1810SOL     OW17065   3.534   4.320   9.223 -0.4572  0.5489  0.2247
 1810SOL    HW117066   3.558   4.373   9.299  1.7674 -1.4902  0.9362
 1810SOL    HW217067   3.623   4.326   9.189 -0.8648 -1.9017 -1.2684
 1811SOL     OW17068   2.056   2.900   9.047  0.4529 -0.4324  0.3027
 1811SOL    HW117069   2.019   2.958   9.115  0.7315 -0.6138  0.6091
 1811SOL    HW217070   2.119   2.962   9.009  1.1015 -1.8114 -0.8337
 1812SOL     OW17071   1.607   0.639   5.901 -0.1022 -0.2226 -0.0832
 1812SOL    HW117072   1.631   0.713   5.957  1.0648 -0.6388 -0.0370
 1812SOL    HW217073   1.521   0.628   5.942 -0.9180 -1.3488 -2.1388
 1813SOL     OW17074   4.449   3.922   5.776 -0.3974  0.1260  0.1619
 1813SOL    HW117075   4.444   3.979   5.700  0.7404 -1.1341 -0.8585
 1813SOL    HW217076   4.363   3.879   5.772  0.4836 -1.5475 -1.0500
 1814SOL     OW17077   1.622   1.041  16.586  0.0003 -0.1379 -0.2412
 1814SOL    HW117078   1.576   0.997  16.514 -0.5667 -2.3121  1.4724
 1814SOL    HW217079   1.699   1.067  16.536  0.3114 -0.1024  0.2664
 1815SOL     OW17080   1.957   0.405   1.867  0.0762  0.0348 -0.2629
 1815SOL    HW117081   1.944   0.493   1.901 -0.0420  0.2251 -0.8006
 1815SOL    HW217082   1.918   0.403   1.780  1.2992  1.6297 -0.8552
 1816SOL     OW17083   0.175   3.532   8.007 -0.7657 -0.2978 -0.5078
 1816SOL    HW117084   0.234   3.607   8.014  0.6321 -1.1229 -3.4851
 1816SOL    HW217085   0.174   3.530   7.911 -0.7103  0.1801 -0.5166
 1817SOL     OW17086   3.475   4.477   8.091 -0.1238  0.2457  0.1762
 1817SOL    HW117087   3.430   4.562   8.085 -0.9805 -0.4775 -3.3783
 1817SOL    HW217088   3.565   4.498   8.114 -0.1678 -0.1418  0.6873
 1818SOL     OW17089   3.639   4.280   2.832  0.5936 -0.1702  0.2866
 1818SOL    HW117090   3.606   4.347   2.772 -1.0174  0.5970  1.9918
 1818SOL    HW217091   3.567   4.217   2.840 -0.8488  1.3609 -0.5960
 1819SOL     OW17092   4.655   4.701   6.440 -0.0195 -0.2793 -0.0070
 1819SOL    HW117093   4.660   0.031   6.371  0.3890 -0.1798  0.1202
 1819SOL    HW217094   4.731   4.650   6.413  0.5212 -1.5147  3.8252
 1820SOL     OW17095   3.665   1.040   8.144 -0.2051 -0.0069 -0.0236
 1820SOL    HW117096   3.696   1.073   8.060  1.7631 -0.0488  0.6876
 1820SOL    HW217097   3.700   1.105   8.205 -0.8091 -2.7835  3.3214
 1821SOL     OW17098   1.575   0.134  16.863 -0.0719  0.1324 -0.6858
 1821SOL    HW117099   1.564   0.127  16.768  0.7907 -1.1588 -0.7049
 1821SOL    HW217100   1.492   0.093  16.887 -0.5710  0.7577 -1.3869
 1822SOL     OW17101   1.995   0.286   3.684  0.6504  0.4639  0.4784
 1822SOL    HW117102   1.928   0.313   3.747  0.2010 -1.9148  1.0336
 1822SOL    HW217103   1.998   0.367   3.633  1.6123  1.0856  1.5262
 1823SOL     OW17104   1.997   4.301   9.591  0.2961 -0.5549 -0.9938
 1823SOL    HW117105   2.003   4.254   9.508  0.3110 -0.5656 -0.9868
 1823SOL    HW217106   2.059   4.373   9.583  0.6182 -0.5857  1.0814
 1824SOL     OW17107   4.138   4.041   7.303  0.4812 -0.6362 -0.1384
 1824SOL    HW117108   4.145   4.013   7.212 -0.1929  1.0105 -0.6862
 1824SOL    HW217109   4.208   3.987   7.341 -0.2764 -1.2509  0.3686
 1825SOL     OW17110   3.562   0.282   4.615 -0.1332  0.7539 -0.4475
 1825SOL    HW117111   3.542   0.372   4.586 -1.8107  0.1281 -1.2432
 1825SOL    HW217112   3.472   0.249   4.616 -0.4270  1.5131 -1.4014
 1826SOL     OW17113   2.917   2.823  13.162 -0.2208 -0.0953  0.3885
 1826SOL    HW117114   3.008   2.843  13.183 -1.0653  1.6305  2.3919
 1826SOL    HW217115   2.898   2.869  13.080 -0.8144  1.2344  1.2670
 1827SOL     OW17116   4.594   2.751   2.753 -0.3411  0.1705  0.1360
 1827SOL    HW117117   4.505   2.782   2.738 -0.0466  1.3188  0.8040
 1827SOL    HW217118   4.574   2.694   2.827  2.8671 -0.1920  0.7076
 1828SOL     OW17119   1.061   0.761   8.893 -0.5103  0.0378  0.3780
 1828SOL    HW117120   1.128   0.829   8.888  0.8874 -1.4239 -0.5624
 1828SOL    HW217121   1.019   0.777   8.978 -3.6284 -0.6412 -1.0356
 1829SOL     OW17122   2.236   3.734   9.649 -0.1141  0.2037 -0.2037
 1829SOL    HW117123   2.279   3.685   9.578  0.7790  1.8689 -0.8026
 1829SOL    HW217124   2.150   3.707   9.616  0.4869 -0.7881 -0.9493
 1830SOL     OW17125   2.161   3.301   2.842 -0.6763 -0.1770 -0.1654
 1830SOL    HW117126   2.110   3.220   2.845  0.7164 -1.0840 -0.9723
 1830SOL    HW217127   2.093   3.365   2.864 -0.2835  0.8102 -1.8607
 1831SOL     OW17128   3.722   0.543   4.340  0.1515  0.1309  0.0814
 1831SOL    HW117129   3.755   0.482   4.406 -2.2214 -1.3249 -0.1045
 1831SOL    HW217130   3.628   0.534   4.350  0.3068 -1.4148  0.1525
 1832SOL     OW17131   4.684   2.300   0.235  0.1410 -0.3560  0.2039
 1832SOL    HW117132   4.661   2.371   0.295 -1.4635  1.2825 -2.3564
 1832SOL    HW217133   4.611   2.242   0.255 -1.9548  1.4535 -2.1149
 1833SOL     OW17134   4.589   4.121   5.050 -0.0962 -0.2531  0.4816
 1833SOL    HW117135   4.625   4.033   5.062  0.0232 -0.5917 -2.2721
 1833SOL    HW217136   4.498   4.108   5.024  0.0662  1.5885 -1.0666
 1834SOL     OW17137   2.126   3.745   7.530 -0.5008  0.4650 -0.4303
 1834SOL    HW117138   2.076   3.744   7.611 -0.5319  2.1690 -0.4112
 1834SOL    HW217139   2.214   3.776   7.552 -0.8756  0.5589  0.9261
 1835SOL     OW17140   1.208   1.417  12.126 -0.4494 -0.3097  0.7356
 1835SOL    HW117141   1.294   1.383  12.102  0.5842  2.2458  0.8459
 1835SOL    HW217142   1.214   1.395  12.219 -1.9388 -0.2970  0.8331
 1836SOL     OW17143   3.080   4.382  10.044 -0.2054  0.5146 -0.2147
 1836SOL    HW117144   2.986   4.368  10.038 -0.3212  0.9838  0.5471
 1836SOL    HW217145   3.102   4.322  10.115  2.4764  1.7012 -0.0333
 1837SOL     OW17146   0.067   2.667  15.481 -0.2788  0.6284  0.4998
 1837SOL    HW117147   0.088   2.694  15.571 -1.5857  1.4295  0.5631
 1837SOL    HW217148   4.713   2.640  15.497 -0.2771 -0.4338 -1.3145
 1838SOL     OW17149   0.916   1.918  12.591  0.0001  0.1162 -0.0836
 1838SOL    HW117150   0.834   1.915  12.640  0.8839 -0.9889  1.3305
 1838SOL    HW217151   0.892   1.932  12.499  0.1879  0.8909 -0.0203
 1839SOL     OW17152   0.744   1.188   4.871  0.1332 -0.5346 -0.4962
 1839SOL    HW117153   0.834   1.178   4.839 -0.2496 -0.2680 -1.6558
 1839SOL    HW217154   0.749   1.113   4.931  0.8555  0.1484  0.2980
 1840SOL     OW17155   4.367   3.454  17.067 -0.5130 -0.2796  0.7363
 1840SOL    HW117156   4.326   3.513  17.130 -2.4965 -1.6376  0.7256
 1840SOL    HW217157   4.424   3.524  17.034 -1.2229  0.1213  0.3680
 1841SOL     OW17158   1.745   1.986   7.977  0.3374 -0.1287 -0.4130
 1841SOL    HW117159   1.834   1.992   8.011 -0.3956  2.2693  1.0190
 1841SOL    HW217160   1.697   1.979   8.059 -0.4463  0.1308 -0.8484
 1842SOL     OW17161   4.330   2.473   2.847  0.4503  0.1946  0.6468
 1842SOL    HW117162   4.259   2.424   2.805  0.0139  1.6774 -0.3481
 1842SOL    HW217163   4.297   2.563   2.844  0.5993  0.1917 -1.4054
 1843SOL     OW17164   0.022   1.911  11.642 -0.8094  0.3639 -0.5597
 1843SOL    HW117165   0.075   1.960  11.705 -3.3319  2.3417 -0.0099
 1843SOL    HW217166   0.052   1.944  11.558 -0.5468  0.1148 -0.5640
 1844SOL     OW17167   3.622   4.523  16.217  0.2476  0.0838  0.1464
 1844SOL    HW117168   3.588   4.459  16.279  1.6388  0.2826  1.1029
 1844SOL    HW217169   3.663   4.588  16.275 -1.0846  1.6279 -0.6443
 1845SOL     OW17170   1.627   4.689  15.454 -0.4140 -0.0173  0.0839
 1845SOL    HW117171   1.542   4.657  15.486  0.3974 -1.8637  0.4340
 1845SOL    HW217172   1.680   4.613  15.478 -0.2143 -0.1789 -0.8665
 1846SOL     OW17173   1.546   0.328   1.852 -0.6746 -0.2162  0.1444
 1846SOL    HW117174   1.608   0.292   1.789 -0.5072  1.0544 -0.4159
 1846SOL    HW217175   1.573   0.419   1.868  1.1451 -0.8399  0.6495
 1847SOL     OW17176   2.634   1.411   5.765 -0.1409 -0.4051 -0.2563
 1847SOL    HW117177   2.716   1.448   5.734 -0.1178  1.8995  2.6374
 1847SOL    HW217178   2.645   1.318   5.741 -0.1332  0.3615 -3.2328
 1848SOL     OW17179   1.282   0.055  13.118  0.1117  0.1510 -0.5437
 1848SOL    HW117180   1.198   0.012  13.132  0.2392 -0.7140 -2.4138
 1848SOL    HW217181   1.260   0.101  13.037  0.3681  0.3930 -0.4762
 1849SOL     OW17182   0.863   3.718   5.376  0.0495 -0.0589  0.3128
 1849SOL    HW117183   0.805   3.773   5.323  0.5606  0.3667  0.1885
 1849SOL    HW217184   0.952   3.737   5.347  0.1473 -0.6590  0.2173
 1850SOL     OW17185   3.200   2.074   2.813 -0.2459  0.1511  0.3513
 1850SOL    HW117186   3.160   2.072   2.726 -0.0676 -1.7727  0.3306
 1850SOL    HW217187   3.124   2.089   2.870 -0.4947 -0.5162  0.1891
 1851SOL     OW17188   0.130   3.764   5.178 -0.1311  0.3799  0.2108
 1851SOL    HW117189   0.072   3.764   5.254  2.1383 -0.9733  1.9486
 1851SOL    HW217190   0.207   3.730   5.222  0.1880  1.4642  0.4775
 1852SOL     OW17191   3.906   1.403   5.622 -0.1977 -0.2347  0.0018
 1852SOL    HW117192   3.847   1.363   5.686 -0.2079  1.8129  1.2651
 1852SOL    HW217193   3.980   1.436   5.673 -0.3836  0.1720  0.0107
 1853SOL     OW17194   0.865   2.274   6.120  0.1439  0.1901  0.2109
 1853SOL    HW117195   0.772   2.262   6.134  0.0526  1.3892  0.6397
 1853SOL    HW217196   0.868   2.346   6.057 -0.2170 -1.4375 -1.6855
 1854SOL     OW17197   0.376   3.548   5.592 -0.7029  0.2097 -0.5474
 1854SOL    HW117198   0.397   3.637   5.619  1.7510 -0.7304  0.6131
 1854SOL    HW217199   0.462   3.511   5.574  0.5638  1.7992  2.3105
 1855SOL     OW17200   4.382   2.142   1.153  0.3068  0.8063  0.0875
 1855SOL    HW117201   4.417   2.229   1.174  0.7360  0.7145 -0.2454
 1855SOL    HW217202   4.403   2.097   1.234  2.1649 -2.1284 -2.0459
 1856SOL     OW17203   2.106   1.580  16.856  0.4334  0.2387 -0.5141
 1856SOL    HW117204   2.124   1.486  16.868 -0.0428  0.1495 -0.4626
 1856SOL    HW217205   2.010   1.581  16.853  0.4542  0.3504 -1.0670
 1857SOL     OW17206   0.406   3.466   1.315 -0.2518  0.5346 -0.1419
 1857SOL    HW117207   0.452   3.469   1.399 -3.3712 -1.5307  1.6070
 1857SOL    HW217208   0.324   3.500   1.350  0.0763  2.0757 -0.8467
 1858SOL     OW17209   2.830   2.748  12.772  0.3777  0.2176 -0.7146
 1858SOL    HW117210   2.834   2.801  12.851  0.4807  1.2485 -1.4171
 1858SOL    HW217211   2.758   2.689  12.792  0.4053  1.2098  2.2412
 1859SOL     OW17212   4.344   0.447   1.544 -0.2604  0.5418 -0.3319
 1859SOL    HW117213   4.388   0.403   1.472  1.1761 -0.6709  1.2876
 1859SOL    HW217214   4.266   0.396   1.564  0.5506 -0.6792 -0.3208
 1860SOL     OW17215   4.324   0.566   8.998 -0.0337  0.3327  0.1986
 1860SOL    HW117216   4.251   0.510   8.971  1.2805 -1.0341 -0.5070
 1860SOL    HW217217   4.398   0.507   9.011 -1.3532 -1.0867  1.2104
 1861SOL     OW17218   0.972   1.980   5.146  0.9591  0.0198  0.0825
 1861SOL    HW117219   0.964   1.932   5.064  0.3019  0.1029  0.0994
 1861SOL    HW217220   1.051   1.942   5.185  0.0992 -0.2324  1.5970
 1862SOL     OW17221   3.234   2.675  11.595 -0.3191  0.0906 -0.2746
 1862SOL    HW117222   3.259   2.585  11.574  1.5588  0.3169  1.0395
 1862SOL    HW217223   3.176   2.659  11.669  1.4144  2.4435  1.5504
 1863SOL     OW17224   2.972   1.933   4.185 -0.0016 -0.1384  0.0937
 1863SOL    HW117225   2.966   1.880   4.265  1.6151  1.9227  1.5802
 1863SOL    HW217226   2.878   1.942   4.170 -0.1440  0.4828  1.3513
 1864SOL     OW17227   0.134   0.070   5.680 -0.8304 -0.3459  0.3122
 1864SOL    HW117228   0.190   0.144   5.658 -0.0769 -0.8169  0.5980
 1864SOL    HW217229   0.084   0.086   5.760 -0.8163  1.8007 -0.1236
 1865SOL     OW17230   2.818   0.325  14.261  0.2292 -0.0834 -0.1510
 1865SOL    HW117231   2.780   0.266  14.327 -0.3169  0.1779 -0.2271
 1865SOL    HW217232   2.742   0.347  14.207 -1.0610  1.4932  2.3160
 1866SOL     OW17233   1.230   3.870   6.240 -0.3832 -0.0978 -0.6229
 1866SOL    HW117234   1.140   3.838   6.246 -0.2454 -0.6963 -1.6336
 1866SOL    HW217235   1.225   3.916   6.324 -1.0099  0.1773 -0.8131
 1867SOL     OW17236   2.482   2.454   5.303 -0.1864 -0.2232 -0.0072
 1867SOL    HW117237   2.472   2.412   5.388  0.2405  0.1089  0.2097
 1867SOL    HW217238   2.457   2.385   5.241 -1.9344  1.3168 -0.9905
 1868SOL     OW17239   3.881   2.214   6.324 -0.3371 -0.1416 -0.1879
 1868SOL    HW117240   3.878   2.209   6.419 -1.3774  1.2856 -0.1533
 1868SOL    HW217241   3.788   2.229   6.310 -0.7012 -1.3402  1.0128
 1869SOL     OW17242   0.013   4.551   1.545 -0.0495  0.7484  0.3366
 1869SOL    HW117243   4.660   4.577   1.521 -0.8520 -1.3695  1.0148
 1869SOL    HW217244   0.065   4.630   1.527 -0.7489  1.1914  0.2892
 1870SOL     OW17245   2.619   2.242  12.355 -0.0321  0.5117  0.0326
 1870SOL    HW117246   2.653   2.200  12.276 -0.5879  3.9442 -2.0462
 1870SOL    HW217247   2.542   2.191  12.377  0.8747 -1.2356 -0.8439
 1871SOL     OW17248   2.290   2.540   4.532  0.5623  0.3736  0.5398
 1871SOL    HW117249   2.212   2.564   4.481  0.8082 -1.9905 -0.9441
 1871SOL    HW217250   2.347   2.493   4.470  0.7536 -0.0339  1.0291
 1872SOL     OW17251   4.050   3.657   4.506  0.0102 -0.2902  0.2651
 1872SOL    HW117252   4.105   3.584   4.476  2.0658  2.7114 -3.2878
 1872SOL    HW217253   4.010   3.612   4.580  1.5171  0.8203  1.7449
 1873SOL     OW17254   2.258   0.560  13.461 -0.8399 -0.5436  0.7322
 1873SOL    HW117255   2.206   0.612  13.399 -0.7142 -1.1225  0.1408
 1873SOL    HW217256   2.277   0.482  13.409 -0.1518 -0.5279  0.9576
 1874SOL     OW17257   2.103   2.161  10.836  0.3044 -0.2948 -0.4761
 1874SOL    HW117258   2.169   2.217  10.878 -0.6407  0.3150  0.1885
 1874SOL    HW217259   2.117   2.171  10.742  4.4550  0.5393  0.2082
 1875SOL     OW17260   3.017   0.392  12.348 -0.9212  0.2729  0.0565
 1875SOL    HW117261   2.970   0.318  12.387 -0.0446 -0.1289  0.3605
 1875SOL    HW217262   3.017   0.349  12.262 -1.3657  0.7311 -0.1732
 1876SOL     OW17263   4.431   1.602  15.221 -1.2236  0.0323 -0.3620
 1876SOL    HW117264   4.447   1.673  15.159 -2.2768 -0.5366 -1.2779
 1876SOL    HW217265   4.337   1.599  15.210 -1.3529 -0.6750  0.8852
 1877SOL     OW17266   1.053   1.627   7.116 -0.6168  0.3698  0.1081
 1877SOL    HW117267   1.075   1.560   7.180  0.8272  1.3290  0.6070
 1877SOL    HW217268   1.046   1.577   7.035  0.8295  1.4944 -0.7066
 1878SOL     OW17269   3.220   3.470  11.805  0.0655 -0.3341  0.2805
 1878SOL    HW117270   3.198   3.382  11.775  0.2286 -0.0918 -0.5322
 1878SOL    HW217271   3.237   3.511  11.721 -1.2183 -3.1927 -1.3761
 1879SOL     OW17272   1.904   0.617  15.426  0.1354  0.3348  0.3078
 1879SOL    HW117273   1.848   0.548  15.390 -0.7510  1.1234  0.1655
 1879SOL    HW217274   1.957   0.630  15.347 -0.3427  3.6608  0.5379
 1880SOL     OW17275   1.205   3.282   7.206 -0.3907  0.3676  0.3642
 1880SOL    HW117276   1.112   3.287   7.184 -0.2832 -2.4314 -0.6674
 1880SOL    HW217277   1.220   3.374   7.229 -0.3037  0.4339  0.0332
 1881SOL     OW17278   0.839   0.351   4.185 -0.4152 -0.0604  0.0652
 1881SOL    HW117279   0.779   0.415   4.146 -3.2744 -2.0841  1.1122
 1881SOL    HW217280   0.783   0.326   4.259  2.6021 -0.9059  2.0645
 1882SOL     OW17281   2.739   0.100   1.498 -0.1908  0.1776 -0.0782
 1882SOL    HW117282   2.702   0.156   1.429  0.1955 -0.4687 -0.8132
 1882SOL    HW217283   2.670   0.034   1.499  0.2416 -0.2363  1.6296
 1883SOL     OW17284   1.140   1.701   4.002  0.6546  0.4838 -0.0046
 1883SOL    HW117285   1.155   1.614   3.964 -0.4164 -0.9962  3.0004
 1883SOL    HW217286   1.225   1.744   4.005  0.5005  0.9018 -1.7221
 1884SOL     OW17287   1.459   0.961   1.140 -0.0091 -0.1395 -0.1409
 1884SOL    HW117288   1.519   0.900   1.183  0.5180 -0.3069 -1.1215
 1884SOL    HW217289   1.391   0.977   1.205 -0.5671  0.2222 -0.8198
 1885SOL     OW17290   1.398   4.396   4.356 -0.4202  0.0089 -0.6519
 1885SOL    HW117291   1.374   4.374   4.446  0.3323  0.0888 -0.4329
 1885SOL    HW217292   1.317   4.373   4.309 -0.9245  0.6886 -0.1122
 1886SOL     OW17293   1.774   4.356  17.657  0.0797  0.2008 -0.3459
 1886SOL    HW117294   1.739   4.353  17.568 -1.7825 -0.8382  0.4169
 1886SOL    HW217295   1.855   4.306  17.663 -1.6148 -2.4470  0.7057
 1887SOL     OW17296   2.278   2.041  13.725  0.3096 -0.3569 -0.2088
 1887SOL    HW117297   2.283   2.007  13.636  1.7693 -1.4278  0.2891
 1887SOL    HW217298   2.252   1.971  13.784 -2.2672 -0.9135 -2.0199
 1888SOL     OW17299   4.279   3.426  11.510  0.3651 -0.4099  0.0058
 1888SOL    HW117300   4.302   3.335  11.531  0.3315  0.4456  3.7606
 1888SOL    HW217301   4.183   3.434  11.508  0.4387  0.4658  0.0036
 1889SOL     OW17302   0.232   1.712  16.511  0.0179 -0.7235 -0.0780
 1889SOL    HW117303   0.241   1.713  16.606  0.5637 -0.4347 -0.1347
 1889SOL    HW217304   0.323   1.692  16.490 -0.2758 -0.3953 -1.6655
 1890SOL     OW17305   4.591   0.031   5.174 -0.0463  0.3120 -0.0810
 1890SOL    HW117306   4.577   0.041   5.268  2.1349 -2.0345  0.4574
 1890SOL    HW217307   4.530   0.086   5.124  2.2273  0.4764 -2.6530
 1891SOL     OW17308   3.298   3.609   8.564 -0.2646  1.1933  0.1253
 1891SOL    HW117309   3.284   3.655   8.647 -0.7460 -1.8818  1.7497
 1891SOL    HW217310   3.339   3.681   8.515  0.4318  0.0912 -0.8972
 1892SOL     OW17311   3.946   4.334   3.312 -0.1427 -0.3573  0.3380
 1892SOL    HW117312   3.887   4.330   3.237 -0.4438 -0.9970  0.6106
 1892SOL    HW217313   3.905   4.409   3.356 -0.6250 -0.1043 -0.5506
 1893SOL     OW17314   1.119   4.556  16.838 -0.1895  0.2241  0.2570
 1893SOL    HW117315   1.104   4.573  16.931  2.0025  3.1939  0.0911
 1893SOL    HW217316   1.044   4.604  16.805 -0.0002  0.0107 -0.4738
 1894SOL     OW17317   4.309   0.768  14.223  0.1365  0.4136 -0.5207
 1894SOL    HW117318   4.360   0.807  14.152  0.0236 -1.7000 -1.7830
 1894SOL    HW217319   4.234   0.827  14.229 -0.2503 -0.1373  0.0903
 1895SOL     OW17320   1.908   3.897   8.783 -0.5401 -0.5808 -0.3614
 1895SOL    HW117321   1.961   3.887   8.862 -0.3010  2.6290 -0.1125
 1895SOL    HW217322   1.828   3.945   8.803 -0.1078 -1.0318  2.4332
 1896SOL     OW17323   0.595   1.329   4.572 -0.0162 -0.0234  0.1048
 1896SOL    HW117324   0.572   1.339   4.664 -2.5026  1.4425 -0.6848
 1896SOL    HW217325   0.683   1.292   4.568 -0.9842 -2.4272  0.9419
 1897SOL     OW17326   1.096   0.109   4.477  0.1404 -0.4582  0.2992
 1897SOL    HW117327   1.118   0.020   4.451 -0.6715 -0.6035  0.1276
 1897SOL    HW217328   1.175   0.162   4.466 -0.4446  0.3960  0.2291
 1898SOL     OW17329   1.999   1.529   3.543 -0.0515 -0.0081 -0.3059
 1898SOL    HW117330   2.065   1.459   3.538 -0.1134 -0.1268  0.6212
 1898SOL    HW217331   2.065   1.597   3.559  0.3636 -0.7418  1.1392
 1899SOL     OW17332   2.815   4.154   6.328 -0.2235 -0.3550  0.0658
 1899SOL    HW117333   2.837   4.247   6.338 -0.8020  0.0973 -2.7112
 1899SOL    HW217334   2.820   4.146   6.233  0.6098  1.1138 -0.0168
 1900SOL     OW17335   4.498   0.588  15.463 -0.2909 -0.4350  0.5175
 1900SOL    HW117336   4.582   0.634  15.452 -0.3448 -0.8435 -1.5406
 1900SOL    HW217337   4.526   0.497  15.454 -0.8167 -0.2709 -2.6663
 1901SOL     OW17338   4.077   1.956   6.947 -0.1177  0.4188  0.6435
 1901SOL    HW117339   4.034   1.975   7.030 -0.5358 -2.5483  1.1049
 1901SOL    HW217340   4.161   1.997   6.967  1.6449 -0.8496 -4.3391
 1902SOL     OW17341   3.493   3.237   7.904  0.1689  0.2317  0.4157
 1902SOL    HW117342   3.567   3.185   7.936 -0.0882  0.0787  0.7651
 1902SOL    HW217343   3.436   3.238   7.982  1.5761  2.2695  1.4223
 1903SOL     OW17344   1.305   3.410   9.503 -0.7425  0.2491  0.1130
 1903SOL    HW117345   1.251   3.336   9.474  0.1713 -0.8116  1.1279
 1903SOL    HW217346   1.241   3.478   9.521  0.1174  0.7112  1.4694
 1904SOL     OW17347   1.099   2.035  11.822  0.4566  0.0123 -0.5001
 1904SOL    HW117348   1.026   1.977  11.844 -0.4902  0.7658 -1.6846
 1904SOL    HW217349   1.096   2.025  11.727 -1.2702  1.4978 -0.5956
 1905SOL     OW17350   2.738   1.631   6.122  0.1313  0.3225  0.1699
 1905SOL    HW117351   2.697   1.647   6.207  1.1501 -1.7343  1.0461
 1905SOL    HW217352   2.771   1.542   6.138  1.2632  0.5752 -0.7436
 1906SOL     OW17353   0.504   2.116   1.303 -0.6770  0.3989 -0.3795
 1906SOL    HW117354   0.520   2.048   1.368 -0.3383  1.7610  0.9485
 1906SOL    HW217355   0.576   2.100   1.242  2.1434  3.4460  2.1412
 1907SOL     OW17356   2.106   1.020   3.831  0.0824 -0.3491  0.3700
 1907SOL    HW117357   2.196   1.024   3.800  0.0886 -2.1838  0.1648
 1907SOL    HW217358   2.111   1.084   3.902 -0.9245 -0.0911  0.2138
 1908SOL     OW17359   1.266   4.596  15.861 -0.0633 -0.2754  0.3270
 1908SOL    HW117360   1.271   4.544  15.941  0.8832  1.0177  1.1116
 1908SOL    HW217361   1.196   4.660  15.874  0.0873  0.1421 -0.8687
 1909SOL     OW17362   0.926   0.096   3.862  0.1159  0.5955 -0.2538
 1909SOL    HW117363   1.018   0.103   3.837 -0.4001 -1.2151 -2.7288
 1909SOL    HW217364   0.920   0.123   3.954 -0.5122  1.0511 -0.4338
 1910SOL     OW17365   2.029   3.630   2.388 -0.3595  0.2987  0.4275
 1910SOL    HW117366   2.118   3.617   2.422  0.1807 -0.4465 -1.2831
 1910SOL    HW217367   2.034   3.579   2.307 -3.8271  1.4757 -0.5021
 1911SOL     OW17368   3.447   2.680   7.278  0.1680  0.2074  0.3756
 1911SOL    HW117369   3.375   2.650   7.222  0.1768  0.4597  0.2289
 1911SOL    HW217370   3.400   2.727   7.347  0.8448  1.1770  0.1746
 1912SOL     OW17371   0.015   4.018   6.813 -0.0766  0.3470  0.4139
 1912SOL    HW117372   0.091   4.061   6.851 -1.0180  2.4651 -0.1153
 1912SOL    HW217373   0.053   3.981   6.733 -1.4431  2.3286 -1.1567
 1913SOL     OW17374   0.014   2.686   3.678 -0.0150  0.4997  0.3944
 1913SOL    HW117375   0.028   2.667   3.585 -0.1435  2.7738 -0.1036
 1913SOL    HW217376   0.079   2.755   3.695  0.2064 -0.1908  2.3780
 1914SOL     OW17377   1.457   0.096   9.474 -0.2623  0.3676 -0.1331
 1914SOL    HW117378   1.461   0.055   9.560 -0.1231  2.6680  0.9603
 1914SOL    HW217379   1.519   0.168   9.486 -2.2383  1.9944  0.3074
 1915SOL     OW17380   2.828   1.306  16.562 -0.2262 -0.0330  0.1027
 1915SOL    HW117381   2.816   1.401  16.555 -0.6777 -0.0905  0.1244
 1915SOL    HW217382   2.748   1.260  16.536  0.3979 -0.5347 -0.9079
 1916SOL     OW17383   3.062   3.154   3.933 -0.2853 -0.2720  0.5736
 1916SOL    HW117384   3.031   3.071   3.968  0.6054 -0.4776  0.8779
 1916SOL    HW217385   3.003   3.166   3.859  1.2224  0.8872 -0.4521
 1917SOL     OW17386   2.061   2.200   7.190 -0.5921 -0.4235 -0.4518
 1917SOL    HW117387   2.084   2.126   7.246 -1.3764 -0.3829 -0.0773
 1917SOL    HW217388   2.149   2.235   7.180 -1.6553  2.2451 -0.3545
 1918SOL     OW17389   3.795   1.609   5.012  0.4962 -0.5528 -0.2158
 1918SOL    HW117390   3.723   1.628   4.952  1.7951  1.8637 -0.9957
 1918SOL    HW217391   3.750   1.561   5.082  0.4313  0.7153  0.6062
 1919SOL     OW17392   3.788   1.521   6.777 -0.0859  0.0571 -0.0585
 1919SOL    HW117393   3.805   1.601   6.827 -0.7954 -0.4148  0.9504
 1919SOL    HW217394   3.874   1.480   6.770 -0.0909  0.1888 -0.9100
 1920SOL     OW17395   4.159   1.754  13.089  0.6058 -0.3826 -0.2288
 1920SOL    HW117396   4.132   1.842  13.111  0.2270 -0.3907 -0.6550
 1920SOL    HW217397   4.251   1.768  13.066  0.1889  0.5692 -1.3071
 1921SOL     OW17398   2.740   2.843  14.750 -0.5077  0.0255  0.0205
 1921SOL    HW117399   2.816   2.785  14.740 -0.0221  0.2193  2.5490
 1921SOL    HW217400   2.701   2.855  14.664 -0.4850  1.0005  0.1373
 1922SOL     OW17401   3.722   2.642  13.952  0.0357  0.0106  0.2388
 1922SOL    HW117402   3.762   2.570  14.001 -4.0404 -1.5298  1.2701
 1922SOL    HW217403   3.791   2.708  13.944  1.5146 -1.8783 -2.2108
 1923SOL     OW17404   4.690   3.056   2.526  0.3369 -0.6139  0.5323
 1923SOL    HW117405   0.004   2.998   2.583 -2.0732 -3.0214  0.1686
 1923SOL    HW217406   0.021   3.122   2.506 -2.0419  0.8689 -2.4682
 1924SOL     OW17407   2.083   1.500  15.829 -0.2966  0.2002  0.2474
 1924SOL    HW117408   2.065   1.410  15.855  1.1435 -0.1530  0.0267
 1924SOL    HW217409   1.999   1.543  15.846 -0.4284  0.0784 -0.0987
 1925SOL     OW17410   0.909   4.038   2.671  0.1542  0.3780 -0.1573
 1925SOL    HW117411   0.821   4.026   2.636 -0.1253 -0.1897  0.7525
 1925SOL    HW217412   0.941   4.115   2.624 -0.2267  1.0856  0.7523
 1926SOL     OW17413   3.149   1.034  12.244  0.0298  0.4724  0.0746
 1926SOL    HW117414   3.056   1.021  12.262  0.5132 -2.3932  0.6115
 1926SOL    HW217415   3.189   0.985  12.316  0.3905  0.6630  0.0042
 1927SOL     OW17416   1.083   2.678  17.505  0.6104 -0.3660  0.0500
 1927SOL    HW117417   1.167   2.667  17.549  0.6957 -1.3074 -0.3466
 1927SOL    HW217418   1.052   2.754  17.553 -0.5967 -1.2538  0.6994
 1928SOL     OW17419   4.500   4.120   8.366  0.5829 -0.3670  0.0371
 1928SOL    HW117420   4.416   4.165   8.360  1.0025  0.2133 -1.6893
 1928SOL    HW217421   4.543   4.183   8.424 -1.3635 -0.1036  1.1731
 1929SOL     OW17422   2.800   4.574  15.625 -0.6525 -0.2604 -0.2381
 1929SOL    HW117423   2.710   4.592  15.653  0.7579  0.8776  3.4773
 1929SOL    HW217424   2.815   4.668  15.616  0.2533 -0.5203 -1.3768
 1930SOL     OW17425   1.581   0.011   0.636 -0.3235  0.5133  0.5026
 1930SOL    HW117426   1.525   4.670   0.647  0.1935  0.0516 -0.0989
 1930SOL    HW217427   1.651   4.713   0.581 -1.7339 -0.0087 -0.9685
 1931SOL     OW17428   4.487   0.241   6.085  0.3644  0.1765 -0.0147
 1931SOL    HW117429   4.430   0.176   6.043 -0.3038  0.1954  0.8649
 1931SOL    HW217430   4.452   0.327   6.063 -0.8841 -1.0445 -2.8265
 1932SOL     OW17431   3.450   4.234   5.382 -0.1100  0.4634 -0.6331
 1932SOL    HW117432   3.405   4.230   5.466 -0.7161 -1.1281 -1.0307
 1932SOL    HW217433   3.430   4.317   5.338  1.7123  0.2139 -1.9594
 1933SOL     OW17434   1.297   3.572   3.025  0.0200  0.0056 -0.2282
 1933SOL    HW117435   1.367   3.632   3.000 -0.1794  0.1810 -0.3675
 1933SOL    HW217436   1.304   3.573   3.120  3.2319 -1.9931 -0.4365
 1934SOL     OW17437   4.623   1.630   9.217 -0.4062 -0.3382 -0.0198
 1934SOL    HW117438   4.617   1.535   9.232  0.0264 -0.3599  0.0290
 1934SOL    HW217439   4.716   1.635   9.243 -0.1325  0.8272 -1.2640
 1935SOL     OW17440   1.905   2.506   3.524  0.2973 -0.1019  0.4122
 1935SOL    HW117441   1.993   2.487   3.555  0.3686  0.2138  0.4017
 1935SOL    HW217442   1.885   2.422   3.483 -0.0762 -0.3980  1.1955
 1936SOL     OW17443   2.920   4.437  13.074 -0.1834 -0.2342  0.4743
 1936SOL    HW117444   2.877   4.521  13.059 -1.0921 -0.8231 -0.2390
 1936SOL    HW217445   2.992   4.455  13.134  0.8285 -2.3220 -0.1274
 1937SOL     OW17446   3.257   1.519   1.448  0.0198 -0.0659 -0.0160
 1937SOL    HW117447   3.288   1.456   1.512  1.3229  2.6282  2.0148
 1937SOL    HW217448   3.275   1.599   1.497 -0.6492  0.3672 -0.4656
 1938SOL     OW17449   2.557   4.308   8.981  0.1238  0.8793  0.3131
 1938SOL    HW117450   2.512   4.340   9.059  0.2964 -1.1212  1.2195
 1938SOL    HW217451   2.628   4.372   8.977 -0.2809  1.2186 -1.6923
 1939SOL     OW17452   1.868   1.669  14.506  0.6800 -0.0097 -0.2056
 1939SOL    HW117453   1.810   1.725  14.455  0.2852 -0.1233  0.1224
 1939SOL    HW217454   1.877   1.597  14.444  2.3690  0.3485 -0.3780
 1940SOL     OW17455   4.176   3.278   0.417  0.0134 -0.3686 -0.4663
 1940SOL    HW117456   4.155   3.365   0.384  0.2583  0.0889  0.6121
 1940SOL    HW217457   4.126   3.280   0.498  0.4302 -0.2857 -0.2143
 1941SOL     OW17458   1.371   1.765  15.400  0.3247 -0.0021 -0.6991
 1941SOL    HW117459   1.344   1.793  15.487  1.0383 -2.1499  0.2010
 1941SOL    HW217460   1.352   1.672  15.410 -0.0698  0.1800  0.2427
 1942SOL     OW17461   2.084   1.238   5.780 -0.0787  0.1707 -0.0117
 1942SOL    HW117462   2.133   1.286   5.846  0.3330 -1.5150  0.9057
 1942SOL    HW217463   2.083   1.304   5.711  0.8899 -0.8757 -1.0354
 1943SOL     OW17464   3.899   0.434   7.421 -0.0789 -0.3686 -0.6036
 1943SOL    HW117465   3.898   0.508   7.482 -0.7381  0.4592 -1.6312
 1943SOL    HW217466   3.901   0.479   7.337 -0.1161 -1.6573 -1.2809
 1944SOL     OW17467   3.361   3.286  12.155  0.0593  0.0124 -0.6947
 1944SOL    HW117468   3.332   3.225  12.088 -0.0676 -2.0366  1.2540
 1944SOL    HW217469   3.394   3.362  12.107  0.6025  0.6745  0.7166
 1945SOL     OW17470   1.524   0.540   1.145  0.0610  0.1198  0.0380
 1945SOL    HW117471   1.515   0.445   1.146 -2.4414  0.3553  0.9623
 1945SOL    HW217472   1.564   0.554   1.059 -0.7557 -1.0995 -0.5411
 1946SOL     OW17473   2.023   3.121  12.356  0.2545  0.4326 -0.1009
 1946SOL    HW117474   1.958   3.094  12.291 -0.3389 -0.4919  0.8809
 1946SOL    HW217475   2.100   3.100  12.303  0.2013 -1.7462  0.6771
 1947SOL     OW17476   3.143   3.381  11.229 -0.1299  0.4046 -0.0788
 1947SOL    HW117477   3.237   3.391  11.213 -0.5019  4.1276 -0.0714
 1947SOL    HW217478   3.116   3.292  11.207  0.4081  0.0957  0.5018
 1948SOL     OW17479   0.805   3.953  15.966  0.7591  0.1714 -0.2124
 1948SOL    HW117480   0.856   3.958  16.046  0.3260 -3.2518  0.2756
 1948SOL    HW217481   0.731   4.010  15.990  1.1552  0.4013  0.4356
 1949SOL     OW17482   3.449   1.635   6.297 -0.1241  0.7576  0.6319
 1949SOL    HW117483   3.501   1.683   6.233  0.0797  0.1825  0.3729
 1949SOL    HW217484   3.519   1.583   6.336 -0.6901 -0.3001  0.2573
 1950SOL     OW17485   3.468   3.700   3.962 -0.0854 -0.7366  0.6131
 1950SOL    HW117486   3.539   3.674   4.020  1.5546 -2.3303 -2.1702
 1950SOL    HW217487   3.515   3.769   3.916  1.2780 -1.6511  0.6385
 1951SOL     OW17488   0.883   1.115  17.208  0.3193 -0.0293 -0.4475
 1951SOL    HW117489   0.937   1.078  17.277  1.6926 -0.0034 -1.5074
 1951SOL    HW217490   0.873   1.207  17.231 -0.4587 -0.1668 -0.2447
 1952SOL     OW17491   2.629   4.236   7.921 -0.2419  0.1688  0.2245
 1952SOL    HW117492   2.706   4.179   7.923  0.8746  1.4772 -3.8231
 1952SOL    HW217493   2.569   4.183   7.972 -1.3373  1.0064 -0.2045
 1953SOL     OW17494   4.589   3.465   3.941 -0.4730  0.5933 -0.0633
 1953SOL    HW117495   4.614   3.450   4.032 -3.0260  0.5716  0.6309
 1953SOL    HW217496   4.645   3.404   3.892 -0.6789  0.7518 -0.4961
 1954SOL     OW17497   0.666   3.991  10.101  0.7403  0.6301 -0.3846
 1954SOL    HW117498   0.667   4.015  10.193  0.7983 -2.3496  0.3959
 1954SOL    HW217499   0.594   3.928  10.104  3.0996 -1.9861  1.9474
 1955SOL     OW17500   2.549   1.102   2.977 -0.3196 -0.1252  0.0750
 1955SOL    HW117501   2.484   1.145   2.922 -0.0368 -1.2801 -1.1703
 1955SOL    HW217502   2.557   1.021   2.926  0.8370 -0.6547  1.1040
 1956SOL     OW17503   1.064   0.676   1.555  0.0244  0.3335 -0.2549
 1956SOL    HW117504   1.068   0.582   1.537  1.1305  0.1275  1.0491
 1956SOL    HW217505   1.135   0.707   1.499 -0.1816 -1.4166 -1.5059
 1957SOL     OW17506   3.828   1.127  16.109 -0.4306 -0.1735 -0.4262
 1957SOL    HW117507   3.883   1.185  16.160 -0.8089  1.3444 -1.7629
 1957SOL    HW217508   3.749   1.179  16.093 -0.1915  0.4705  0.5424
 1958SOL     OW17509   2.271   0.684  15.647  0.5906 -0.3683 -0.6130
 1958SOL    HW117510   2.336   0.688  15.717  0.6260  0.3599 -0.6855
 1958SOL    HW217511   2.230   0.599  15.661  1.6005 -0.6072  0.8173
 1959SOL     OW17512   0.266   2.030   7.305  0.2918  0.2778  1.2349
 1959SOL    HW117513   0.190   2.088   7.299  0.2649  0.2148  0.9798
 1959SOL    HW217514   0.297   2.027   7.396  1.2107 -0.3964  0.9046
 1960SOL     OW17515   0.299   0.493   6.594  0.5255  0.7773  0.2069
 1960SOL    HW117516   0.363   0.562   6.578 -0.3021  2.0118  2.2479
 1960SOL    HW217517   0.220   0.543   6.611 -1.6692 -1.8045 -2.2279
 1961SOL     OW17518   0.730   0.154   0.814  0.1930  0.4519 -0.3883
 1961SOL    HW117519   0.660   0.212   0.782 -0.2899  0.8243  1.3374
 1961SOL    HW217520   0.695   0.119   0.896 -0.9548 -0.3313 -1.2109
 1962SOL     OW17521   0.483   0.301  12.953  0.1076  0.2725 -0.9325
 1962SOL    HW117522   0.579   0.303  12.960  0.0059 -2.9676  1.1834
 1962SOL    HW217523   0.465   0.229  12.893 -0.3370  0.0012 -0.4760
 1963SOL     OW17524   3.959   2.416   6.578 -0.2497  0.9745  0.0094
 1963SOL    HW117525   4.015   2.421   6.501 -0.7968  0.2597 -0.4388
 1963SOL    HW217526   3.990   2.494   6.622  2.4195  0.5872 -1.2093
 1964SOL     OW17527   1.180   2.889  11.485 -0.2445  0.5683  0.1843
 1964SOL    HW117528   1.205   2.883  11.577  0.4556 -1.1472 -0.1275
 1964SOL    HW217529   1.112   2.822  11.480  0.1482  0.2642 -1.2091
 1965SOL     OW17530   0.540   3.665  10.319  0.0587 -0.5230 -0.1050
 1965SOL    HW117531   0.528   3.760  10.320 -1.7392 -0.7463 -1.0672
 1965SOL    HW217532   0.619   3.661  10.372 -0.3041 -0.0845  0.4730
 1966SOL     OW17533   0.879   2.712   3.685 -0.1543 -0.5393  0.1055
 1966SOL    HW117534   0.910   2.722   3.595  0.9861  2.7408  0.8662
 1966SOL    HW217535   0.836   2.795   3.704 -1.6638 -1.3353  0.1791
 1967SOL     OW17536   1.795   4.705  15.007 -0.3380 -0.2423  0.3921
 1967SOL    HW117537   1.886   4.701  15.036 -0.6674 -0.2664  1.4083
 1967SOL    HW217538   1.757   0.021  15.078 -0.3573  0.3226 -0.0223
 1968SOL     OW17539   4.721   4.553   8.955  0.0176 -0.2092  0.1122
 1968SOL    HW117540   0.055   4.493   8.932  0.4362 -0.1634  1.2727
 1968SOL    HW217541   4.703   4.517   9.042  0.0776 -0.3243  0.0762
 1969SOL     OW17542   2.483   0.442  15.140 -0.5160  0.1540 -0.3616
 1969SOL    HW117543   2.411   0.479  15.088  1.1820 -1.3206 -3.7840
 1969SOL    HW217544   2.440   0.356  15.135 -2.5013  1.2438 -2.0240
 1970SOL     OW17545   1.558   2.021  11.789  0.0293  0.2023  0.4714
 1970SOL    HW117546   1.515   2.053  11.869  1.4248  1.2518  0.8076
 1970SOL    HW217547   1.644   1.991  11.818  0.5250 -0.1851 -1.4518
 1971SOL     OW17548   3.543   1.032   3.930 -0.4057  0.1488 -0.1506
 1971SOL    HW117549   3.624   1.079   3.909 -0.6391 -0.1142 -1.6300
 1971SOL    HW217550   3.486   1.109   3.933  0.4588  0.7576  0.7060
 1972SOL     OW17551   2.000   0.798   4.391  0.1436  0.1236 -0.4196
 1972SOL    HW117552   2.075   0.833   4.439 -1.3749  0.1394  1.9781
 1972SOL    HW217553   1.958   0.737   4.451 -0.8387  0.1752 -1.0507
 1973SOL     OW17554   3.119   1.324   3.504  0.6656  0.5414 -0.0180
 1973SOL    HW117555   3.115   1.383   3.429  0.8221 -0.2078 -0.6172
 1973SOL    HW217556   3.063   1.378   3.559  0.4626 -0.6202  0.9278
 1974SOL     OW17557   2.745   3.990   8.431 -0.5080 -0.0706  0.2282
 1974SOL    HW117558   2.715   3.919   8.374 -0.9724 -0.9928  1.6175
 1974SOL    HW217559   2.815   3.951   8.484 -1.0560  0.8345  1.5973
 1975SOL     OW17560   0.396   3.457   3.297  0.2784 -0.4584 -0.0101
 1975SOL    HW117561   0.370   3.534   3.347 -0.8394 -2.0849  1.9579
 1975SOL    HW217562   0.344   3.385   3.334  0.1180 -0.3520 -0.0278
 1976SOL     OW17563   1.825   0.189   2.023 -0.2628 -0.1286 -0.1256
 1976SOL    HW117564   1.754   0.235   2.067 -1.7010 -0.5191 -2.0573
 1976SOL    HW217565   1.876   0.261   1.985  0.2801 -0.6084 -0.3078
 1977SOL     OW17566   0.348   1.559  11.513  0.1326  0.1818 -0.2691
 1977SOL    HW117567   0.363   1.468  11.490 -1.8317 -0.2564  0.2048
 1977SOL    HW217568   0.431   1.590  11.476  1.1394 -1.2703  0.7465
 1978SOL     OW17569   4.207   2.921   9.091 -0.3048  0.7071 -0.7749
 1978SOL    HW117570   4.267   2.883   9.155 -0.8467  1.3781  0.1349
 1978SOL    HW217571   4.227   2.883   9.006  0.8728  1.5653 -0.8809
 1979SOL     OW17572   1.820   1.247   5.699  0.4971  0.1542 -0.3015
 1979SOL    HW117573   1.778   1.244   5.785  2.3604 -3.8908  0.4657
 1979SOL    HW217574   1.909   1.217   5.718  1.3506  2.5666 -0.3781
 1980SOL     OW17575   1.409   0.347   2.990  0.4719  0.5123  0.0857
 1980SOL    HW117576   1.386   0.431   2.950 -0.4783 -0.1773 -0.8156
 1980SOL    HW217577   1.503   0.363   3.004  0.0477  0.0703  3.3593
 1981SOL     OW17578   4.018   0.269   3.154 -0.2387 -0.0411 -0.2907
 1981SOL    HW117579   4.049   0.344   3.103 -0.1119  1.1825  1.5764
 1981SOL    HW217580   3.923   0.270   3.144 -0.0715  1.0629 -1.7493
 1982SOL     OW17581   2.844   3.570   1.679  0.3410  0.4061  0.4498
 1982SOL    HW117582   2.774   3.597   1.620 -0.4525  0.5193  1.4557
 1982SOL    HW217583   2.796   3.501   1.723 -1.4993  0.6116 -1.2392
 1983SOL     OW17584   1.454   0.250   5.728  0.2364  0.0952 -0.0852
 1983SOL    HW117585   1.455   0.268   5.822  2.0567  1.0606 -0.2884
 1983SOL    HW217586   1.376   0.298   5.699  0.6248  1.2046  0.6754
 1984SOL     OW17587   3.276   4.207   3.632 -0.2846  0.4401 -0.1247
 1984SOL    HW117588   3.303   4.160   3.553  0.7561  1.2139 -0.2269
 1984SOL    HW217589   3.291   4.148   3.706 -2.3875  1.7700  1.3758
 1985SOL     OW17590   2.534   0.050   6.586 -0.5907 -0.3917 -0.3195
 1985SOL    HW117591   2.549   4.709   6.531 -0.7803  0.7333 -1.9318
 1985SOL    HW217592   2.546   0.116   6.518  0.6949 -1.2495 -0.9327
 1986SOL     OW17593   4.404   0.361  11.615  0.5035 -0.3899 -0.2385
 1986SOL    HW117594   4.433   0.283  11.569 -3.6738 -0.6506 -2.4069
 1986SOL    HW217595   4.314   0.373  11.585  0.2041  1.4965  1.3350
 1987SOL     OW17596   1.887   0.129   0.800 -0.1950 -0.1701  0.4491
 1987SOL    HW117597   1.839   0.208   0.824  1.1638  0.4141  1.2203
 1987SOL    HW217598   1.909   0.103   0.889 -2.0079  0.5920  1.1276
 1988SOL     OW17599   1.599   2.988   2.862  0.2483  0.1536  0.0673
 1988SOL    HW117600   1.589   2.986   2.957 -0.2480  0.9349  0.0351
 1988SOL    HW217601   1.506   2.999   2.842  0.1331 -0.6814  0.1626
 1989SOL     OW17602   3.562   4.531  15.293  0.4837 -0.3916  0.6517
 1989SOL    HW117603   3.486   4.473  15.282  0.9691 -0.4523 -2.4790
 1989SOL    HW217604   3.611   4.506  15.371 -0.9235 -2.1211  0.9924
 1990SOL     OW17605   4.051   2.956   0.140 -0.3669 -0.1779  0.2600
 1990SOL    HW117606   4.103   2.884   0.103 -1.3976 -1.1037  0.6042
 1990SOL    HW217607   4.118   3.023   0.155 -0.4432 -0.2189  0.7784
 1991SOL     OW17608   3.525   3.514   0.086  0.0803 -0.4326  0.1215
 1991SOL    HW117609   3.499   3.497   0.176 -0.0588 -1.2089 -0.0639
 1991SOL    HW217610   3.587   3.585   0.099 -0.1831 -0.2482  0.3650
 1992SOL     OW17611   2.772   0.527  15.337  0.0582 -0.5803 -0.2928
 1992SOL    HW117612   2.774   0.620  15.359  2.8047 -0.5934 -0.3651
 1992SOL    HW217613   2.829   0.541  15.261  0.0700 -1.7991 -0.5036
 1993SOL     OW17614   1.763   1.780   2.826 -0.6424 -0.1015 -0.3158
 1993SOL    HW117615   1.727   1.865   2.798 -0.6609  0.3100  0.9775
 1993SOL    HW217616   1.853   1.809   2.813 -0.4233 -1.4798 -1.8758
 1994SOL     OW17617   0.446   3.044   8.623 -0.3086 -0.0923  0.3138
 1994SOL    HW117618   0.363   2.998   8.618 -1.4323  2.0808 -1.4120
 1994SOL    HW217619   0.476   3.023   8.711  0.4111 -1.3609 -0.2216
 1995SOL     OW17620   2.721   2.709   6.266 -0.5355  0.5437 -0.2486
 1995SOL    HW117621   2.807   2.696   6.306 -0.2587 -1.9616 -1.5987
 1995SOL    HW217622   2.740   2.775   6.199 -0.5746 -0.4985 -1.2987
 1996SOL     OW17623   1.400   2.386   7.681  0.4256 -0.7770  0.3401
 1996SOL    HW117624   1.419   2.306   7.632  1.5566 -0.4021  0.1534
 1996SOL    HW217625   1.336   2.351   7.743  0.7254 -0.3325  0.9084
 1997SOL     OW17626   0.077   0.925  11.685  0.3439 -0.7902  0.3707
 1997SOL    HW117627   0.084   0.948  11.592 -1.0556 -1.9107 -0.0309
 1997SOL    HW217628   0.070   1.007  11.732 -1.2608 -1.9523  2.1628
 1998SOL     OW17629   0.718   2.228  11.437 -0.5826 -0.9268  0.5516
 1998SOL    HW117630   0.664   2.190  11.367 -4.9637  1.9349  2.3481
 1998SOL    HW217631   0.665   2.285  11.494 -1.6387 -0.1308 -1.2395
 1999SOL     OW17632   0.408   1.436   7.112  0.4227 -0.4501 -0.2094
 1999SOL    HW117633   0.345   1.500   7.144  0.3539 -1.3866  1.5079
 1999SOL    HW217634   0.450   1.414   7.195  1.1573 -0.4505 -0.5766
 2000SOL     OW17635   4.152   1.941   5.029 -0.2972 -0.0854  0.2459
 2000SOL    HW117636   4.202   1.870   4.990  1.9808  0.9315  1.2791
 2000SOL    HW217637   4.119   1.979   4.948 -2.2740 -2.9971 -0.3256
 2001SOL     OW17638   0.463   0.173   1.755 -0.0690 -0.5314 -0.4715
 2001SOL    HW117639   0.446   0.082   1.779 -0.9725 -0.8357 -2.2653
 2001SOL    HW217640   0.509   0.170   1.671  0.3835  2.3050 -0.3164
 2002SOL     OW17641   0.933   1.213   7.587  0.6350  0.2736 -0.1447
 2002SOL    HW117642   1.012   1.198   7.536 -0.0357 -2.1785 -0.4713
 2002SOL    HW217643   0.871   1.215   7.514  1.1895  0.0244 -0.6202
 2003SOL     OW17644   4.007   1.160   1.020  0.0106  0.8241 -0.6315
 2003SOL    HW117645   4.079   1.183   0.961  1.3126 -1.9802 -0.1725
 2003SOL    HW217646   3.966   1.083   0.980 -1.1639  1.2145 -0.1444
 2004SOL     OW17647   0.521   1.633   4.153 -0.0545  0.0150 -0.6149
 2004SOL    HW117648   0.434   1.595   4.166  0.1968 -0.2598  0.2539
 2004SOL    HW217649   0.569   1.551   4.144  0.8316  0.3374  1.1675
 2005SOL     OW17650   4.730   4.186   7.827  0.0610  0.4744  0.1963
 2005SOL    HW117651   4.672   4.130   7.775  0.1275 -0.2321  0.8875
 2005SOL    HW217652   4.685   4.199   7.910  0.8763  3.3794  0.1964
 2006SOL     OW17653   0.093   3.744   4.469 -0.5984 -0.1101 -0.2375
 2006SOL    HW117654   0.133   3.811   4.523 -1.4782  1.5242 -1.6208
 2006SOL    HW217655   0.167   3.707   4.420  0.3340  0.5264  0.7089
 2007SOL     OW17656   3.464   4.713   3.484 -0.2350 -0.4411  0.2081
 2007SOL    HW117657   3.455   4.625   3.522  1.6995  0.1326  1.9651
 2007SOL    HW217658   3.523   0.021   3.544  0.7548 -0.9764 -0.3565
 2008SOL     OW17659   0.935   2.243  16.243 -0.5850  0.1288 -0.8639
 2008SOL    HW117660   0.949   2.256  16.337  0.8135 -0.2112 -1.0205
 2008SOL    HW217661   0.850   2.199  16.243  1.0678 -3.0776 -2.0247
 2009SOL     OW17662   1.796   4.666   8.318  0.0428  0.2787 -0.1591
 2009SOL    HW117663   1.707   4.686   8.289  0.3188 -0.3416 -1.4358
 2009SOL    HW217664   1.832   0.011   8.353 -0.5056  1.0001 -1.2646
 2010SOL     OW17665   3.952   1.267  12.574 -0.1141  0.5681  0.0900
 2010SOL    HW117666   4.033   1.307  12.542 -0.6088  1.0280 -0.6079
 2010SOL    HW217667   3.951   1.289  12.667  1.5552 -0.1902  0.2838
 2011SOL     OW17668   4.581   0.988   3.019 -0.6131  0.1722 -0.0306
 2011SOL    HW117669   4.595   0.896   2.995 -1.5320  0.4315 -1.5391
 2011SOL    HW217670   4.550   0.974   3.109 -1.9190 -1.4905 -0.7312
 2012SOL     OW17671   2.653   3.645   5.211  0.1595  0.6259 -0.2013
 2012SOL    HW117672   2.734   3.690   5.233 -1.5206  3.4577  0.2758
 2012SOL    HW217673   2.665   3.622   5.118  0.2787  0.7552 -0.2178
 2013SOL     OW17674   0.173   4.675   9.264 -0.3549 -0.0199  0.0851
 2013SOL    HW117675   0.197   4.720   9.182  2.0327 -1.2428  0.1463
 2013SOL    HW217676   0.256   4.665   9.310 -1.3879 -0.0017  1.9587
 2014SOL     OW17677   3.001   2.937   7.872 -0.2414 -0.0504 -0.1300
 2014SOL    HW117678   2.983   3.027   7.842 -0.6463 -0.2063 -0.3560
 2014SOL    HW217679   2.936   2.894   7.816  0.1049 -0.0410 -0.5403
 2015SOL     OW17680   0.927   1.847   6.326 -0.1773  0.0450  0.1456
 2015SOL    HW117681   0.926   1.861   6.421 -0.4569  0.4774  0.0780
 2015SOL    HW217682   0.841   1.805   6.322  0.1581 -0.5487 -0.8971
 2016SOL     OW17683   1.848   2.334   7.916 -0.1859  0.9193 -0.4765
 2016SOL    HW117684   1.906   2.271   7.957 -1.3342  2.0554  2.9129
 2016SOL    HW217685   1.781   2.330   7.985 -0.6278 -0.8226 -1.0267
 2017SOL     OW17686   0.684   3.089  14.568  0.9547  0.9343 -0.3608
 2017SOL    HW117687   0.628   3.162  14.541 -1.2440 -0.1674  1.1929
 2017SOL    HW217688   0.628   3.016  14.595  0.6667  2.1346  2.2963
 2018SOL     OW17689   0.931   1.896   8.554 -0.2575 -0.1287 -0.3447
 2018SOL    HW117690   1.012   1.924   8.512 -0.8865 -0.5799 -1.8634
 2018SOL    HW217691   0.934   1.803   8.532  1.0530 -0.0063 -0.6851
 2019SOL     OW17692   3.428   2.847   2.585 -0.1345  0.1947  0.4804
 2019SOL    HW117693   3.338   2.878   2.588 -0.1886  0.2278 -1.3825
 2019SOL    HW217694   3.431   2.773   2.524  0.5628  1.3593 -0.8942
 2020SOL     OW17695   3.892   0.985   2.457 -0.4898  0.2903 -0.0771
 2020SOL    HW117696   3.942   1.066   2.454  2.3574 -1.4201  1.6593
 2020SOL    HW217697   3.870   0.991   2.550 -1.4613  2.7462 -0.4753
 2021SOL     OW17698   4.067   3.156   6.676 -0.0456  0.4978  0.3254
 2021SOL    HW117699   4.027   3.145   6.762  0.4625  0.0193  0.5030
 2021SOL    HW217700   4.162   3.157   6.688  0.0053  0.7898 -0.0751
 2022SOL     OW17701   3.471   2.131   6.958 -0.4923  0.3088  0.2897
 2022SOL    HW117702   3.425   2.117   6.875 -0.5986  1.1154  0.2113
 2022SOL    HW217703   3.564   2.112   6.944 -1.0340 -0.6011 -2.0917
 2023SOL     OW17704   3.541   3.803   8.999 -0.0401 -0.4361 -0.1282
 2023SOL    HW117705   3.557   3.825   9.091 -0.4432  1.6619 -0.5620
 2023SOL    HW217706   3.461   3.754   9.018 -0.1412 -0.4711 -0.6527
 2024SOL     OW17707   0.505   3.774   5.692 -0.3246  0.4901  0.2713
 2024SOL    HW117708   0.561   3.767   5.769 -0.6094  0.1242  0.4451
 2024SOL    HW217709   0.561   3.830   5.638  0.0025 -1.0100 -0.9343
 2025SOL     OW17710   2.955   0.782   7.504  0.0556 -0.1717  0.0306
 2025SOL    HW117711   2.903   0.812   7.430 -0.2469 -1.3014 -0.2144
 2025SOL    HW217712   2.986   0.870   7.526 -0.0749  0.5361 -2.6556
 2026SOL     OW17713   0.491   1.880   4.554  0.4662 -0.6898  0.0857
 2026SOL    HW117714   0.547   1.943   4.599 -1.0840  1.8564 -1.5722
 2026SOL    HW217715   0.542   1.799   4.561 -2.3642 -2.3177  1.7983
 2027SOL     OW17716   0.732   4.538   6.339  0.1265  0.0643  0.2628
 2027SOL    HW117717   0.739   4.473   6.409  0.9732 -1.1537 -0.9506
 2027SOL    HW217718   0.717   4.623   6.380 -0.9477 -0.3005  0.6116
 2028SOL     OW17719   3.080   0.826  13.901 -0.2324  0.0144 -0.0597
 2028SOL    HW117720   3.128   0.773  13.964 -0.2875  1.7876  1.4663
 2028SOL    HW217721   2.990   0.806  13.925 -0.3220  2.3189  1.5368
 2029SOL     OW17722   1.191   4.321   1.065 -0.6308 -0.1020  0.1259
 2029SOL    HW117723   1.266   4.366   1.025 -0.7419  0.1496  0.2024
 2029SOL    HW217724   1.223   4.231   1.067 -0.6219 -0.1009  0.0172
 2030SOL     OW17725   2.458   2.707   4.634 -0.6594  0.2925 -0.2661
 2030SOL    HW117726   2.384   2.654   4.603 -0.8259  0.2531  0.2056
 2030SOL    HW217727   2.415   2.787   4.604 -0.0554  0.2789 -1.1595
 2031SOL     OW17728   3.869   4.129  11.903 -0.4149 -0.3166 -0.1130
 2031SOL    HW117729   3.881   4.136  11.808  0.6333 -2.1548 -0.1153
 2031SOL    HW217730   3.924   4.053  11.923  0.2974 -0.5484 -2.8490
 2032SOL     OW17731   0.388   0.886   2.938 -0.4248  0.3927  0.0664
 2032SOL    HW117732   0.453   0.943   2.978  0.8714 -0.3007 -1.0634
 2032SOL    HW217733   0.443   0.810   2.920  1.8389  1.6779  1.5922
 2033SOL     OW17734   3.999   3.126  11.229 -0.0087  0.9243 -0.3523
 2033SOL    HW117735   4.078   3.074  11.242 -1.2193  0.1350  3.7600
 2033SOL    HW217736   3.935   3.061  11.197 -0.9929  2.0089 -0.5891
 2034SOL     OW17737   3.252   4.555   8.817  0.1237  0.1036 -0.1567
 2034SOL    HW117738   3.157   4.547   8.819  0.2571 -1.5073  0.1433
 2034SOL    HW217739   3.257   4.605   8.736  0.0702  0.8986  0.3381
 2035SOL     OW17740   0.031   3.769   7.618 -0.4100 -0.7351 -0.1921
 2035SOL    HW117741   0.033   3.795   7.526  0.6462 -0.5368 -0.1193
 2035SOL    HW217742   0.033   3.853   7.665 -0.4174 -1.7840  1.6870
 2036SOL     OW17743   0.769   3.801  12.074  0.2634  0.0411  0.0235
 2036SOL    HW117744   0.768   3.718  12.025  0.0834  0.9324 -1.4867
 2036SOL    HW217745   0.687   3.789  12.121  0.0115 -1.0473 -0.7008
 2037SOL     OW17746   0.765   1.236   6.841  0.4675 -0.3910  0.0060
 2037SOL    HW117747   0.677   1.272   6.845 -0.1125 -2.0170  1.9354
 2037SOL    HW217748   0.792   1.270   6.756  0.8078  1.9415  1.0618
 2038SOL     OW17749   0.076   2.412   4.799 -0.1150 -0.2325 -0.2410
 2038SOL    HW117750   0.021   2.352   4.849 -2.9204  1.7366 -0.9552
 2038SOL    HW217751   0.128   2.345   4.755 -0.2000 -0.0544 -0.6131
 2039SOL     OW17752   4.540   1.252   8.638  0.4055 -0.0791 -0.3677
 2039SOL    HW117753   4.635   1.238   8.628  0.7848  2.3012 -0.0668
 2039SOL    HW217754   4.500   1.272   8.554 -1.4885 -0.7201  0.3789
 2040SOL     OW17755   3.343   4.479   3.588 -0.4033 -0.4626  0.1673
 2040SOL    HW117756   3.347   4.491   3.683 -0.7894  1.4485 -0.0565
 2040SOL    HW217757   3.325   4.385   3.583 -0.2393 -0.3940 -1.7921
 2041SOL     OW17758   0.463   2.238   8.251 -0.2957  0.4479  0.2334
 2041SOL    HW117759   0.499   2.326   8.265  1.8415 -0.0891 -1.9705
 2041SOL    HW217760   0.468   2.201   8.339 -1.1612  1.3285  0.6518
 2042SOL     OW17761   2.062   1.839  16.192 -0.1072  0.4769 -0.6579
 2042SOL    HW117762   2.076   1.921  16.239  1.3060 -1.4468  2.2383
 2042SOL    HW217763   2.143   1.840  16.141 -1.3865  1.0390 -2.6807
 2043SOL     OW17764   4.424   3.031   5.280 -0.3613  0.0185 -0.7533
 2043SOL    HW117765   4.392   2.948   5.314  0.8498  0.2948  1.1106
 2043SOL    HW217766   4.376   3.094   5.334 -2.0610 -2.6865  0.8607
 2044SOL     OW17767   0.281   3.265   0.187 -0.1176 -0.2722 -0.0023
 2044SOL    HW117768   0.197   3.230   0.219 -0.9962 -0.1463 -2.1636
 2044SOL    HW217769   0.340   3.239   0.258 -0.8806  0.8169  1.0423
 2045SOL     OW17770   4.618   4.452   8.431  0.3032  0.1809 -0.0814
 2045SOL    HW117771   4.694   4.394   8.437  0.4647  0.3073 -0.9217
 2045SOL    HW217772   4.626   4.486   8.342  0.8354  1.4480  0.4532
 2046SOL     OW17773   0.002   3.048   3.974  0.4264 -0.4645  0.3719
 2046SOL    HW117774   4.676   3.062   4.046 -0.2226  0.5389 -0.3868
 2046SOL    HW217775   4.702   2.983   3.914  3.0677 -0.4558 -1.2289
 2047SOL     OW17776   4.249   1.021   2.534 -0.1649  0.0506 -0.1661
 2047SOL    HW117777   4.218   1.070   2.458 -4.0299 -0.0466  1.3717
 2047SOL    HW217778   4.251   1.087   2.604  0.4537  0.0581 -0.1869
 2048SOL     OW17779   1.638   3.508  14.425  1.1557  0.0508 -0.1168
 2048SOL    HW117780   1.728   3.526  14.402  1.9132 -2.3187  0.9444
 2048SOL    HW217781   1.651   3.517  14.519 -1.5794  0.0847  0.2809
 2049SOL     OW17782   2.563   0.592   8.420  0.4212 -0.1880 -0.0091
 2049SOL    HW117783   2.600   0.509   8.390 -0.4838  0.5950 -3.3250
 2049SOL    HW217784   2.503   0.607   8.347  0.7318 -0.8355 -0.4013
 2050SOL     OW17785   3.479   2.099   0.859 -0.2745 -0.4260  0.2828
 2050SOL    HW117786   3.404   2.067   0.809 -0.8429  1.6274 -0.1997
 2050SOL    HW217787   3.457   2.056   0.941 -2.9185 -1.9332 -1.2133
 2051SOL     OW17788   2.258   3.886   5.138  0.2948  0.1337  0.2157
 2051SOL    HW117789   2.170   3.871   5.173  0.8954  0.8228  2.0280
 2051SOL    HW217790   2.297   3.913   5.221 -1.6953 -1.5112  1.6935
 2052SOL     OW17791   0.488   1.486   3.276  0.0379  0.8111 -0.0246
 2052SOL    HW117792   0.486   1.532   3.192  0.1302 -0.3445 -0.6550
 2052SOL    HW217793   0.432   1.411   3.259 -0.8657  1.3332  0.6225
 2053SOL     OW17794   4.005   2.749  12.055 -0.8671 -0.1510 -0.1131
 2053SOL    HW117795   3.940   2.812  12.026  2.0552  2.8246 -0.1287
 2053SOL    HW217796   3.995   2.684  11.985 -0.6227 -2.0260  1.5981
 2054SOL     OW17797   3.831   1.625  17.377  0.7521 -0.0949 -0.0791
 2054SOL    HW117798   3.850   1.598  17.287  2.0497 -0.5335  0.3233
 2054SOL    HW217799   3.821   1.720  17.377  1.7790 -0.0054  2.2703
 2055SOL     OW17800   1.190   2.715   3.681 -0.0855 -0.5850  0.4936
 2055SOL    HW117801   1.147   2.638   3.719  0.4461 -0.1327  1.9986
 2055SOL    HW217802   1.162   2.692   3.592 -1.3495 -0.5004  0.8648
 2056SOL     OW17803   4.321   2.056  16.013  0.5708  1.1150 -0.6801
 2056SOL    HW117804   4.408   2.089  15.990  1.0484  0.2933 -0.0888
 2056SOL    HW217805   4.342   1.963  16.026  0.0251  1.4252  2.5916
 2057SOL     OW17806   2.347   1.904   8.356  0.4898 -0.4400  0.0985
 2057SOL    HW117807   2.397   1.824   8.337 -1.1605 -1.2653 -0.7893
 2057SOL    HW217808   2.274   1.895   8.295  1.7714 -0.8416 -1.4082
 2058SOL     OW17809   0.047   3.152   4.974 -0.3487 -0.0283 -0.2998
 2058SOL    HW117810   0.051   3.110   4.888  3.5048  4.8076 -2.4851
 2058SOL    HW217811   0.090   3.237   4.959 -0.9690  0.4130  0.3940
 2059SOL     OW17812   0.248   4.199   8.744  0.1785 -0.1366 -0.3607
 2059SOL    HW117813   0.319   4.150   8.785  0.3072 -0.3663 -0.8534
 2059SOL    HW217814   0.289   4.239   8.667  0.0228  1.2715  0.2764
 2060SOL     OW17815   1.816   3.216   3.570  0.8889 -0.4731 -0.1997
 2060SOL    HW117816   1.771   3.297   3.590  0.9871  0.0607 -2.1747
 2060SOL    HW217817   1.901   3.235   3.531 -0.1998 -1.0023 -2.7917
 2061SOL     OW17818   2.552   3.324   8.390  0.2691 -0.0653 -0.2612
 2061SOL    HW117819   2.584   3.311   8.479  0.4181  2.0212 -0.0206
 2061SOL    HW217820   2.471   3.274   8.398 -0.5348  0.9722 -1.8599
 2062SOL     OW17821   1.220   2.819   4.268 -0.4754 -0.0678 -0.0354
 2062SOL    HW117822   1.218   2.905   4.226 -3.5804  0.2006  0.6685
 2062SOL    HW217823   1.251   2.841   4.356  1.9142  1.1381 -1.1774
 2063SOL     OW17824   4.358   4.176  16.995  0.1992  0.0120 -0.6807
 2063SOL    HW117825   4.273   4.195  16.955 -1.5052 -1.4999  2.2445
 2063SOL    HW217826   4.334   4.109  17.060  1.8630  1.5076  1.4821
 2064SOL     OW17827   1.712   4.672   3.805 -0.5707 -0.3214 -0.4298
 2064SOL    HW117828   1.650   4.684   3.877 -0.6536 -0.5232 -0.4689
 2064SOL    HW217829   1.729   4.578   3.802 -0.3663 -0.3852  2.4172
 2065SOL     OW17830   3.361   3.014   8.774 -0.0261 -0.0817  0.7645
 2065SOL    HW117831   3.363   2.920   8.789  1.9274 -0.2120 -0.3621
 2065SOL    HW217832   3.403   3.012   8.689  0.6199  1.2187  1.0431
 2066SOL     OW17833   1.746   2.386   4.775 -0.4415  0.3563  0.1683
 2066SOL    HW117834   1.669   2.439   4.754  0.2743  1.5754  0.6386
 2066SOL    HW217835   1.790   2.454   4.826  0.2133 -0.2181  0.3647
 2067SOL     OW17836   0.574   3.762   1.856  0.3980  0.1583 -0.5697
 2067SOL    HW117837   0.631   3.816   1.801  0.3669  1.6455  0.8683
 2067SOL    HW217838   0.506   3.737   1.793 -0.9063  0.5307  0.7148
 2068SOL     OW17839   2.003   3.688   0.291  0.2566 -0.4345  0.2772
 2068SOL    HW117840   1.996   3.774   0.333  2.5636 -0.6117  0.9804
 2068SOL    HW217841   2.020   3.640   0.371 -0.1057  1.3582  1.4324
 2069SOL     OW17842   2.940   2.403   5.082 -0.3701 -0.2224  0.2015
 2069SOL    HW117843   2.915   2.492   5.059  1.1609 -0.0600 -0.8565
 2069SOL    HW217844   3.023   2.411   5.131  1.6340 -0.6870 -3.1088
 2070SOL     OW17845   1.170   0.605   2.001  0.2039  0.3799  0.0268
 2070SOL    HW117846   1.145   0.642   2.086 -0.8891  0.8483 -0.4864
 2070SOL    HW217847   1.201   0.685   1.957 -2.0637  0.7564 -0.9452
 2071SOL     OW17848   1.057   1.495   6.886  0.2682  0.6053  0.3228
 2071SOL    HW117849   1.072   1.403   6.865 -0.4344  0.4247  0.6110
 2071SOL    HW217850   0.969   1.507   6.852  0.2570 -0.5687 -0.0457
 2072SOL     OW17851   0.740   1.372   7.140 -0.4998  0.0646  0.0502
 2072SOL    HW117852   0.646   1.357   7.138 -0.8602  2.1259  1.3892
 2072SOL    HW217853   0.746   1.467   7.132  0.0195  0.3694  3.9518
 2073SOL     OW17854   1.683   0.786   6.774  0.0019 -0.1758  0.7649
 2073SOL    HW117855   1.632   0.741   6.707  0.2444  1.0120 -0.2272
 2073SOL    HW217856   1.619   0.831   6.830 -0.5357  0.9111 -0.7355
 2074SOL     OW17857   4.008   3.887  11.956 -0.1644 -0.1400 -0.0039
 2074SOL    HW117858   3.951   3.849  12.023  0.3543 -0.2036  0.3980
 2074SOL    HW217859   4.088   3.838  11.977 -1.3471 -0.5490  3.4784
 2075SOL     OW17860   4.260   3.504   2.520 -0.6596 -0.1621 -0.1733
 2075SOL    HW117861   4.295   3.544   2.440  0.1846 -2.3221 -0.8821
 2075SOL    HW217862   4.255   3.413   2.491 -0.7412 -0.3182  0.3378
 2076SOL     OW17863   3.281   1.780   8.481 -0.1084  0.8224 -0.0156
 2076SOL    HW117864   3.199   1.818   8.513 -0.7800  0.0800 -0.8651
 2076SOL    HW217865   3.340   1.855   8.488  0.3326  0.3870  0.8886
 2077SOL     OW17866   0.771   4.385   6.579  0.3736 -0.0004 -0.6259
 2077SOL    HW117867   0.768   4.289   6.570  1.0819 -0.0950  0.1470
 2077SOL    HW217868   0.824   4.394   6.658 -1.7659  0.5063  0.7415
 2078SOL     OW17869   4.059   4.661  16.505 -0.5872 -0.0350 -0.0990
 2078SOL    HW117870   4.076   4.650  16.598  0.8654 -3.0912 -0.6984
 2078SOL    HW217871   3.967   4.638  16.499 -0.6393  0.2366 -0.3363
 2079SOL     OW17872   4.657   3.375   6.426  0.2267  0.0672  0.5209
 2079SOL    HW117873   4.714   3.448   6.400 -1.3546  0.9734 -0.4132
 2079SOL    HW217874   4.580   3.426   6.449  0.0064 -0.2780  0.5438
 2080SOL     OW17875   0.093   0.026   4.860 -0.0364  0.0131 -0.0196
 2080SOL    HW117876   0.030   0.054   4.794 -0.1926  1.2643  0.6454
 2080SOL    HW217877   0.048   0.059   4.938  0.6095  2.3635 -0.6280
 2081SOL     OW17878   2.443   3.259   4.046 -0.1637  0.3313 -0.4028
 2081SOL    HW117879   2.415   3.349   4.065 -2.6375 -0.6484  0.6039
 2081SOL    HW217880   2.518   3.282   3.992  0.0004  1.2258  0.1969
 2082SOL     OW17881   3.324   0.121   2.920 -0.6054 -0.6220  0.2385
 2082SOL    HW117882   3.259   0.132   2.989  0.8049  0.1139  1.4427
 2082SOL    HW217883   3.263   0.085   2.856 -1.7439  1.2904  0.2372
 2083SOL     OW17884   1.761   0.822  14.261  0.2664  0.2412 -0.1691
 2083SOL    HW117885   1.669   0.796  14.267  0.3074 -0.4918 -2.5156
 2083SOL    HW217886   1.784   0.774  14.181  0.3580 -0.5854  0.3598
 2084SOL     OW17887   0.731   4.657   8.444 -0.0013 -0.0675  0.0211
 2084SOL    HW117888   0.743   0.006   8.401 -0.5774  0.2559  0.4992
 2084SOL    HW217889   0.691   4.677   8.529  1.2165  0.3716  0.4935
 2085SOL     OW17890   4.133   4.526   5.644 -0.2125 -0.3282  0.4449
 2085SOL    HW117891   4.165   4.616   5.650 -0.1098 -0.3113 -0.3439
 2085SOL    HW217892   4.044   4.530   5.611  0.0358  4.2809  0.3762
 2086SOL     OW17893   0.166   1.766  12.637  0.0694  0.3792  0.0332
 2086SOL    HW117894   0.202   1.839  12.586 -1.5631  2.1479  1.4530
 2086SOL    HW217895   0.190   1.692  12.581 -1.2081 -0.9261  1.2100
 2087SOL     OW17896   0.696   2.261   0.962  0.4756  0.0286 -0.1181
 2087SOL    HW117897   0.624   2.319   0.989 -0.0070 -0.4038 -0.4614
 2087SOL    HW217898   0.693   2.270   0.867  2.7931  1.7372 -0.0257
 2088SOL     OW17899   3.223   2.583   3.977 -0.0815  0.3735  0.1024
 2088SOL    HW117900   3.163   2.541   4.039 -0.1568  3.4316  2.1040
 2088SOL    HW217901   3.165   2.635   3.922  0.7688  0.8991 -0.2938
 2089SOL     OW17902   3.710   0.235   7.460 -0.2280 -0.1400 -0.2023
 2089SOL    HW117903   3.757   0.318   7.463 -0.3390  0.0118 -3.3241
 2089SOL    HW217904   3.682   0.232   7.369 -1.0144  1.6449 -0.0195
 2090SOL     OW17905   3.913   1.745   6.896  0.2685 -0.2566 -0.0063
 2090SOL    HW117906   3.903   1.684   6.969  2.3282  0.5218  0.9439
 2090SOL    HW217907   3.980   1.804   6.933 -1.5314  2.4075 -0.9915
 2091SOL     OW17908   2.587   4.217   6.557 -0.1951  0.0033 -0.2901
 2091SOL    HW117909   2.647   4.191   6.487  0.3972 -1.4408  0.7364
 2091SOL    HW217910   2.523   4.146   6.551  0.0558 -0.0361 -2.5677
 2092SOL     OW17911   1.239   0.959   8.935 -0.0704 -0.3209 -0.4054
 2092SOL    HW117912   1.314   0.969   8.993 -0.3565  0.2413 -0.1396
 2092SOL    HW217913   1.192   1.041   8.948  1.9141  0.7488 -0.0396
 2093SOL     OW17914   3.903   0.724   4.193  0.5809 -0.2193 -0.5394
 2093SOL    HW117915   3.845   0.666   4.242  3.1458 -0.7752  1.8025
 2093SOL    HW217916   3.966   0.659   4.162  0.0193 -1.2236  0.4457
 2094SOL     OW17917   4.053   2.226   2.392 -0.3237 -0.1711  0.3301
 2094SOL    HW117918   3.973   2.279   2.400 -0.0692 -0.2789  3.6678
 2094SOL    HW217919   4.030   2.166   2.463 -1.0661 -1.7950 -1.2991
 2095SOL     OW17920   3.848   4.531  12.586  0.2618  0.0795  0.4607
 2095SOL    HW117921   3.820   4.442  12.605 -1.0385  0.8767  2.3084
 2095SOL    HW217922   3.781   4.564  12.526 -0.6465 -0.3134  1.2520
 2096SOL     OW17923   2.617   3.223   7.664  0.0049 -0.5717 -0.4288
 2096SOL    HW117924   2.626   3.131   7.690  1.3741 -0.1051  0.7586
 2096SOL    HW217925   2.709   3.235   7.640  0.6173 -1.0711  1.6772
 2097SOL     OW17926   0.299   0.462   2.421  0.4426 -0.1388  0.1558
 2097SOL    HW117927   0.244   0.394   2.460  0.1527  0.2522  0.4258
 2097SOL    HW217928   0.239   0.534   2.401  0.9773  0.8126  1.9781
 2098SOL     OW17929   3.257   0.344  14.824 -0.3576 -0.4552 -0.2291
 2098SOL    HW117930   3.204   0.325  14.901 -2.0315 -0.0341 -1.2763
 2098SOL    HW217931   3.188   0.364  14.761 -0.0903 -1.1220 -0.7418
 2099SOL     OW17932   2.821   1.296  13.087  0.3394  0.5119 -0.5759
 2099SOL    HW117933   2.871   1.229  13.133 -0.4894 -2.1785 -3.5447
 2099SOL    HW217934   2.733   1.259  13.097  1.2026 -2.0503 -2.5941
 2100SOL     OW17935   0.867   3.444   9.373 -0.2629  0.5561  0.4606
 2100SOL    HW117936   0.771   3.442   9.372 -0.2610  0.5228 -0.1033
 2100SOL    HW217937   0.898   3.360   9.407 -1.1651 -0.4790 -1.2487
 2101SOL     OW17938   2.120   0.399   8.859 -0.2363 -0.0782  0.7042
 2101SOL    HW117939   2.127   0.476   8.916 -0.3090 -0.1657  0.8321
 2101SOL    HW217940   2.109   0.329   8.924 -0.0020 -0.7658 -0.0028
 2102SOL     OW17941   4.676   0.086   5.886  0.6922  0.3977 -0.0638
 2102SOL    HW117942   4.680   0.002   5.931  0.0088 -0.1492 -1.0184
 2102SOL    HW217943   4.646   0.138   5.961 -0.6970 -1.3691  0.6108
 2103SOL     OW17944   0.471   2.203   6.447  0.2469 -0.9354 -0.3697
 2103SOL    HW117945   0.532   2.275   6.432 -1.3445  0.4694 -0.0335
 2103SOL    HW217946   0.384   2.242   6.454  1.0343  0.8497 -0.5648
 2104SOL     OW17947   0.796   3.122  16.502  0.5097 -0.2356  0.6941
 2104SOL    HW117948   0.754   3.036  16.504 -1.9627  0.9544 -0.9258
 2104SOL    HW217949   0.887   3.097  16.519  0.5090 -1.7477 -1.5038
 2105SOL     OW17950   3.974   1.259   6.509  0.1598 -0.1934  0.5565
 2105SOL    HW117951   4.040   1.203   6.468 -0.3974 -0.7714  0.4640
 2105SOL    HW217952   4.008   1.252   6.598  0.9456 -1.2907  0.1713
 2106SOL     OW17953   2.297   1.611   8.080  0.1360  0.1431  0.1950
 2106SOL    HW117954   2.250   1.543   8.128  1.0364  0.8101  2.0082
 2106SOL    HW217955   2.381   1.568   8.062  1.0326  2.0755 -0.1520
 2107SOL     OW17956   2.309   2.761   5.092 -0.1290 -0.1900  0.5409
 2107SOL    HW117957   2.338   2.686   5.040 -0.6200 -0.2161  0.3084
 2107SOL    HW217958   2.266   2.714   5.163 -0.7662 -1.0682 -0.4359
 2108SOL     OW17959   2.979   2.642   6.371  0.1544 -0.1516  0.1602
 2108SOL    HW117960   3.063   2.669   6.333 -0.4948 -0.3302 -1.3756
 2108SOL    HW217961   2.995   2.547   6.375 -3.1860 -0.7862 -1.5361
 2109SOL     OW17962   4.084   1.891   4.121 -0.0184 -0.2722 -0.3901
 2109SOL    HW117963   4.073   1.986   4.119  1.9335  0.0515  3.8173
 2109SOL    HW217964   3.999   1.857   4.146 -0.3257 -0.3237 -1.5128
 2110SOL     OW17965   2.733   3.362   6.371  0.3321 -0.0225 -0.3195
 2110SOL    HW117966   2.765   3.443   6.410  0.5061 -0.3577  0.2372
 2110SOL    HW217967   2.703   3.397   6.287 -0.1117 -0.2664 -0.2606
 2111SOL     OW17968   0.961   3.862   8.570 -0.6531  0.5358  0.4849
 2111SOL    HW117969   0.917   3.905   8.643  1.5571  2.0280  0.9422
 2111SOL    HW217970   0.899   3.791   8.557 -0.6707  0.9449 -1.7502
 2112SOL     OW17971   4.288   0.504   4.410 -0.4120  0.3863 -0.6688
 2112SOL    HW117972   4.231   0.432   4.437 -0.3264 -0.2814 -2.2681
 2112SOL    HW217973   4.232   0.575   4.440 -1.3155 -1.9531  3.2289
 2113SOL     OW17974   2.414   4.536   5.526  0.0838  0.1045 -0.0988
 2113SOL    HW117975   2.409   4.511   5.618  2.0553  1.8345  0.4882
 2113SOL    HW217976   2.324   4.541   5.493  0.5429  2.0242 -1.1025
 2114SOL     OW17977   1.911   3.958  17.586  0.5048 -0.1225 -0.3458
 2114SOL    HW117978   1.862   3.935  17.665 -0.0176 -1.7581 -1.1556
 2114SOL    HW217979   1.957   4.038  17.614 -2.4677  1.7325 -0.7474
 2115SOL     OW17980   4.482   4.546  15.853 -0.2146  0.2177 -0.3048
 2115SOL    HW117981   4.479   4.641  15.863  0.0429  0.2447 -0.4985
 2115SOL    HW217982   4.425   4.527  15.778 -0.7678  1.5340 -0.2202
 2116SOL     OW17983   1.879   1.438   6.442 -0.0881 -0.2936  0.4039
 2116SOL    HW117984   1.857   1.510   6.501 -1.0381 -1.7357  1.8048
 2116SOL    HW217985   1.805   1.457   6.384 -0.2059 -2.8765 -0.2924
 2117SOL     OW17986   1.750   3.710   5.948 -0.5080 -0.6671 -0.4305
 2117SOL    HW117987   1.842   3.739   5.947 -0.5366 -0.5083  2.2396
 2117SOL    HW217988   1.725   3.760   6.026  0.4756  2.4984 -2.1195
 2118SOL     OW17989   2.460   2.416  11.871  0.7284 -0.7943  0.1477
 2118SOL    HW117990   2.377   2.422  11.824  0.0149 -1.8411  1.2773
 2118SOL    HW217991   2.461   2.471  11.949 -1.0676  1.2042 -1.2271
 2119SOL     OW17992   2.472   1.599  14.807  0.2689  0.5503  0.2769
 2119SOL    HW117993   2.506   1.688  14.809  1.1438  0.1825  1.9116
 2119SOL    HW217994   2.509   1.553  14.732 -2.5412 -2.0970  0.5074
 2120SOL     OW17995   0.792   0.136   5.776  0.2721  0.3807 -0.3616
 2120SOL    HW117996   0.836   0.067   5.825 -1.5498 -0.0786  0.6109
 2120SOL    HW217997   0.794   0.103   5.686  0.3250 -3.9536  1.2087
 2121SOL     OW17998   2.764   0.996   6.470  0.5322  0.4716 -0.3662
 2121SOL    HW117999   2.830   0.977   6.536 -1.3093 -0.8209  1.1151
 2121SOL    HW218000   2.699   1.014   6.538  1.9596  0.1377  1.0867
 2122SOL     OW18001   4.367   0.095   4.610  0.0097  0.2157  0.1391
 2122SOL    HW118002   4.334   0.031   4.673  0.2329 -0.3286 -0.2911
 2122SOL    HW218003   4.373   0.038   4.533  1.8232 -1.3553  1.4411
 2123SOL     OW18004   1.377   0.641   6.115  0.4645  0.3962 -0.5276
 2123SOL    HW118005   1.295   0.593   6.122 -0.2724  1.8440  0.9126
 2123SOL    HW218006   1.421   0.629   6.200 -0.6404  0.3733  0.0479
 2124SOL     OW18007   4.610   0.469   7.969 -1.2549  0.0966  0.1036
 2124SOL    HW118008   4.611   0.422   7.886  1.4080  1.6525 -0.7382
 2124SOL    HW218009   4.634   0.557   7.940 -0.5182  0.0181  0.4685
 2125SOL     OW18010   1.151   3.212  12.038 -0.1619  0.0931 -0.1033
 2125SOL    HW118011   1.098   3.271  12.092 -0.6628  0.8660 -1.4440
 2125SOL    HW218012   1.207   3.277  11.995  1.7299 -1.9822 -0.7877
 2126SOL     OW18013   2.128   4.095   8.060  0.0538 -0.2000  0.5017
 2126SOL    HW118014   2.074   4.082   8.138 -0.4183 -0.1198  0.1888
 2126SOL    HW218015   2.107   4.188   8.051 -2.0701 -0.7278 -0.2008
 2127SOL     OW18016   3.434   4.270   6.488  0.5492  0.2386 -0.3198
 2127SOL    HW118017   3.342   4.294   6.487  0.3669 -0.4883 -0.5830
 2127SOL    HW218018   3.443   4.266   6.393  1.0458 -1.0008 -0.2171
 2128SOL     OW18019   0.486   0.338   4.536 -0.1067  0.5062 -0.1380
 2128SOL    HW118020   0.460   0.248   4.554  2.4915 -0.1643  0.2568
 2128SOL    HW218021   0.507   0.366   4.625  2.1377 -0.1549 -0.4503
 2129SOL     OW18022   4.488   0.750  15.690 -0.2034 -0.4669  0.1383
 2129SOL    HW118023   4.493   0.663  15.652 -2.1873 -1.5542  2.3758
 2129SOL    HW218024   4.453   0.799  15.615  2.6261 -0.7029 -1.3102
 2130SOL     OW18025   0.906   2.331   7.612  0.2955 -0.0815  0.0467
 2130SOL    HW118026   0.886   2.424   7.599  1.7719  0.0066 -1.5942
 2130SOL    HW218027   0.871   2.296   7.530 -4.1496  1.5954  1.1996
 2131SOL     OW18028   3.805   3.762   8.651 -0.5985  0.2794 -0.6816
 2131SOL    HW118029   3.838   3.673   8.663  2.6872  1.5361 -0.3964
 2131SOL    HW218030   3.889   3.807   8.645 -0.7479  0.5604 -0.6415
 2132SOL     OW18031   3.340   0.335  11.056  0.2587  0.3996 -0.3210
 2132SOL    HW118032   3.324   0.253  11.103 -3.3144  0.8314 -0.7625
 2132SOL    HW218033   3.252   0.372  11.048  0.0170 -0.2986 -0.9610
 2133SOL     OW18034   4.675   2.514  16.246  0.1872  0.1163  0.0731
 2133SOL    HW118035   4.723   2.435  16.272  0.4750  0.2170 -0.1446
 2133SOL    HW218036   4.588   2.479  16.265  0.4545 -1.5645 -1.7763
 2134SOL     OW18037   4.544   1.721   5.968 -0.3059 -0.0498  0.1125
 2134SOL    HW118038   4.479   1.652   5.982 -1.2408  0.3695 -2.0759
 2134SOL    HW218039   4.620   1.673   6.000 -1.0904 -2.1385 -1.1044
 2135SOL     OW18040   1.452   1.112   8.671 -0.1026 -0.3154  0.0448
 2135SOL    HW118041   1.440   1.187   8.613 -1.6325  0.8443  1.8869
 2135SOL    HW218042   1.534   1.079   8.634  0.8088 -1.0062  2.6477
 2136SOL     OW18043   1.955   0.138   6.197  0.5200 -0.2270 -0.5169
 2136SOL    HW118044   2.021   0.110   6.133  1.8471 -1.7101  1.4570
 2136SOL    HW218045   1.881   0.078   6.185  0.8152 -0.1023 -2.8436
 2137SOL     OW18046   0.667   2.144   4.992 -0.0083 -0.2669  0.0667
 2137SOL    HW118047   0.720   2.069   5.019 -2.7243 -1.9215  0.7992
 2137SOL    HW218048   0.712   2.219   5.031 -1.5802  0.7246 -0.0050
 2138SOL     OW18049   0.744   2.373   5.127 -0.0974 -0.2896 -0.6254
 2138SOL    HW118050   0.705   2.389   5.213 -0.3348  2.3366 -1.2237
 2138SOL    HW218051   0.749   2.463   5.094  0.2880 -0.3185 -0.6534
 2139SOL     OW18052   1.941   3.688   0.005 -0.0891  0.0513 -0.1564
 2139SOL    HW118053   1.849   3.711  17.734 -0.1077 -0.6012 -1.2084
 2139SOL    HW218054   1.955   3.694   0.099  0.3849  1.4310 -0.3200
 2140SOL     OW18055   4.328   2.972   8.744  0.3151  0.1796  0.8278
 2140SOL    HW118056   4.331   2.905   8.812 -1.2901  0.6216  1.3341
 2140SOL    HW218057   4.390   2.934   8.682  0.2996 -1.7797  2.0392
 2141SOL     OW18058   3.450   1.936   6.748 -0.2456 -0.3844  0.4749
 2141SOL    HW118059   3.401   1.885   6.683  0.5472  0.7415 -1.0016
 2141SOL    HW218060   3.539   1.903   6.739 -0.1003 -0.1646  1.0882
 2142SOL     OW18061   1.377   3.439   6.944  0.4269 -0.7313  0.7153
 2142SOL    HW118062   1.323   3.504   6.899  4.6010  2.4131  0.3487
 2142SOL    HW218063   1.366   3.467   7.035  1.3889  0.5705  0.4233
 2143SOL     OW18064   2.341   3.273   7.561  0.4623  0.4409  0.6087
 2143SOL    HW118065   2.435   3.257   7.573  0.7451  1.1349 -0.5847
 2143SOL    HW218066   2.313   3.183   7.574  1.8394 -0.4757 -2.8248
 2144SOL     OW18067   0.841   1.042   7.214  0.4239 -0.1480  0.8378
 2144SOL    HW118068   0.826   1.096   7.292 -0.5537 -0.2447  0.7060
 2144SOL    HW218069   0.891   1.104   7.160 -0.3793 -0.7296 -0.5781
 2145SOL     OW18070   1.263   0.189  17.273 -0.4509  0.7188 -0.0655
 2145SOL    HW118071   1.202   0.251  17.311  0.2706  1.2960  0.1547
 2145SOL    HW218072   1.280   0.129  17.345  3.3350  1.8641  0.0079
 2146SOL     OW18073   2.677   3.833   9.363 -0.1781  0.6758  1.0272
 2146SOL    HW118074   2.622   3.845   9.440  0.6746  3.8744  1.1277
 2146SOL    HW218075   2.766   3.834   9.399  0.5267 -2.3986 -0.5849
 2147SOL     OW18076   2.898   0.451   9.019  0.0790 -0.2265 -0.0784
 2147SOL    HW118077   2.980   0.453   9.069 -1.1758 -0.3593  1.9556
 2147SOL    HW218078   2.836   0.481   9.085 -2.1104 -1.1051 -1.7225
 2148SOL     OW18079   3.754   1.840   5.376  0.7384 -0.5121 -0.4416
 2148SOL    HW118080   3.683   1.805   5.322 -0.9447  1.9452  0.2242
 2148SOL    HW218081   3.756   1.785   5.454 -0.1998 -0.3847 -0.3323
 2149SOL     OW18082   0.801   4.642   9.706 -0.5568 -0.0236  0.3161
 2149SOL    HW118083   0.771   4.605   9.623 -0.0656  0.5843 -0.1379
 2149SOL    HW218084   0.895   4.656   9.692 -1.0031  2.2379 -0.4325
 2150SOL     OW18085   4.061   0.809   6.903  0.0681  0.2819 -0.0879
 2150SOL    HW118086   4.047   0.895   6.942 -0.5173 -0.2854  0.9719
 2150SOL    HW218087   4.130   0.835   6.842  2.7996 -0.0104  2.8598
 2151SOL     OW18088   0.616   2.360   0.045 -0.1221 -0.1482  0.2089
 2151SOL    HW118089   0.671   2.320   0.113  0.8289 -1.3711 -1.2679
 2151SOL    HW218090   0.678   2.421   0.005  2.8749 -1.1627  3.3082
 2152SOL     OW18091   3.649   1.704  10.600  0.0694  0.4307 -1.0545
 2152SOL    HW118092   3.591   1.766  10.644  1.3555 -1.2450  2.9984
 2152SOL    HW218093   3.599   1.623  10.603  0.9470 -0.0785 -0.4252
 2153SOL     OW18094   0.673   0.312   3.721  0.0917 -0.1668  0.1282
 2153SOL    HW118095   0.646   0.382   3.780  1.6373  2.4568 -2.3235
 2153SOL    HW218096   0.675   0.237   3.780 -1.3003 -1.6082 -1.6678
 2154SOL     OW18097   4.353   0.672  11.401  0.2645 -0.1266  0.6978
 2154SOL    HW118098   4.354   0.693  11.495 -1.2191  2.5806  0.1163
 2154SOL    HW218099   4.446   0.672  11.378 -0.0043 -0.1919 -0.3695
 2155SOL     OW18100   0.649   1.285   6.169  0.4492  0.9111 -0.2260
 2155SOL    HW118101   0.685   1.285   6.257  0.3880  0.8069 -0.1997
 2155SOL    HW218102   0.577   1.224   6.189  0.5549  0.6743 -0.5600
 2156SOL     OW18103   0.791   1.410   2.582  0.0053 -0.0243  0.5338
 2156SOL    HW118104   0.804   1.327   2.628 -1.8615  0.3063  1.6537
 2156SOL    HW218105   0.766   1.480   2.642 -2.1397 -0.2573 -0.1199
 2157SOL     OW18106   0.268   1.661   4.691  0.4528 -0.6602  0.4768
 2157SOL    HW118107   0.199   1.611   4.648 -0.9902 -0.7930  2.9897
 2157SOL    HW218108   0.347   1.662   4.637 -0.9261 -1.2687 -1.5539
 2158SOL     OW18109   1.259   3.659   6.623  0.3903 -0.1707 -0.4307
 2158SOL    HW118110   1.164   3.660   6.609  0.1509  0.3532  1.1745
 2158SOL    HW218111   1.259   3.656   6.719  0.2336 -0.5316 -0.4432
 2159SOL     OW18112   3.109   3.722   2.111 -0.7225  0.0687 -0.4256
 2159SOL    HW118113   3.088   3.650   2.051  0.2964  0.3987 -1.1563
 2159SOL    HW218114   3.195   3.737   2.073 -0.3299  0.5922  0.6797
 2160SOL     OW18115   4.037   0.493   8.690  0.3036  0.6802 -0.1504
 2160SOL    HW118116   3.973   0.421   8.691 -1.5964  2.3702 -0.3203
 2160SOL    HW218117   4.004   0.562   8.633  1.3769  0.3810 -1.1199
 2161SOL     OW18118   4.047   0.511   5.993  0.2276  0.0677 -0.0453
 2161SOL    HW118119   4.053   0.578   6.060  1.9263 -0.2971  0.1549
 2161SOL    HW218120   4.134   0.472   5.993 -0.2116 -0.9225 -1.1615
 2162SOL     OW18121   0.798   0.859   8.398 -0.1282  0.1476  0.5351
 2162SOL    HW118122   0.814   0.808   8.477  0.9355 -0.1924  0.0930
 2162SOL    HW218123   0.721   0.810   8.368  0.8338 -0.4693 -0.9506
 2163SOL     OW18124   3.292   4.233   6.770  0.0563 -0.3056 -0.4803
 2163SOL    HW118125   3.196   4.231   6.769  0.0712 -1.4000  0.0404
 2163SOL    HW218126   3.312   4.326   6.757  0.5662 -0.2723  0.5513
 2164SOL     OW18127   0.675   0.448   6.254  0.4370 -0.4440  0.1381
 2164SOL    HW118128   0.617   0.486   6.189  1.2608  0.6314  0.0375
 2164SOL    HW218129   0.717   0.376   6.206  1.7670  1.0472 -0.9275
 2165SOL     OW18130   2.865   0.119   6.854  0.0642 -0.1135 -0.2977
 2165SOL    HW118131   2.924   0.048   6.880  0.5421  1.0813  1.8358
 2165SOL    HW218132   2.929   0.156   6.793  0.0359 -0.8135 -0.7593
 2166SOL     OW18133   0.036   1.006   0.639 -0.2135  0.6291  0.0157
 2166SOL    HW118134   0.098   0.940   0.607 -0.0720 -0.2526  2.0558
 2166SOL    HW218135   4.732   0.973   0.720  0.9087  1.1563  0.7772
 2167SOL     OW18136   3.460   3.181  15.930 -0.2924 -0.8009 -0.0808
 2167SOL    HW118137   3.513   3.242  15.878 -0.7077 -0.0167  0.4245
 2167SOL    HW218138   3.390   3.179  15.864  0.4901  0.2935 -0.9601
 2168SOL     OW18139   2.122   2.474   0.450  0.7445  0.4385 -0.0071
 2168SOL    HW118140   2.183   2.401   0.441 -0.7372 -0.6862 -0.7853
 2168SOL    HW218141   2.042   2.440   0.411 -0.2552  0.9464  1.6043
 2169SOL     OW18142   0.968   3.816   6.264  0.2577  0.6018  0.3606
 2169SOL    HW118143   0.915   3.741   6.239  2.0911 -0.9724  1.2062
 2169SOL    HW218144   0.907   3.882   6.232 -2.1292 -1.7158  0.2377
 2170SOL     OW18145   4.481   1.460   3.718 -0.9002  0.0418 -0.0147
 2170SOL    HW118146   4.518   1.474   3.631  0.6897 -2.3289  0.3114
 2170SOL    HW218147   4.397   1.499   3.694 -0.1149  2.1947  0.7473
 2171SOL     OW18148   2.372   1.784   9.195 -0.4906  0.0621  0.2155
 2171SOL    HW118149   2.414   1.870   9.192 -1.0967  0.3225 -0.9897
 2171SOL    HW218150   2.283   1.812   9.218 -0.1930  1.0359  0.1687
 2172SOL     OW18151   4.471   3.431   5.303 -0.1106 -0.4663  0.3725
 2172SOL    HW118152   4.557   3.436   5.262  0.0771  2.0156  1.0909
 2172SOL    HW218153   4.507   3.394   5.384  0.0766 -0.7909  0.1425
 2173SOL     OW18154   2.016   1.211   4.059  0.7387  0.0468  0.0818
 2173SOL    HW118155   2.061   1.149   4.117  1.0411  0.3412  0.1660
 2173SOL    HW218156   2.091   1.270   4.047  1.4624 -0.9059 -0.0668
 2174SOL     OW18157   1.098   3.264  15.791  0.0647 -0.2447  0.0055
 2174SOL    HW118158   1.069   3.334  15.850  1.2023  0.7402 -0.6008
 2174SOL    HW218159   1.034   3.196  15.810 -0.4344  0.2372  0.0617
 2175SOL     OW18160   1.887   1.416   6.066  0.4486 -0.4344 -0.0162
 2175SOL    HW118161   1.833   1.363   6.007 -0.7235 -0.6024  1.1936
 2175SOL    HW218162   1.823   1.451   6.128  1.2003 -0.4231  0.7578
 2176SOL     OW18163   2.172   4.682   4.895 -0.0264  0.1780 -0.0800
 2176SOL    HW118164   2.217   4.681   4.810  0.3864  2.4922  0.1093
 2176SOL    HW218165   2.223   4.618   4.944 -0.2629  0.4313  0.4913
 2177SOL     OW18166   4.571   4.471  13.747  0.0316 -0.2800 -0.0856
 2177SOL    HW118167   4.511   4.516  13.807  0.1338  0.5676 -0.6239
 2177SOL    HW218168   4.641   4.535  13.759  0.0453 -0.1460 -0.8961
 2178SOL     OW18169   2.625   2.025   9.727  0.1729 -0.2097  0.2066
 2178SOL    HW118170   2.572   2.101   9.749  0.4248  0.0830 -0.2064
 2178SOL    HW218171   2.716   2.056   9.728  0.6812 -1.6880  1.1806
 2179SOL     OW18172   2.639   2.945   5.023  0.1749 -0.7701 -0.1054
 2179SOL    HW118173   2.556   2.954   5.070  0.8726 -2.2798  1.4146
 2179SOL    HW218174   2.680   3.031   5.031 -1.1209 -0.0546 -1.1848
 2180SOL     OW18175   3.829   0.658   5.014  0.2259 -0.2572  0.1265
 2180SOL    HW118176   3.904   0.649   5.073 -0.6522 -0.3352  1.2266
 2180SOL    HW218177   3.884   0.645   4.937  1.9017  3.3037  0.7414
 2181SOL     OW18178   2.323   1.045  15.421 -0.1369 -0.5397 -0.1646
 2181SOL    HW118179   2.358   1.055  15.332  0.1657  0.2097  0.0413
 2181SOL    HW218180   2.406   1.037  15.468  1.6939 -1.2184 -3.4839
 2182SOL     OW18181   1.737   4.299   9.144  0.3837 -0.3112 -0.0433
 2182SOL    HW118182   1.736   4.360   9.070 -0.1454  0.1614  0.3600
 2182SOL    HW218183   1.677   4.336   9.209  0.2321  1.3244 -1.1361
 2183SOL     OW18184   0.213   4.475  13.685  0.5247  0.3051  0.1465
 2183SOL    HW118185   0.158   4.553  13.696 -0.0912  0.1160 -1.6969
 2183SOL    HW218186   0.170   4.420  13.750  0.1307 -0.1507 -0.4993
 2184SOL     OW18187   1.240   1.923   5.174  0.2224 -0.2649 -0.2667
 2184SOL    HW118188   1.284   1.839   5.161  2.2169  0.9136 -1.0559
 2184SOL    HW218189   1.307   1.989   5.160 -1.6391  1.3799 -1.4303
 2185SOL     OW18190   0.490   4.489   3.798  0.2708  0.5571  0.0818
 2185SOL    HW118191   0.528   4.436   3.868 -0.1977 -0.8508 -0.7254
 2185SOL    HW218192   0.548   4.467   3.725 -1.4895 -0.1644 -1.1243
 2186SOL     OW18193   0.823   2.512   8.170  0.4642  0.0173 -0.4495
 2186SOL    HW118194   0.914   2.528   8.197  0.0453  2.4399 -0.5118
 2186SOL    HW218195   0.788   2.601   8.164 -1.9847 -1.0511 -2.0689
 2187SOL     OW18196   2.680   2.704   2.649  0.0595 -0.0123  0.3845
 2187SOL    HW118197   2.751   2.725   2.709  1.2437  0.1522 -1.0624
 2187SOL    HW218198   2.660   2.795   2.627 -0.2571 -0.9511 -3.2449
 2188SOL     OW18199   2.502   3.677   7.068  0.7083 -0.1208  0.1231
 2188SOL    HW118200   2.409   3.700   7.070  1.5718  3.5405 -0.4642
 2188SOL    HW218201   2.527   3.654   6.978 -0.5077 -0.6814 -0.0601
 2189SOL     OW18202   0.205   2.208  12.268 -0.3344  0.3073  0.5237
 2189SOL    HW118203   0.201   2.182  12.360 -0.2065 -1.7359 -0.0579
 2189SOL    HW218204   0.216   2.303  12.273 -1.2653  0.2143  4.1699
 2190SOL     OW18205   2.915   1.389   6.141 -0.2277  0.3446  0.1734
 2190SOL    HW118206   2.957   1.374   6.226  0.2592  1.9606  0.2302
 2190SOL    HW218207   2.989   1.386   6.080 -0.2178 -0.1961  0.2105
 2191SOL     OW18208   4.672   1.670   8.661 -0.2579  0.0184  0.2249
 2191SOL    HW118209   4.645   1.589   8.704 -0.0162 -0.8374 -1.2613
 2191SOL    HW218210   0.006   1.691   8.723 -1.1967 -0.6568  1.5306
 2192SOL     OW18211   2.954   2.292  12.754 -0.2795 -0.1561 -0.2441
 2192SOL    HW118212   2.941   2.218  12.814  2.2239 -0.7239 -0.3951
 2192SOL    HW218213   2.869   2.319  12.719  0.9271  3.2853 -0.5731
 2193SOL     OW18214   1.978   4.380   1.832  0.1111  0.0498  0.2160
 2193SOL    HW118215   1.923   4.318   1.879  2.5188 -2.0913  0.2128
 2193SOL    HW218216   1.909   4.446   1.820 -0.1231 -0.0482  1.0019
 2194SOL     OW18217   0.761   0.915   2.116 -0.2700  0.4366 -0.2522
 2194SOL    HW118218   0.716   0.955   2.190 -0.4052  0.5035 -0.3704
 2194SOL    HW218219   0.706   0.939   2.041 -1.1019 -1.6492 -0.3086
 2195SOL     OW18220   0.218   2.184  15.196  0.4300  0.3756 -0.2890
 2195SOL    HW118221   0.290   2.247  15.203  0.8608 -0.1888  0.3213
 2195SOL    HW218222   0.180   2.235  15.124 -2.6693 -0.4476  0.7659
 2196SOL     OW18223   1.201   1.516   6.259 -0.0047 -0.7567  0.2251
 2196SOL    HW118224   1.136   1.506   6.329  1.8017  0.5932  2.1263
 2196SOL    HW218225   1.145   1.524   6.182 -2.1735  0.2844  1.9381
 2197SOL     OW18226   3.112   3.753  12.433 -0.2489 -0.4601 -0.0048
 2197SOL    HW118227   3.023   3.720  12.449 -0.3723 -0.5778 -0.9573
 2197SOL    HW218228   3.097   3.842  12.465  1.1094 -0.7401  1.3995
 2198SOL     OW18229   1.833   3.559   6.636  0.0970 -0.3589  0.3458
 2198SOL    HW118230   1.828   3.467   6.659 -1.8505  0.0965  1.7623
 2198SOL    HW218231   1.890   3.594   6.704 -0.3364 -0.3035  0.6793
 2199SOL     OW18232   0.481   3.192   3.070  0.5883  0.3275  0.0397
 2199SOL    HW118233   0.528   3.256   3.123 -0.9836  1.4418  0.0843
 2199SOL    HW218234   0.439   3.142   3.139  0.7239  0.1337 -0.0196
 2200SOL     OW18235   4.608   3.500   3.537 -0.0370  0.0663 -0.1302
 2200SOL    HW118236   4.567   3.580   3.571  0.3318 -0.0966  0.6919
 2200SOL    HW218237   4.528   3.455   3.511 -0.3730  0.5769  0.0090
 2201SOL     OW18238   4.495   4.111  15.612 -0.1124  0.0664 -0.1068
 2201SOL    HW118239   4.504   4.097  15.706 -1.2057 -0.1915 -0.0512
 2201SOL    HW218240   4.416   4.164  15.599  0.4144  1.6821  3.3322
 2202SOL     OW18241   1.642   2.413   3.892  0.0611 -0.1952  0.5836
 2202SOL    HW118242   1.635   2.380   3.982  1.2390  0.6884  1.0110
 2202SOL    HW218243   1.729   2.386   3.863  0.3553  0.2937  1.0002
 2203SOL     OW18244   2.011   4.516   8.327 -0.4057  0.8369 -0.5062
 2203SOL    HW118245   1.999   4.507   8.422 -0.7588 -0.4145 -0.6706
 2203SOL    HW218246   1.942   4.581   8.312 -1.4383 -0.4583 -1.2501
 2204SOL     OW18247   1.784   1.643  13.771 -0.9448 -0.7281  0.0893
 2204SOL    HW118248   1.711   1.667  13.828  1.4640  1.3496  2.3119
 2204SOL    HW218249   1.753   1.579  13.707 -1.1785  0.7193 -1.2551
 2205SOL     OW18250   3.871   1.769   4.222  0.4755  0.5255  0.5700
 2205SOL    HW118251   3.919   1.740   4.300 -0.2174 -1.4642  0.2614
 2205SOL    HW218252   3.819   1.844   4.251 -1.1470 -1.3228  2.4784
 2206SOL     OW18253   3.999   2.146   1.990  0.1898 -0.4675  0.0860
 2206SOL    HW118254   4.018   2.113   2.078  0.8863 -3.2118 -1.1158
 2206SOL    HW218255   3.911   2.184   1.990 -0.6026 -2.3464 -0.5925
 2207SOL     OW18256   0.123   1.728  12.132 -0.0095  0.2480  0.0434
 2207SOL    HW118257   0.113   1.699  12.041  1.4877 -1.8690  0.5479
 2207SOL    HW218258   0.204   1.777  12.136 -1.4161  2.4802  1.0517
 2208SOL     OW18259   0.843   2.764   4.567  0.2992  0.1354  0.3168
 2208SOL    HW118260   0.756   2.775   4.529  1.3060  0.2624 -1.9410
 2208SOL    HW218261   0.893   2.833   4.524 -0.3258  0.0324 -0.5791
 2209SOL     OW18262   2.503   3.408   4.580 -0.0680 -0.9179  0.1667
 2209SOL    HW118263   2.564   3.482   4.579  0.2227 -1.1497  0.9792
 2209SOL    HW218264   2.456   3.428   4.661  0.6666 -0.3535  0.4571
 2210SOL     OW18265   0.951   0.416  15.443 -0.1906 -0.0388 -0.4809
 2210SOL    HW118266   0.863   0.420  15.482 -1.0550 -1.6527 -2.2826
 2210SOL    HW218267   0.952   0.484  15.376 -0.4988  0.7870  0.3491
 2211SOL     OW18268   0.324   4.104   4.924 -0.4934  0.8387 -0.3315
 2211SOL    HW118269   0.365   4.170   4.867 -0.4395 -0.1536 -1.4340
 2211SOL    HW218270   0.248   4.074   4.874  0.7397  1.3448 -2.5296
 2212SOL     OW18271   0.345   2.561   2.317 -0.6530 -0.2156 -0.4346
 2212SOL    HW118272   0.289   2.485   2.331  0.3719 -0.9422 -0.2631
 2212SOL    HW218273   0.419   2.549   2.376 -0.8994  0.0506 -0.0750
 2213SOL     OW18274   1.143   2.444  10.679 -0.1328  0.1395 -0.5644
 2213SOL    HW118275   1.066   2.475  10.725 -1.2788 -1.2080 -1.5657
 2213SOL    HW218276   1.213   2.491  10.725 -1.7221 -1.9646  3.9450
 2214SOL     OW18277   2.536   0.894   5.912 -0.3253  0.2780 -0.1828
 2214SOL    HW118278   2.449   0.918   5.879 -0.6926 -1.1411 -0.2674
 2214SOL    HW218279   2.548   0.952   5.987 -1.0788  1.1524 -0.7330
 2215SOL     OW18280   2.160   2.840  10.939  0.1665 -0.0374  0.3466
 2215SOL    HW118281   2.086   2.846  11.000 -0.5445  1.6778 -0.6804
 2215SOL    HW218282   2.216   2.904  10.983 -0.2617  0.3425  0.3464
 2216SOL     OW18283   2.939   4.131  15.746  0.1942 -0.1638  0.0274
 2216SOL    HW118284   2.889   4.190  15.690 -0.6405 -1.3574 -0.4791
 2216SOL    HW218285   2.921   4.048  15.701  0.0471 -0.2326  0.2079
 2217SOL     OW18286   3.070   1.477   8.817  0.1968 -0.3080 -0.1419
 2217SOL    HW118287   3.118   1.396   8.828  0.6504 -0.1572 -0.9731
 2217SOL    HW218288   3.135   1.547   8.811 -0.9981  0.7587 -0.6665
 2218SOL     OW18289   1.631   3.617   7.967  0.7106 -0.0138  0.2818
 2218SOL    HW118290   1.650   3.708   7.945 -0.7791 -0.0317 -1.0738
 2218SOL    HW218291   1.603   3.623   8.059  0.1523 -0.5484  0.1385
 2219SOL     OW18292   0.340   1.320   2.400  0.2202 -0.2434  0.0360
 2219SOL    HW118293   0.321   1.342   2.309  1.4995  1.2686  0.1226
 2219SOL    HW218294   0.405   1.387   2.421 -1.7402  2.0115 -1.0941
 2220SOL     OW18295   4.648   0.625   5.926  0.2923  0.2702 -0.0658
 2220SOL    HW118296   4.588   0.571   5.874  0.1144 -0.4797  0.9111
 2220SOL    HW218297   4.597   0.705   5.930  0.1239  0.1446  0.2740
 2221SOL     OW18298   1.798   2.139  15.051  0.1881 -0.3607  0.0174
 2221SOL    HW118299   1.818   2.106  14.964  1.0476 -2.3427  0.9684
 2221SOL    HW218300   1.738   2.212  15.036 -0.0368 -0.9739 -1.9501
 2222SOL     OW18301   0.457   0.746   1.689 -0.0408  0.2195 -0.0251
 2222SOL    HW118302   0.529   0.732   1.750  1.0822 -1.3252 -1.7239
 2222SOL    HW218303   0.490   0.707   1.609 -0.4020 -0.9894  0.4139
 2223SOL     OW18304   3.552   1.973   9.881  0.4681  0.4624  0.5279
 2223SOL    HW118305   3.571   1.881   9.903 -0.9997  0.2384  0.8683
 2223SOL    HW218306   3.629   2.024   9.904  0.5084  0.2407  0.8887
 2224SOL     OW18307   0.976   3.139   1.607  0.2524 -0.0379  0.1886
 2224SOL    HW118308   1.041   3.159   1.673 -0.4741  0.3142  0.7912
 2224SOL    HW218309   0.981   3.045   1.590 -0.8312 -0.1792  0.6444
 2225SOL     OW18310   1.655   0.969   5.532  0.0912 -0.0007 -0.4050
 2225SOL    HW118311   1.744   0.967   5.566 -1.3242 -0.5385  3.2564
 2225SOL    HW218312   1.614   0.983   5.617 -1.8537 -1.4831 -1.1070
 2226SOL     OW18313   1.699   0.405   8.723  0.3292  0.3605  0.1475
 2226SOL    HW118314   1.611   0.383   8.690  0.6118 -1.6480  0.7053
 2226SOL    HW218315   1.678   0.486   8.769 -1.9918  0.0223 -0.2927
 2227SOL     OW18316   2.229   0.545   1.608  0.1561  0.0413  0.1452
 2227SOL    HW118317   2.203   0.468   1.557  2.4247 -1.1307  0.7772
 2227SOL    HW218318   2.285   0.501   1.673 -1.9025 -1.0975  1.1547
 2228SOL     OW18319   3.262   3.557   7.813  0.3520 -0.7644 -0.6690
 2228SOL    HW118320   3.325   3.565   7.741  0.2119 -1.0653 -0.8224
 2228SOL    HW218321   3.309   3.499   7.873  1.3578  0.5984 -0.1205
 2229SOL     OW18322   1.045   2.801   8.852  0.4051 -0.3883 -0.0997
 2229SOL    HW118323   1.133   2.776   8.881 -0.7739 -3.1468  1.1293
 2229SOL    HW218324   1.003   2.715   8.863 -0.6485  0.0737 -0.5231
 2230SOL     OW18325   3.136   3.917   2.773 -0.6167 -0.7207  0.0275
 2230SOL    HW118326   3.205   3.929   2.708 -1.7225 -3.2146 -1.6433
 2230SOL    HW218327   3.079   3.858   2.723 -3.0149  0.8733  0.8676
 2231SOL     OW18328   3.253   4.469   9.077  0.4299 -0.1551 -0.0441
 2231SOL    HW118329   3.276   4.497   8.988  0.8620  0.5464  0.2894
 2231SOL    HW218330   3.329   4.417   9.101  0.3140  0.2944  1.2797
 2232SOL     OW18331   1.240   3.336   5.502  0.0179 -0.3575  0.0119
 2232SOL    HW118332   1.235   3.297   5.589 -1.3676  0.0568  0.1142
 2232SOL    HW218333   1.286   3.278   5.441 -1.4621  0.7220 -2.1136
 2233SOL     OW18334   3.789   0.291   8.196  0.2828 -0.2173 -0.1138
 2233SOL    HW118335   3.881   0.319   8.194  0.9721 -2.5008 -0.0736
 2233SOL    HW218336   3.778   0.254   8.108 -0.7607 -1.2642  0.4550
 2234SOL     OW18337   1.129   3.619  13.271  0.3739 -0.2470  0.2354
 2234SOL    HW118338   1.077   3.631  13.192 -2.0712  0.1933  1.9015
 2234SOL    HW218339   1.062   3.603  13.339 -1.5947  1.2600 -1.3467
 2235SOL     OW18340   3.784   3.224   2.671  0.1003  0.3505 -0.3814
 2235SOL    HW118341   3.768   3.185   2.757  2.2158  1.4291  0.4925
 2235SOL    HW218342   3.812   3.310   2.704 -0.7126  0.2370  0.6170
 2236SOL     OW18343   0.341   0.731   4.621  0.1095  0.2686  0.1404
 2236SOL    HW118344   0.298   0.709   4.538  0.6976 -0.9811  0.1685
 2236SOL    HW218345   0.267   0.721   4.680 -0.3883 -1.0184 -0.6983
 2237SOL     OW18346   0.041   1.786   7.159  0.3353 -0.7498 -0.2249
 2237SOL    HW118347   4.699   1.749   7.118 -0.9301 -1.9383  3.2293
 2237SOL    HW218348   0.012   1.870   7.195 -0.0277 -1.1257  0.3747
 2238SOL     OW18349   2.337   4.073   6.991 -0.3187  0.5459  0.3240
 2238SOL    HW118350   2.294   4.150   7.028 -1.1746  0.3425 -0.2547
 2238SOL    HW218351   2.331   4.010   7.063  2.3178  1.7583  1.5959
 2239SOL     OW18352   2.370   4.375   3.044 -0.1671 -0.2460  0.2356
 2239SOL    HW118353   2.320   4.363   2.963 -1.0434  1.2002  0.5582
 2239SOL    HW218354   2.348   4.465   3.069  4.0454  0.2670  2.0633
 2240SOL     OW18355   1.101   3.886   3.876 -0.6443  0.2491 -0.0170
 2240SOL    HW118356   1.065   3.840   3.800 -1.2600 -0.2421  0.5733
 2240SOL    HW218357   1.131   3.824   3.942 -0.6933  0.6906  0.4215
 2241SOL     OW18358   3.640   2.697   8.494 -0.5815  0.3578  0.2265
 2241SOL    HW118359   3.547   2.674   8.501 -1.0055  1.8905 -0.5248
 2241SOL    HW218360   3.680   2.667   8.576  1.1622  1.9130 -0.0568
 2242SOL     OW18361   3.676   3.509   2.973  0.2272 -0.0002  0.7704
 2242SOL    HW118362   3.761   3.530   3.011  0.3678  0.1637  0.3630
 2242SOL    HW218363   3.706   3.518   2.883  0.1950  2.5672  1.0197
 2243SOL     OW18364   3.036   4.727   5.543  0.2855 -0.3914  0.0277
 2243SOL    HW118365   3.065   0.079   5.519  1.7358 -0.6747  0.7376
 2243SOL    HW218366   2.947   4.719   5.509  0.4222 -0.1761 -0.3825
 2244SOL     OW18367   3.593   1.352  16.060  0.5013  0.2163 -0.1925
 2244SOL    HW118368   3.516   1.367  16.114  0.8362  2.8355 -0.4302
 2244SOL    HW218369   3.586   1.257  16.047  0.7371  0.1521  0.1500
 2245SOL     OW18370   0.855   1.689   9.435 -0.2579 -0.3820  0.2269
 2245SOL    HW118371   0.902   1.628   9.379  1.5032  1.6005 -0.4766
 2245SOL    HW218372   0.825   1.755   9.373  0.7021  0.0885  0.2523
 2246SOL     OW18373   4.288   3.832   1.810 -0.0044 -0.1758  0.2020
 2246SOL    HW118374   4.323   3.776   1.740  3.3909  3.2590 -0.8661
 2246SOL    HW218375   4.370   3.878   1.831 -1.0490  1.3711  0.8450
 2247SOL     OW18376   4.490   4.212  11.998  0.5090  0.5270 -0.6116
 2247SOL    HW118377   4.465   4.126  11.964 -0.4179  0.2132  0.8912
 2247SOL    HW218378   4.408   4.248  12.031  1.3913  1.4661  0.5692
 2248SOL     OW18379   0.415   3.197   1.643  0.1890 -0.7403  0.0967
 2248SOL    HW118380   0.504   3.165   1.660 -0.0964  0.1244  3.1339
 2248SOL    HW218381   0.370   3.186   1.726  1.4016 -2.2873  0.5575
 2249SOL     OW18382   1.136   3.992   3.484 -0.0313 -0.0124  0.3555
 2249SOL    HW118383   1.144   3.898   3.497  1.3969  0.2211  1.1031
 2249SOL    HW218384   1.093   4.000   3.399 -1.2734 -1.8501  0.8118
 2250SOL     OW18385   3.872   1.220   8.193 -0.5624 -0.0271  0.5498
 2250SOL    HW118386   3.950   1.222   8.136 -1.2012  1.6890 -0.2640
 2250SOL    HW218387   3.837   1.308   8.178 -2.8035 -1.4000 -2.2628
 2251SOL     OW18388   2.949   3.633   1.336  0.3246 -0.4674  0.2583
 2251SOL    HW118389   3.020   3.652   1.275  0.1558  1.1358  0.5715
 2251SOL    HW218390   2.911   3.721   1.340  0.3855 -0.3976 -0.6424
 2252SOL     OW18391   1.536   4.724  14.648 -0.0502  0.0448  0.1341
 2252SOL    HW118392   1.559   4.631  14.645  1.1149  0.3012  1.2403
 2252SOL    HW218393   1.623   0.020  14.626 -0.8688  1.8278 -0.5165
 2253SOL     OW18394   3.880   1.194   0.718  0.0964 -0.2427 -0.1327
 2253SOL    HW118395   3.938   1.247   0.664  1.0544  0.9972  2.1139
 2253SOL    HW218396   3.849   1.253   0.786 -0.4906  0.0552 -0.6631
 2254SOL     OW18397   2.720   3.337   7.408  0.2170  0.0437  0.2121
 2254SOL    HW118398   2.772   3.407   7.368  1.2737 -0.6008  0.4652
 2254SOL    HW218399   2.783   3.297   7.468 -0.0418  1.2607  1.2972
 2255SOL     OW18400   0.374   1.972  14.793 -0.0013 -0.1023 -0.1854
 2255SOL    HW118401   0.313   2.040  14.764  0.7798  0.4342 -0.5475
 2255SOL    HW218402   0.457   1.994  14.751 -0.4629  2.3909  0.2161
 2256SOL     OW18403   3.150   2.202   4.933  0.5149  0.3403 -0.3372
 2256SOL    HW118404   3.226   2.231   4.984  0.8806  0.4996 -0.9798
 2256SOL    HW218405   3.189   2.176   4.850  2.1681 -0.5001  0.6911
 2257SOL     OW18406   2.153   4.455  12.875  0.2855 -0.5959  0.3012
 2257SOL    HW118407   2.096   4.494  12.942  0.9511  1.0552 -0.0866
 2257SOL    HW218408   2.112   4.483  12.793 -2.3948 -0.8045  1.5456
 2258SOL     OW18409   2.278   2.221   0.408 -0.2291 -0.1580 -0.3647
 2258SOL    HW118410   2.350   2.168   0.373  0.5530 -0.2733  1.3941
 2258SOL    HW218411   2.228   2.152   0.452 -0.2377  0.1753  0.1485
 2259SOL     OW18412   1.388   3.821   9.848 -0.1040 -0.3342 -0.1067
 2259SOL    HW118413   1.370   3.841   9.756 -0.5375  0.4269  0.1467
 2259SOL    HW218414   1.301   3.810   9.886 -0.4422  1.8395 -0.2785
 2260SOL     OW18415   3.214   2.735   9.983 -0.2115 -0.2675 -0.7387
 2260SOL    HW118416   3.283   2.747   9.918  0.5481  2.3950  0.5474
 2260SOL    HW218417   3.163   2.806   9.945 -0.4889  0.1134  0.3550
 2261SOL     OW18418   0.489   2.529   3.892  0.1026  0.1168  0.0036
 2261SOL    HW118419   0.464   2.548   3.983 -0.0058  0.7673 -0.1548
 2261SOL    HW218420   0.567   2.583   3.880  0.6746 -0.2803  1.9145
 2262SOL     OW18421   4.149   1.376  16.271  0.1563 -0.4106 -0.0149
 2262SOL    HW118422   4.100   1.448  16.232 -1.0400 -0.1312  1.9866
 2262SOL    HW218423   4.096   1.298  16.254  1.5082 -1.2982 -0.1140
 2263SOL     OW18424   2.970   3.145  11.152  0.1351  0.0195 -0.1130
 2263SOL    HW118425   2.930   3.105  11.229  1.9152 -0.1928  0.7122
 2263SOL    HW218426   2.900   3.201  11.118  0.1968 -0.4811 -1.0787
 2264SOL     OW18427   4.102   2.105   2.896 -0.4792 -0.0843  0.4823
 2264SOL    HW118428   4.037   2.044   2.932 -1.1367  0.8584  0.8963
 2264SOL    HW218429   4.091   2.182   2.951 -2.4709 -1.1837  1.6131
 2265SOL     OW18430   4.206   2.243   4.328  0.5324  0.6085 -0.0331
 2265SOL    HW118431   4.247   2.319   4.286  1.6274 -1.4575 -2.7259
 2265SOL    HW218432   4.142   2.223   4.259 -0.2067  2.1975  0.2047
 2266SOL     OW18433   0.969   1.864   4.137 -0.0613  0.0083 -0.3000
 2266SOL    HW118434   0.908   1.808   4.186 -0.2962 -0.5502 -1.2079
 2266SOL    HW218435   1.023   1.805   4.084 -0.4201 -0.9938  0.4466
 2267SOL     OW18436   2.993   3.674   4.361 -0.0682  0.1535  0.4953
 2267SOL    HW118437   3.032   3.602   4.410 -0.3557  0.4018  1.0836
 2267SOL    HW218438   2.911   3.627   4.351  0.6786 -1.2865  1.1081
 2268SOL     OW18439   2.601   0.023  16.319 -0.1921  0.5443 -0.5135
 2268SOL    HW118440   2.589   0.069  16.403 -1.4681 -0.6507 -0.0391
 2268SOL    HW218441   2.656   4.688  16.353 -0.4430  0.5209 -0.1479
 2269SOL     OW18442   4.090   2.834   9.814  0.1242  0.0278  0.5431
 2269SOL    HW118443   4.003   2.795   9.817  0.1908 -0.2279 -0.8146
 2269SOL    HW218444   4.096   2.879   9.898 -0.3601 -0.2597  0.7284
 2270SOL     OW18445   3.639   1.627   7.259  0.2691 -0.1533  0.0514
 2270SOL    HW118446   3.630   1.647   7.166 -1.6985  2.8327  0.8940
 2270SOL    HW218447   3.594   1.699   7.303 -0.7940  0.4711 -2.0679
 2271SOL     OW18448   4.142   4.508   9.503 -0.0107 -0.2780 -0.0808
 2271SOL    HW118449   4.125   4.450   9.577  0.7009 -0.1000  0.2174
 2271SOL    HW218450   4.125   4.596   9.538  1.2484  0.0763 -0.3710
 2272SOL     OW18451   1.945   4.504   0.251 -0.6600  0.9376  0.0382
 2272SOL    HW118452   1.877   4.543   0.196 -1.9301  1.3865  1.9551
 2272SOL    HW218453   1.974   4.586   0.289  3.3953  0.4464 -1.9317
 2273SOL     OW18454   1.925   1.871   7.102  0.0797 -0.0993  0.7841
 2273SOL    HW118455   1.854   1.825   7.057  0.5553  0.5848 -0.6398
 2273SOL    HW218456   1.883   1.911   7.178  1.2550 -0.8954  1.8645
 2274SOL     OW18457   3.703   3.382   8.450  0.2755 -0.0516  0.0776
 2274SOL    HW118458   3.725   3.352   8.538  0.1471 -1.6830 -0.4421
 2274SOL    HW218459   3.661   3.302   8.420  1.1993  0.2731 -2.0883
 2275SOL     OW18460   0.371   4.124   4.297  0.3039  0.7756 -0.0138
 2275SOL    HW118461   0.349   4.166   4.214  2.3144  1.8112 -0.0320
 2275SOL    HW218462   0.298   4.158   4.349  1.1223 -1.7616  2.8233
 2276SOL     OW18463   1.099   1.328  11.366 -0.0880 -0.0570  0.2902
 2276SOL    HW118464   1.171   1.300  11.310 -1.2826  0.2325 -1.3860
 2276SOL    HW218465   1.025   1.277  11.334  0.0464  0.9607 -1.6442
 2277SOL     OW18466   1.323   2.621  17.624  0.6512  0.3023  0.6024
 2277SOL    HW118467   1.352   2.654  17.709  1.3758 -0.0637  0.4969
 2277SOL    HW218468   1.400   2.622  17.567  0.0281 -2.5595 -0.3080
 2278SOL     OW18469   0.838   3.797  15.292  0.1490  0.2369 -0.0605
 2278SOL    HW118470   0.830   3.771  15.383  0.2575 -0.8240 -0.3463
 2278SOL    HW218471   0.841   3.892  15.296  0.7475  0.1526  1.3084
 2279SOL     OW18472   2.414   2.988   3.960  0.1971 -0.4809  0.0147
 2279SOL    HW118473   2.457   2.998   3.875 -0.3414 -2.3653 -0.4608
 2279SOL    HW218474   2.418   3.079   3.989  3.1665 -1.2802  2.1071
 2280SOL     OW18475   2.209   0.780   1.447 -0.2802  0.1189 -0.0160
 2280SOL    HW118476   2.241   0.724   1.376  0.7858 -1.4867  1.7454
 2280SOL    HW218477   2.215   0.721   1.522  4.5359  1.9432  1.0300
 2281SOL     OW18478   3.474   2.781   7.963  0.5663 -0.1917 -0.0443
 2281SOL    HW118479   3.392   2.805   8.005  1.1368  3.6228 -1.1101
 2281SOL    HW218480   3.528   2.857   7.984  0.1477  0.3275 -0.8551
 2282SOL     OW18481   1.630   0.905   2.383  0.1207  0.3740  0.2480
 2282SOL    HW118482   1.712   0.867   2.414  0.4732  1.9769  1.2283
 2282SOL    HW218483   1.648   0.998   2.388 -1.5075  0.5625  3.0541
 2283SOL     OW18484   1.835   1.323  13.000  0.1669 -0.0436 -0.1843
 2283SOL    HW118485   1.786   1.343  13.080 -0.4745  0.6298 -0.7479
 2283SOL    HW218486   1.860   1.407  12.962  2.2750 -0.6018 -0.0457
 2284SOL     OW18487   3.021   1.941   5.299 -0.1891 -0.0354 -0.4845
 2284SOL    HW118488   3.059   2.027   5.315 -1.6918  0.4701  0.4389
 2284SOL    HW218489   3.040   1.935   5.206  0.2568  0.3346 -0.4163
 2285SOL     OW18490   4.274   1.845  11.914 -0.4295 -0.3122  0.4283
 2285SOL    HW118491   4.367   1.840  11.891 -0.1577  2.3595  1.0165
 2285SOL    HW218492   4.242   1.925  11.873  0.1053  1.2626  3.1334
 2286SOL     OW18493   4.191   0.523  14.818 -0.8673  0.1354  0.2781
 2286SOL    HW118494   4.136   0.559  14.888  0.1316  0.1437  1.0537
 2286SOL    HW218495   4.185   0.595  14.755 -3.8090  0.6997  1.1986
 2287SOL     OW18496   1.554   2.563  15.613  0.0680  0.4806  0.3525
 2287SOL    HW118497   1.465   2.567  15.649 -0.8557  0.2987 -1.9105
 2287SOL    HW218498   1.547   2.629  15.545 -3.3025 -1.2288 -0.9988
 2288SOL     OW18499   0.608   0.380  12.108  0.1448  0.0363 -0.2226
 2288SOL    HW118500   0.656   0.364  12.027  0.5469  0.6599 -0.1087
 2288SOL    HW218501   0.669   0.432  12.160  1.1833 -0.3545 -1.0565
 2289SOL     OW18502   1.024   3.015   9.314 -0.4180 -0.1380 -0.3420
 2289SOL    HW118503   1.016   3.035   9.221 -0.6967  2.8439  0.3248
 2289SOL    HW218504   0.932   2.993   9.332 -0.5591  1.8238  1.3424
 2290SOL     OW18505   0.677   2.993   4.658 -0.1084 -0.2754 -0.6258
 2290SOL    HW118506   0.708   3.073   4.616 -0.6313  0.9176  1.2671
 2290SOL    HW218507   0.589   2.991   4.620 -0.6147  1.0732  0.4705
 2291SOL     OW18508   2.877   1.135  10.078 -0.6459 -0.0121  0.0242
 2291SOL    HW118509   2.791   1.175  10.070 -1.3899 -1.2666  1.6269
 2291SOL    HW218510   2.910   1.181  10.155 -0.5468  1.1677 -0.7206
 2292SOL     OW18511   0.307   1.101   0.239  0.1974  0.5382 -0.5338
 2292SOL    HW118512   0.371   1.031   0.223 -0.1898 -0.0129  0.3151
 2292SOL    HW218513   0.228   1.070   0.194  0.1982  1.3520 -1.0970
 2293SOL     OW18514   0.274   4.211   1.473  0.5512 -0.9881  0.1657
 2293SOL    HW118515   0.274   4.214   1.568  0.4627  0.4042  0.1240
 2293SOL    HW218516   0.214   4.136   1.470 -0.1859 -0.4373  1.1108
 2294SOL     OW18517   3.425   1.944   2.546 -0.3217  0.4911  0.7776
 2294SOL    HW118518   3.353   1.892   2.510  0.1813  1.1909 -1.2207
 2294SOL    HW218519   3.447   1.879   2.613 -0.3785 -2.0197 -1.6537
 2295SOL     OW18520   2.401   3.649   2.726  0.1520 -1.3629 -0.4518
 2295SOL    HW118521   2.470   3.638   2.660  3.3445 -1.1177  2.8070
 2295SOL    HW218522   2.444   3.631   2.810  0.7608  4.0593  0.3759
 2296SOL     OW18523   0.307   4.401   2.254 -0.2066 -0.0018 -0.0480
 2296SOL    HW118524   0.235   4.339   2.270 -2.3033  2.6391  0.7322
 2296SOL    HW218525   0.278   4.467   2.191  1.1387 -0.2225 -0.9065
 2297SOL     OW18526   2.450   3.709  14.411 -0.0938 -0.1026 -0.1487
 2297SOL    HW118527   2.405   3.768  14.350  0.6527  1.5279  0.8827
 2297SOL    HW218528   2.379   3.651  14.439  0.3418 -0.2406  0.6801
 2298SOL     OW18529   2.820   0.010  12.252  0.0460 -0.7046 -0.2057
 2298SOL    HW118530   2.816   0.091  12.302  0.5240 -0.5706 -0.3842
 2298SOL    HW218531   2.888   4.701  12.303 -1.1424 -0.1017  1.8984
 2299SOL     OW18532   0.141   0.774  10.122  0.4949  0.1178 -0.3826
 2299SOL    HW118533   0.116   0.719  10.196 -0.0600  0.2814 -0.4500
 2299SOL    HW218534   0.117   0.861  10.154 -0.7443 -0.1884 -0.4919
 2300SOL     OW18535   0.018   3.981  14.528 -0.1704  0.5902 -0.7626
 2300SOL    HW118536   4.679   3.993  14.470 -0.1346 -1.8672 -1.3099
 2300SOL    HW218537   0.051   4.070  14.542  0.9272  0.0721 -0.0301
 2301SOL     OW18538   2.425   0.100   2.474  0.6229 -0.7768  0.1554
 2301SOL    HW118539   2.455   0.053   2.396  1.1734 -2.5605  1.4474
 2301SOL    HW218540   2.330   0.086   2.482  0.5373 -0.6391 -0.5972
 2302SOL     OW18541   3.514   0.080   6.017  0.0134 -0.1244  0.5176
 2302SOL    HW118542   3.579   0.095   6.085  0.3102  2.0609 -0.2607
 2302SOL    HW218543   3.442   0.053   6.075 -0.3572 -1.1485 -0.4168
 2303SOL     OW18544   2.012   2.480   5.481 -0.0973  0.0933  0.1661
 2303SOL    HW118545   2.087   2.420   5.489  0.7884  0.7378 -3.3393
 2303SOL    HW218546   2.022   2.530   5.562 -0.1708 -0.3055  0.4220
 2304SOL     OW18547   2.789   3.931   3.844  0.4923  0.0892  0.0602
 2304SOL    HW118548   2.854   3.955   3.777  1.1267  0.8773  0.9443
 2304SOL    HW218549   2.796   3.836   3.847  1.1563  0.1185 -0.3343
 2305SOL     OW18550   1.526   1.763  13.010 -0.0719 -0.0411 -0.1118
 2305SOL    HW118551   1.562   1.754  12.922 -1.3999  1.8197 -0.8577
 2305SOL    HW218552   1.606   1.742  13.057  0.7381 -0.3499 -1.6454
 2306SOL     OW18553   1.874   4.058   6.959 -0.2236  0.4678  0.5170
 2306SOL    HW118554   1.940   4.084   7.023 -0.5906  0.3425  0.9516
 2306SOL    HW218555   1.928   4.074   6.882  1.7615 -2.2137  1.3670
 2307SOL     OW18556   4.245   2.038   1.962  0.5035  0.0434  0.0083
 2307SOL    HW118557   4.246   1.950   1.999  2.0666 -0.7765 -1.9844
 2307SOL    HW218558   4.154   2.068   1.970  0.4302 -0.8007  2.1605
 2308SOL     OW18559   1.104   3.224   3.268 -0.7329  0.0400  0.8734
 2308SOL    HW118560   1.074   3.141   3.231 -0.8156  0.2323  0.5148
 2308SOL    HW218561   1.123   3.276   3.190 -0.2851 -1.1117  0.2172
 2309SOL     OW18562   1.361   3.244   6.372 -0.0756 -0.1539 -0.0047
 2309SOL    HW118563   1.343   3.338   6.370 -1.6757 -0.4071  2.3400
 2309SOL    HW218564   1.315   3.220   6.452 -0.6714  0.3720 -0.1827
 2310SOL     OW18565   2.563   3.139  14.681 -0.0735 -0.8908  0.2089
 2310SOL    HW118566   2.556   3.063  14.625  3.2700 -0.8357 -0.2780
 2310SOL    HW218567   2.581   3.215  14.625  1.3008 -1.3315  0.0533
 2311SOL     OW18568   4.424   2.041   1.404 -0.2762 -0.8718 -0.4270
 2311SOL    HW118569   4.331   2.019   1.399 -1.1278  2.4970  0.3489
 2311SOL    HW218570   4.422   2.072   1.495  0.6100  0.5377 -0.8857
 2312SOL     OW18571   2.985   0.773   6.199  0.1596 -0.2295  0.4923
 2312SOL    HW118572   2.920   0.749   6.266 -0.0503 -1.1693 -0.0524
 2312SOL    HW218573   2.979   0.707   6.130 -0.8588 -1.3395  1.6361
 2313SOL     OW18574   2.504   2.644   5.753  0.1649  0.7484  0.0651
 2313SOL    HW118575   2.540   2.556   5.747  0.9962  1.1414 -0.7607
 2313SOL    HW218576   2.535   2.680   5.836  0.4530  0.2072  0.1889
 2314SOL     OW18577   1.152   2.401   2.063 -0.1559  0.0650  0.1924
 2314SOL    HW118578   1.087   2.389   1.994 -0.5735  2.1601  0.2140
 2314SOL    HW218579   1.088   2.412   2.134  0.9825 -3.9863  1.8450
 2315SOL     OW18580   1.534   1.528  12.231 -0.1824 -0.3107 -0.4023
 2315SOL    HW118581   1.517   1.563  12.144 -1.2862 -0.3063 -0.1812
 2315SOL    HW218582   1.457   1.558  12.280  1.1292  1.0709  0.8346
 2316SOL     OW18583   2.738   3.364  11.203  0.2950  0.4184  0.0871
 2316SOL    HW118584   2.774   3.408  11.280 -1.5794 -2.7063  2.7302
 2316SOL    HW218585   2.681   3.303  11.250 -0.0821 -0.2572 -1.2694
 2317SOL     OW18586   3.906   1.587   8.508  0.1988  0.0974 -0.3455
 2317SOL    HW118587   3.840   1.521   8.487  0.3281 -0.4906  1.1058
 2317SOL    HW218588   3.904   1.584   8.604 -1.3025 -1.4730 -0.4236
 2318SOL     OW18589   3.705   4.172   8.613  0.3208 -0.1566  0.5888
 2318SOL    HW118590   3.630   4.217   8.653  0.7112 -0.1682  1.3335
 2318SOL    HW218591   3.759   4.149   8.688  1.2131  0.7800  0.2279
 2319SOL     OW18592   4.127   1.121   4.428  0.4352 -0.8675 -0.1204
 2319SOL    HW118593   4.031   1.115   4.428  0.4641 -1.3920  0.6196
 2319SOL    HW218594   4.139   1.198   4.483 -0.1028 -0.6120 -0.3598
 2320SOL     OW18595   2.293   0.510  14.558 -0.1508 -0.3804 -0.5164
 2320SOL    HW118596   2.248   0.484  14.638 -0.9088  0.6655 -0.6056
 2320SOL    HW218597   2.248   0.593  14.539 -0.1062 -0.6827 -1.8968
 2321SOL     OW18598   0.021   0.258  12.616  1.0826 -0.2691 -0.4110
 2321SOL    HW118599   4.690   0.254  12.548  0.7797 -0.8135 -0.0861
 2321SOL    HW218600   4.717   0.333  12.660 -0.1577 -0.0577 -1.9224
 2322SOL     OW18601   1.767   0.565  16.063  0.4846  0.2926 -0.2205
 2322SOL    HW118602   1.811   0.646  16.089 -0.9312  1.6728 -2.1718
 2322SOL    HW218603   1.784   0.512  16.141 -0.4870 -0.2672 -0.3845
 2323SOL     OW18604   1.943   0.474   2.884  0.2059  0.3258  0.1821
 2323SOL    HW118605   1.901   0.553   2.850  0.9393 -0.4943 -2.6417
 2323SOL    HW218606   1.968   0.491   2.974 -0.9858  1.6971  0.2450
 2324SOL     OW18607   4.544   1.817   1.468  0.0832  0.3525  0.7292
 2324SOL    HW118608   4.613   1.867   1.512  0.9558  0.1809 -0.4171
 2324SOL    HW218609   4.488   1.893   1.451  3.0842  1.4593 -4.2939
 2325SOL     OW18610   0.898   4.175   8.155  0.4496  0.6400 -0.1998
 2325SOL    HW118611   0.826   4.232   8.130  0.8357  1.2616  0.0911
 2325SOL    HW218612   0.863   4.127   8.230 -2.2495  0.1839 -1.7767
 2326SOL     OW18613   1.683   3.562   9.007 -0.0535 -0.3035 -0.8891
 2326SOL    HW118614   1.693   3.640   9.062 -1.5218 -1.3328  0.8670
 2326SOL    HW218615   1.765   3.554   8.960  0.8041 -0.0240  0.5518
 2327SOL     OW18616   0.159   4.405   6.526 -0.4744 -0.1347  0.9799
 2327SOL    HW118617   0.221   4.334   6.540 -0.2970  0.2420  2.1421
 2327SOL    HW218618   0.142   4.398   6.432 -0.9884 -0.7383  1.1124
 2328SOL     OW18619   2.947   4.717   6.520 -0.4603 -0.0649 -0.7405
 2328SOL    HW118620   3.022   0.040   6.522 -0.4141 -0.1052 -1.2324
 2328SOL    HW218621   2.895   0.028   6.454 -0.2872  1.5380  0.2816
 2329SOL     OW18622   4.467   4.281   3.522 -0.3594  0.1111  0.0378
 2329SOL    HW118623   4.436   4.300   3.434  1.6314  0.0439 -0.6731
 2329SOL    HW218624   4.432   4.193   3.539 -1.0626  0.1511 -1.2024
 2330SOL     OW18625   4.518   0.240   8.362  0.3154  0.1029  0.3697
 2330SOL    HW118626   4.493   0.266   8.451 -1.8968  0.9280 -0.4864
 2330SOL    HW218627   4.568   0.316   8.333 -0.0669  0.0099 -0.5321
 2331SOL     OW18628   3.377   3.782  17.569 -0.0380  0.5671 -0.3611
 2331SOL    HW118629   3.467   3.789  17.600  0.3240  1.6901 -1.6854
 2331SOL    HW218630   3.330   3.812  17.647 -1.4372  0.8576 -1.3006
 2332SOL     OW18631   0.687   4.111   3.187  0.3590 -0.4732 -0.0185
 2332SOL    HW118632   0.727   4.109   3.100  1.2588 -0.2631  0.3897
 2332SOL    HW218633   0.738   4.175   3.237 -2.0989 -0.7427  2.8858
 2333SOL     OW18634   2.208   1.751   2.575 -0.0461  0.0427 -0.2184
 2333SOL    HW118635   2.272   1.822   2.572 -1.4468  1.3420  1.1112
 2333SOL    HW218636   2.206   1.716   2.486 -0.3564 -1.3336  0.3253
 2334SOL     OW18637   2.881   1.329   1.660  0.9484  0.0313 -0.0713
 2334SOL    HW118638   2.921   1.414   1.673 -2.5751  1.8948 -1.4794
 2334SOL    HW218639   2.923   1.295   1.581  1.3383  1.7889 -0.6016
 2335SOL     OW18640   2.929   0.535  10.895 -0.3913  0.8653  0.1430
 2335SOL    HW118641   2.845   0.532  10.849 -1.1735  2.1765  1.4771
 2335SOL    HW218642   2.986   0.477  10.844  2.4814  1.4093  2.7142
 2336SOL     OW18643   1.906   2.196  11.893 -0.2301 -0.8542  0.0941
 2336SOL    HW118644   1.968   2.202  11.966 -0.1477  2.3185 -0.2497
 2336SOL    HW218645   1.962   2.149  11.831 -0.9661  0.0192 -1.2376
 2337SOL     OW18646   1.522   4.670   3.437 -0.6900  0.0742  0.2576
 2337SOL    HW118647   1.496   4.601   3.498  0.0782 -0.6611 -0.2431
 2337SOL    HW218648   1.445   4.671   3.380 -0.5282  0.2652  0.0423
 2338SOL     OW18649   2.691   2.173   6.968 -0.0276  0.3047 -0.1393
 2338SOL    HW118650   2.678   2.159   6.874 -1.7695  2.2407 -0.1956
 2338SOL    HW218651   2.598   2.185   6.989  0.6495  0.0278  3.0725
 2339SOL     OW18652   1.943   0.288  15.945  0.2586 -0.1592  0.1648
 2339SOL    HW118653   2.003   0.215  15.937 -0.9583 -1.2248  0.7164
 2339SOL    HW218654   1.863   0.242  15.970  0.4954 -0.4843  0.3140
 2340SOL     OW18655   2.651   2.083   6.704 -0.2447 -0.5267  0.2672
 2340SOL    HW118656   2.555   2.078   6.709 -0.3476  1.0343 -0.0963
 2340SOL    HW218657   2.675   2.004   6.657 -1.1546  1.0390 -2.8728
 2341SOL     OW18658   1.722   4.434   7.663  0.0557  0.1488 -0.4530
 2341SOL    HW118659   1.737   4.472   7.750  0.0318  0.8173 -0.7421
 2341SOL    HW218660   1.789   4.480   7.613 -0.4244  1.3830  0.0521
 2342SOL     OW18661   4.305   0.931   6.172  0.1351  0.3107  0.0301
 2342SOL    HW118662   4.387   0.968   6.207  0.7467 -0.6960 -0.3584
 2342SOL    HW218663   4.289   0.984   6.094 -2.0217  1.1170  1.0278
 2343SOL     OW18664   3.156   0.697   5.891  0.1511  0.4369 -0.2610
 2343SOL    HW118665   3.069   0.665   5.917 -0.8382  1.8002 -1.8659
 2343SOL    HW218666   3.210   0.688   5.969  3.6884 -0.2364 -2.8248
 2344SOL     OW18667   3.057   2.222   5.398 -0.2047  0.4286  0.1967
 2344SOL    HW118668   2.984   2.265   5.443 -0.8883  0.4233 -0.9061
 2344SOL    HW218669   3.068   2.274   5.319  0.6134 -0.0295  0.0072
 2345SOL     OW18670   2.893   4.359   4.812 -0.0379  0.5798  0.1891
 2345SOL    HW118671   2.941   4.281   4.839 -1.4370 -0.1150  0.6601
 2345SOL    HW218672   2.914   4.358   4.719  2.2184  1.8032  0.6856
 2346SOL     OW18673   2.937   1.227  15.626 -0.6625 -0.7832 -0.4982
 2346SOL    HW118674   2.915   1.228  15.533  0.8504 -3.0166 -0.8790
 2346SOL    HW218675   2.933   1.131  15.632 -0.6828 -0.7904 -0.6179
 2347SOL     OW18676   3.194   3.254   2.321 -0.0370  0.2443  0.0791
 2347SOL    HW118677   3.199   3.265   2.226 -3.3626 -3.1186 -0.4827
 2347SOL    HW218678   3.109   3.211   2.311 -0.1967  0.3716  0.8536
 2348SOL     OW18679   0.587   4.494   4.703 -0.0208  0.0608 -0.9142
 2348SOL    HW118680   0.598   4.579   4.746 -1.2057 -0.1609 -0.1967
 2348SOL    HW218681   0.504   4.497   4.657 -1.0791  0.9398  1.0696
 2349SOL     OW18682   3.242   2.999   5.681 -0.3412  0.3445 -0.0614
 2349SOL    HW118683   3.325   3.023   5.638 -0.7001  1.6006 -0.0705
 2349SOL    HW218684   3.252   3.041   5.767  1.7478 -1.9109  0.8004
 2350SOL     OW18685   0.155   3.299   8.277 -0.6608  0.3214 -0.4867
 2350SOL    HW118686   0.234   3.255   8.308 -2.4601 -1.2322  1.9458
 2350SOL    HW218687   0.157   3.253   8.193  1.1514  1.3539 -0.9996
 2351SOL     OW18688   3.352   0.235   0.838  0.4878  0.0138  0.2928
 2351SOL    HW118689   3.379   0.182   0.763  1.7293 -2.0105  2.1348
 2351SOL    HW218690   3.260   0.255   0.821  0.2060  0.5594  2.4016
 2352SOL     OW18691   3.611   1.060   1.142  0.1773  0.4826  0.0299
 2352SOL    HW118692   3.701   1.056   1.174  0.1244  0.3949  0.1681
 2352SOL    HW218693   3.599   0.984   1.085 -0.6111  0.3522  0.3752
 2353SOL     OW18694   3.997   4.023   5.150 -0.0837  0.0384 -0.1257
 2353SOL    HW118695   4.037   4.079   5.083 -0.0473  0.8994  0.6265
 2353SOL    HW218696   3.951   4.092   5.197  1.6725  1.5915 -0.6756
 2354SOL     OW18697   0.657   4.102  13.993 -0.0159 -0.4017 -0.2580
 2354SOL    HW118698   0.669   4.034  14.060  1.5037  0.7473  0.6239
 2354SOL    HW218699   0.719   4.079  13.923  1.7129  3.2203  0.0856
 2355SOL     OW18700   0.364   0.441   1.820 -0.4079  0.2197  0.0875
 2355SOL    HW118701   0.453   0.422   1.847 -0.3055 -0.2315 -0.5745
 2355SOL    HW218702   0.332   0.362   1.776  2.7861 -0.9165 -0.1845
 2356SOL     OW18703   2.711   3.926  16.907 -0.8375  0.5507 -0.3610
 2356SOL    HW118704   2.779   3.968  16.960  0.5995  0.1319 -1.8531
 2356SOL    HW218705   2.644   3.916  16.974  1.3837 -1.7622  1.4930
 2357SOL     OW18706   1.120   4.254   7.905 -0.2851 -0.3303 -0.7425
 2357SOL    HW118707   1.077   4.199   7.840 -0.5537 -0.9944  0.0019
 2357SOL    HW218708   1.049   4.318   7.919 -0.2953 -0.3595 -0.6583
 2358SOL     OW18709   0.848   3.696   8.316 -0.1050 -0.3855 -0.0361
 2358SOL    HW118710   0.920   3.755   8.291  0.6552 -1.4725 -0.3750
 2358SOL    HW218711   0.887   3.610   8.325  2.4268  0.8372  0.7063
 2359SOL     OW18712   2.315   0.773  17.598  0.2876  0.0711  0.9047
 2359SOL    HW118713   2.395   0.808  17.559  1.0456 -1.7114  0.9145
 2359SOL    HW218714   2.252   0.758  17.527 -1.2991  1.6201  1.9715
 2360SOL     OW18715   1.450   3.593   4.356  0.0966  0.3138  0.1871
 2360SOL    HW118716   1.506   3.581   4.280  0.1652  1.3037  0.0768
 2360SOL    HW218717   1.492   3.529   4.413  0.1377  0.1318 -0.0487
 2361SOL     OW18718   3.437   1.176  17.589 -0.0022  0.6916  0.1033
 2361SOL    HW118719   3.480   1.255  17.555  3.0668 -1.3663 -0.7690
 2361SOL    HW218720   3.477   1.155  17.673 -0.9776 -0.1231  0.3591
 2362SOL     OW18721   2.586   2.383  11.625 -0.5697 -0.2185  0.1589
 2362SOL    HW118722   2.548   2.362  11.710  1.3143 -0.9324  0.8212
 2362SOL    HW218723   2.583   2.304  11.572 -1.0807 -0.6864  0.8860
 2363SOL     OW18724   2.246   2.589  17.563  0.5347 -0.2618 -0.0773
 2363SOL    HW118725   2.256   2.503  17.606 -2.1794 -0.8362 -0.5873
 2363SOL    HW218726   2.320   2.589  17.502 -0.1233 -2.7999 -0.8812
 2364SOL     OW18727   3.577   2.128   5.410  0.3146 -0.4552 -0.2182
 2364SOL    HW118728   3.595   2.103   5.501 -0.3146  1.0276  0.3052
 2364SOL    HW218729   3.596   2.045   5.366  3.0480  0.6685 -1.1686
 2365SOL     OW18730   2.234   1.009  14.532  0.6131 -0.2332  0.5567
 2365SOL    HW118731   2.216   1.053  14.615 -3.0340  0.0638 -0.4041
 2365SOL    HW218732   2.327   1.020  14.511  0.9305  0.8884  2.5319
 2366SOL     OW18733   4.140   3.812   2.378 -0.3153 -0.3099  0.4734
 2366SOL    HW118734   4.049   3.788   2.361 -0.9695  1.3704  1.6026
 2366SOL    HW218735   4.176   3.837   2.292 -0.8273  3.5401  1.3452
 2367SOL     OW18736   3.454   2.896   3.185  0.1377 -0.3509 -0.6909
 2367SOL    HW118737   3.484   2.910   3.275 -0.9359 -0.8107 -0.2647
 2367SOL    HW218738   3.534   2.870   3.139  1.7444  2.4405  0.5463
 2368SOL     OW18739   3.779   3.944   6.834 -0.4149  0.2786  0.4350
 2368SOL    HW118740   3.698   3.991   6.813 -1.5807 -2.5190 -1.2278
 2368SOL    HW218741   3.842   3.978   6.771  0.3242  0.7477  1.4108
 2369SOL     OW18742   3.275   0.937   6.759  0.0426  0.2214  0.1439
 2369SOL    HW118743   3.218   1.003   6.718 -1.5665 -0.0873  1.9000
 2369SOL    HW218744   3.340   0.994   6.801 -1.6663  0.3893  2.6085
 2370SOL     OW18745   3.519   2.995   7.335  0.2959  0.2002 -0.4403
 2370SOL    HW118746   3.550   2.991   7.244  0.9395  0.7586 -0.2470
 2370SOL    HW218747   3.440   2.941   7.333  0.3172  0.1953 -1.4493
 2371SOL     OW18748   2.170   3.818   1.411 -0.2210 -0.1372  0.1782
 2371SOL    HW118749   2.128   3.832   1.326 -2.8504 -2.2720  1.1665
 2371SOL    HW218750   2.097   3.785   1.463  0.1074 -0.3315  0.5131
 2372SOL     OW18751   1.266   4.344  15.570 -0.5303  0.1333 -0.1867
 2372SOL    HW118752   1.327   4.412  15.601  0.4686 -0.0082 -1.8589
 2372SOL    HW218753   1.183   4.392  15.567 -0.0910  0.9617  0.9032
 2373SOL     OW18754   0.646   3.945   2.776 -0.2912  0.2428  0.0796
 2373SOL    HW118755   0.658   3.901   2.860  0.1726 -0.9796 -0.6186
 2373SOL    HW218756   0.603   4.026   2.802  0.4777  0.7351 -0.1824
 2374SOL     OW18757   1.546   4.440   3.638  0.1777  0.4758 -0.2403
 2374SOL    HW118758   1.577   4.405   3.554 -1.3582 -1.1419 -0.1320
 2374SOL    HW218759   1.634   4.452   3.674 -0.1976  2.7716 -0.0846
 2375SOL     OW18760   4.116   0.097   8.843 -0.3972 -0.7662 -0.0035
 2375SOL    HW118761   4.142   0.139   8.761 -0.7271  3.8904  2.2585
 2375SOL    HW218762   4.189   0.038   8.862 -0.9294 -1.6279 -0.6595
 2376SOL     OW18763   1.608   1.091  12.042  0.0517  0.0521  0.0607
 2376SOL    HW118764   1.558   1.029  11.989  1.0130  0.0541 -0.8464
 2376SOL    HW218765   1.685   1.038  12.065  0.5005  0.2069 -1.0983
 2377SOL     OW18766   0.210   0.655  14.937 -0.0912 -0.4013  0.4955
 2377SOL    HW118767   0.139   0.665  14.874  1.7236 -0.2601 -1.5373
 2377SOL    HW218768   0.271   0.608  14.882 -0.3270 -1.1193  0.8540
 2378SOL     OW18769   4.451   0.429  14.732  0.2166 -0.1305 -0.2708
 2378SOL    HW118770   4.365   0.457  14.764  0.5362 -0.6761  1.0711
 2378SOL    HW218771   4.440   0.337  14.710  1.5843 -0.7101  1.4620
 2379SOL     OW18772   4.678   4.704  17.481  0.0131 -0.5293 -0.7035
 2379SOL    HW118773   0.021   4.651  17.470 -0.7562 -1.7684 -0.2424
 2379SOL    HW218774   4.684   0.002  17.571 -0.3782  0.9498 -1.2471
 2380SOL     OW18775   1.345   0.813   5.899 -0.2800  0.4028  0.3749
 2380SOL    HW118776   1.251   0.822   5.914 -0.5625 -0.8125 -0.6381
 2380SOL    HW218777   1.377   0.786   5.985 -0.8683  1.9271  1.0649
 2381SOL     OW18778   0.943   1.731  17.021  0.6462  0.3866 -0.1307
 2381SOL    HW118779   1.000   1.804  17.044  1.0335 -0.7529  2.5767
 2381SOL    HW218780   0.995   1.654  17.045 -2.1710 -1.5478 -0.2568
 2382SOL     OW18781   3.716   1.754   3.316  0.0816  0.0789 -0.1985
 2382SOL    HW118782   3.621   1.768   3.317 -0.1769 -1.9473  2.0546
 2382SOL    HW218783   3.760   1.837   3.333  0.2151 -0.2820  1.1914
 2383SOL     OW18784   2.533   3.469   5.401  0.1144 -0.6792  0.7774
 2383SOL    HW118785   2.589   3.517   5.340  0.9972  0.1452  2.2382
 2383SOL    HW218786   2.509   3.537   5.464  1.5850 -0.4075  1.0450
 2384SOL     OW18787   2.255   0.652   6.813  0.1255 -0.4380 -0.2524
 2384SOL    HW118788   2.202   0.729   6.834 -0.9366 -1.1944 -0.1623
 2384SOL    HW218789   2.237   0.629   6.722 -0.4995 -0.9288 -0.0001
 2385SOL     OW18790   3.572   3.185   9.896 -0.3693 -0.4364  0.2287
 2385SOL    HW118791   3.608   3.254   9.951  0.2820 -0.3769 -0.2625
 2385SOL    HW218792   3.653   3.135   9.886  0.1909 -0.1313  3.4257
 2386SOL     OW18793   0.876   2.335   3.864 -0.1100  0.2931  0.4142
 2386SOL    HW118794   0.899   2.250   3.902  2.8652  0.9193 -0.0261
 2386SOL    HW218795   0.800   2.310   3.811  0.3515  0.3680 -0.2753
 2387SOL     OW18796   2.915   1.197  16.873  0.3044 -0.1583  0.2145
 2387SOL    HW118797   2.850   1.243  16.926  1.1958  0.1607  1.0383
 2387SOL    HW218798   2.878   1.109  16.867  1.3971 -0.5239 -1.2580
 2388SOL     OW18799   4.258   3.141   7.832  0.4780  0.0693  0.0343
 2388SOL    HW118800   4.224   3.172   7.748 -2.1259 -0.9148  0.7243
 2388SOL    HW218801   4.229   3.209   7.892 -0.9587 -0.5622  0.0568
 2389SOL     OW18802   3.598   2.019   5.648  0.5469  0.3540 -0.0891
 2389SOL    HW118803   3.634   1.936   5.680  0.0940  0.2942  0.2682
 2389SOL    HW218804   3.549   2.039   5.728 -0.8479 -0.3672 -0.7703
 2390SOL     OW18805   0.503   0.007   5.565 -0.4434  0.0501  0.4208
 2390SOL    HW118806   0.464   4.729   5.652 -0.8559  0.6311  0.3255
 2390SOL    HW218807   0.594   4.718   5.584 -1.1776 -2.8688  0.0844
 2391SOL     OW18808   0.165   0.810  14.499  0.3618 -0.3918  0.5412
 2391SOL    HW118809   0.083   0.814  14.449 -0.0195 -2.7451  0.9894
 2391SOL    HW218810   0.142   0.746  14.566  1.2930 -2.7106 -1.3753
 2392SOL     OW18811   3.946   0.065   7.296 -0.1511 -0.3361 -0.0568
 2392SOL    HW118812   3.956   0.022   7.381 -1.5101 -0.7232 -0.0928
 2392SOL    HW218813   3.853   0.043   7.287 -0.3855  0.7434 -0.2337
 2393SOL     OW18814   4.496   2.342   5.158  0.4484 -0.3749  0.4101
 2393SOL    HW118815   4.443   2.421   5.150  3.5159  1.7386  1.1279
 2393SOL    HW218816   4.576   2.389   5.180  0.7838 -0.4332 -0.6573
 2394SOL     OW18817   4.491   4.257   6.399 -0.6639 -0.2184 -0.5550
 2394SOL    HW118818   4.559   4.232   6.462 -0.9318 -0.0582 -0.2081
 2394SOL    HW218819   4.461   4.343   6.426 -2.0138 -0.9562  0.2647
 2395SOL     OW18820   0.962   3.715   9.393 -0.1596 -0.3027 -0.0061
 2395SOL    HW118821   0.898   3.644   9.390 -0.3817 -0.0327 -1.6784
 2395SOL    HW218822   0.924   3.756   9.471 -0.6898 -1.4686  0.3569
 2396SOL     OW18823   0.308   1.089   7.434 -0.3775  0.3776 -0.0022
 2396SOL    HW118824   0.287   1.095   7.527 -1.3570 -0.8659 -0.1424
 2396SOL    HW218825   0.344   1.001   7.422  0.0740  0.4185  1.0198
 2397SOL     OW18826   2.153   3.778   2.752 -0.4175  0.5971 -0.3749
 2397SOL    HW118827   2.239   3.738   2.737  0.2881  1.8179  0.4790
 2397SOL    HW218828   2.184   3.859   2.792  1.1155 -0.6847  1.0087
 2398SOL     OW18829   4.687   3.310   1.052  0.2685  0.3636 -0.2897
 2398SOL    HW118830   4.712   3.332   0.963  2.3251  0.3609  0.2940
 2398SOL    HW218831   0.040   3.296   1.084  0.7757 -0.0312 -1.8771
 2399SOL     OW18832   2.489   0.460   2.546 -0.2009  0.1336 -0.3319
 2399SOL    HW118833   2.533   0.375   2.545  1.6143  1.0613  0.6829
 2399SOL    HW218834   2.475   0.475   2.640  0.6251 -0.2922 -0.1360
 2400SOL     OW18835   2.329   2.151   3.269  0.0138 -0.5696  0.2642
 2400SOL    HW118836   2.382   2.156   3.348  2.4219 -0.6124 -1.3336
 2400SOL    HW218837   2.382   2.203   3.208  0.3277 -1.5462 -0.3035
 2401SOL     OW18838   0.088   1.940   4.898 -0.2824  0.7678 -0.2410
 2401SOL    HW118839   0.147   1.865   4.903 -1.4277 -0.2425 -1.7978
 2401SOL    HW218840   0.145   1.986   4.837  0.1360  2.0229  1.1084
 2402SOL     OW18841   4.081   1.498   2.771 -0.3550 -0.1671  0.3882
 2402SOL    HW118842   4.132   1.529   2.846  1.2809 -0.1837 -0.6991
 2402SOL    HW218843   3.998   1.492   2.817 -1.1411  2.9785 -0.6483
 2403SOL     OW18844   3.937   1.814  17.636  0.0710 -0.2504  0.1145
 2403SOL    HW118845   3.850   1.813  17.676 -0.5843  0.5007 -1.2683
 2403SOL    HW218846   3.958   1.905  17.659 -1.6951  0.4817 -1.1175
 2404SOL     OW18847   3.160   2.834  11.389 -0.0769  0.5522  0.4121
 2404SOL    HW118848   3.198   2.769  11.448 -0.2710  1.5188  1.5943
 2404SOL    HW218849   3.112   2.768  11.339  0.1423  0.2879  0.5516
 2405SOL     OW18850   2.766   2.333  13.372 -0.4448  0.8397  0.2822
 2405SOL    HW118851   2.839   2.313  13.430 -0.8928 -2.3145 -0.2305
 2405SOL    HW218852   2.783   2.419  13.333  3.8352 -1.0312 -1.8934
 2406SOL     OW18853   3.447   1.834   5.482  0.2640  0.0397  0.3565
 2406SOL    HW118854   3.513   1.904   5.488 -0.0359  0.4329 -0.8635
 2406SOL    HW218855   3.466   1.815   5.390  0.4837 -1.4578  0.7128
 2407SOL     OW18856   2.313   4.626  16.901 -0.2810  0.0065 -0.0146
 2407SOL    HW118857   2.315   4.678  16.821 -0.4327 -2.0845 -1.3687
 2407SOL    HW218858   2.292   4.695  16.964  0.3913 -0.5668  0.8425
 2408SOL     OW18859   3.599   1.134   2.012  0.1769  0.3666  0.7057
 2408SOL    HW118860   3.657   1.129   2.088 -0.6480  2.7653  1.5081
 2408SOL    HW218861   3.594   1.039   2.000 -1.8768  0.5749 -0.1834
 2409SOL     OW18862   0.910   4.589   9.316  0.2558  0.7623 -0.0333
 2409SOL    HW118863   0.822   4.569   9.346  0.2649  0.6568 -0.0758
 2409SOL    HW218864   0.893   4.673   9.273  0.8641 -0.5020 -2.7787
 2410SOL     OW18865   2.090   1.464   8.597  0.6251  0.0413 -0.0626
 2410SOL    HW118866   2.062   1.552   8.624  2.7860  0.5102  0.6360
 2410SOL    HW218867   2.183   1.468   8.618  0.5493  1.5256 -0.0284
 2411SOL     OW18868   0.254   0.014  11.419 -0.3876 -0.2520 -0.4432
 2411SOL    HW118869   0.298   4.720  11.498 -1.2401  3.1059  1.2802
 2411SOL    HW218870   0.240   4.662  11.383  0.2903  0.1135 -1.5995
 2412SOL     OW18871   1.816   2.848   0.949  0.7056  0.4585  0.1048
 2412SOL    HW118872   1.757   2.773   0.955  0.3417  0.8793  1.6955
 2412SOL    HW218873   1.758   2.925   0.952  2.2957  1.6514  0.1489
 2413SOL     OW18874   1.663   0.557   6.601 -0.1612  0.2963  0.4116
 2413SOL    HW118875   1.619   0.523   6.680  0.3335 -0.0729  0.5287
 2413SOL    HW218876   1.752   0.523   6.612  0.3645  1.3898 -0.4565
 2414SOL     OW18877   3.203   0.182   8.953 -0.4574 -0.1610  0.8165
 2414SOL    HW118878   3.115   0.149   8.972 -0.7742 -1.1534 -2.4531
 2414SOL    HW218879   3.217   0.232   9.034 -1.0447  2.4371 -0.6884
 2415SOL     OW18880   4.003   2.630   6.222 -0.6952 -0.0259 -0.0943
 2415SOL    HW118881   4.090   2.669   6.213 -1.6101  2.1136  0.4040
 2415SOL    HW218882   4.015   2.538   6.247 -1.9877 -0.0650  0.3419
 2416SOL     OW18883   4.429   0.126   8.127 -0.0320 -0.2857 -0.5511
 2416SOL    HW118884   4.383   0.061   8.181 -1.6726  1.1288 -0.2424
 2416SOL    HW218885   4.468   0.159   8.208 -1.1068  0.8496 -0.4804
 2417SOL     OW18886   1.004   0.959   6.178  0.0850  0.1307  0.1030
 2417SOL    HW118887   0.919   0.955   6.222 -1.1953  1.4589 -2.2609
 2417SOL    HW218888   1.026   1.049   6.204  0.7411 -0.4830  1.6417
 2418SOL     OW18889   2.202   1.525   1.350  0.1394  1.0257  0.1559
 2418SOL    HW118890   2.234   1.509   1.261  0.7926  0.0623  0.5645
 2418SOL    HW218891   2.161   1.610   1.332  0.8155  1.3372  0.0743
 2419SOL     OW18892   4.226   0.164   1.251 -0.1179 -0.4799  0.1616
 2419SOL    HW118893   4.252   0.072   1.241  3.7337  0.5841  0.4910
 2419SOL    HW218894   4.310   0.206   1.266  1.3391 -2.9890 -0.9485
 2420SOL     OW18895   1.755   1.941  14.608 -0.0890  0.4321  0.0582
 2420SOL    HW118896   1.790   1.854  14.591  0.3636  0.6707 -0.2310
 2420SOL    HW218897   1.802   1.970  14.686 -0.9932  2.2991 -0.0909
 2421SOL     OW18898   2.379   0.108   1.723 -0.1023  0.0748 -0.1594
 2421SOL    HW118899   2.288   0.130   1.745 -0.1951 -0.0535 -0.4140
 2421SOL    HW218900   2.413   0.103   1.812 -0.9228  1.5526  0.2314
 2422SOL     OW18901   0.057   0.310   2.515  0.0619 -0.3786  0.0753
 2422SOL    HW118902   0.070   0.372   2.586 -1.0886  3.0531 -2.7247
 2422SOL    HW218903   4.729   0.355   2.461  0.8467 -0.0234 -0.5472
 2423SOL     OW18904   3.939   3.816   7.749  0.1048 -0.3694 -0.6477
 2423SOL    HW118905   4.012   3.875   7.767 -0.4885 -0.8818  3.3717
 2423SOL    HW218906   3.957   3.797   7.657  1.1927 -4.0077  0.2988
 2424SOL     OW18907   3.668   2.539   7.526  0.1214  0.7539 -0.0577
 2424SOL    HW118908   3.613   2.517   7.601 -0.9353  1.0520 -0.7503
 2424SOL    HW218909   3.660   2.633   7.511  0.9665  0.9993  1.0104
 2425SOL     OW18910   4.109   4.330   9.060 -0.3064  0.1550 -0.0302
 2425SOL    HW118911   4.169   4.334   8.985 -0.1769 -0.9848  0.0179
 2425SOL    HW218912   4.159   4.278   9.122 -0.9500 -0.2298  0.1639
 2426SOL     OW18913   2.076   2.761   0.772  0.3272  0.4526  0.2711
 2426SOL    HW118914   2.056   2.669   0.789  1.4125 -0.2130 -1.9561
 2426SOL    HW218915   1.996   2.811   0.789 -0.4031  0.2267 -2.5482
 2427SOL     OW18916   0.157   3.843   3.286 -0.8121  0.2928 -0.0292
 2427SOL    HW118917   0.123   3.929   3.311  0.5844  0.9614 -0.3915
 2427SOL    HW218918   0.153   3.860   3.192 -0.0755  2.4441  0.3208
 2428SOL     OW18919   3.576   2.478   5.574 -0.1685  0.1540  0.0952
 2428SOL    HW118920   3.602   2.390   5.601 -1.0810 -0.3821 -0.7440
 2428SOL    HW218921   3.663   2.517   5.572  0.2877 -0.8115  1.3949
 2429SOL     OW18922   2.263   3.937   2.531  0.7806  0.0910  0.0203
 2429SOL    HW118923   2.289   3.857   2.576 -0.5276 -0.7834 -0.7840
 2429SOL    HW218924   2.318   4.003   2.574  0.3213 -0.9098  2.1136
 2430SOL     OW18925   2.391   1.671   6.778  0.3205 -0.0124  0.6781
 2430SOL    HW118926   2.419   1.582   6.799  2.6010 -0.0374 -2.4240
 2430SOL    HW218927   2.316   1.690   6.834  0.1079  1.3781 -0.0658
 2431SOL     OW18928   0.748   2.504   2.139 -0.0484  0.5463  0.4606
 2431SOL    HW118929   0.723   2.589   2.102 -1.2382 -0.5789 -1.2812
 2431SOL    HW218930   0.826   2.491   2.085 -0.9249 -0.5213 -0.5393
 2432SOL     OW18931   3.913   4.523   7.675 -0.4340  0.0823 -0.5735
 2432SOL    HW118932   3.888   4.449   7.619  2.3129  0.2636 -2.0369
 2432SOL    HW218933   3.850   4.593   7.661 -2.3150 -1.0625  2.0298
 2433SOL     OW18934   3.803   3.396   3.972  0.2330 -0.0146  0.1533
 2433SOL    HW118935   3.746   3.426   4.043  0.3044 -1.4193  0.8022
 2433SOL    HW218936   3.732   3.348   3.929  1.3660 -0.1960 -1.5083
 2434SOL     OW18937   3.238   1.453   1.204  0.0730 -0.2654 -0.1341
 2434SOL    HW118938   3.318   1.400   1.200  1.1552  1.3337  0.1535
 2434SOL    HW218939   3.241   1.494   1.290 -2.1108 -0.2409 -0.0711
 2435SOL     OW18940   4.698   0.717   6.216  0.2535 -0.0751  0.5506
 2435SOL    HW118941   0.037   0.741   6.270  0.7206  1.0430 -0.5832
 2435SOL    HW218942   4.730   0.714   6.126 -0.7148  3.1473  0.1028
 2436SOL     OW18943   4.428   1.126   7.836 -0.0174 -0.3002 -0.5159
 2436SOL    HW118944   4.471   1.048   7.870  0.3106  0.8672  1.7954
 2436SOL    HW218945   4.368   1.152   7.906  0.6400  1.0906 -0.4676
 2437SOL     OW18946   4.130   0.915   5.313 -0.1575  0.2724  0.5527
 2437SOL    HW118947   4.146   0.919   5.219 -0.3263  0.5027  0.5334
 2437SOL    HW218948   4.221   0.905   5.340 -0.0952  0.4906  0.4249
 2438SOL     OW18949   0.089   0.101  12.108 -0.0538  0.2491  0.6409
 2438SOL    HW118950   0.162   0.110  12.047 -0.0092  0.4171  0.7201
 2438SOL    HW218951   0.008   0.109  12.057  0.1896 -1.1741  0.0101
 2439SOL     OW18952   0.901   2.197   7.209  0.9589 -0.3718 -0.2386
 2439SOL    HW118953   0.832   2.135   7.232  0.6254  0.5622  1.2901
 2439SOL    HW218954   0.876   2.282   7.246  2.1222 -1.0164  2.0460
 2440SOL     OW18955   0.530   2.735   8.080 -0.3632  0.7147  0.0587
 2440SOL    HW118956   0.575   2.797   8.137  0.3278  0.1194  0.1580
 2440SOL    HW218957   0.525   2.782   7.996 -3.1856 -1.4263 -1.0135
 2441SOL     OW18958   2.263   1.993   4.150  0.0492 -0.2498 -0.3438
 2441SOL    HW118959   2.207   1.957   4.081  0.9841  0.4030 -1.4433
 2441SOL    HW218960   2.287   1.909   4.187 -0.4213 -0.7137 -1.0836
 2442SOL     OW18961   3.213   3.886  16.402  0.2893  0.2379 -0.4326
 2442SOL    HW118962   3.272   3.812  16.412  0.1818  0.0918 -0.8572
 2442SOL    HW218963   3.215   3.932  16.486  0.0733 -0.8567  0.1760
 2443SOL     OW18964   1.477   2.552   1.868 -0.0184  0.2802 -0.3106
 2443SOL    HW118965   1.533   2.598   1.930  1.3551  0.9700 -2.0713
 2443SOL    HW218966   1.478   2.463   1.903  2.5154  0.2228 -0.5303
 2444SOL     OW18967   3.970   1.018   9.491  0.4902 -0.5771  0.5554
 2444SOL    HW118968   4.025   1.095   9.509 -1.0332  0.2699  1.5809
 2444SOL    HW218969   3.968   1.012   9.396 -2.7793  1.0120  0.5308
 2445SOL     OW18970   1.726   2.026   6.505  0.3405 -0.1169 -0.4270
 2445SOL    HW118971   1.703   2.076   6.426 -2.3966  0.3803  0.7020
 2445SOL    HW218972   1.804   2.072   6.535  0.6491 -0.7735 -0.2190
 2446SOL     OW18973   3.367   3.387  16.630 -0.6527  0.2386 -0.2170
 2446SOL    HW118974   3.377   3.306  16.580 -0.9014  0.6380 -0.9015
 2446SOL    HW218975   3.429   3.358  16.698 -1.6792  1.3532  1.1915
 2447SOL     OW18976   0.743   1.787  12.084  0.1762  0.3421 -0.1456
 2447SOL    HW118977   0.651   1.814  12.073  0.4654  1.5704  0.4873
 2447SOL    HW218978   0.723   1.705  12.130 -1.6406 -0.8781 -3.1387
 2448SOL     OW18979   3.889   0.239  17.670  0.1871  0.0774  0.3285
 2448SOL    HW118980   3.879   0.309  17.606 -1.3542 -0.0418  0.4307
 2448SOL    HW218981   3.802   0.235  17.710 -1.0001 -1.3960 -2.4127
 2449SOL     OW18982   3.907   1.191   7.785  0.5997 -0.3440  0.6057
 2449SOL    HW118983   3.961   1.176   7.863 -0.1705 -2.8998  0.6397
 2449SOL    HW218984   3.878   1.282   7.794  1.7100 -0.1726  2.4357
 2450SOL     OW18985   3.498   4.556   0.738  0.9831  0.2366 -0.1594
 2450SOL    HW118986   3.475   4.471   0.776  1.7418  0.0772 -0.0371
 2450SOL    HW218987   3.542   4.595   0.813 -1.1437  1.2297  0.5554
 2451SOL     OW18988   0.818   2.485   6.927  0.1590 -0.0839  0.8259
 2451SOL    HW118989   0.791   2.404   6.971  1.7543 -0.8922  0.3203
 2451SOL    HW218990   0.879   2.450   6.862 -0.8047  0.4167 -0.3400
 2452SOL     OW18991   4.477   3.132   0.274 -0.6930  0.3369  0.2506
 2452SOL    HW118992   4.439   3.102   0.357  2.2259  1.2426  1.8927
 2452SOL    HW218993   4.398   3.140   0.221  0.1224  1.7699 -0.7267
 2453SOL     OW18994   0.978   1.377   6.069 -0.0616  0.0149  0.0036
 2453SOL    HW118995   0.929   1.460   6.074 -1.0459 -0.4969 -1.0234
 2453SOL    HW218996   0.952   1.342   5.984  0.4016  0.6400 -0.3975
 2454SOL     OW18997   4.645   0.868   6.490 -0.4970 -0.8512 -0.9814
 2454SOL    HW118998   4.689   0.907   6.415  1.8159 -2.3961 -0.4214
 2454SOL    HW218999   4.558   0.847   6.458 -0.0849 -1.3057 -1.7910
 2455SOL     OW19000   0.823   2.898   4.089 -0.0045  0.4372  0.2363
 2455SOL    HW119001   0.872   2.833   4.139  1.3057  2.2340  1.2789
 2455SOL    HW219002   0.887   2.944   4.034 -0.3066  2.2173  1.3842
 2456SOL     OW19003   3.582   3.034  12.260 -0.1014 -0.2095 -0.6953
 2456SOL    HW119004   3.495   3.043  12.299  1.6003 -0.4620  3.1495
 2456SOL    HW219005   3.564   3.055  12.168 -1.9595  3.0351  0.3955
 2457SOL     OW19006   0.355   1.377   7.637  0.3212 -0.4595 -0.0186
 2457SOL    HW119007   0.288   1.309   7.631 -1.0630  0.8552  0.5966
 2457SOL    HW219008   0.425   1.326   7.678 -0.7798 -0.3230  2.0392
 2458SOL     OW19009   4.017   3.479   4.699  0.0730 -0.1488 -0.8000
 2458SOL    HW119010   4.037   3.470   4.792 -1.4378  1.3307 -0.3430
 2458SOL    HW219011   4.029   3.388   4.672  1.2013  0.6203 -2.8702
 2459SOL     OW19012   2.716   1.353   2.734  0.4554  0.0450 -0.0967
 2459SOL    HW119013   2.627   1.317   2.736 -0.0820  1.2302 -2.2474
 2459SOL    HW219014   2.763   1.321   2.810 -0.0279 -1.1084 -0.2786
 2460SOL     OW19015   0.211   4.441   1.764  0.8736  0.2675  0.6469
 2460SOL    HW119016   0.204   4.347   1.750 -1.4599  0.5305  0.0521
 2460SOL    HW219017   0.127   4.469   1.727  1.6917  2.0309  0.1263
 2461SOL     OW19018   2.290   4.508  14.973  0.0338 -0.1301 -0.1021
 2461SOL    HW119019   2.333   4.427  14.999 -1.4390 -1.5833 -2.2073
 2461SOL    HW219020   2.226   4.472  14.912 -1.9536  1.3596  1.1145
 2462SOL     OW19021   2.438   0.251  16.670  0.2072 -0.3098  0.1646
 2462SOL    HW119022   2.490   0.173  16.651 -1.1422 -1.4938  1.3683
 2462SOL    HW219023   2.351   0.216  16.657 -0.0632  0.2466  0.4641
 2463SOL     OW19024   1.882   1.019  15.187  0.2632 -0.0087 -0.0378
 2463SOL    HW119025   1.936   1.067  15.250  0.9432  1.1119 -1.4728
 2463SOL    HW219026   1.946   1.001  15.118  0.6165 -1.9207  0.7899
 2464SOL     OW19027   2.757   0.037   6.102  0.0804  0.2341  0.0192
 2464SOL    HW119028   2.778   0.086   6.181  2.0058 -1.5765  0.6658
 2464SOL    HW219029   2.675   0.076   6.074 -0.0545 -0.5914 -0.7695
 2465SOL     OW19030   0.914   4.164  17.724  0.0987  0.2664 -0.5619
 2465SOL    HW119031   0.952   4.162  17.636  2.4574 -1.0388  0.4838
 2465SOL    HW219032   0.983   4.121   0.033 -0.7123 -4.0280 -3.1009
 2466SOL     OW19033   3.261   4.183   3.125 -0.0306 -0.1602  0.1536
 2466SOL    HW119034   3.300   4.235   3.195  1.6944 -0.6540 -0.4441
 2466SOL    HW219035   3.278   4.249   3.058 -1.0791 -0.3984 -0.3530
 2467SOL     OW19036   3.911   0.853   4.606  0.6265 -0.2865 -0.3581
 2467SOL    HW119037   3.916   0.938   4.561 -0.9246 -1.1139 -2.0839
 2467SOL    HW219038   3.941   0.885   4.691 -0.9327  0.9818 -0.3006
 2468SOL     OW19039   2.026   0.088  15.111  0.0405 -0.0978  0.3440
 2468SOL    HW119040   2.041   0.058  15.200  2.3566 -0.1751 -0.0530
 2468SOL    HW219041   1.994   0.174  15.136  0.5254  0.0748  0.3796
 2469SOL     OW19042   4.139   2.903   8.540 -0.6009  0.0505  0.2725
 2469SOL    HW119043   4.200   2.936   8.474 -0.4904 -0.4402  0.1228
 2469SOL    HW219044   4.171   2.936   8.624  1.8155 -0.1442 -0.5701
 2470SOL     OW19045   1.711   1.222   5.134  0.3392 -0.0158 -0.4186
 2470SOL    HW119046   1.700   1.128   5.145  3.4858 -0.0414  2.3631
 2470SOL    HW219047   1.799   1.209   5.099  0.5859  1.8772 -0.5192
 2471SOL     OW19048   0.009   1.425   7.404 -0.2215 -0.0403 -0.3220
 2471SOL    HW119049   4.666   1.442   7.352 -1.0462 -0.3007  0.8571
 2471SOL    HW219050   4.709   1.425   7.493 -0.9409 -0.6620 -0.6124
 2472SOL     OW19051   2.356   0.588  13.744  0.3819 -0.3168 -0.1934
 2472SOL    HW119052   2.322   0.554  13.661 -2.8641  0.8663  0.6278
 2472SOL    HW219053   2.290   0.573  13.812 -0.5124 -1.3164 -1.2742
 2473SOL     OW19054   2.385   0.246  14.831  0.0876 -0.2097 -0.2444
 2473SOL    HW119055   2.457   0.186  14.853  0.0163 -0.4425 -0.6622
 2473SOL    HW219056   2.320   0.176  14.832 -0.7692  0.5857  1.1704
 2474SOL     OW19057   0.611   2.471   8.359  0.2033 -0.0426  0.0295
 2474SOL    HW119058   0.690   2.461   8.307  1.1025 -0.8125  1.5293
 2474SOL    HW219059   0.629   2.552   8.406 -2.9741  0.5209  0.3302
 2475SOL     OW19060   2.543   2.346  16.391  0.0650  0.3355 -0.3713
 2475SOL    HW119061   2.587   2.302  16.465  0.2787 -1.3081 -1.4702
 2475SOL    HW219062   2.611   2.342  16.324  0.9547  1.1858  0.4738
 2476SOL     OW19063   3.470   1.661   8.260  0.0513  0.2891  0.0263
 2476SOL    HW119064   3.421   1.611   8.195  0.5200  0.2937 -0.3271
 2476SOL    HW219065   3.418   1.734   8.294  2.0074  2.9490 -2.7301
 2477SOL     OW19066   1.786   0.182   4.103  0.1751 -0.6079 -0.4211
 2477SOL    HW119067   1.724   0.127   4.150  0.1470  1.3497  1.8339
 2477SOL    HW219068   1.721   0.237   4.060  0.2090  1.3778  2.0549
 2478SOL     OW19069   2.904   4.346  15.542  0.1805  0.0860  0.3147
 2478SOL    HW119070   2.859   4.431  15.548 -1.6293 -0.8644  0.2610
 2478SOL    HW219071   2.906   4.317  15.451 -0.0281  2.1361 -0.3469
 2479SOL     OW19072   4.625   0.608   3.381  0.2438 -0.8311  0.4028
 2479SOL    HW119073   4.566   0.631   3.452 -1.0728  0.8069 -1.1950
 2479SOL    HW219074   4.705   0.639   3.422 -0.3739 -1.6672  2.2042
 2480SOL     OW19075   2.959   3.424   2.986  0.0742 -0.5683 -0.0464
 2480SOL    HW119076   2.974   3.517   3.003 -0.8540 -0.2362 -1.0669
 2480SOL    HW219077   3.005   3.377   3.055  1.5884 -0.6911 -1.1216
 2481SOL     OW19078   1.179   0.651   4.762 -0.2762 -0.4686 -0.0583
 2481SOL    HW119079   1.103   0.627   4.710  0.9831  1.2181 -2.7049
 2481SOL    HW219080   1.203   0.561   4.787  2.7683  0.0198 -1.2470
 2482SOL     OW19081   1.285   0.219   3.228  0.2029 -0.0558 -0.1260
 2482SOL    HW119082   1.358   0.253   3.280 -0.3935 -1.1906  1.4449
 2482SOL    HW219083   1.309   0.256   3.143  2.3153  2.6649  1.6190
 2483SOL     OW19084   3.903   0.966   6.549  0.0534  0.3747 -0.2710
 2483SOL    HW119085   3.834   0.943   6.610  0.8246  1.8562  1.1327
 2483SOL    HW219086   3.960   1.021   6.602 -0.4733  2.2450 -1.6561
 2484SOL     OW19087   4.527   1.627   4.735 -0.1637  0.1040 -0.0572
 2484SOL    HW119088   4.488   1.706   4.697 -2.8465  0.1942  2.9267
 2484SOL    HW219089   4.451   1.575   4.760  0.0573 -0.2597 -0.1443
 2485SOL     OW19090   4.529   2.842   8.624  0.7109 -0.3148 -0.2815
 2485SOL    HW119091   4.479   2.764   8.602 -1.9751  1.3226  0.0706
 2485SOL    HW219092   4.607   2.805   8.667 -0.5613 -1.1700  1.2766
 2486SOL     OW19093   2.724   2.043   5.081 -0.7654 -0.1175  0.1462
 2486SOL    HW119094   2.767   2.110   5.028  0.9767 -0.2105  1.4472
 2486SOL    HW219095   2.659   2.092   5.132 -1.1186 -0.1694 -0.2584
 2487SOL     OW19096   4.663   3.610   7.865 -0.0642  0.1982  0.3403
 2487SOL    HW119097   4.678   3.693   7.911  1.4403 -0.3954  0.9099
 2487SOL    HW219098   4.705   3.611   7.778  1.5634 -0.2175  1.1205
 2488SOL     OW19099   2.797   1.583   7.416  0.8980  0.4447  0.0257
 2488SOL    HW119100   2.713   1.621   7.441 -0.2485 -0.6753 -2.2017
 2488SOL    HW219101   2.824   1.533   7.494  1.5575 -1.4547 -1.4198
 2489SOL     OW19102   2.953   3.053   5.656  0.5602  0.3450 -0.1587
 2489SOL    HW119103   2.957   3.140   5.696 -0.0077  0.6971 -0.8594
 2489SOL    HW219104   3.045   3.037   5.638  0.5782 -2.2219  2.2917
 2490SOL     OW19105   1.418   4.383   2.103 -0.5865  0.5594 -0.4424
 2490SOL    HW119106   1.424   4.328   2.025  0.2422  0.1330 -0.0706
 2490SOL    HW219107   1.505   4.423   2.110 -0.4409 -0.2216  2.1612
 2491SOL     OW19108   2.126   0.736   3.237  0.0235 -0.2250  0.3561
 2491SOL    HW119109   2.081   0.781   3.166  1.3187 -1.8636 -1.4821
 2491SOL    HW219110   2.071   0.772   3.307 -0.5019  1.1696 -0.7805
 2492SOL     OW19111   0.825   0.736   3.795 -0.3776  0.1204  0.8734
 2492SOL    HW119112   0.887   0.754   3.866  1.9025  1.2900 -1.3838
 2492SOL    HW219113   0.837   0.642   3.800 -2.6477 -0.3116 -2.1922
 2493SOL     OW19114   0.876   4.373   7.336 -0.3432  0.2051 -0.0751
 2493SOL    HW119115   0.882   4.290   7.383  0.5956  0.5264  0.3918
 2493SOL    HW219116   0.823   4.428   7.395 -1.1916  0.3845 -1.0115
 2494SOL     OW19117   0.603   1.255  16.956 -0.1315  0.6017 -0.4027
 2494SOL    HW119118   0.691   1.223  16.935 -0.6878 -0.5837 -0.9395
 2494SOL    HW219119   0.635   1.331  17.004 -0.7792  1.6286 -1.5975
 2495SOL     OW19120   3.221   4.398   8.476 -0.2242 -0.3987 -0.1956
 2495SOL    HW119121   3.312   4.424   8.462 -0.7627  2.2090  1.0500
 2495SOL    HW219122   3.186   4.468   8.531  2.3471  0.3173  0.5185
 2496SOL     OW19123   2.452   3.927  11.157 -0.1354 -0.5903 -0.3926
 2496SOL    HW119124   2.371   3.966  11.126  0.4307  1.0197  0.1619
 2496SOL    HW219125   2.465   3.857  11.092  0.8524 -0.5656 -0.2253
 2497SOL     OW19126   3.873   2.991   4.774  0.3578  0.4959  0.2065
 2497SOL    HW119127   3.820   2.948   4.707 -0.7183  1.7845  0.2372
 2497SOL    HW219128   3.819   3.069   4.792  0.4542  0.4558  0.6707
 2498SOL     OW19129   0.929   2.717   4.238  0.5448  0.4854  0.4210
 2498SOL    HW119130   1.004   2.747   4.289  0.9466  0.0794  0.0731
 2498SOL    HW219131   0.906   2.653   4.306 -1.6743  1.9423  1.0162
 2499SOL     OW19132   2.282   3.789   7.022  0.1619  0.4240  0.0407
 2499SOL    HW119133   2.278   3.831   6.935 -0.3724  1.5773  0.6165
 2499SOL    HW219134   2.196   3.749   7.035  0.3484 -0.5103 -1.5500
 2500SOL     OW19135   2.493   4.442  15.509  0.2023  0.4486  0.5720
 2500SOL    HW119136   2.528   4.354  15.528  0.9448  0.5522 -0.3161
 2500SOL    HW219137   2.509   4.457  15.416 -0.1527  0.1594  0.4645
 2501SOL     OW19138   0.992   1.257  11.976 -0.1112 -0.0513  0.7061
 2501SOL    HW119139   1.047   1.226  11.904  1.8331  2.6907  0.9899
 2501SOL    HW219140   1.038   1.324  12.026 -1.3164 -0.4306  2.3356
 2502SOL     OW19141   0.753   4.631   3.593  0.6819  0.5417  0.1362
 2502SOL    HW119142   0.688   4.590   3.535 -0.1919  1.0748  0.7390
 2502SOL    HW219143   0.736   4.722   3.569 -0.9662  0.0467 -0.5658
 2503SOL     OW19144   1.456   1.027   3.537  0.4908  0.0961  0.0605
 2503SOL    HW119145   1.506   0.997   3.462 -0.0609  1.1610 -0.7364
 2503SOL    HW219146   1.372   1.046   3.494  0.6122 -0.5375 -0.4470
 2504SOL     OW19147   1.430   2.968   8.344 -0.7136 -0.6497 -0.4233
 2504SOL    HW119148   1.402   3.060   8.339 -4.6812 -1.9448 -2.0681
 2504SOL    HW219149   1.516   2.967   8.386 -0.1726  3.0227 -1.3982
 2505SOL     OW19150   1.397   0.116   8.947  0.0690 -0.7396 -1.1901
 2505SOL    HW119151   1.314   0.140   8.989  1.3074  1.5913 -0.0636
 2505SOL    HW219152   1.435   0.204   8.938 -1.0507  0.1018  2.4727
 2506SOL     OW19153   1.541   0.310   7.346  0.0338  0.1480  0.7350
 2506SOL    HW119154   1.616   0.299   7.287 -0.7076 -1.2564  0.0597
 2506SOL    HW219155   1.486   0.347   7.277  0.9108  0.0810 -0.0080
 2507SOL     OW19156   4.079   0.718  15.622  0.7577 -0.1922  0.0978
 2507SOL    HW119157   4.136   0.642  15.610 -0.4417 -0.8574 -1.2859
 2507SOL    HW219158   4.131   0.777  15.677 -0.9856  2.5464 -1.1852
 2508SOL     OW19159   0.584   3.827   3.007 -0.4722 -0.7607 -0.3102
 2508SOL    HW119160   0.591   3.737   3.039  0.7182  0.3259  2.4227
 2508SOL    HW219161   0.569   3.880   3.085  1.3721 -1.0887  0.2615
 2509SOL     OW19162   4.126   3.811  12.647 -0.0907  0.1687 -0.4315
 2509SOL    HW119163   4.124   3.773  12.559 -0.2030 -0.8277  0.0042
 2509SOL    HW219164   4.140   3.733  12.700 -0.0518 -0.8346 -1.9172
 2510SOL     OW19165   0.695   0.819   5.510 -0.1025 -0.5371  0.7313
 2510SOL    HW119166   0.664   0.887   5.570 -0.3667 -0.4324  0.4763
 2510SOL    HW219167   0.787   0.809   5.535  0.2662  1.4720  0.1934
 2511SOL     OW19168   0.767   1.429  11.261  0.3441 -0.0593  0.1966
 2511SOL    HW119169   0.774   1.441  11.167  2.9644 -3.6851 -0.0732
 2511SOL    HW219170   0.815   1.347  11.274 -0.5562 -0.7035 -0.4869
 2512SOL     OW19171   4.158   3.864   6.639  0.0194  0.5902  0.3134
 2512SOL    HW119172   4.100   3.829   6.572  0.6479 -0.9847  0.5850
 2512SOL    HW219173   4.143   3.958   6.631  0.0362  0.4091 -1.9870
 2513SOL     OW19174   1.130   3.388   6.039 -0.3713 -0.4066 -0.0689
 2513SOL    HW119175   1.220   3.356   6.033 -1.4618 -3.0456 -1.9716
 2513SOL    HW219176   1.153   3.475   6.006 -2.3528  0.9923  2.2240
 2514SOL     OW19177   2.032   0.148   1.146 -0.1121 -0.2289 -0.4191
 2514SOL    HW119178   2.071   0.195   1.220  1.4947 -1.1111 -0.7154
 2514SOL    HW219179   2.110   0.133   1.092  0.8573  1.1581  0.5900
 2515SOL     OW19180   1.767   3.155   4.618 -0.5371 -0.4122 -0.6089
 2515SOL    HW119181   1.812   3.091   4.673  0.1215 -2.7422 -3.8963
 2515SOL    HW219182   1.681   3.128   4.650 -0.8781 -0.5348 -1.6212
 2516SOL     OW19183   4.438   4.653  16.160 -0.0469  0.4441 -0.3106
 2516SOL    HW119184   4.358   4.664  16.212  0.7989 -2.7751  1.6357
 2516SOL    HW219185   4.412   4.670  16.069  1.5413  1.0812 -0.6472
 2517SOL     OW19186   2.713   0.150   9.026 -0.2137  0.2841  0.0617
 2517SOL    HW119187   2.633   0.104   9.051 -0.8055  0.1702 -2.0092
 2517SOL    HW219188   2.688   0.154   8.933 -0.2272  0.1003  0.0583
 2518SOL     OW19189   2.033   3.392   3.564 -0.1490 -0.3608  0.2580
 2518SOL    HW119190   1.950   3.436   3.544  0.8308  2.7633  3.1502
 2518SOL    HW219191   2.086   3.461   3.523 -0.7409  1.5796  2.7651
 2519SOL     OW19192   0.099   2.723   9.218  0.1067 -0.0615  0.6665
 2519SOL    HW119193   0.133   2.809   9.193  3.0432 -1.9475 -1.8153
 2519SOL    HW219194   0.042   2.739   9.293 -0.9615  0.4630 -0.2574
 2520SOL     OW19195   2.836   1.470   5.193 -0.2723  0.0139  0.6285
 2520SOL    HW119196   2.848   1.461   5.288  1.6170 -0.5338  0.3278
 2520SOL    HW219197   2.744   1.494   5.181 -0.5052 -1.1668  0.0712
 2521SOL     OW19198   1.221   3.970  15.723 -0.9767  0.6753 -0.4865
 2521SOL    HW119199   1.253   4.037  15.783 -0.1597 -0.2123  0.0707
 2521SOL    HW219200   1.249   3.997  15.636  0.7745  0.5935  0.0568
 2522SOL     OW19201   0.570   2.795   3.357 -0.3353 -0.1252  0.0779
 2522SOL    HW119202   0.626   2.762   3.427  1.2896 -3.4300 -2.7919
 2522SOL    HW219203   0.608   2.755   3.278  0.7290 -0.3062  0.6705
 2523SOL     OW19204   2.831   1.211   0.476 -0.3305  0.4073 -0.3007
 2523SOL    HW119205   2.769   1.211   0.403 -0.5250 -2.1423 -0.1214
 2523SOL    HW219206   2.792   1.147   0.535  0.7084  0.7870  0.7934
 2524SOL     OW19207   1.917   3.953   4.687 -0.2048 -0.0545  0.6712
 2524SOL    HW119208   1.836   3.904   4.697  0.2010 -0.4667  2.0523
 2524SOL    HW219209   1.874   4.037   4.703 -1.5125 -0.8342  1.2359
 2525SOL     OW19210   2.710   2.928   7.639  0.0760 -0.2216 -0.1038
 2525SOL    HW119211   2.740   2.847   7.681 -1.6481 -0.9356 -0.2831
 2525SOL    HW219212   2.698   2.894   7.551 -0.9705 -1.4657  0.5328
 2526SOL     OW19213   1.194   0.210  15.780 -0.0567  0.5189  0.0308
 2526SOL    HW119214   1.183   0.261  15.700  3.0152 -0.6246 -1.1488
 2526SOL    HW219215   1.288   0.216  15.798  0.2139 -0.6498 -0.9764
 2527SOL     OW19216   0.056   0.613   2.501 -0.0842  0.3949 -0.0339
 2527SOL    HW119217   0.033   0.704   2.520 -0.2876  0.7489 -1.9806
 2527SOL    HW219218   0.058   0.571   2.587  1.0107  1.4446  0.4475
 2528SOL     OW19219   3.934   3.777   2.028 -0.7501  0.4985  0.1627
 2528SOL    HW119220   4.001   3.821   2.080 -1.3429  0.0419  1.2982
 2528SOL    HW219221   3.971   3.689   2.042  0.7533  0.9234 -1.1250
 2529SOL     OW19222   0.794   3.613  14.079 -0.1849 -0.5140  0.4924
 2529SOL    HW119223   0.700   3.604  14.089 -0.0592  1.2383  3.3343
 2529SOL    HW219224   0.804   3.695  14.031  0.7892 -1.1450 -0.3894
 2530SOL     OW19225   0.823   3.559   3.512 -0.2214  0.1168  0.4796
 2530SOL    HW119226   0.859   3.580   3.426 -0.7321 -0.0893  0.2139
 2530SOL    HW219227   0.749   3.504   3.486  0.9514 -1.2112 -0.0331
 2531SOL     OW19228   0.630   4.397   4.355 -0.3008  0.2281 -0.3340
 2531SOL    HW119229   0.619   4.355   4.270  0.2204 -1.9490  0.6523
 2531SOL    HW219230   0.539   4.418   4.378 -0.7828 -0.8841 -1.2027
 2532SOL     OW19231   3.140   1.145   5.121  0.0564 -0.3380  0.4303
 2532SOL    HW119232   3.195   1.190   5.185  0.8440 -0.5281 -0.1278
 2532SOL    HW219233   3.206   1.099   5.069  0.8055 -0.1468  1.2148
 2533SOL     OW19234   0.246   0.210   3.882  0.0186  0.4716  0.2509
 2533SOL    HW119235   0.274   0.174   3.966 -1.3695 -2.4361 -0.5541
 2533SOL    HW219236   0.271   0.141   3.821  2.3471  0.8449  0.8006
 2534SOL     OW19237   0.644   0.059   9.065 -0.6317  0.0727  0.5853
 2534SOL    HW119238   0.713   0.079   9.001 -2.4751  0.0224 -1.4281
 2534SOL    HW219239   0.569   0.091   9.014 -0.8644 -1.9964 -0.4078
 2535SOL     OW19240   2.935   3.673   3.111 -0.0918  0.3192  0.0375
 2535SOL    HW119241   2.995   3.711   3.175 -1.1167  0.8737  0.6786
 2535SOL    HW219242   2.913   3.752   3.062  0.1402 -0.6344 -1.5745
 2536SOL     OW19243   0.521   4.552  14.092 -0.1503 -0.1668 -0.1471
 2536SOL    HW119244   0.436   4.564  14.049  0.1712 -0.3175 -0.8238
 2536SOL    HW219245   0.503   4.601  14.172  2.2078  2.5262 -1.2333
 2537SOL     OW19246   3.192   0.101   3.160 -0.1392 -0.3009 -0.2884
 2537SOL    HW119247   3.247   0.125   3.234 -0.3681 -0.9735  0.0988
 2537SOL    HW219248   3.201   0.005   3.157  1.5654 -0.0872 -2.0457
 2538SOL     OW19249   3.050   1.870   5.945 -0.2345  0.6505 -0.7565
 2538SOL    HW119250   2.982   1.906   6.001 -1.0065 -0.2681 -1.1175
 2538SOL    HW219251   3.065   1.788   5.991  2.0770  1.2621 -0.3829
 2539SOL     OW19252   3.100   1.827  17.275  0.4369 -0.1398 -0.1258
 2539SOL    HW119253   3.064   1.912  17.251  0.3927 -0.7149 -2.0411
 2539SOL    HW219254   3.139   1.845  17.361 -1.0085 -1.4056  0.8066
 2540SOL     OW19255   2.316   1.209   1.199 -0.2350  0.3465 -0.3308
 2540SOL    HW119256   2.347   1.180   1.285  1.6359  0.6759 -0.8789
 2540SOL    HW219257   2.230   1.167   1.200 -1.9116  3.7757 -0.0986
 2541SOL     OW19258   3.548   1.626   7.000  0.3282  0.2442  0.2218
 2541SOL    HW119259   3.509   1.713   7.003  0.4052  0.3543 -1.7706
 2541SOL    HW219260   3.486   1.572   6.952  0.7592 -0.8823  0.9323
 2542SOL     OW19261   1.822   2.706   2.371 -0.3492  0.2607  0.2907
 2542SOL    HW119262   1.736   2.714   2.412 -2.9465 -1.6904 -4.8292
 2542SOL    HW219263   1.843   2.615   2.395  0.8309  0.9285  1.8097
 2543SOL     OW19264   3.567   4.144  11.495  0.4501 -0.2803 -0.0124
 2543SOL    HW119265   3.498   4.182  11.441 -1.5862 -1.9843  1.3605
 2543SOL    HW219266   3.627   4.218  11.498 -0.0448  0.0706  1.0701
 2544SOL     OW19267   0.713   1.493   1.701 -0.1137 -0.0179 -0.0055
 2544SOL    HW119268   0.700   1.398   1.695  1.3791 -0.1591 -1.0036
 2544SOL    HW219269   0.624   1.512   1.732  0.7174  1.8046  1.2279
 2545SOL     OW19270   4.629   2.465   5.439  0.0952 -0.0933 -0.1367
 2545SOL    HW119271   4.598   2.551   5.410  2.5706  1.1390  0.8398
 2545SOL    HW219272   4.710   2.450   5.391  0.1714  1.3669 -0.4601
 2546SOL     OW19273   0.382   3.255   4.987 -0.7543  0.7801  0.6536
 2546SOL    HW119274   0.464   3.228   5.030 -0.0710  1.2676 -0.3444
 2546SOL    HW219275   0.358   3.176   4.938  0.3097  1.6478 -1.2452
 2547SOL     OW19276   1.589   0.630   8.818 -0.0308  0.4099 -0.0889
 2547SOL    HW119277   1.593   0.705   8.878  0.0757  0.0631  0.3322
 2547SOL    HW219278   1.540   0.672   8.746 -1.5859 -0.1124  0.6623
 2548SOL     OW19279   0.274   0.844  13.965 -0.7073 -1.0915 -0.5294
 2548SOL    HW119280   0.234   0.817  13.882 -0.2565  1.5303 -1.6317
 2548SOL    HW219281   0.323   0.765  13.986 -0.7967 -0.9012  0.4025
 2549SOL     OW19282   1.070   1.098  13.483 -0.3060 -0.3577  0.1592
 2549SOL    HW119283   0.974   1.104  13.482 -0.3118  0.1202  3.1871
 2549SOL    HW219284   1.094   1.034  13.550 -0.1935 -0.8950 -0.3973
 2550SOL     OW19285   0.795   1.144   5.980  0.2693 -0.6192  0.3251
 2550SOL    HW119286   0.713   1.105   5.952 -0.4464  0.9665  0.2088
 2550SOL    HW219287   0.767   1.183   6.063  0.8230 -1.3726  0.8762
 2551SOL     OW19288   2.780   0.868  14.111  0.3002 -0.1907 -0.3358
 2551SOL    HW119289   2.847   0.800  14.124 -0.2337 -0.7199 -0.3285
 2551SOL    HW219290   2.754   0.847  14.021  0.2989  4.6403 -1.4217
 2552SOL     OW19291   3.590   0.836   6.967 -0.5008 -0.5168  0.5942
 2552SOL    HW119292   3.618   0.845   7.058 -2.1546  0.4688  1.0060
 2552SOL    HW219293   3.581   0.741   6.964  1.0638 -0.6615  0.3735
 2553SOL     OW19294   3.081   2.985   1.861  0.5072 -0.4295  0.2910
 2553SOL    HW119295   3.097   3.041   1.785 -1.3204  1.3348  1.2028
 2553SOL    HW219296   3.092   2.899   1.821  1.9530 -0.8090  1.4960
 2554SOL     OW19297   3.210   3.173   2.881  0.5858 -0.5175 -0.1444
 2554SOL    HW119298   3.152   3.153   2.807  0.9815 -0.6196 -0.4214
 2554SOL    HW219299   3.254   3.253   2.853  0.2340  0.1493  1.2009
 2555SOL     OW19300   4.546   2.793  16.943 -0.2090 -0.0115  0.0396
 2555SOL    HW119301   4.545   2.834  17.030 -0.6603 -0.6489  0.3332
 2555SOL    HW219302   4.482   2.845  16.895 -3.0035 -1.5256  2.1941
 2556SOL     OW19303   2.173   2.947   9.843  0.1385  0.0143 -0.0992
 2556SOL    HW119304   2.130   2.868   9.877 -0.0167  0.9468  1.8874
 2556SOL    HW219305   2.115   2.967   9.770 -0.6835  0.5976  0.7141
 2557SOL     OW19306   0.396   1.119   6.629 -0.3302  0.2248  0.2356
 2557SOL    HW119307   0.491   1.117   6.637 -0.2278  1.8187 -0.6950
 2557SOL    HW219308   0.380   1.029   6.657 -0.0814 -0.0535 -0.5218
 2558SOL     OW19309   0.122   2.635   3.276  0.0271 -0.1438 -0.1455
 2558SOL    HW119310   0.213   2.657   3.297  0.0733  0.2684 -0.8108
 2558SOL    HW219311   0.098   2.706   3.218  0.3687 -0.0328 -0.1535
 2559SOL     OW19312   1.928   4.240   0.310  0.0577  0.2870  0.1527
 2559SOL    HW119313   1.937   4.329   0.276 -1.6851  0.0645 -0.9057
 2559SOL    HW219314   2.008   4.232   0.362  1.1435 -1.6027 -1.7807
 2560SOL     OW19315   0.833   4.665  12.818 -0.0051 -0.6253  0.6262
 2560SOL    HW119316   0.825   4.701  12.730  0.2036  0.0083  0.8680
 2560SOL    HW219317   0.751   4.627  12.849 -0.0602 -0.6019  0.5092
 2561SOL     OW19318   3.229   2.155   8.341 -0.2750 -0.2611 -0.1254
 2561SOL    HW119319   3.142   2.158   8.302 -0.6166 -0.8479  0.6086
 2561SOL    HW219320   3.270   2.230   8.296  1.9899 -0.5169  1.5242
 2562SOL     OW19321   2.672   4.115   0.961  0.5412  0.5973 -0.2389
 2562SOL    HW119322   2.719   4.189   0.923 -2.2937  1.2033 -2.5717
 2562SOL    HW219323   2.658   4.060   0.884  1.1682  1.2411 -0.8067
 2563SOL     OW19324   2.942   2.356   8.216  0.0878  0.3477  0.0314
 2563SOL    HW119325   2.916   2.412   8.289  0.6749  0.7575 -0.0742
 2563SOL    HW219326   2.916   2.269   8.248  0.0020  1.0413  1.8268
 2564SOL     OW19327   3.217   1.833   2.413  0.6132 -0.1270  0.4308
 2564SOL    HW119328   3.137   1.814   2.363  1.6971 -1.7318 -0.6947
 2564SOL    HW219329   3.248   1.743   2.416  1.2438  0.0198 -1.6108
 2565SOL     OW19330   2.669   3.468   8.004 -0.2796  0.4584 -0.0041
 2565SOL    HW119331   2.702   3.557   7.995  1.4677 -0.4209 -2.2829
 2565SOL    HW219332   2.650   3.448   7.913 -0.2396  0.8915 -0.1054
 2566SOL     OW19333   0.059   0.238   4.466  0.2486 -0.2058 -0.5404
 2566SOL    HW119334   0.049   0.286   4.548 -0.1550 -1.1623 -0.0406
 2566SOL    HW219335   0.068   0.309   4.401  0.8697  0.6729  0.4958
 2567SOL     OW19336   0.323   4.341   7.504  0.6788  0.8329 -0.2469
 2567SOL    HW119337   0.394   4.332   7.568 -1.0748  1.4130  1.7809
 2567SOL    HW219338   0.288   4.430   7.512 -0.6267  0.0143  3.0614
 2568SOL     OW19339   2.052   2.105   3.269  0.2752 -0.1157  0.0972
 2568SOL    HW119340   2.143   2.098   3.298  0.5126 -0.3072 -0.6988
 2568SOL    HW219341   2.050   2.032   3.207 -1.1552  0.3678 -0.4230
 2569SOL     OW19342   3.691   1.423  11.369  0.0482  0.3658  0.1047
 2569SOL    HW119343   3.721   1.512  11.388 -1.6873  0.6171  1.6361
 2569SOL    HW219344   3.755   1.395  11.304  0.3756  2.2108 -0.3839
 2570SOL     OW19345   2.999   4.184  14.709 -0.1452  0.1809  0.4994
 2570SOL    HW119346   3.092   4.204  14.714 -0.5055  2.2280 -1.1726
 2570SOL    HW219347   2.998   4.108  14.767  1.0268  0.4846  0.9291
 2571SOL     OW19348   4.005   0.615   2.113  0.1400 -0.0989  0.1099
 2571SOL    HW119349   3.999   0.664   2.031 -0.9634 -1.0634 -0.3836
 2571SOL    HW219350   4.065   0.674   2.159 -0.1882 -0.6974  1.3141
 2572SOL     OW19351   3.234   1.305  16.767 -0.4191  0.2868  0.5668
 2572SOL    HW119352   3.285   1.234  16.730 -1.2302 -1.5853  3.0805
 2572SOL    HW219353   3.266   1.376  16.710 -0.7845  0.0461  0.0624
 2573SOL     OW19354   4.169   1.421   8.476 -0.1102  0.3501  0.0791
 2573SOL    HW119355   4.090   1.474   8.478  0.6539  1.5509 -1.9907
 2573SOL    HW219356   4.238   1.485   8.496 -0.4172  0.0103  2.3189
 2574SOL     OW19357   1.932   4.249   5.856 -0.0986 -0.0064 -0.3872
 2574SOL    HW119358   1.906   4.337   5.883 -0.2108  0.4726 -2.0885
 2574SOL    HW219359   1.964   4.264   5.768 -0.0430 -1.1552 -0.5637
 2575SOL     OW19360   1.348   4.249   6.447  0.4752  1.0700 -0.3742
 2575SOL    HW119361   1.429   4.287   6.414  0.7409  0.0677 -0.8815
 2575SOL    HW219362   1.355   4.170   6.393  1.1839  0.2951  0.8669
 2576SOL     OW19363   2.951   0.663  14.190  0.6221  0.1420  0.6647
 2576SOL    HW119364   2.937   0.575  14.155 -0.5814  0.7486 -0.4073
 2576SOL    HW219365   3.044   0.660  14.170  0.1128  1.0279 -1.8660
 2577SOL     OW19366   0.683   0.907   6.198  0.2642 -0.1986 -0.1895
 2577SOL    HW119367   0.602   0.957   6.213  1.3476  1.8112 -1.0320
 2577SOL    HW219368   0.671   0.873   6.109  1.6947 -2.3919  0.4717
 2578SOL     OW19369   2.057   3.895   6.521  0.0831  0.2273  0.1040
 2578SOL    HW119370   2.125   3.841   6.481  0.0718 -0.2922  0.7834
 2578SOL    HW219371   2.013   3.948   6.455  5.3278  1.5385 -2.3692
 2579SOL     OW19372   3.986   3.461   3.371  0.5569  0.4249 -0.5024
 2579SOL    HW119373   4.010   3.498   3.286  2.3969 -0.2715 -0.2948
 2579SOL    HW219374   4.003   3.544   3.415 -1.3436  1.3066 -1.4525
 2580SOL     OW19375   2.286   2.220  13.299 -0.2693  0.1956  0.0623
 2580SOL    HW119376   2.273   2.261  13.213  1.3678  1.3804  0.3803
 2580SOL    HW219377   2.380   2.218  13.316 -0.4223  1.2968  1.0655
 2581SOL     OW19378   0.636   1.861  17.637 -0.4069 -0.9766 -0.3602
 2581SOL    HW119379   0.606   1.820  17.556 -0.5876  0.5028 -1.0308
 2581SOL    HW219380   0.663   1.786  17.690 -2.0631 -2.0062 -0.9718
 2582SOL     OW19381   0.196   2.006   5.421 -0.1391  0.0885 -0.1092
 2582SOL    HW119382   0.113   2.013   5.374  0.3978 -0.6239 -1.1556
 2582SOL    HW219383   0.265   2.012   5.355 -0.6247 -2.4969 -0.8163
 2583SOL     OW19384   3.742   3.804   2.693  0.4056 -0.1186  0.0068
 2583SOL    HW119385   3.689   3.738   2.649  1.7742 -0.7098 -0.7485
 2583SOL    HW219386   3.809   3.747   2.729  1.0721  1.7042  1.6277
 2584SOL     OW19387   2.846   0.074  10.869  0.4855  0.3635  0.4395
 2584SOL    HW119388   2.923   0.060  10.813  0.7845 -0.8724  1.1508
 2584SOL    HW219389   2.798   4.733  10.840  3.1850 -1.4768  0.7664
 2585SOL     OW19390   0.112   2.350  14.999 -1.0126  0.0244  0.0685
 2585SOL    HW119391   0.166   2.356  14.920  0.5981  2.8812  1.3647
 2585SOL    HW219392   0.037   2.299  14.970 -0.8751 -0.3540  0.3770
 2586SOL     OW19393   1.245   1.127   7.205  0.3969  0.3571  0.4122
 2586SOL    HW119394   1.229   1.044   7.160  1.9343  0.2909 -0.0055
 2586SOL    HW219395   1.339   1.117   7.220  0.1558  0.7489  2.1408
 2587SOL     OW19396   0.492   1.574   2.987 -0.1618  0.5299  0.7670
 2587SOL    HW119397   0.413   1.522   3.004 -0.0469  0.5337  1.2868
 2587SOL    HW219398   0.452   1.648   2.941  2.8150  2.6557  1.5927
 2588SOL     OW19399   2.179   0.517  17.259 -0.1356 -0.7347  0.3170
 2588SOL    HW119400   2.178   0.436  17.310 -1.8869  0.8331  2.7332
 2588SOL    HW219401   2.227   0.488  17.181  0.2909  1.2085 -0.1360
 2589SOL     OW19402   3.923   0.447   6.340 -0.1651 -0.2230 -0.1761
 2589SOL    HW119403   3.841   0.425   6.294 -1.6410  0.1529  2.2799
 2589SOL    HW219404   3.968   0.363   6.349  0.1383  0.2467  2.6430
 2590SOL     OW19405   1.054   2.801   2.372  0.0947 -0.2761 -0.1749
 2590SOL    HW119406   1.008   2.866   2.426 -1.5337 -1.0390 -0.6327
 2590SOL    HW219407   1.050   2.832   2.282  1.3560  1.4259  0.3460
 2591SOL     OW19408   3.940   3.448   7.262 -0.1599  0.3998 -0.8206
 2591SOL    HW119409   3.980   3.424   7.178 -1.2051 -0.4527 -1.0844
 2591SOL    HW219410   4.003   3.412   7.324 -0.8045 -2.3139 -1.7104
 2592SOL     OW19411   1.371   3.053   1.011 -0.0127 -0.2403 -0.5574
 2592SOL    HW119412   1.287   3.066   1.055  1.3995  1.1363  1.6831
 2592SOL    HW219413   1.337   3.043   0.922  1.1254 -1.5607 -0.8457
 2593SOL     OW19414   0.302   0.245   0.093  0.1063  0.3492  0.0583
 2593SOL    HW119415   0.380   0.219   0.141  0.3264  0.2578 -0.3477
 2593SOL    HW219416   0.309   0.169   0.035  0.0356  0.9660 -0.7681
 2594SOL     OW19417   1.755   0.774   0.492  0.2341 -0.0395  0.4090
 2594SOL    HW119418   1.832   0.827   0.515  1.0797 -1.9978  2.0558
 2594SOL    HW219419   1.780   0.740   0.406 -0.2048  0.3796  0.1155
 2595SOL     OW19420   1.999   2.765   2.183 -0.0137 -0.2935  0.0539
 2595SOL    HW119421   1.994   2.860   2.175 -1.0507 -0.1042  3.1949
 2595SOL    HW219422   1.911   2.740   2.211  0.3766 -0.7136  0.9162
 2596SOL     OW19423   3.068   0.965  15.172 -0.0065 -0.7227 -0.3267
 2596SOL    HW119424   3.056   0.878  15.134 -2.3472 -0.0659 -1.1089
 2596SOL    HW219425   3.106   1.013  15.098 -2.6845 -0.0466 -1.2815
 2597SOL     OW19426   1.726   2.046   3.993 -0.1091  0.0495  0.6765
 2597SOL    HW119427   1.692   2.126   4.034  0.0565  0.3018  0.3243
 2597SOL    HW219428   1.815   2.076   3.973 -0.1607 -1.7385 -2.2585
 2598SOL     OW19429   2.636   4.561   4.532  0.1115  0.0364 -0.4328
 2598SOL    HW119430   2.701   4.581   4.464 -1.1318  1.0343 -1.3307
 2598SOL    HW219431   2.574   4.506   4.484  0.6354 -0.5725 -0.3973
 2599SOL     OW19432   3.215   1.522  17.375  0.5897 -0.0761 -0.5778
 2599SOL    HW119433   3.203   1.581  17.300 -0.6165 -0.2578 -0.5256
 2599SOL    HW219434   3.218   1.597  17.434 -0.0206 -0.4358 -0.0902
 2600SOL     OW19435   4.656   3.188   6.219 -0.2441 -0.5911 -0.3901
 2600SOL    HW119436   4.717   3.124   6.257  0.6302 -0.0263 -0.8478
 2600SOL    HW219437   4.669   3.258   6.283  0.7186 -0.3181 -0.8947
 2601SOL     OW19438   3.591   3.993   2.596  0.0876  0.6352 -0.3785
 2601SOL    HW119439   3.638   3.925   2.644 -1.4649  0.9925  1.6645
 2601SOL    HW219440   3.597   4.057   2.668 -0.9546 -0.2360  0.4964
 2602SOL     OW19441   0.989   1.656  15.385 -0.5484  0.4995  0.4134
 2602SOL    HW119442   0.923   1.677  15.319 -0.7162 -1.5588 -0.0667
 2602SOL    HW219443   1.018   1.743  15.414 -0.6193  0.3450  0.9435
 2603SOL     OW19444   1.884   2.285   3.087  0.1154 -0.2987  0.8046
 2603SOL    HW119445   1.920   2.244   3.165  0.1871 -1.5628  0.1129
 2603SOL    HW219446   1.944   2.357   3.065  0.6771 -1.3417 -1.1216
 2604SOL     OW19447   3.563   3.377  16.815  0.5857  0.0128  0.3001
 2604SOL    HW119448   3.584   3.379  16.909  0.9953 -0.0216  0.2094
 2604SOL    HW219449   3.641   3.411  16.770 -0.0612  1.3886  0.2304
 2605SOL     OW19450   2.531   3.804   3.455  0.0776  0.2112 -0.1545
 2605SOL    HW119451   2.584   3.846   3.523  1.0281 -1.2050 -0.0024
 2605SOL    HW219452   2.448   3.784   3.497  0.9393 -3.0859 -0.0250
 2606SOL     OW19453   4.006   2.813   3.561  0.2027 -0.0842 -0.0622
 2606SOL    HW119454   4.003   2.905   3.586 -2.3304 -0.3253  0.4862
 2606SOL    HW219455   4.059   2.813   3.481 -0.6223  1.6594 -0.6128
 2607SOL     OW19456   0.829   0.227   8.609 -0.4408  0.0653 -0.2553
 2607SOL    HW119457   0.897   0.200   8.548 -1.1200  0.3060 -1.1136
 2607SOL    HW219458   0.825   0.321   8.591 -0.1687 -0.4248 -2.8524
 2608SOL     OW19459   3.424   0.027  14.988  0.1725  0.1029 -0.5374
 2608SOL    HW119460   3.351   4.700  14.987  0.0651  0.2154  0.0580
 2608SOL    HW219461   3.441   0.036  14.894 -1.0439 -1.3884 -0.9206
 2609SOL     OW19462   1.247   2.128   4.852 -0.4608  0.2246 -0.1330
 2609SOL    HW119463   1.199   2.085   4.782  0.6786 -0.6107 -0.4072
 2609SOL    HW219464   1.288   2.051   4.893 -1.2764 -0.4994 -0.6795
 2610SOL     OW19465   1.395   1.791  17.550 -0.1637 -0.3213 -0.0784
 2610SOL    HW119466   1.341   1.762  17.476  1.2660 -0.9015 -0.8729
 2610SOL    HW219467   1.468   1.825  17.498 -0.0796  0.7298  0.7249
 2611SOL     OW19468   4.627   4.496   7.295 -0.0909  0.1444 -0.5330
 2611SOL    HW119469   4.693   4.560   7.323 -0.8740  1.2435 -1.1874
 2611SOL    HW219470   4.679   4.436   7.243  3.6972  0.4617  2.8599
 2612SOL     OW19471   0.519   0.696   9.004 -0.1089  0.3309 -0.4697
 2612SOL    HW119472   0.565   0.715   9.085 -0.9133 -1.0563  0.3172
 2612SOL    HW219473   0.478   0.615   9.035  0.1182  0.9086  1.2922
 2613SOL     OW19474   0.841   3.543  11.908 -0.1582  0.6782  0.1806
 2613SOL    HW119475   0.783   3.556  11.833  1.0402  0.6320 -0.7513
 2613SOL    HW219476   0.801   3.468  11.951 -0.5761  0.7230 -0.1272
 2614SOL     OW19477   1.239   4.311   4.174 -0.2272 -0.0924  0.0350
 2614SOL    HW119478   1.276   4.367   4.107 -1.4262 -0.3536 -0.8424
 2614SOL    HW219479   1.151   4.303   4.138  0.2761 -1.4721 -0.8956
 2615SOL     OW19480   1.892   0.853   6.432  0.6177 -0.2357 -0.2465
 2615SOL    HW119481   1.978   0.865   6.393 -0.2891  2.9626 -1.2481
 2615SOL    HW219482   1.913   0.788   6.500  1.6256 -1.0151 -1.3061
 2616SOL     OW19483   3.279   2.527   6.270 -0.2785 -0.2760 -0.5582
 2616SOL    HW119484   3.261   2.444   6.225 -3.6921 -0.0443  0.3608
 2616SOL    HW219485   3.235   2.601   6.228  0.2819  0.1153 -0.4448
 2617SOL     OW19486   3.968   3.065   7.476  0.7004  0.3843  0.2303
 2617SOL    HW119487   3.919   3.008   7.536 -2.0537  2.5979  0.0884
 2617SOL    HW219488   3.904   3.084   7.407 -0.1490 -3.1730  0.0089
 2618SOL     OW19489   4.133   1.230   2.187 -0.4415  0.8825 -0.3510
 2618SOL    HW119490   4.073   1.199   2.119  0.5647  0.6978 -1.1448
 2618SOL    HW219491   4.221   1.222   2.151 -0.2164 -1.4194  0.6957
 2619SOL     OW19492   3.488   1.163  10.645  0.0413  0.0608  1.0730
 2619SOL    HW119493   3.433   1.194  10.717 -2.1469 -2.3438  0.4285
 2619SOL    HW219494   3.510   1.077  10.681 -0.2573 -0.2030  0.6306
 2620SOL     OW19495   1.354   4.588  10.124  0.2019 -0.4452  0.2495
 2620SOL    HW119496   1.438   4.592  10.079 -0.2506 -0.5169 -0.5931
 2620SOL    HW219497   1.337   4.494  10.121  0.8917 -0.5344 -0.9353
 2621SOL     OW19498   1.917   0.316  15.190  0.3376 -0.1255 -0.0508
 2621SOL    HW119499   1.961   0.331  15.274  0.1252 -1.1805  0.2526
 2621SOL    HW219500   1.831   0.321  15.232 -0.2802 -0.1966 -1.3323
 2622SOL     OW19501   3.453   3.788   9.326 -0.6000  0.6963 -0.2677
 2622SOL    HW119502   3.472   3.881   9.340 -1.0563  0.7789 -0.1961
 2622SOL    HW219503   3.394   3.768   9.399 -0.4098 -2.2857 -0.9383
 2623SOL     OW19504   3.692   1.232  12.507  0.0142 -0.3805 -0.7305
 2623SOL    HW119505   3.666   1.238  12.599 -0.8267  0.3430 -1.0106
 2623SOL    HW219506   3.788   1.226  12.512 -0.0225 -0.6708 -0.4255
 2624SOL     OW19507   1.057   2.343   6.890  0.1866  0.3754  0.3973
 2624SOL    HW119508   1.088   2.375   6.975  1.4836  1.9043 -0.6562
 2624SOL    HW219509   1.019   2.258   6.913  1.5665 -0.1574  0.7335
 2625SOL     OW19510   1.200   1.841   3.761  0.5762 -0.1308  0.8344
 2625SOL    HW119511   1.148   1.902   3.710  1.7120 -0.4186 -0.6771
 2625SOL    HW219512   1.246   1.892   3.828  0.1477  2.6544 -1.0293
 2626SOL     OW19513   2.146   0.896   0.846  0.0833  0.2462  0.6659
 2626SOL    HW119514   2.233   0.931   0.827 -1.1980  1.5740 -2.8638
 2626SOL    HW219515   2.104   0.966   0.897  0.2373  0.1802  0.8808
 2627SOL     OW19516   1.832   1.457   2.465  0.3287 -0.1341  0.1760
 2627SOL    HW119517   1.886   1.469   2.542 -1.5032 -1.4943  1.6705
 2627SOL    HW219518   1.898   1.453   2.395  0.2399  1.6037 -0.0124
 2628SOL     OW19519   4.532   3.952   2.417 -0.0751  0.8615 -0.1336
 2628SOL    HW119520   4.456   3.917   2.369  0.7291 -0.8139 -0.1851
 2628SOL    HW219521   4.512   4.045   2.425  0.7614  1.2099 -1.8898
 2629SOL     OW19522   4.272   1.211   6.801  0.4706  0.3902  0.7077
 2629SOL    HW119523   4.340   1.269   6.767 -0.0788 -1.2614 -3.2408
 2629SOL    HW219524   4.323   1.131   6.815 -0.1595  0.0298  0.9549
 2630SOL     OW19525   3.190   2.285  15.597 -0.4788 -0.1122  0.4284
 2630SOL    HW119526   3.241   2.349  15.646  0.0874  0.8904 -1.5026
 2630SOL    HW219527   3.107   2.328  15.579 -0.2548  0.4377  0.7027
 2631SOL     OW19528   3.979   4.365   2.677 -0.9029 -0.1846  0.0036
 2631SOL    HW119529   3.992   4.392   2.768 -0.5076  1.3941 -0.5319
 2631SOL    HW219530   4.071   4.362   2.651 -1.1577 -1.1293 -0.7954
 2632SOL     OW19531   1.302   3.508   6.410 -0.0811 -0.5468  0.4850
 2632SOL    HW119532   1.210   3.488   6.394 -0.3990  2.8797 -1.9139
 2632SOL    HW219533   1.292   3.551   6.495 -1.7981 -0.2061  0.1067
 2633SOL     OW19534   1.038   2.297   2.806  0.0828 -0.4292  0.3648
 2633SOL    HW119535   1.045   2.368   2.743  0.1581 -0.0616  0.7916
 2633SOL    HW219536   1.109   2.236   2.782 -0.9705 -2.5397  2.5278
 2634SOL     OW19537   0.844   0.870   4.620  0.1460  0.2090  0.1670
 2634SOL    HW119538   0.756   0.878   4.655  0.0569  0.5202 -0.1314
 2634SOL    HW219539   0.850   0.774   4.619 -1.2544  0.1328 -0.9676
 2635SOL     OW19540   1.142   2.065   7.343 -0.4609 -0.3205 -0.1874
 2635SOL    HW119541   1.125   2.158   7.327  1.0669  0.1295  0.7473
 2635SOL    HW219542   1.087   2.026   7.275  0.2760 -2.0864  0.2547
 2636SOL     OW19543   0.228   3.734  16.992 -0.1801 -0.1284 -0.8451
 2636SOL    HW119544   0.303   3.688  17.029  0.6337  0.9537 -1.1169
 2636SOL    HW219545   0.221   3.705  16.901 -2.6241 -1.0869 -0.3464
 2637SOL     OW19546   1.509   1.349   3.867  0.0635 -0.4002 -0.0858
 2637SOL    HW119547   1.505   1.347   3.963 -0.6537  0.7722 -0.0911
 2637SOL    HW219548   1.461   1.427   3.840 -1.5815 -1.0365  1.0098
 2638SOL     OW19549   0.907   1.809   3.814 -0.1812  0.3300  0.1973
 2638SOL    HW119550   0.882   1.754   3.741  2.5225  0.7480 -1.0650
 2638SOL    HW219551   0.985   1.765   3.849 -0.1266 -1.0357 -1.6766
 2639SOL     OW19552   3.074   2.046   2.552  0.0642  0.2305  0.2754
 2639SOL    HW119553   3.081   1.965   2.502 -1.1498  1.2399 -1.5163
 2639SOL    HW219554   2.998   2.031   2.608  0.3901 -0.9631  0.4054
 2640SOL     OW19555   2.852   0.139   3.685  0.2875  0.3517  0.1415
 2640SOL    HW119556   2.826   0.222   3.726 -0.8638  0.0192  0.0601
 2640SOL    HW219557   2.847   0.067   3.747  4.1452 -0.0574  0.0246
 2641SOL     OW19558   2.096   1.692  11.807  0.9065  0.1692 -0.4619
 2641SOL    HW119559   2.115   1.601  11.830  1.8835  1.0071  1.9929
 2641SOL    HW219560   2.015   1.682  11.757  0.2800 -0.4891  0.6746
 2642SOL     OW19561   3.407   4.468   4.861 -0.8124 -0.6536  0.2417
 2642SOL    HW119562   3.363   4.492   4.780  1.0795 -1.7701 -1.1377
 2642SOL    HW219563   3.341   4.470   4.930 -0.3315 -0.4139  0.6989
 2643SOL     OW19564   2.346   2.455  13.815  0.1788 -0.3077 -0.3470
 2643SOL    HW119565   2.423   2.494  13.856  0.0446 -0.0005 -0.3863
 2643SOL    HW219566   2.309   2.520  13.755 -1.9800 -0.8651  0.3950
 2644SOL     OW19567   4.360   3.839   3.025 -0.1029  0.6470  0.7225
 2644SOL    HW119568   4.434   3.782   3.003 -0.4897  0.8576 -1.1888
 2644SOL    HW219569   4.402   3.923   3.004  0.5481  0.0705 -0.2675
 2645SOL     OW19570   2.461   0.547  12.646 -0.5717  0.2388 -0.1321
 2645SOL    HW119571   2.423   0.581  12.565  0.5901 -1.3837 -1.3678
 2645SOL    HW219572   2.530   0.613  12.652 -0.2078  0.0699 -2.4336
 2646SOL     OW19573   3.087   3.194   7.183  0.1273  0.2450  0.0295
 2646SOL    HW119574   2.998   3.222   7.161 -0.2040 -1.3624 -0.6529
 2646SOL    HW219575   3.142   3.235   7.116 -0.6341  2.2283  0.6092
 2647SOL     OW19576   3.338   0.367   8.559 -0.2815  0.4162  0.3245
 2647SOL    HW119577   3.295   0.378   8.475  2.8570  0.2573 -1.2803
 2647SOL    HW219578   3.266   0.337   8.615 -0.5158  0.4413  0.0333
 2648SOL     OW19579   4.201   0.434  16.323 -0.4754 -0.5853 -0.1426
 2648SOL    HW119580   4.285   0.437  16.277  1.1442  2.4787  2.9811
 2648SOL    HW219581   4.202   0.365  16.390 -0.5903 -0.0506  0.4062
 2649SOL     OW19582   2.199   3.826   9.307  0.1467 -0.2094 -0.3967
 2649SOL    HW119583   2.124   3.799   9.360  0.6154 -1.2980 -0.2901
 2649SOL    HW219584   2.221   3.752   9.250  0.9759  0.4268 -0.9079
 2650SOL     OW19585   0.413   0.003   3.149  0.0841 -0.3471  0.0463
 2650SOL    HW119586   0.371   0.052   3.078  1.2692 -1.0062 -1.1006
 2650SOL    HW219587   0.340   4.734   3.211 -0.4767 -1.5334 -0.7191
 2651SOL     OW19588   1.066   0.619   7.015 -0.3844 -0.2088  0.0440
 2651SOL    HW119589   0.984   0.640   6.969  1.4517 -1.6787 -3.9619
 2651SOL    HW219590   1.047   0.582   7.101 -0.7620 -0.5675 -0.1926
 2652SOL     OW19591   2.546   4.101  12.102  0.6468  0.6014 -0.1072
 2652SOL    HW119592   2.561   4.195  12.100  0.7326  0.6077  0.9750
 2652SOL    HW219593   2.604   4.076  12.030 -1.6067  0.1875 -1.7810
 2653SOL     OW19594   1.636   0.812   0.111 -0.0121 -0.1412  0.0237
 2653SOL    HW119595   1.621   0.906   0.104  0.7343  0.1144  1.9249
 2653SOL    HW219596   1.586   0.771   0.040 -1.2594 -0.3217  1.0210
 2654SOL     OW19597   3.617   1.815   3.051  0.8886 -0.7843 -0.3281
 2654SOL    HW119598   3.659   1.790   3.134  0.9503  2.2074  0.5369
 2654SOL    HW219599   3.594   1.908   3.060 -0.9339 -1.2389 -0.3940
 2655SOL     OW19600   3.395   1.806   3.231 -0.1258 -0.0373 -0.5616
 2655SOL    HW119601   3.370   1.894   3.202 -1.0215 -0.4662 -1.0943
 2655SOL    HW219602   3.373   1.760   3.150 -1.3555  2.5233 -1.6824
 2656SOL     OW19603   3.136   0.533  14.437  0.8522  0.2362 -0.0809
 2656SOL    HW119604   3.175   0.533  14.525  0.6647 -1.4655 -0.0014
 2656SOL    HW219605   3.087   0.615  14.445 -0.3369 -0.4266 -0.5908
 2657SOL     OW19606   2.001   4.723   9.391 -0.2353  0.0345  0.1395
 2657SOL    HW119607   2.010   0.079   9.364  2.0943  0.0610  1.0182
 2657SOL    HW219608   1.919   4.724   9.439 -0.9639 -1.7784 -1.0789
 2658SOL     OW19609   3.880   4.676   3.144 -0.2712 -0.2100 -0.1397
 2658SOL    HW119610   3.849   0.027   3.119  0.9275  0.6757  1.4820
 2658SOL    HW219611   3.966   4.677   3.103 -0.9051  1.3052 -1.4503
 2659SOL     OW19612   0.781   3.822  13.909 -0.2421  0.6307  0.1032
 2659SOL    HW119613   0.803   3.884  13.839  1.5623  0.2325  0.3291
 2659SOL    HW219614   0.693   3.793  13.886  1.0696 -0.7109 -3.2402
 2660SOL     OW19615   3.559   1.348   4.159  0.1481  0.1219 -0.1971
 2660SOL    HW119616   3.495   1.285   4.192  0.6841 -0.9112 -1.1045
 2660SOL    HW219617   3.535   1.436   4.186  0.1345  0.4736 -1.3398
 2661SOL     OW19618   0.723   2.379   3.188  0.5937 -0.7962  0.1216
 2661SOL    HW119619   0.747   2.343   3.103 -2.1938 -1.8959 -0.2142
 2661SOL    HW219620   0.633   2.347   3.179  1.5307 -3.3793 -0.0485
 2662SOL     OW19621   1.010   2.845   5.863  0.1959 -0.3933 -0.5742
 2662SOL    HW119622   0.991   2.775   5.800  1.5472 -0.4139 -0.9481
 2662SOL    HW219623   0.924   2.866   5.900  0.7028  2.9280 -1.2843
 2663SOL     OW19624   4.342   4.682   8.864 -0.0249  0.2153 -0.2108
 2663SOL    HW119625   4.362   4.650   8.776  0.0257  1.3594 -0.6184
 2663SOL    HW219626   4.308   4.603   8.906  1.4718  0.1831  0.9417
 2664SOL     OW19627   0.296   2.862   8.413 -0.3715 -0.0190  0.8419
 2664SOL    HW119628   0.236   2.815   8.356 -0.3928  1.8236 -0.6346
 2664SOL    HW219629   0.261   2.840   8.500  0.0012  1.2408  1.3145
 2665SOL     OW19630   3.614   0.273   4.881 -0.2418 -0.3955 -0.7422
 2665SOL    HW119631   3.532   0.256   4.927 -0.5302  2.5633 -0.1979
 2665SOL    HW219632   3.589   0.323   4.804 -1.4170 -0.7305 -0.5816
 2666SOL     OW19633   3.259   2.411   9.743  0.3074  0.5757  0.0634
 2666SOL    HW119634   3.310   2.369   9.675 -0.2230 -0.0446  0.0515
 2666SOL    HW219635   3.184   2.356   9.767 -0.1286  1.5328  0.9239
 2667SOL     OW19636   2.888   3.344   8.114 -0.2893  0.4960 -0.5547
 2667SOL    HW119637   2.887   3.394   8.196  0.5963 -1.7267  0.8120
 2667SOL    HW219638   2.806   3.373   8.073  1.8673  3.1045 -2.9921
 2668SOL     OW19639   4.421   1.070   7.124  0.2710  0.0759 -0.2628
 2668SOL    HW119640   4.435   1.076   7.030  0.6875  0.0013 -0.2041
 2668SOL    HW219641   4.366   1.146   7.143  0.5432 -0.0012  0.8663
 2669SOL     OW19642   2.232   2.765  15.398  0.3591  0.0939  0.6673
 2669SOL    HW119643   2.320   2.797  15.416  0.0207  0.2564  2.0316
 2669SOL    HW219644   2.191   2.851  15.410 -2.1229 -1.1714  1.1762
 2670SOL     OW19645   4.246   4.693   5.164  0.2547 -0.7864 -0.6038
 2670SOL    HW119646   4.169   4.649   5.127 -0.4797  0.3699 -0.4319
 2670SOL    HW219647   4.272   4.624   5.225  1.0056  0.3410  0.3472
 2671SOL     OW19648   2.339   4.271  16.531 -0.9045 -0.0548 -0.2442
 2671SOL    HW119649   2.323   4.182  16.562 -0.1825  0.0271  0.3636
 2671SOL    HW219650   2.337   4.266  16.436 -1.3086  0.0158 -0.2401
 2672SOL     OW19651   2.603   3.461   6.137 -0.2815  0.1111  0.1895
 2672SOL    HW119652   2.614   3.403   6.063 -0.7909 -1.0375  1.0085
 2672SOL    HW219653   2.509   3.472   6.121 -0.3545 -0.3593  0.2916
 2673SOL     OW19654   0.643   2.535   4.266 -0.3193 -0.1962 -0.5140
 2673SOL    HW119655   0.722   2.553   4.215 -0.1526 -1.1501 -0.5808
 2673SOL    HW219656   0.664   2.451   4.307 -0.6802  0.1942  0.4846
 2674SOL     OW19657   0.328   0.278   7.127 -0.2773 -0.0945  0.1071
 2674SOL    HW119658   0.236   0.300   7.140 -0.0318  0.3692  1.0995
 2674SOL    HW219659   0.363   0.361   7.161 -0.8182 -0.4564  1.5448
 2675SOL     OW19660   3.072   3.266   8.467 -0.0725  0.1221  0.0400
 2675SOL    HW119661   3.048   3.322   8.541 -1.7754 -1.5780  0.8009
 2675SOL    HW219662   3.043   3.326   8.399 -1.9358 -1.1154 -0.2807
 2676SOL     OW19663   3.262   4.139   3.924 -0.4152  0.4492 -0.9519
 2676SOL    HW119664   3.256   4.071   3.991 -0.4504 -1.2399 -2.6497
 2676SOL    HW219665   3.348   4.179   3.930 -1.1767  1.8191  0.9273
 2677SOL     OW19666   0.131   3.832  13.588 -0.0045 -0.0174 -0.1838
 2677SOL    HW119667   0.114   3.737  13.592  2.3712 -0.3810  1.0301
 2677SOL    HW219668   0.169   3.847  13.674  1.0304 -0.2029 -0.6138
 2678SOL     OW19669   0.523   0.328   4.181  0.8775 -0.3138  0.2196
 2678SOL    HW119670   0.493   0.250   4.135  4.0109 -0.4187 -1.7056
 2678SOL    HW219671   0.444   0.338   4.234  0.7959 -1.8266  0.3964
 2679SOL     OW19672   4.449   1.035  16.505 -0.0603 -0.3579  0.1760
 2679SOL    HW119673   4.473   1.061  16.417 -2.3023  2.2933  0.3401
 2679SOL    HW219674   4.445   1.121  16.546  1.9985 -0.1159 -0.1641
 2680SOL     OW19675   1.360   0.255   1.355  0.5895  1.0474 -0.2147
 2680SOL    HW119676   1.375   0.248   1.261 -0.2605 -1.1681 -0.1938
 2680SOL    HW219677   1.408   0.336   1.370  1.2457  0.8385 -1.2253
 2681SOL     OW19678   2.467   4.086   2.621 -0.0340  0.1172 -0.2362
 2681SOL    HW119679   2.472   4.150   2.550  2.0456  0.9614  0.6917
 2681SOL    HW219680   2.495   4.127   2.703 -0.1650 -0.7343  0.2406
 2682SOL     OW19681   4.101   3.078  13.918 -0.7594 -0.2863 -0.9797
 2682SOL    HW119682   4.032   3.072  13.852 -1.3048  0.5356 -0.4799
 2682SOL    HW219683   4.059   3.119  13.993  0.2013  0.5299 -0.8811
 2683SOL     OW19684   0.931   0.435   3.173  0.1699  0.3065 -0.2174
 2683SOL    HW119685   0.973   0.399   3.095 -1.3451  1.0773 -1.3864
 2683SOL    HW219686   0.841   0.413   3.150  0.0856  0.0409  0.3628
 2684SOL     OW19687   2.227   1.373   7.474 -0.2430 -0.1505 -0.3120
 2684SOL    HW119688   2.269   1.329   7.400  0.9828 -1.0801  0.9541
 2684SOL    HW219689   2.212   1.302   7.537 -1.9325  1.1624  0.7834
 2685SOL     OW19690   1.134   2.216  17.488  0.1793  0.1616  0.0453
 2685SOL    HW119691   1.112   2.243  17.400  1.4053 -0.1584 -0.3620
 2685SOL    HW219692   1.227   2.194  17.487 -0.1736 -1.2586 -1.6715
 2686SOL     OW19693   2.932   1.454   3.650 -0.0034 -0.4016 -0.2770
 2686SOL    HW119694   2.844   1.462   3.615  0.1365 -0.7749 -0.7158
 2686SOL    HW219695   2.918   1.488   3.739 -2.2074 -1.6702 -0.1429
 2687SOL     OW19696   2.407   0.775   5.096 -0.2800 -0.0496  0.4921
 2687SOL    HW119697   2.415   0.685   5.128  0.8402 -0.5032 -1.0571
 2687SOL    HW219698   2.498   0.805   5.093  0.3766 -2.0483  0.3330
 2688SOL     OW19699   3.946   2.966   4.443  0.0518  0.2433 -0.2417
 2688SOL    HW119700   3.911   2.904   4.379 -0.0553  1.1228 -1.0268
 2688SOL    HW219701   3.999   2.915   4.504 -0.2865  0.7931  0.5287
 2689SOL     OW19702   1.712   0.766  10.946  0.3745  0.0071 -0.3125
 2689SOL    HW119703   1.655   0.842  10.933 -1.7349 -1.6979 -1.0391
 2689SOL    HW219704   1.682   0.738  11.032  0.4164  0.5448 -0.1274
 2690SOL     OW19705   2.686   0.850  15.761 -0.2960  0.1845 -0.3738
 2690SOL    HW119706   2.620   0.879  15.823  0.5022  1.2813 -0.0311
 2690SOL    HW219707   2.645   0.769  15.731  0.7189  0.0488 -1.3975
 2691SOL     OW19708   1.207   0.669   9.212  0.1630  0.5070  0.2618
 2691SOL    HW119709   1.214   0.655   9.118  0.7034 -0.3533  0.4306
 2691SOL    HW219710   1.113   0.682   9.225  0.3208  1.5991  0.2971
 2692SOL     OW19711   4.529   1.764   1.816 -0.1475  0.3286 -0.1562
 2692SOL    HW119712   4.618   1.793   1.795  0.1344 -0.8068 -0.5402
 2692SOL    HW219713   4.526   1.781   1.910  0.7850 -0.0869 -0.0483
 2693SOL     OW19714   4.314   4.728   7.497 -0.5960  0.2801 -0.0699
 2693SOL    HW119715   4.395   4.679   7.511 -0.4408  0.6954  0.4971
 2693SOL    HW219716   4.317   0.055   7.569  1.8589  0.9676 -0.7675
 2694SOL     OW19717   1.965   0.045   3.841 -0.4787 -0.2275 -0.1580
 2694SOL    HW119718   1.880   0.004   3.822  0.0834 -0.8540 -1.2920
 2694SOL    HW219719   1.961   0.130   3.797 -1.5791 -1.8760 -3.1953
 2695SOL     OW19720   0.904   3.701   7.939 -0.2242 -0.0635  0.3862
 2695SOL    HW119721   0.815   3.729   7.915  0.1772 -0.8504 -2.0148
 2695SOL    HW219722   0.945   3.785   7.962 -1.0391  0.5167 -0.2673
 2696SOL     OW19723   4.165   0.732   8.364  0.4690  0.0760 -0.3688
 2696SOL    HW119724   4.171   0.782   8.445  1.9769 -1.1581  0.2864
 2696SOL    HW219725   4.247   0.683   8.360 -0.7161 -1.7038 -2.7246
 2697SOL     OW19726   4.074   2.509   5.646  0.6657  0.7902  0.1835
 2697SOL    HW119727   4.058   2.593   5.689 -2.2486 -0.8910  2.4140
 2697SOL    HW219728   4.104   2.449   5.715 -0.3802  0.1171  0.0582
 2698SOL     OW19729   2.181   0.378  15.345  0.2916  0.2713  0.4726
 2698SOL    HW119730   2.167   0.419  15.260  1.5348 -0.5221 -0.1306
 2698SOL    HW219731   2.259   0.324  15.326  2.0839  2.4225  1.7495
 2699SOL     OW19732   4.016   4.699  12.736  0.2441  0.1159  0.0938
 2699SOL    HW119733   3.945   4.656  12.689 -1.2683  0.8718  1.6733
 2699SOL    HW219734   3.967   0.005  12.806  1.8553  2.6622 -0.2941
 2700SOL     OW19735   1.219   3.992   7.619  0.0076  0.0409  0.2201
 2700SOL    HW119736   1.277   4.064   7.594  1.1916 -0.4751  1.4643
 2700SOL    HW219737   1.277   3.968   7.692  1.3771  2.1799 -0.1767
 2701SOL     OW19738   2.699   1.017   8.137  0.5222 -0.0342 -0.2630
 2701SOL    HW119739   2.638   0.945   8.153  2.3716 -1.0673  2.0791
 2701SOL    HW219740   2.767   0.981   8.193  2.6741  0.9604 -2.2574
 2702SOL     OW19741   1.071   2.240  14.498 -0.3505  0.6789  0.1984
 2702SOL    HW119742   1.056   2.147  14.516  2.0938 -0.1687 -2.0126
 2702SOL    HW219743   1.056   2.270  14.587 -1.1768 -1.1421  0.6841
 2703SOL     OW19744   1.668   2.404   7.059 -0.2055  0.4031  0.3036
 2703SOL    HW119745   1.672   2.500   7.054 -0.1642  0.3348 -0.9375
 2703SOL    HW219746   1.738   2.386   7.122  0.2244  1.0556  0.0191
 2704SOL     OW19747   0.479   1.488  16.770  0.4436  0.4368 -0.6765
 2704SOL    HW119748   0.465   1.403  16.728  0.3680 -0.8480  1.9858
 2704SOL    HW219749   0.573   1.482  16.782  0.3714  0.2038 -0.2404
 2705SOL     OW19750   0.129   2.173   9.294  0.2238  0.5436  0.4408
 2705SOL    HW119751   0.093   2.124   9.220 -1.4440  2.7519 -0.2284
 2705SOL    HW219752   0.202   2.221   9.257  0.1186  0.8146  0.5816
 2706SOL     OW19753   1.807   1.495  13.422  0.1783  0.1656  0.0772
 2706SOL    HW119754   1.855   1.576  13.439  0.6380  0.0280 -0.5393
 2706SOL    HW219755   1.809   1.485  13.327 -2.0607  2.1678 -0.1939
 2707SOL     OW19756   3.855   4.504   6.266  0.4443  0.6353 -0.0574
 2707SOL    HW119757   3.768   4.543   6.276  0.5967  1.1061 -0.5817
 2707SOL    HW219758   3.906   4.583   6.280  0.4638  0.2904  1.7729
 2708SOL     OW19759   0.722   1.895  11.511 -0.2839  0.1872  0.8448
 2708SOL    HW119760   0.771   1.975  11.493  0.1467  0.2615  2.3978
 2708SOL    HW219761   0.780   1.845  11.568  1.7575  1.1693 -0.3977
 2709SOL     OW19762   4.335   0.517   7.866  0.3525 -0.4215  0.0129
 2709SOL    HW119763   4.336   0.438   7.920 -3.7729 -0.6035 -0.1774
 2709SOL    HW219764   4.384   0.572   7.926 -1.8497  2.4570 -0.7826
 2710SOL     OW19765   0.908   1.501   3.858 -0.6560 -0.3840  0.0232
 2710SOL    HW119766   0.856   1.441   3.805  0.7433  0.3023 -2.1578
 2710SOL    HW219767   0.878   1.498   3.949  1.6216 -1.2365  0.7585
 2711SOL     OW19768   2.383   0.496   9.269 -0.4985 -0.1324  0.2740
 2711SOL    HW119769   2.452   0.436   9.244 -1.3298 -1.4331  1.1077
 2711SOL    HW219770   2.369   0.538   9.184  0.6895  1.3018  0.7850
 2712SOL     OW19771   1.659   2.864   6.293  0.6519  0.1262 -0.8965
 2712SOL    HW119772   1.592   2.925   6.260  2.2711  1.4272 -1.8033
 2712SOL    HW219773   1.741   2.909   6.271  0.1306  1.7374  0.4783
 2713SOL     OW19774   3.811   3.790  12.142  0.2485 -0.4076 -0.2092
 2713SOL    HW119775   3.730   3.741  12.133  0.8584 -1.8635  2.0369
 2713SOL    HW219776   3.794   3.838  12.223 -0.7726 -0.1476 -0.5766
 2714SOL     OW19777   1.744   0.296   6.348 -0.5120 -0.0784 -0.5390
 2714SOL    HW119778   1.673   0.235   6.325 -0.6173 -0.3238  0.4554
 2714SOL    HW219779   1.823   0.242   6.348 -1.5682 -1.6226  0.8705
 2715SOL     OW19780   4.208   2.472   7.606 -0.4810  0.1697  0.1255
 2715SOL    HW119781   4.146   2.521   7.552 -0.5013 -0.3173 -0.2922
 2715SOL    HW219782   4.214   2.390   7.557  0.4816  0.4222 -0.1806
 2716SOL     OW19783   1.669   0.500   9.215 -0.3580  0.1462 -0.2704
 2716SOL    HW119784   1.611   0.504   9.291  0.0224 -1.4665  0.0895
 2716SOL    HW219785   1.725   0.574   9.240 -0.3613  0.6925 -1.8712
 2717SOL     OW19786   1.354   0.090   6.106 -0.5390  0.3490  0.4669
 2717SOL    HW119787   1.397   0.067   6.188  0.7735  1.7752  0.1875
 2717SOL    HW219788   1.343   0.006   6.062  0.2085  0.1941  0.5863
 2718SOL     OW19789   4.334   4.074   9.689  0.1723 -0.1954  1.0880
 2718SOL    HW119790   4.350   4.125   9.768  0.9620 -0.4002  1.0636
 2718SOL    HW219791   4.421   4.033   9.690 -0.9931 -2.7044  0.9304
 2719SOL     OW19792   4.201   2.688   4.949 -0.8689  0.1574  0.1955
 2719SOL    HW119793   4.139   2.759   4.959  0.3200  0.8878  2.4893
 2719SOL    HW219794   4.270   2.723   4.892  0.9126 -2.4281  0.7326
 2720SOL     OW19795   1.581   3.673   3.425  0.2095  0.2107 -0.1766
 2720SOL    HW119796   1.605   3.705   3.512  0.6718 -0.5532 -0.0201
 2720SOL    HW219797   1.565   3.759   3.385  1.1886  0.0081 -1.0124
 2721SOL     OW19798   4.593   2.763   5.607 -0.0068 -0.0293  0.4086
 2721SOL    HW119799   4.647   2.741   5.530 -0.3027 -2.0281  0.7693
 2721SOL    HW219800   4.505   2.734   5.583  1.7941 -5.2280  0.0481
 2722SOL     OW19801   4.263   2.678   9.676  0.2868 -0.3671  0.3926
 2722SOL    HW119802   4.203   2.717   9.740 -0.3777  2.5200 -1.9725
 2722SOL    HW219803   4.224   2.712   9.596  1.3915  0.4677  0.2074
 2723SOL     OW19804   2.345   0.934   8.529  0.0203 -0.3155  0.1934
 2723SOL    HW119805   2.343   0.968   8.440  4.7081  1.3383  0.7729
 2723SOL    HW219806   2.275   0.991   8.562 -0.1469  0.1019 -0.9066
 2724SOL     OW19807   4.284   4.215   3.145 -0.2903 -0.3899 -0.2828
 2724SOL    HW119808   4.356   4.166   3.185 -0.8254 -1.8037 -1.0749
 2724SOL    HW219809   4.243   4.263   3.217 -0.4294  2.3302 -2.1844
 2725SOL     OW19810   3.545   1.777  17.403 -0.2789  0.5055  0.3488
 2725SOL    HW119811   3.624   1.790  17.351 -0.0426 -1.1325  0.3017
 2725SOL    HW219812   3.490   1.743  17.332  1.7647 -0.0148 -0.9734
 2726SOL     OW19813   3.668   2.783   2.685  0.3185 -0.1573  0.0916
 2726SOL    HW119814   3.581   2.823   2.678  0.8787  1.3947  1.9899
 2726SOL    HW219815   3.649   2.690   2.695  0.4407 -0.0754  1.0552
 2727SOL     OW19816   3.485   1.978   8.314 -0.2803  0.1625 -0.3609
 2727SOL    HW119817   3.558   2.030   8.280  0.0879  0.9573  1.6417
 2727SOL    HW219818   3.404   2.024   8.292 -1.9829 -2.7401 -0.1670
 2728SOL     OW19819   0.905   4.678  14.426 -0.5330  0.2730  0.1024
 2728SOL    HW119820   0.837   4.637  14.478  0.2558 -0.7787  0.2998
 2728SOL    HW219821   0.850   4.728  14.366  0.8826 -0.4877 -1.8424
 2729SOL     OW19822   2.046   0.245   2.817  0.4446  0.3704  0.4246
 2729SOL    HW119823   2.039   0.337   2.791  1.0495  0.5991  1.0627
 2729SOL    HW219824   1.952   0.239   2.833  0.8979 -3.5982  1.5528
 2730SOL     OW19825   2.226   2.186   2.948  0.1540  0.1474  0.4894
 2730SOL    HW119826   2.225   2.102   2.994  0.7083  0.3646  0.9002
 2730SOL    HW219827   2.316   2.212   2.964  0.6065 -0.7091 -0.6524
 2731SOL     OW19828   1.662   0.541  17.726  0.1821 -0.5453 -0.5754
 2731SOL    HW119829   1.752   0.566  17.707  1.0192 -2.6921  0.4976
 2731SOL    HW219830   1.672   0.447  17.712  1.0072 -0.9177  2.5639
 2732SOL     OW19831   0.588   2.025   7.292 -0.4037  0.4234 -0.4721
 2732SOL    HW119832   0.526   2.063   7.230 -1.6897  1.3089  1.3665
 2732SOL    HW219833   0.559   2.057   7.377 -1.6637 -1.2145 -0.2789
 2733SOL     OW19834   4.453   0.949   1.855 -0.0799  0.1906  0.1721
 2733SOL    HW119835   4.544   0.968   1.878 -0.6485  0.4628  2.1341
 2733SOL    HW219836   4.466   0.895   1.776  0.8000 -0.4177  0.7294
 2734SOL     OW19837   2.075   3.643   4.184  0.3234 -0.2537 -0.2847
 2734SOL    HW119838   2.000   3.673   4.234  0.4616  0.1286 -0.3110
 2734SOL    HW219839   2.080   3.554   4.219  1.4220 -1.2098 -2.8722
 2735SOL     OW19840   2.221   3.906   2.276 -0.7211  0.4510 -0.5295
 2735SOL    HW119841   2.234   3.914   2.371 -1.2999 -0.0225 -0.4093
 2735SOL    HW219842   2.312   3.896   2.249 -0.1965  2.3334  0.5238
 2736SOL     OW19843   3.967   1.540   4.785 -0.0192 -0.1185  0.2000
 2736SOL    HW119844   3.958   1.631   4.812 -0.4401  0.4424 -1.8600
 2736SOL    HW219845   3.895   1.500   4.834  0.6403 -1.5078  0.0362
 2737SOL     OW19846   1.475   0.411   5.436  0.7676  0.0506  0.2422
 2737SOL    HW119847   1.420   0.406   5.515  1.6038  1.0987  0.8835
 2737SOL    HW219848   1.525   0.489   5.459  1.0846 -0.1656  0.2853
 2738SOL     OW19849   3.556   1.252  16.382 -0.0814  0.2499 -0.4044
 2738SOL    HW119850   3.648   1.275  16.369  0.6079 -2.9459 -1.1902
 2738SOL    HW219851   3.557   1.161  16.410  0.1595  0.9876  1.9982
 2739SOL     OW19852   3.049   1.741   6.432  0.5527  0.1882  0.0250
 2739SOL    HW119853   3.000   1.671   6.475  0.3909  0.1915 -0.1554
 2739SOL    HW219854   3.083   1.791   6.506 -1.5456 -0.3404  1.3564
 2740SOL     OW19855   1.948   2.269   0.104  0.1849  0.2491  0.0987
 2740SOL    HW119856   1.953   2.280   0.009 -1.5723 -0.1284 -0.0250
 2740SOL    HW219857   2.036   2.292   0.134  0.5456 -0.8983 -0.0509
 2741SOL     OW19858   0.249   0.244   6.687 -0.1625  0.1059 -0.0439
 2741SOL    HW119859   0.317   0.208   6.631 -0.4763  0.6211 -0.7625
 2741SOL    HW219860   0.253   0.333   6.652  0.1422 -0.6013 -1.8330
 2742SOL     OW19861   4.000   1.310  12.860  0.3283  0.0335 -0.4145
 2742SOL    HW119862   4.072   1.362  12.896 -0.4669  0.2068  0.9262
 2742SOL    HW219863   4.003   1.235  12.919  0.6433 -0.9951 -1.7348
 2743SOL     OW19864   3.629   4.530   0.515  0.5152  0.1442  0.7431
 2743SOL    HW119865   3.567   4.457   0.513  1.6266 -0.8071  0.9181
 2743SOL    HW219866   3.622   4.563   0.604 -0.4187 -1.3746  1.2380
 2744SOL     OW19867   2.125   1.250   3.525  0.2586  0.1672 -0.0678
 2744SOL    HW119868   2.148   1.281   3.612  0.8339 -1.0907  0.2240
 2744SOL    HW219869   2.215   1.254   3.492  0.2597 -0.1932 -0.1109
 2745SOL     OW19870   4.015   0.209   5.295 -0.0687  0.6783 -0.2558
 2745SOL    HW119871   3.968   0.254   5.365 -0.1513  0.1818  0.0106
 2745SOL    HW219872   3.961   0.131   5.280 -1.7038  1.3477  2.1587
 2746SOL     OW19873   3.920   0.951   7.662  0.5111  0.0008 -0.1536
 2746SOL    HW119874   4.008   0.945   7.700  0.4898 -1.1310 -0.2892
 2746SOL    HW219875   3.910   1.044   7.682 -2.3591 -1.1248  3.6289
 2747SOL     OW19876   4.177   1.248   9.291 -0.1484 -0.8769  0.2620
 2747SOL    HW119877   4.197   1.201   9.372  2.7820  2.2054  1.3522
 2747SOL    HW219878   4.242   1.210   9.231  1.4476  0.2014  1.2906
 2748SOL     OW19879   4.477   2.563   3.918 -0.2495 -0.1766  0.1287
 2748SOL    HW119880   4.566   2.529   3.909 -0.0482 -0.3987  2.8715
 2748SOL    HW219881   4.436   2.521   3.843  0.3734  1.9731 -1.4170
 2749SOL     OW19882   4.223   4.318   3.373 -0.8732 -0.4405 -0.2621
 2749SOL    HW119883   4.133   4.339   3.348 -0.6403  0.0517 -0.6908
 2749SOL    HW219884   4.231   4.354   3.461  0.8979  1.4915 -1.2289
 2750SOL     OW19885   0.608   2.656   5.694 -0.0918 -0.0476  0.2142
 2750SOL    HW119886   0.543   2.671   5.625  1.5846 -0.6125 -1.4730
 2750SOL    HW219887   0.679   2.629   5.636 -1.2995  0.2256 -1.4237
 2751SOL     OW19888   0.153   3.241   2.514  0.1636 -0.2548 -0.1187
 2751SOL    HW119889   0.212   3.282   2.577 -0.3019  1.2300 -0.6396
 2751SOL    HW219890   0.140   3.308   2.447 -1.0210 -0.7370 -0.3817
 2752SOL     OW19891   2.672   3.039   3.433 -0.6027 -0.9215  0.5015
 2752SOL    HW119892   2.720   3.073   3.357  0.1649 -1.4491  0.7467
 2752SOL    HW219893   2.597   3.097   3.437  0.4382  0.4925 -0.4101
 2753SOL     OW19894   1.775   4.655  10.599 -0.0078  0.8437 -0.1143
 2753SOL    HW119895   1.687   4.683  10.624  0.0429  0.9314 -0.0354
 2753SOL    HW219896   1.828   4.657  10.679 -1.0390  0.6855  0.5866
 2754SOL     OW19897   0.714   1.784  10.531  0.3595  0.3489  0.3877
 2754SOL    HW119898   0.677   1.724  10.467 -1.0900  0.0891  1.4680
 2754SOL    HW219899   0.679   1.866  10.497  0.6559  0.4010  0.2105
 2755SOL     OW19900   3.125   1.113  17.611  0.1631  0.8768  0.6343
 2755SOL    HW119901   3.120   1.066  17.528  2.1726  1.4280  0.2076
 2755SOL    HW219902   3.221   1.112  17.618  0.2794  0.5735 -0.9125
 2756SOL     OW19903   4.426   0.551   5.786  0.2524 -0.3854 -0.1688
 2756SOL    HW119904   4.443   0.643   5.769 -2.4549  0.1967  0.2122
 2756SOL    HW219905   4.475   0.506   5.719 -2.1628 -2.2852 -0.6762
 2757SOL     OW19906   0.418   0.121  12.709  0.6327 -0.7211 -0.6765
 2757SOL    HW119907   0.329   0.085  12.699  0.4810  0.1844 -2.4817
 2757SOL    HW219908   0.465   0.038  12.707 -2.4771 -2.4975  0.2345
 2758SOL     OW19909   0.885   3.268   6.009  0.0138 -0.5509  0.4909
 2758SOL    HW119910   0.913   3.238   5.922 -0.0065  1.3256 -0.1684
 2758SOL    HW219911   0.966   3.309   6.037  0.5576 -0.6889 -0.8836
 2759SOL     OW19912   4.731   2.815  10.646 -0.3561  0.0227 -0.3190
 2759SOL    HW119913   0.059   2.771  10.702  0.5468  0.3754 -1.0680
 2759SOL    HW219914   4.714   2.758  10.570  1.4867  0.6672 -1.2095
 2760SOL     OW19915   2.643   3.002   8.155 -0.0387 -0.1724 -0.2530
 2760SOL    HW119916   2.643   2.936   8.086 -1.8946 -0.9179  0.4343
 2760SOL    HW219917   2.553   3.034   8.146  0.0653  0.3796  0.6510
 2761SOL     OW19918   1.615   4.264   6.428 -0.2341 -0.0822 -0.7165
 2761SOL    HW119919   1.627   4.200   6.498  0.2178  3.2642  2.2814
 2761SOL    HW219920   1.693   4.257   6.373 -0.2036 -0.7749 -0.5766
 2762SOL     OW19921   0.706   4.124   6.715  0.6814  0.0745  0.2425
 2762SOL    HW119922   0.635   4.144   6.775 -0.4095  0.5232 -1.1920
 2762SOL    HW219923   0.773   4.087   6.772  1.1377  3.0105  1.5966
 2763SOL     OW19924   1.938   4.301   3.305 -0.4526 -0.0926  0.6228
 2763SOL    HW119925   1.897   4.245   3.239  2.2294 -1.8615  0.4547
 2763SOL    HW219926   2.001   4.238   3.341  2.1010  1.0227 -1.9087
 2764SOL     OW19927   2.826   1.736   6.953  0.5049  0.2224  0.4483
 2764SOL    HW119928   2.745   1.778   6.982 -0.0480 -0.4451 -0.1231
 2764SOL    HW219929   2.830   1.775   6.866  0.6044 -1.8397 -0.4809
 2765SOL     OW19930   3.470   3.309   4.188 -0.2755  0.4248  0.6593
 2765SOL    HW119931   3.423   3.243   4.238 -2.1217  1.3553  0.1538
 2765SOL    HW219932   3.397   3.335   4.132  0.3688  0.9674  0.0702
 2766SOL     OW19933   0.212   0.809   0.907  0.3945 -0.1613  0.4596
 2766SOL    HW119934   0.269   0.885   0.898 -2.0209  1.5812  0.1715
 2766SOL    HW219935   0.220   0.771   0.819  0.4176  1.5591 -0.2658
 2767SOL     OW19936   3.001   0.144   2.393 -0.1148  0.2788 -0.3383
 2767SOL    HW119937   3.068   0.137   2.325  0.6549  1.0734  0.3339
 2767SOL    HW219938   3.062   0.165   2.464  2.3347 -0.6842 -2.1352
 2768SOL     OW19939   0.750   3.101   9.105  0.3977  0.1681  0.1569
 2768SOL    HW119940   0.779   3.190   9.086 -0.3082 -0.3204 -3.1866
 2768SOL    HW219941   0.824   3.054   9.066 -0.3535 -1.1273  0.2673
 2769SOL     OW19942   4.600   2.795   6.327  0.0131  0.3661 -0.4031
 2769SOL    HW119943   4.682   2.844   6.328  0.3010 -0.1556  2.5155
 2769SOL    HW219944   4.545   2.863   6.367  0.2922  0.3547  0.0029
 2770SOL     OW19945   3.011   0.996   3.009  0.3199 -0.3994  0.1751
 2770SOL    HW119946   2.952   0.925   3.035 -1.4840  0.6842 -0.9049
 2770SOL    HW219947   3.051   0.953   2.933  3.0779  0.3570  1.1987
 2771SOL     OW19948   2.848   1.435   6.794  0.0255  0.2073 -0.5242
 2771SOL    HW119949   2.914   1.377   6.833  1.6611  1.9965 -0.6077
 2771SOL    HW219950   2.822   1.494   6.865 -0.2229 -0.8431  0.2608
 2772SOL     OW19951   3.615   3.515   1.789  0.0172  0.2435 -0.3255
 2772SOL    HW119952   3.584   3.605   1.792  0.5524  0.4494 -0.9033
 2772SOL    HW219953   3.708   3.537   1.789  0.7565 -2.7637  0.8078
 2773SOL     OW19954   0.896   0.886   8.129  0.2660  0.3470  0.2783
 2773SOL    HW119955   0.866   0.840   8.207 -3.0761 -1.9045 -2.3661
 2773SOL    HW219956   0.813   0.915   8.091  0.5723  2.0525  0.8788
 2774SOL     OW19957   1.813   3.468  13.201  0.0063  0.0537  0.1889
 2774SOL    HW119958   1.807   3.476  13.296 -0.3652 -2.1289  0.3333
 2774SOL    HW219959   1.836   3.375  13.200  3.1379  0.8362 -1.7751
 2775SOL     OW19960   4.180   2.029  13.150  0.4310  0.5031  0.2313
 2775SOL    HW119961   4.124   2.090  13.102  0.6091 -0.4474 -1.1909
 2775SOL    HW219962   4.152   2.046  13.239 -1.8337 -1.6516 -0.0882
 2776SOL     OW19963   0.437   1.094   6.260  0.9674  0.1980  0.1004
 2776SOL    HW119964   0.383   1.171   6.277  0.9890 -0.1245  1.6285
 2776SOL    HW219965   0.386   1.032   6.208  0.0259  0.5738  0.5762
 2777SOL     OW19966   4.712   4.383   8.173 -0.2012 -0.0098 -0.5290
 2777SOL    HW119967   0.044   4.333   8.219  0.0704  0.1854 -0.7162
 2777SOL    HW219968   4.648   4.315   8.154 -1.2114  1.2001 -1.4437
 2778SOL     OW19969   1.386   2.973  13.542 -0.0296  0.3481 -0.1260
 2778SOL    HW119970   1.324   2.951  13.473  0.8425  1.8016 -1.3752
 2778SOL    HW219971   1.319   2.963  13.611 -0.8454 -1.4787 -1.1896
 2779SOL     OW19972   2.040   2.286  12.120 -0.9946  0.1291 -0.6580
 2779SOL    HW119973   2.045   2.380  12.102  2.5417 -0.0700 -0.6014
 2779SOL    HW219974   2.015   2.292  12.212 -1.5081 -0.9635 -0.7275
 2780SOL     OW19975   1.870   2.721   2.694 -0.6620  0.2416 -0.1749
 2780SOL    HW119976   1.904   2.639   2.658 -3.0019 -0.2015 -1.3417
 2780SOL    HW219977   1.934   2.784   2.658  0.4479 -0.7425  0.0826
 2781SOL     OW19978   3.052   2.743  16.975 -0.2519 -0.3512  0.1260
 2781SOL    HW119979   3.096   2.724  17.058 -1.2463  0.3458  0.7995
 2781SOL    HW219980   3.059   2.836  16.956 -2.6651  0.0214  1.1030
 2782SOL     OW19981   4.360   1.756   5.021 -0.2344  0.7013  0.1757
 2782SOL    HW119982   4.366   1.693   4.948  1.6485  0.5205  0.4818
 2782SOL    HW219983   4.416   1.708   5.082  0.9482  1.7235 -0.1200
 2783SOL     OW19984   1.400   0.863   9.191  0.2796  0.4291  0.0797
 2783SOL    HW119985   1.330   0.797   9.193 -1.8088  2.6091 -1.5699
 2783SOL    HW219986   1.365   0.919   9.260 -2.6835 -0.9544 -0.2839
 2784SOL     OW19987   0.668   4.588  13.861  0.8038  0.5041 -0.6845
 2784SOL    HW119988   0.758   4.590  13.895  0.3949 -0.2218  0.4503
 2784SOL    HW219989   0.614   4.560  13.936  0.8725  1.8473 -0.1342
 2785SOL     OW19990   3.967   2.605   5.950 -0.2729  0.2130  0.4630
 2785SOL    HW119991   4.011   2.525   5.922 -1.4981  0.3670 -1.8641
 2785SOL    HW219992   4.002   2.623   6.037 -0.3145 -0.5630  0.6366
 2786SOL     OW19993   2.200   0.231   7.078  0.0358  0.2528 -0.4016
 2786SOL    HW119994   2.234   0.317   7.104  3.0300 -0.4929 -1.7615
 2786SOL    HW219995   2.230   0.185   7.157  1.0372  0.1092 -0.8585
 2787SOL     OW19996   0.871   1.001   4.091  0.5495 -0.4726  0.2156
 2787SOL    HW119997   0.787   0.975   4.128  1.1883 -2.2951  0.3480
 2787SOL    HW219998   0.934   0.954   4.146  1.4880  0.8382  0.2666
 2788SOL     OW19999   1.219   3.641   5.931 -0.6499 -0.2786  0.0085
 2788SOL    HW120000   1.292   3.642   5.993 -0.5852  1.6266 -0.1007
 2788SOL    HW220001   1.219   3.735   5.913  0.1740 -0.8992 -3.2562
 2789SOL     OW20002   4.612   2.073   2.013 -0.6022 -0.6491 -0.1469
 2789SOL    HW120003   4.552   2.103   1.945  0.6850 -0.8748 -1.3859
 2789SOL    HW220004   4.593   2.140   2.080  2.2888  1.1909 -1.1739
 2790SOL     OW20005   1.646   0.440   2.665 -0.1437 -0.0266 -0.4040
 2790SOL    HW120006   1.606   0.353   2.675 -0.9637  0.3840 -0.0897
 2790SOL    HW220007   1.711   0.432   2.595  0.2449  0.1574 -0.0656
 2791SOL     OW20008   1.743   0.595  15.771  0.0497 -0.1822  0.1516
 2791SOL    HW120009   1.654   0.563  15.754  0.2840 -0.0201 -1.3624
 2791SOL    HW220010   1.749   0.582  15.866 -1.0318 -0.1289  0.2301
 2792SOL     OW20011   3.596   3.136   5.893 -0.1409 -0.2462 -0.3556
 2792SOL    HW120012   3.528   3.087   5.939 -2.2534  3.2144  0.2381
 2792SOL    HW220013   3.668   3.132   5.956 -0.9161  0.7677  0.5875
 2793SOL     OW20014   1.515   1.842  13.287  0.1584 -0.2508 -0.0939
 2793SOL    HW120015   1.464   1.761  13.297  1.3853 -0.9100  0.9036
 2793SOL    HW220016   1.475   1.870  13.204  0.2407 -2.7180 -0.9891
 2794SOL     OW20017   3.121   1.722  14.009  0.1642 -1.0661 -0.5276
 2794SOL    HW120018   3.193   1.719  14.072 -0.2430  0.6760  0.0215
 2794SOL    HW220019   3.077   1.645  14.044 -2.3028 -0.1239 -1.6364
 2795SOL     OW20020   3.049   0.146  13.052 -0.0948 -0.3247  0.2923
 2795SOL    HW120021   2.980   0.079  13.058 -1.5047  1.1870  0.8066
 2795SOL    HW220022   3.025   0.207  13.122  0.3520  0.9733 -0.6950
 2796SOL     OW20023   1.516   2.605  17.418  0.0748 -0.4973  0.5074
 2796SOL    HW120024   1.611   2.596  17.426  0.3241  1.3596 -0.3488
 2796SOL    HW220025   1.507   2.624  17.325 -2.7213 -1.4496  0.5877
 2797SOL     OW20026   2.512   0.326   7.764  0.0970  0.0202  0.0035
 2797SOL    HW120027   2.454   0.261   7.723  0.6615 -0.1120 -0.5837
 2797SOL    HW220028   2.550   0.273   7.834  1.2044 -0.2885 -0.8206
 2798SOL     OW20029   3.885   1.527   7.058 -0.0348 -0.1955  0.5432
 2798SOL    HW120030   3.960   1.496   7.007  0.3943 -0.4838  1.3389
 2798SOL    HW220031   3.822   1.457   7.042  1.3268 -0.6541 -2.7740
 2799SOL     OW20032   3.689   2.349   6.175  0.2707 -0.7135  0.0467
 2799SOL    HW120033   3.706   2.430   6.222  0.3079  0.5623 -2.1758
 2799SOL    HW220034   3.661   2.390   6.093  0.2706  1.2222  1.0336
 2800SOL     OW20035   3.298   3.932   3.188  0.3135  0.0900  0.5135
 2800SOL    HW120036   3.363   3.903   3.125  0.5478 -0.3551  0.9542
 2800SOL    HW220037   3.305   4.027   3.195 -0.4434  0.0236  2.3250
 2801SOL     OW20038   4.574   0.429   0.285  0.1104  0.3105  0.7095
 2801SOL    HW120039   4.548   0.393   0.200 -1.7801 -0.2546  1.5246
 2801SOL    HW220040   4.665   0.402   0.283  0.4782  1.7680 -1.4326
 2802SOL     OW20041   2.253   0.764  16.962 -0.1168  0.5327  0.0836
 2802SOL    HW120042   2.320   0.833  16.962  0.6280 -0.1895  0.5303
 2802SOL    HW220043   2.186   0.809  16.911 -1.0911  0.8971  1.6934
 2803SOL     OW20044   1.557   3.471   9.318  0.1720  0.2664  0.0320
 2803SOL    HW120045   1.485   3.440   9.373 -0.3099 -0.5951 -1.0810
 2803SOL    HW220046   1.513   3.548   9.284 -1.3523 -0.0759  1.2145
 2804SOL     OW20047   0.716   0.249   4.396  0.0437 -0.0366  0.2692
 2804SOL    HW120048   0.641   0.298   4.430  0.3855  1.8340 -1.7196
 2804SOL    HW220049   0.670   0.168   4.371 -1.0248  0.3397  1.0374
 2805SOL     OW20050   4.353   0.464   6.024  0.2937  0.1673 -0.4162
 2805SOL    HW120051   4.390   0.485   5.938  0.7213  0.4674 -0.1605
 2805SOL    HW220052   4.384   0.537   6.077  1.4607 -0.8208  0.2770
 2806SOL     OW20053   2.457   1.281   6.499 -0.5074 -0.3918 -0.0517
 2806SOL    HW120054   2.375   1.326   6.519  0.4092  1.9517 -1.5130
 2806SOL    HW220055   2.500   1.263   6.583  1.8497 -1.8106 -1.5724
 2807SOL     OW20056   2.184   4.276   1.685 -0.0288  0.2750  0.2961
 2807SOL    HW120057   2.238   4.355   1.670  1.0312 -0.6828 -0.9032
 2807SOL    HW220058   2.127   4.309   1.755 -0.3277 -0.8386  0.5711
 2808SOL     OW20059   0.958   2.003  16.577  0.2410 -0.0882 -0.8547
 2808SOL    HW120060   0.988   2.093  16.565 -0.1696 -0.1221 -2.2169
 2808SOL    HW220061   0.921   1.986  16.490 -0.5182  0.5185 -0.6567
 2809SOL     OW20062   3.908   4.054   9.015 -0.1108 -0.1737 -0.4802
 2809SOL    HW120063   3.890   4.133   9.066  3.8538 -0.4408  1.3324
 2809SOL    HW220064   3.822   4.030   8.982  0.9764  0.4661 -3.8607
 2810SOL     OW20065   1.066   1.633  12.086 -0.2016  0.6951  0.3992
 2810SOL    HW120066   1.000   1.625  12.156 -0.9428 -0.8434 -0.4572
 2810SOL    HW220067   1.130   1.571  12.122  0.3207 -0.1600 -2.0015
 2811SOL     OW20068   1.011   3.732   0.043  0.0456  0.6589  0.2805
 2811SOL    HW120069   1.085   3.677   0.018 -0.6569 -0.7070  1.2085
 2811SOL    HW220070   0.999   3.691   0.129  2.6216  0.2940  0.4599
 2812SOL     OW20071   4.637   2.063   3.417 -0.5036 -0.4904  0.2946
 2812SOL    HW120072   4.558   2.035   3.464  0.2098 -1.3665  0.9709
 2812SOL    HW220073   4.702   2.024   3.476  0.7732  1.0957 -0.0810
 2813SOL     OW20074   4.551   0.117   3.933  0.0885  0.4037 -0.6204
 2813SOL    HW120075   4.518   0.202   3.905  3.7153  1.2971 -2.2278
 2813SOL    HW220076   4.640   0.113   3.896  0.1275 -1.9953 -0.2761
 2814SOL     OW20077   0.477   3.024  16.448  0.0366 -0.0381 -0.0644
 2814SOL    HW120078   0.534   3.003  16.522 -1.7066  0.3814  1.4221
 2814SOL    HW220079   0.519   2.972  16.380 -0.2936 -0.4223  0.0264
 2815SOL     OW20080   0.152   0.210   9.985 -0.3240  0.1078  0.1169
 2815SOL    HW120081   0.149   0.223  10.079 -1.5046 -0.4477  0.1631
 2815SOL    HW220082   0.059   0.191   9.968 -0.3329 -1.3202  1.7919
 2816SOL     OW20083   4.082   3.382   9.887 -0.1406  0.8276 -0.3508
 2816SOL    HW120084   4.175   3.363   9.895 -0.1910  1.5915  2.0747
 2816SOL    HW220085   4.085   3.477   9.878 -3.0835  1.1680  2.0763
 2817SOL     OW20086   2.071   3.368  15.538 -0.1184 -0.0081 -0.3282
 2817SOL    HW120087   2.010   3.425  15.585 -0.0134 -0.5159  0.4288
 2817SOL    HW220088   2.152   3.377  15.589 -0.8559 -0.2966  0.9065
 2818SOL     OW20089   2.088   3.538   4.726 -0.1827 -0.0186 -0.4927
 2818SOL    HW120090   2.027   3.475   4.689  2.1628 -1.2059 -2.3343
 2818SOL    HW220091   2.067   3.603   4.659 -2.0930  2.6299  2.6810
 2819SOL     OW20092   3.859   1.438   4.130  0.4264 -0.0634  0.2594
 2819SOL    HW120093   3.828   1.454   4.219  1.5772  3.6463  0.0038
 2819SOL    HW220094   3.784   1.473   4.082  1.2616  0.9118 -0.3233
 2820SOL     OW20095   0.997   0.743  17.231  0.3860 -0.3046  0.1151
 2820SOL    HW120096   0.971   0.679  17.298  0.6881  0.1649  0.6816
 2820SOL    HW220097   1.016   0.816  17.290 -0.3223 -1.0303  1.2564
 2821SOL     OW20098   0.033   3.492   8.949 -0.5586  0.0726  0.2025
 2821SOL    HW120099   0.106   3.486   8.887  0.1039  1.2563  0.8655
 2821SOL    HW220100   4.713   3.564   8.920  0.8645  0.7649 -0.8517
 2822SOL     OW20101   1.531   1.263   1.623  0.7742 -0.2133  0.3017
 2822SOL    HW120102   1.572   1.326   1.562 -1.6636  2.5238  1.5014
 2822SOL    HW220103   1.609   1.229   1.668  0.4704  0.4439  1.3341
 2823SOL     OW20104   2.625   1.744   7.765 -0.0447  0.1741 -0.2189
 2823SOL    HW120105   2.653   1.735   7.856  2.2357  0.5215 -0.9003
 2823SOL    HW220106   2.581   1.828   7.779  0.3593  0.3969 -0.3049
 2824SOL     OW20107   4.324   4.682   2.227  0.1623 -0.1719 -0.3455
 2824SOL    HW120108   4.334   4.718   2.315  0.6210  1.1575 -0.9299
 2824SOL    HW220109   4.361   0.019   2.177 -0.5906  0.4068 -0.0662
 2825SOL     OW20110   3.250   3.589   6.532 -0.1169  0.4984 -0.6968
 2825SOL    HW120111   3.186   3.646   6.574 -0.0564 -0.4126  0.6134
 2825SOL    HW220112   3.325   3.605   6.589 -0.5254  0.2754 -0.0978
 2826SOL     OW20113   2.367   1.711   7.273  0.2656  0.5117  0.9393
 2826SOL    HW120114   2.414   1.679   7.349 -1.0340 -0.6422  1.2397
 2826SOL    HW220115   2.295   1.650   7.258  0.2375  1.3113 -2.2316
 2827SOL     OW20116   0.081   1.174   8.075 -0.0227 -0.4325  0.5725
 2827SOL    HW120117   0.043   1.250   8.119  2.8558 -0.3237  2.8626
 2827SOL    HW220118   0.144   1.210   8.012  0.0636  1.2824  1.6150
 2828SOL     OW20119   0.938   1.442   7.765  0.0993  0.0392 -0.6309
 2828SOL    HW120120   0.913   1.369   7.708 -0.5234 -0.1503 -0.1171
 2828SOL    HW220121   0.997   1.490   7.707 -0.6024  0.9307 -0.6044
 2829SOL     OW20122   0.843   1.359   0.396 -0.1467  0.3625  0.0396
 2829SOL    HW120123   0.898   1.290   0.433 -0.4583  1.2843  2.2355
 2829SOL    HW220124   0.822   1.406   0.477 -2.3672 -0.5006 -0.0514
 2830SOL     OW20125   0.374   0.884   6.105 -0.0489 -0.4807 -0.4585
 2830SOL    HW120126   0.423   0.802   6.095  0.4098 -0.1938 -0.5900
 2830SOL    HW220127   0.345   0.888   6.014 -1.4178  0.4599  0.0223
 2831SOL     OW20128   2.028   4.020   6.751  0.0416 -0.1114  0.1228
 2831SOL    HW120129   2.044   3.958   6.680  1.3035  1.2718 -0.7951
 2831SOL    HW220130   2.093   4.086   6.726 -3.0308  1.9445 -2.3600
 2832SOL     OW20131   1.156   1.881   2.507  0.8965  0.0068 -0.0462
 2832SOL    HW120132   1.079   1.923   2.547  0.0835 -3.3967  1.9979
 2832SOL    HW220133   1.156   1.797   2.554 -0.0762  0.4980  0.8262
 2833SOL     OW20134   0.813   1.105   5.543 -0.8800  0.6522  0.2452
 2833SOL    HW120135   0.808   1.178   5.605 -1.4410  1.0321 -0.2497
 2833SOL    HW220136   0.877   1.046   5.582 -0.8711 -0.0818 -0.8531
 2834SOL     OW20137   0.083   1.550  11.610  0.0618  0.1568 -0.4073
 2834SOL    HW120138   0.172   1.572  11.583 -0.1884  1.2668 -0.3265
 2834SOL    HW220139   0.028   1.600  11.549 -3.0418 -2.9954 -0.2062
 2835SOL     OW20140   1.392   3.043  15.099 -0.1079 -0.2760  0.8206
 2835SOL    HW120141   1.350   3.126  15.077  1.7453  0.6512  0.7036
 2835SOL    HW220142   1.340   3.019  15.175  0.3927 -0.0227  1.2479
 2836SOL     OW20143   3.675   3.310   5.434  0.0833  0.9163 -0.4548
 2836SOL    HW120144   3.679   3.404   5.453 -0.1784  0.2673  2.7636
 2836SOL    HW220145   3.620   3.305   5.356  0.4082  0.9147 -0.6786
 2837SOL     OW20146   2.794   1.418   4.690 -0.5355  0.0684 -0.3137
 2837SOL    HW120147   2.837   1.332   4.694  2.3261  1.6039  1.8707
 2837SOL    HW220148   2.827   1.464   4.767 -2.0349  1.2635 -0.3839
 2838SOL     OW20149   0.429   4.214   4.019  0.3170 -0.1017  0.1746
 2838SOL    HW120150   0.479   4.133   4.011  1.1573  0.5975 -1.5558
 2838SOL    HW220151   0.490   4.286   4.032  0.0915  0.6394 -2.9319
 2839SOL     OW20152   4.161   0.163   0.981  0.5791  0.7578 -0.0731
 2839SOL    HW120153   4.138   0.070   0.971 -1.4496  1.2602 -0.0523
 2839SOL    HW220154   4.144   0.187   1.072 -1.3547  0.5758 -0.3783
 2840SOL     OW20155   2.426   1.041   7.109 -0.4497  0.2345 -0.1276
 2840SOL    HW120156   2.422   1.121   7.057 -0.4726 -0.6392 -1.4568
 2840SOL    HW220157   2.332   1.023   7.116 -0.4930 -0.4711 -2.7449
 2841SOL     OW20158   1.105   3.810   0.349 -0.7381 -0.4208 -0.0936
 2841SOL    HW120159   1.041   3.826   0.418 -0.1198  1.1157  0.1426
 2841SOL    HW220160   1.120   3.718   0.371  1.9682  0.0175 -0.0352
 2842SOL     OW20161   0.576   0.609   1.500  0.4206 -0.8340 -0.1333
 2842SOL    HW120162   0.613   0.666   1.433 -0.2343 -0.7496 -0.4268
 2842SOL    HW220163   0.654   0.560   1.524  0.2295 -2.0873 -2.0905
 2843SOL     OW20164   2.715   2.238   2.746  0.8486  0.0204 -0.4291
 2843SOL    HW120165   2.669   2.321   2.756 -0.1952 -0.7746  1.2753
 2843SOL    HW220166   2.795   2.255   2.796  0.8000  0.6511 -0.5648
 2844SOL     OW20167   2.336   2.582   3.037 -0.1476  0.0731 -0.4152
 2844SOL    HW120168   2.259   2.525   3.029  0.3833 -0.7692  0.4708
 2844SOL    HW220169   2.296   2.647   3.093  1.6363  0.4435  0.4082
 2845SOL     OW20170   3.125   1.333   1.867  0.1463 -0.0697 -0.2015
 2845SOL    HW120171   3.068   1.383   1.809  1.3646  1.0482 -0.4266
 2845SOL    HW220172   3.146   1.254   1.817 -2.5393 -0.6827 -0.3328
 2846SOL     OW20173   0.198   2.147  17.533 -0.8394 -1.0058 -0.5126
 2846SOL    HW120174   0.239   2.162  17.617  0.3987 -0.3835 -1.2343
 2846SOL    HW220175   0.163   2.233  17.512 -0.0929 -0.0730  2.0929
 2847SOL     OW20176   1.229   3.340   3.855  0.6783  0.3446  0.3283
 2847SOL    HW120177   1.170   3.352   3.780 -1.1242  1.3285  1.8902
 2847SOL    HW220178   1.296   3.296   3.804  0.3853 -1.0270  1.1185
 2848SOL     OW20179   0.974   4.402   1.769  0.4756  0.3954 -0.2147
 2848SOL    HW120180   1.006   4.322   1.727 -1.1370  1.6972 -3.9216
 2848SOL    HW220181   0.986   4.458   1.693  0.8730  0.6405  0.0290
 2849SOL     OW20182   0.569   3.463  15.394 -0.2422  0.0742  0.0341
 2849SOL    HW120183   0.621   3.443  15.472 -0.5751 -0.1444  0.2005
 2849SOL    HW220184   0.580   3.379  15.349 -0.2921 -1.0676  2.1650
 2850SOL     OW20185   1.053   3.797   2.681  0.5644  0.2464 -0.0149
 2850SOL    HW120186   1.138   3.839   2.671 -0.2371  1.3025 -2.2210
 2850SOL    HW220187   0.990   3.868   2.690  0.9399  0.5697  0.0408
 2851SOL     OW20188   2.895   4.442   8.114  0.3246  0.2125 -0.3080
 2851SOL    HW120189   2.892   4.479   8.202  1.5046  3.0589 -1.4671
 2851SOL    HW220190   2.946   4.364   8.135 -0.2770 -0.8086 -2.6303
 2852SOL     OW20191   0.571   0.280   5.782  0.2122  0.6175 -0.0333
 2852SOL    HW120192   0.659   0.279   5.819 -0.6670 -0.7317  2.0035
 2852SOL    HW220193   0.565   0.191   5.747 -2.2731  0.1087  1.7076
 2853SOL     OW20194   2.833   2.952   1.989 -0.7018  0.0812 -0.0875
 2853SOL    HW120195   2.913   2.986   1.950 -0.8186  0.0191 -0.3810
 2853SOL    HW220196   2.787   3.028   2.025 -1.8817  0.9695 -3.4621
 2854SOL     OW20197   2.955   2.068   7.027  0.4827  0.1487 -0.3245
 2854SOL    HW120198   2.864   2.098   7.023  0.9623  1.7054  0.4786
 2854SOL    HW220199   2.991   2.081   6.940  0.1415 -0.5744 -0.5699
 2855SOL     OW20200   4.059   1.292   8.777  0.1400  0.2252 -0.1812
 2855SOL    HW120201   4.006   1.361   8.818  0.8388  1.0211 -0.5995
 2855SOL    HW220202   4.022   1.272   8.691  2.5523 -0.8911 -0.9773
 2856SOL     OW20203   2.254   2.644   2.186  0.1393 -0.4883 -0.6517
 2856SOL    HW120204   2.265   2.662   2.279  1.3692 -0.0691 -0.8864
 2856SOL    HW220205   2.159   2.660   2.179  0.3021  1.4278  1.8017
 2857SOL     OW20206   0.425   1.516  16.465 -0.2068  0.1827 -0.0829
 2857SOL    HW120207   0.429   1.456  16.539  0.9851 -1.6167 -1.5734
 2857SOL    HW220208   0.487   1.583  16.493 -0.7260  0.9803 -0.8543
 2858SOL     OW20209   1.912   2.093  14.788 -0.3036  0.7521 -0.1976
 2858SOL    HW120210   2.001   2.103  14.824  0.2360  1.8680 -1.8554
 2858SOL    HW220211   1.887   2.182  14.765  0.7360  0.2952 -3.0423
 2859SOL     OW20212   0.695   1.466  17.418 -0.2912 -0.1825 -0.3003
 2859SOL    HW120213   0.647   1.384  17.417 -0.7097  0.0505  0.7803
 2859SOL    HW220214   0.636   1.528  17.461  1.3384  2.1075 -1.3231
 2860SOL     OW20215   0.177   1.141   4.136 -0.1384 -0.3243  0.2569
 2860SOL    HW120216   0.101   1.101   4.094 -0.1648 -1.0505  1.0093
 2860SOL    HW220217   0.139   1.226   4.158  1.3989  0.5781 -0.5887
 2861SOL     OW20218   3.959   4.094  13.932 -0.4339  0.1597 -0.1616
 2861SOL    HW120219   3.932   4.183  13.909 -0.0996  0.8736  2.1636
 2861SOL    HW220220   3.976   4.054  13.847 -0.8725 -0.0205 -0.1683
 2862SOL     OW20221   2.888   4.109   9.312 -0.5472  0.1606  0.1334
 2862SOL    HW120222   2.977   4.140   9.330 -0.9337  0.4486  1.5856
 2862SOL    HW220223   2.880   4.024   9.355  1.7312  1.8523  3.9812
 2863SOL     OW20224   1.039   3.497   5.770 -0.3529  0.6010  0.5388
 2863SOL    HW120225   1.126   3.514   5.805 -0.3406  0.2398  0.6795
 2863SOL    HW220226   1.013   3.584   5.739 -1.9454  0.5296  1.6975
 2864SOL     OW20227   0.319   0.106  11.091  0.0110  0.2025  1.0181
 2864SOL    HW120228   0.250   0.104  11.157 -1.6268 -0.8407 -0.7287
 2864SOL    HW220229   0.400   0.070  11.127  0.6664 -0.3060 -0.9841
 2865SOL     OW20230   2.444   2.311   6.469 -0.0578 -0.0326  0.6313
 2865SOL    HW120231   2.432   2.222   6.436 -1.5815 -0.3621  2.1016
 2865SOL    HW220232   2.355   2.319   6.504  0.0427  1.6172  0.4999
 2866SOL     OW20233   0.788   1.904   4.645 -0.5585 -0.2611 -0.4541
 2866SOL    HW120234   0.812   1.949   4.565 -1.3306 -0.2843 -0.7019
 2866SOL    HW220235   0.737   1.974   4.685  1.0939  0.4265  0.4383
 2867SOL     OW20236   4.398   0.127  16.483  0.0346  0.8232  0.6134
 2867SOL    HW120237   4.457   0.101  16.554 -0.1642 -0.3169  0.3600
 2867SOL    HW220238   4.349   0.048  16.461 -0.2304  0.7065  1.6094
 2868SOL     OW20239   3.644   3.695   6.533  0.0260 -0.5316 -0.3792
 2868SOL    HW120240   3.584   3.661   6.598 -1.6878  0.3657 -1.4789
 2868SOL    HW220241   3.725   3.663   6.573 -0.6205 -3.8675 -1.7354
 2869SOL     OW20242   0.203   2.459   6.334 -0.1594  0.1863 -0.6186
 2869SOL    HW120243   0.272   2.516   6.300 -0.3216 -0.4718 -2.0462
 2869SOL    HW220244   0.148   2.446   6.256 -3.3117 -0.6572  1.7457
 2870SOL     OW20245   0.188   1.389  12.040  0.0554 -1.0897 -0.3364
 2870SOL    HW120246   0.157   1.391  11.949  2.4939 -0.3811 -1.1718
 2870SOL    HW220247   0.136   1.317  12.076 -1.8553  0.7798  0.5863
 2871SOL     OW20248   0.077   1.686   8.110  0.3372 -0.2095 -0.8377
 2871SOL    HW120249   0.094   1.744   8.036  1.3285 -0.2128 -0.6145
 2871SOL    HW220250   4.719   1.695   8.122  0.3535  0.5697 -1.2752
 2872SOL     OW20251   1.803   0.252   3.347  0.2201 -0.6549 -0.0532
 2872SOL    HW120252   1.807   0.342   3.380  2.3427 -0.5920 -0.4602
 2872SOL    HW220253   1.882   0.210   3.382  0.7036 -0.0645 -0.4228
 2873SOL     OW20254   0.144   4.453   2.580  0.3034  0.6011  0.5506
 2873SOL    HW120255   0.095   4.507   2.519  0.6711  0.3457  0.0225
 2873SOL    HW220256   0.228   4.499   2.574  0.1880  0.7510  0.1275
 2874SOL     OW20257   0.832   1.839  16.758  0.3848  0.1876 -0.4200
 2874SOL    HW120258   0.887   1.792  16.821 -0.4531  0.1196  0.2508
 2874SOL    HW220259   0.893   1.870  16.691 -0.2237 -1.9708 -1.9783
 2875SOL     OW20260   3.516   3.966   4.604  0.0670 -0.0833 -0.2924
 2875SOL    HW120261   3.548   4.051   4.633  0.5822 -0.5818  0.5893
 2875SOL    HW220262   3.501   3.990   4.512 -1.9494 -0.7565 -0.1434
 2876SOL     OW20263   3.754   1.448   7.421 -0.1458 -0.8359  0.3882
 2876SOL    HW120264   3.696   1.501   7.365 -0.1120  0.2498  1.3703
 2876SOL    HW220265   3.840   1.489   7.414  0.1892 -1.6936 -0.4479
 2877SOL     OW20266   0.478   1.209   3.578 -0.8169 -0.5331  0.3569
 2877SOL    HW120267   0.407   1.167   3.531  1.0791 -1.0039 -2.0829
 2877SOL    HW220268   0.499   1.144   3.645  2.0018 -0.2627 -0.2669
 2878SOL     OW20269   2.411   0.136   5.209  0.0743 -0.5361  0.4892
 2878SOL    HW120270   2.473   0.114   5.139 -1.4386 -2.5110 -0.2381
 2878SOL    HW220271   2.446   0.066   5.264 -0.7340 -2.0752 -0.9273
 2879SOL     OW20272   1.018   1.077   6.541 -0.3316  0.3609 -0.2265
 2879SOL    HW120273   1.053   1.117   6.461 -0.6110  1.0824  0.0157
 2879SOL    HW220274   1.066   0.995   6.545  0.1279  0.6292 -0.2178
 2880SOL     OW20275   2.266   3.166   3.291  0.9425 -0.8774  0.3243
 2880SOL    HW120276   2.267   3.184   3.197  1.0068  0.4032  0.5664
 2880SOL    HW220277   2.172   3.162   3.307  0.7704  1.4091 -0.1073
 2881SOL     OW20278   2.472   2.220   9.854 -0.0370 -0.1973 -0.0330
 2881SOL    HW120279   2.436   2.183   9.934 -1.3675  1.2700  0.0457
 2881SOL    HW220280   2.388   2.237   9.811 -0.3072  0.9514  0.9415
 2882SOL     OW20281   4.655   2.391  11.678  0.4023 -0.2494  0.1647
 2882SOL    HW120282   4.666   2.387  11.583 -0.2039  2.0938 -0.0121
 2882SOL    HW220283   4.581   2.334  11.697 -0.2321  1.1443  1.8906
 2883SOL     OW20284   0.941   2.111  14.949  0.1130  0.3611  0.2663
 2883SOL    HW120285   0.982   2.084  15.032  1.1255 -1.0331 -0.6972
 2883SOL    HW220286   0.855   2.069  14.951 -1.1015  2.7794 -1.3232
 2884SOL     OW20287   4.278   0.393   6.296 -0.1357 -0.1252  0.5792
 2884SOL    HW120288   4.309   0.478   6.329 -0.1757  0.1227 -0.0090
 2884SOL    HW220289   4.291   0.410   6.203  0.1734  1.9339  0.9924
 2885SOL     OW20290   1.728   3.726  15.625  0.7715  0.4390 -0.2879
 2885SOL    HW120291   1.789   3.660  15.594  2.7741  1.5431  1.2210
 2885SOL    HW220292   1.721   3.714  15.720 -2.4005  0.7499 -0.5000
 2886SOL     OW20293   1.717   1.914   9.673  0.2800  0.3652  0.0774
 2886SOL    HW120294   1.677   2.001   9.673 -0.4713  0.0171 -0.5637
 2886SOL    HW220295   1.674   1.880   9.595 -1.0113  1.3631  0.3653
 2887SOL     OW20296   0.714   4.110   1.740  0.1287  0.3750  0.1091
 2887SOL    HW120297   0.710   4.148   1.828 -0.7889 -1.4693  0.8703
 2887SOL    HW220298   0.683   4.188   1.694 -0.0199  1.3214  1.8060
 2888SOL     OW20299   1.146   1.988   8.010 -0.3840 -0.0676 -0.4112
 2888SOL    HW120300   1.118   2.035   7.931  1.5071  0.4390 -0.8007
 2888SOL    HW220301   1.167   1.904   7.969  0.2609  0.9616 -2.2108
 2889SOL     OW20302   3.722   3.216   4.812  0.1570 -0.1077  0.2170
 2889SOL    HW120303   3.752   3.294   4.858 -0.5935  0.2430  0.1097
 2889SOL    HW220304   3.714   3.243   4.721  0.6757  0.6693  0.4056
 2890SOL     OW20305   0.015   4.443  14.573 -0.4848  0.1161  0.2760
 2890SOL    HW120306   0.028   4.498  14.650 -0.5328  1.4784 -0.6853
 2890SOL    HW220307   4.686   4.378  14.602 -0.1621  0.0304  0.7974
 2891SOL     OW20308   2.657   2.635  16.133 -0.1716  0.5145 -0.4248
 2891SOL    HW120309   2.592   2.615  16.201  0.0376  1.3268  0.0169
 2891SOL    HW220310   2.601   2.631  16.056 -1.7335  0.9404  0.6798
 2892SOL     OW20311   4.310   1.169  12.998 -0.0359  0.8237 -0.3554
 2892SOL    HW120312   4.355   1.171  12.914 -1.9259  0.5723 -1.3745
 2892SOL    HW220313   4.379   1.162  13.064  1.3356 -0.3144 -1.9078
 2893SOL     OW20314   2.165   4.463   0.538  0.1156  0.3370  0.0194
 2893SOL    HW120315   2.161   4.367   0.545  2.2307  0.3305  1.3297
 2893SOL    HW220316   2.092   4.479   0.598  0.1794  1.2387 -0.1468
 2894SOL     OW20317   0.447   0.468   9.134  0.3816 -0.4363  0.0777
 2894SOL    HW120318   0.534   0.463   9.174  0.9790 -1.3019 -1.3323
 2894SOL    HW220319   0.392   0.433   9.204  1.3652 -0.8800  0.6372
 2895SOL     OW20320   0.352   1.700   3.517  0.4883  0.6812 -0.1534
 2895SOL    HW120321   0.297   1.686   3.440  0.3887  1.9761 -0.3108
 2895SOL    HW220322   0.350   1.607   3.539  0.4245  0.1124 -2.5352
 2896SOL     OW20323   0.599   0.396   8.368  0.0807  0.4832 -0.3266
 2896SOL    HW120324   0.509   0.369   8.350  0.8060 -0.6954 -2.1534
 2896SOL    HW220325   0.589   0.392   8.463  1.0825  0.3970 -0.2281
 2897SOL     OW20326   3.534   3.649   4.367 -0.1729 -0.2147  0.0248
 2897SOL    HW120327   3.581   3.686   4.442  0.3751 -0.0054 -0.4151
 2897SOL    HW220328   3.476   3.581   4.399 -0.3591  1.1910  2.6461
 2898SOL     OW20329   0.940   4.394   7.057  0.0073  0.6231  0.5037
 2898SOL    HW120330   1.022   4.347   7.040  0.2185  1.2711 -0.2780
 2898SOL    HW220331   0.935   4.388   7.152 -1.0812  1.8862  0.5228
 2899SOL     OW20332   3.171   4.567  11.175  0.1200  0.2316 -0.2835
 2899SOL    HW120333   3.077   4.569  11.192  0.2286 -1.0137  0.4281
 2899SOL    HW220334   3.192   4.474  11.169  0.2704  0.3283 -1.1825
 2900SOL     OW20335   2.467   2.953  12.858  0.4202  0.5485 -0.3150
 2900SOL    HW120336   2.412   3.023  12.895 -0.8040 -0.5954  0.0092
 2900SOL    HW220337   2.547   2.998  12.888  0.1112  0.9794 -0.1271
 2901SOL     OW20338   4.124   4.629   4.627  0.0808 -0.1267  0.0228
 2901SOL    HW120339   4.086   4.647   4.713  0.4239  2.0541 -0.2670
 2901SOL    HW220340   4.072   4.677   4.563  0.8420  1.4543  0.5758
 2902SOL     OW20341   1.311   4.526   9.174 -0.3105  0.0185 -0.1082
 2902SOL    HW120342   1.286   4.442   9.212  1.0553 -0.6579 -0.7378
 2902SOL    HW220343   1.343   4.498   9.089  0.4429 -0.6931  0.4078
 2903SOL     OW20344   0.402   0.501   7.240 -0.1899  0.0498 -0.1712
 2903SOL    HW120345   0.364   0.490   7.327  2.7450 -3.4730  0.6508
 2903SOL    HW220346   0.391   0.596   7.239 -0.9071 -0.0316 -0.1038
 2904SOL     OW20347   0.692   1.580   2.773 -0.5358  0.0140  0.3191
 2904SOL    HW120348   0.636   1.592   2.850  0.7529  0.3266  1.2111
 2904SOL    HW220349   0.623   1.556   2.711 -0.3339 -2.2296  0.9352
 2905SOL     OW20350   1.588   2.004  15.405 -0.2609  0.3421 -0.1712
 2905SOL    HW120351   1.679   2.020  15.381 -0.6009  0.3171 -1.4916
 2905SOL    HW220352   1.570   2.066  15.476 -1.5691 -0.0617 -0.1398
 2906SOL     OW20353   0.465   1.292   2.795 -0.0381 -0.6088  0.6204
 2906SOL    HW120354   0.459   1.362   2.730  0.5456  1.6508  3.0002
 2906SOL    HW220355   0.411   1.218   2.767  1.7793 -1.0917 -1.6101
 2907SOL     OW20356   1.851   2.955   4.773  0.5208 -0.5332  0.1930
 2907SOL    HW120357   1.769   2.930   4.816  0.6380 -0.6128  0.3695
 2907SOL    HW220358   1.912   2.916   4.835 -1.1205 -2.4710  0.5718
 2908SOL     OW20359   3.364   0.103   7.512 -0.4533 -0.0794 -0.2882
 2908SOL    HW120360   3.427   0.102   7.584  0.2664  0.9669 -0.9037
 2908SOL    HW220361   3.281   0.132   7.549 -0.0073 -0.6412  1.1442
 2909SOL     OW20362   2.187   3.292  13.189 -0.0215  0.0988 -0.0589
 2909SOL    HW120363   2.105   3.277  13.143 -0.2856  0.4809  0.2906
 2909SOL    HW220364   2.172   3.375  13.234  0.8695  0.2109  0.0293
 2910SOL     OW20365   0.109   2.957   6.305 -0.5041  0.3929 -0.0954
 2910SOL    HW120366   0.198   2.921   6.311 -0.6397 -0.1989 -1.6913
 2910SOL    HW220367   0.127   3.030   6.365 -1.4361  1.0082 -0.5773
 2911SOL     OW20368   2.678   0.254   7.096 -0.2128 -1.0083 -0.1090
 2911SOL    HW120369   2.700   0.286   7.008  0.6748  1.9347  1.1830
 2911SOL    HW220370   2.745   0.299   7.147 -0.6369  0.1564 -0.5787
 2912SOL     OW20371   3.807   2.965   5.130 -0.2147  0.7848  0.3885
 2912SOL    HW120372   3.725   2.968   5.081  0.9362  2.2687 -1.4172
 2912SOL    HW220373   3.869   3.006   5.070  0.2201  1.4119  1.2598
 2913SOL     OW20374   1.670   3.837   4.709 -0.4982 -0.0907 -0.5649
 2913SOL    HW120375   1.617   3.871   4.781 -0.0242 -0.3423 -0.0997
 2913SOL    HW220376   1.588   3.822   4.660 -1.0635  2.6300 -0.4667
 2914SOL     OW20377   1.299   3.310   4.419  0.1873  0.4476 -0.1060
 2914SOL    HW120378   1.281   3.343   4.331  0.4502 -2.5538 -1.3049
 2914SOL    HW220379   1.391   3.286   4.406 -0.2350 -0.2296 -1.8453
 2915SOL     OW20380   3.452   4.102   9.399 -0.2971 -0.3526 -0.0166
 2915SOL    HW120381   3.390   4.066   9.463 -1.2203 -0.7258 -1.1260
 2915SOL    HW220382   3.512   4.152   9.454 -1.7072 -0.7494  1.9217
 2916SOL     OW20383   3.997   3.066   6.264 -0.3466  0.5242 -0.1432
 2916SOL    HW120384   4.052   3.060   6.186  1.1190 -0.1295  0.9456
 2916SOL    HW220385   4.026   3.150   6.299  0.8722 -0.0305  0.1492
 2917SOL     OW20386   0.232   3.898  14.363  0.5087 -0.8958  0.0886
 2917SOL    HW120387   0.211   3.974  14.307 -1.8808 -2.2893 -0.9101
 2917SOL    HW220388   0.157   3.898  14.423  1.2575 -1.7443  1.0077
 2918SOL     OW20389   1.526   4.715  14.926 -0.1308 -0.2744 -0.4850
 2918SOL    HW120390   1.621   4.715  14.937 -0.2027  1.5252  0.0416
 2918SOL    HW220391   1.514   4.693  14.833 -2.4196 -2.8923  0.4310
 2919SOL     OW20392   0.569   3.967   2.302  0.5923 -0.2755 -0.3638
 2919SOL    HW120393   0.556   3.939   2.212 -1.0549  0.8744 -0.4689
 2919SOL    HW220394   0.477   3.967   2.329  0.7980  2.6807  0.2887
 2920SOL     OW20395   0.159   1.369   8.772  0.2353  0.1130 -0.2929
 2920SOL    HW120396   0.166   1.464   8.763  0.3185  0.1319 -0.0539
 2920SOL    HW220397   0.242   1.366   8.819 -0.0564 -0.4527  0.2012
 2921SOL     OW20398   1.846   2.052  15.318  0.0389 -0.5646  0.5527
 2921SOL    HW120399   1.812   2.102  15.244 -0.6345  0.2643  1.4396
 2921SOL    HW220400   1.897   2.118  15.364  1.5120 -0.2083 -1.5697
 2922SOL     OW20401   3.400   2.911   8.493  0.2558  0.3221  0.4743
 2922SOL    HW120402   3.397   2.979   8.426 -0.6936 -0.7298 -0.5535
 2922SOL    HW220403   3.485   2.871   8.475 -0.2208 -0.6082  0.2591
 2923SOL     OW20404   2.614   0.577  15.691 -0.0913  0.0595 -0.2284
 2923SOL    HW120405   2.556   0.527  15.635 -2.4726  0.5671  1.7820
 2923SOL    HW220406   2.575   0.550  15.774 -0.1989  1.3454  0.1389
 2924SOL     OW20407   0.805   2.794   8.195  0.1964 -0.5660  0.0734
 2924SOL    HW120408   0.796   2.780   8.290 -0.1466  0.8764  0.2459
 2924SOL    HW220409   0.877   2.855   8.177 -0.8732  0.3768 -1.0207
 2925SOL     OW20410   3.733   2.736  14.967  0.0784  0.8113  0.2962
 2925SOL    HW120411   3.716   2.682  15.044 -0.6834  0.6856  0.0428
 2925SOL    HW220412   3.644   2.749  14.935 -0.0339 -1.0867 -0.1770
 2926SOL     OW20413   1.398   1.342  17.472  0.1640 -0.1979 -0.2333
 2926SOL    HW120414   1.479   1.387  17.495  0.0035 -0.2714  0.4869
 2926SOL    HW220415   1.325   1.403  17.486  0.0783 -0.4452  0.3704
 2927SOL     OW20416   0.816   4.426  15.394  0.6040  0.0188  0.7568
 2927SOL    HW120417   0.897   4.431  15.444  1.2213 -1.8958 -0.0509
 2927SOL    HW220418   0.818   4.330  15.397  1.3213  0.0696  1.6861
 2928SOL     OW20419   0.015   2.865   6.825 -0.1320  0.3605  0.6064
 2928SOL    HW120420   4.669   2.884   6.779 -1.2650 -2.0059  1.6323
 2928SOL    HW220421   0.048   2.954   6.838 -0.1981  0.5972 -0.8255
 2929SOL     OW20422   0.996   3.173   2.228 -0.7646  0.2136 -0.8306
 2929SOL    HW120423   1.023   3.174   2.319  0.0181 -0.4574 -1.0626
 2929SOL    HW220424   0.990   3.268   2.216 -0.5023  0.4281  0.7488
 2930SOL     OW20425   4.292   0.803   9.120 -0.7344  0.5178  0.2619
 2930SOL    HW120426   4.299   0.717   9.079 -1.7630  0.7008 -0.2995
 2930SOL    HW220427   4.206   0.826   9.085 -0.5935 -0.1592 -0.5467
 2931SOL     OW20428   4.051   1.716   7.560  0.0364 -0.2182  0.1591
 2931SOL    HW120429   4.030   1.657   7.632 -0.0924 -0.1124  0.2071
 2931SOL    HW220430   3.986   1.688   7.495 -2.1077  0.7485  1.8992
 2932SOL     OW20431   4.328   3.702   6.841  0.2413  0.1436 -0.0452
 2932SOL    HW120432   4.272   3.765   6.795  0.0026  0.1506  0.2567
 2932SOL    HW220433   4.410   3.741   6.812 -0.1464  2.6011  2.1676
 2933SOL     OW20434   3.251   4.120   7.425 -0.1057 -0.0843  0.7750
 2933SOL    HW120435   3.223   4.095   7.513 -3.2766  0.9416  0.0563
 2933SOL    HW220436   3.166   4.131   7.381  1.1257 -1.1695 -1.9108
 2934SOL     OW20437   0.405   2.235   0.284 -0.1105  0.2057  0.1525
 2934SOL    HW120438   0.493   2.236   0.322 -1.0850  0.5084  2.3622
 2934SOL    HW220439   0.381   2.328   0.284 -3.1235 -0.5810  0.2649
 2935SOL     OW20440   3.766   2.650   4.993  0.1244  0.4218 -0.0207
 2935SOL    HW120441   3.703   2.698   4.940  0.3154 -0.8046 -1.3765
 2935SOL    HW220442   3.848   2.657   4.946 -0.0455  1.7103 -0.1204
 2936SOL     OW20443   2.782   1.013  16.506  0.6134  0.1999 -0.5018
 2936SOL    HW120444   2.764   1.006  16.600  2.7891 -1.0126 -0.2009
 2936SOL    HW220445   2.862   1.065  16.501  0.8967 -0.1931 -0.0278
 2937SOL     OW20446   0.624   2.250   2.515 -0.1427 -0.7855 -0.4906
 2937SOL    HW120447   0.645   2.319   2.453 -0.8662  1.3505  1.6145
 2937SOL    HW220448   0.558   2.297   2.566 -0.3450 -1.2887 -0.2776
 2938SOL     OW20449   3.970   3.669   7.445  0.7347 -0.2500  0.2651
 2938SOL    HW120450   3.956   3.609   7.372 -1.1953  0.5492 -0.0230
 2938SOL    HW220451   3.891   3.650   7.495  1.0914  0.3950  1.0733
 2939SOL     OW20452   3.810   1.651  11.439  0.1473 -0.0333  0.7400
 2939SOL    HW120453   3.763   1.724  11.480 -0.5113  0.1300 -0.3025
 2939SOL    HW220454   3.891   1.694  11.413  1.6486 -1.5736  2.9115
 2940SOL     OW20455   2.069   4.541   2.580 -0.0335  0.0969 -0.4158
 2940SOL    HW120456   2.139   4.532   2.515 -1.0138 -1.2687 -1.2805
 2940SOL    HW220457   2.085   4.631   2.607 -0.4681  0.1856 -0.4612
 2941SOL     OW20458   1.054   0.622   6.059 -0.3073 -0.0490 -0.2135
 2941SOL    HW120459   1.017   0.613   6.147 -1.4869  0.7209 -0.6249
 2941SOL    HW220460   0.991   0.675   6.010 -0.6213  2.8123  3.2629
 2942SOL     OW20461   4.673   1.259  11.506 -0.1554 -0.3891  0.0243
 2942SOL    HW120462   4.698   1.329  11.567  0.1977 -0.6947  0.2310
 2942SOL    HW220463   0.025   1.225  11.490  0.2010  0.3586  0.3680
 2943SOL     OW20464   3.524   0.577   5.926  0.7037  0.2423  0.1717
 2943SOL    HW120465   3.558   0.509   5.985 -0.3887 -1.1399 -0.7709
 2943SOL    HW220466   3.448   0.614   5.971  0.3438 -1.5899  1.0933
 2944SOL     OW20467   0.342   0.890   1.319 -0.4773 -0.1221 -0.0485
 2944SOL    HW120468   0.347   0.971   1.370 -0.3537 -0.7312  0.9031
 2944SOL    HW220469   0.433   0.862   1.310 -0.1346  1.2183 -0.8128
 2945SOL     OW20470   1.767   0.291   1.164 -0.3029 -0.1036  0.2548
 2945SOL    HW120471   1.803   0.377   1.140 -0.5068  0.0148  0.3653
 2945SOL    HW220472   1.842   0.233   1.159  0.9598  1.5705 -0.2601
 2946SOL     OW20473   2.544   1.136   3.490 -0.3401  0.0143  0.4915
 2946SOL    HW120474   2.623   1.126   3.437 -0.0544  0.1202  0.8957
 2946SOL    HW220475   2.575   1.096   3.572 -2.5335 -0.7473  0.9463
 2947SOL     OW20476   0.584   3.362   6.408  0.3222 -0.6198  0.1962
 2947SOL    HW120477   0.678   3.351   6.420 -0.0288 -2.6994  0.9776
 2947SOL    HW220478   0.562   3.317   6.326  0.5132  1.6263 -1.0893
 2948SOL     OW20479   4.597   4.343  15.983 -0.9814  0.4704  0.1920
 2948SOL    HW120480   4.556   4.264  15.947  0.7414 -1.2474  1.9918
 2948SOL    HW220481   4.537   4.408  15.948 -0.9073  0.5308  0.1760
 2949SOL     OW20482   4.501   1.070   6.269 -0.0138  0.2893  0.2461
 2949SOL    HW120483   4.595   1.053   6.271 -0.2756 -1.1965  0.0709
 2949SOL    HW220484   4.482   1.124   6.345  0.4416  0.8313 -0.0230
 2950SOL     OW20485   2.368   1.853   8.638 -0.0985 -0.6203  0.0518
 2950SOL    HW120486   2.373   1.865   8.543 -1.4923 -0.0819  0.0390
 2950SOL    HW220487   2.457   1.824   8.658  0.6450  1.5200 -0.1648
 2951SOL     OW20488   1.723   1.033   4.532  0.2917 -0.2620 -1.1258
 2951SOL    HW120489   1.734   0.942   4.559  1.6027  0.0521 -0.5986
 2951SOL    HW220490   1.629   1.017   4.522  0.3447 -0.9992 -0.4028
 2952SOL     OW20491   3.675   2.793   1.744 -0.1713 -0.7651 -0.4482
 2952SOL    HW120492   3.649   2.870   1.693  1.9701  0.0069 -0.3739
 2952SOL    HW220493   3.616   2.806   1.818 -1.7305 -0.1622 -1.7696
 2953SOL     OW20494   0.422   2.106  10.157 -0.2602 -0.3434 -0.4644
 2953SOL    HW120495   0.421   2.071  10.068  2.5170 -1.7761  0.0700
 2953SOL    HW220496   0.511   2.141  10.163 -0.7417  0.7363  0.3871
 2954SOL     OW20497   0.134   3.773   8.630 -0.2659 -0.3618  0.3985
 2954SOL    HW120498   0.222   3.749   8.601 -0.2342 -1.4914  1.3966
 2954SOL    HW220499   0.089   3.690   8.619 -0.5947 -0.2127  0.6270
 2955SOL     OW20500   0.478   1.467   9.128 -0.2153  0.4165 -0.2701
 2955SOL    HW120501   0.515   1.555   9.122 -0.5258  0.6556  1.3869
 2955SOL    HW220502   0.543   1.428   9.070 -1.8343 -0.9338 -1.2021
 2956SOL     OW20503   0.559   1.534   5.843 -0.0169  0.7165 -0.1440
 2956SOL    HW120504   0.588   1.553   5.932  0.6596 -1.3397  0.0804
 2956SOL    HW220505   0.541   1.626   5.824 -1.6958  0.4639  0.2071
 2957SOL     OW20506   4.105   1.533   3.955 -1.1648  0.1238 -0.3779
 2957SOL    HW120507   4.040   1.496   4.015 -0.0031  0.8148  1.3321
 2957SOL    HW220508   4.087   1.491   3.872  1.6782 -1.2315 -0.3062
 2958SOL     OW20509   4.506   4.039   1.894  0.9600 -0.2516 -0.1305
 2958SOL    HW120510   4.600   4.060   1.897  0.8333  0.3376 -0.3302
 2958SOL    HW220511   4.461   4.101   1.951 -0.5040  0.4994 -2.1119
 2959SOL     OW20512   2.825   3.985  13.099  0.2151  0.2756 -0.2929
 2959SOL    HW120513   2.752   3.957  13.043 -0.2745  0.3858  0.2848
 2959SOL    HW220514   2.803   4.077  13.115  0.4540  0.2223  0.3598
 2960SOL     OW20515   1.159   4.447   8.681  0.1609 -0.2100 -0.1052
 2960SOL    HW120516   1.189   4.531   8.714 -0.2538 -0.3627  0.6529
 2960SOL    HW220517   1.068   4.460   8.652  0.3558  1.4223  0.0242
 2961SOL     OW20518   1.720   1.480   8.054 -0.2301 -0.1567 -0.2187
 2961SOL    HW120519   1.763   1.401   8.021 -0.9238  0.1762 -1.9007
 2961SOL    HW220520   1.764   1.547   8.002  1.1226  1.0063  2.3997
 2962SOL     OW20521   1.532   2.802   7.782  0.6216 -0.6682  0.0499
 2962SOL    HW120522   1.600   2.857   7.742 -0.4064  0.5362 -0.0587
 2962SOL    HW220523   1.524   2.729   7.721  1.3455 -2.1229  1.7087
 2963SOL     OW20524   1.535   3.463   9.638 -0.2855  0.5213  0.3453
 2963SOL    HW120525   1.467   3.454   9.572 -0.2347 -0.2690  0.3963
 2963SOL    HW220526   1.473   3.484   9.709  1.9079  3.1052  1.4819
 2964SOL     OW20527   3.873   1.098   1.255 -0.0100 -0.3042 -0.5885
 2964SOL    HW120528   3.904   1.015   1.292 -0.1273  0.0751  0.3655
 2964SOL    HW220529   3.944   1.113   1.192  0.6559  2.0987  0.6987
 2965SOL     OW20530   2.748   2.200   5.643 -0.3229  0.4544 -0.2054
 2965SOL    HW120531   2.744   2.222   5.736  1.2321  1.5160 -0.3924
 2965SOL    HW220532   2.743   2.104   5.637  1.9243  0.2761  0.9343
 2966SOL     OW20533   2.056   2.993   4.025  0.2534  0.0213 -0.1556
 2966SOL    HW120534   2.102   2.941   3.959 -1.9483 -0.9506 -0.9463
 2966SOL    HW220535   2.074   3.081   3.993 -2.7851  0.3864 -0.8579
 2967SOL     OW20536   3.947   1.102   3.412 -0.8872  0.0308  0.1634
 2967SOL    HW120537   3.866   1.122   3.364 -0.9336  0.6905  0.5166
 2967SOL    HW220538   3.954   1.007   3.401 -3.0329 -0.2157  0.8802
 2968SOL     OW20539   2.182   1.049   6.538  0.5991  0.2575  0.1365
 2968SOL    HW120540   2.226   1.019   6.459 -2.2325  0.9735 -1.7318
 2968SOL    HW220541   2.112   1.103   6.500  1.8551  0.2040 -2.2552
 2969SOL     OW20542   3.657   0.167   0.096  0.2787  0.2219 -0.5407
 2969SOL    HW120543   3.685   0.124   0.176 -1.8826  0.0286  0.1085
 2969SOL    HW220544   3.649   0.091   0.037  1.0123 -0.4264  0.2023
 2970SOL     OW20545   1.284   0.358   6.645  0.1280 -0.6348  0.6375
 2970SOL    HW120546   1.351   0.301   6.682  1.7009  0.3258 -0.7427
 2970SOL    HW220547   1.269   0.423   6.713 -0.6667 -0.4574  0.2869
 2971SOL     OW20548   3.885   3.357   9.300 -0.7640 -0.4390 -0.1801
 2971SOL    HW120549   3.938   3.351   9.380  1.1638  0.3378 -1.3971
 2971SOL    HW220550   3.802   3.380   9.341  0.3240  1.7961  0.7396
 2972SOL     OW20551   3.174   3.086   1.634 -0.8447  0.0283  0.3881
 2972SOL    HW120552   3.226   3.131   1.568  1.7985 -2.9773  0.3885
 2972SOL    HW220553   3.119   3.035   1.574 -0.9925  0.4544  0.1639
 2973SOL     OW20554   2.099   2.375  16.333  0.1922  0.0371 -0.4132
 2973SOL    HW120555   2.082   2.355  16.425  0.9661 -0.5836 -0.4137
 2973SOL    HW220556   2.106   2.471  16.339 -1.6724  0.1655 -0.3474
 2974SOL     OW20557   0.762   2.949   9.467 -0.5016  0.2766 -0.0754
 2974SOL    HW120558   0.761   2.854   9.479 -1.6609  0.0247 -2.2266
 2974SOL    HW220559   0.672   2.976   9.488  0.3611  1.5996  1.9631
 2975SOL     OW20560   2.625   2.744   2.079 -0.2821 -0.0168 -0.0520
 2975SOL    HW120561   2.690   2.684   2.115 -0.1073 -0.2847 -0.8204
 2975SOL    HW220562   2.681   2.801   2.027 -1.0390  1.9353  1.2266
 2976SOL     OW20563   0.161   0.073   7.956  0.5932 -0.3550 -0.1117
 2976SOL    HW120564   0.119   4.726   7.977 -2.3774  0.9211 -0.9898
 2976SOL    HW220565   0.134   0.080   7.864  0.6967 -2.7518 -0.3137
 2977SOL     OW20566   4.546   4.518   5.852 -0.6737 -0.2211  0.0028
 2977SOL    HW120567   4.527   4.441   5.798 -1.3940 -0.8219  1.1312
 2977SOL    HW220568   4.571   4.583   5.785 -0.3600 -2.0943 -1.6961
 2978SOL     OW20569   1.064   2.915   8.135 -0.0139  0.3511  0.4976
 2978SOL    HW120570   1.142   2.864   8.156 -0.1482 -0.4452 -0.9153
 2978SOL    HW220571   1.070   2.930   8.041 -0.3945 -1.2170  0.2367
 2979SOL     OW20572   0.448   2.222   2.197 -0.7764 -0.0156 -0.2715
 2979SOL    HW120573   0.495   2.245   2.277 -1.8302  0.2946  0.2546
 2979SOL    HW220574   0.455   2.301   2.143 -1.9038  0.2623 -0.0131
 2980SOL     OW20575   0.437   3.874   4.753 -0.8812  0.1501  0.4462
 2980SOL    HW120576   0.413   3.892   4.843  1.9508 -1.6388  1.5393
 2980SOL    HW220577   0.409   3.954   4.708 -0.5938 -0.1232 -0.2276
 2981SOL     OW20578   4.056   1.302  10.339 -0.0178  0.0865 -0.2145
 2981SOL    HW120579   4.003   1.381  10.344  1.2037  0.8523  0.5790
 2981SOL    HW220580   4.134   1.348  10.310  1.8025 -2.9605 -0.0985
 2982SOL     OW20581   0.067   2.924   4.351  0.3670 -0.7925 -0.3327
 2982SOL    HW120582   0.132   2.861   4.380 -0.8725 -2.0100 -0.2197
 2982SOL    HW220583   0.130   2.986   4.313  1.3362 -0.5814  1.6356
 2983SOL     OW20584   2.827   1.880   8.515 -0.2379  0.5194  0.4347
 2983SOL    HW120585   2.746   1.927   8.535  0.5015  1.6073  0.8513
 2983SOL    HW220586   2.805   1.787   8.527 -0.6032  0.5758  0.2031
 2984SOL     OW20587   2.220   3.008   6.318 -0.0953  0.5095 -0.6053
 2984SOL    HW120588   2.186   3.048   6.238  2.1705  0.5446 -1.5650
 2984SOL    HW220589   2.312   3.030   6.304  0.5037 -0.7369  1.4338
 2985SOL     OW20590   4.271   3.334  11.867  0.6887 -0.5514 -0.0746
 2985SOL    HW120591   4.265   3.274  11.792 -1.5810 -1.2592  0.6900
 2985SOL    HW220592   4.364   3.331  11.887  0.0460 -1.1122  2.8295
 2986SOL     OW20593   1.145   0.624   6.464 -0.0713 -0.2036 -0.1280
 2986SOL    HW120594   1.077   0.558   6.452 -0.7155  0.5436 -0.5401
 2986SOL    HW220595   1.209   0.602   6.396  2.7109 -0.2762  2.5193
 2987SOL     OW20596   4.048   3.439  11.678  0.0141 -0.1774  0.0337
 2987SOL    HW120597   4.059   3.455  11.771 -1.1108 -0.9349  0.2957
 2987SOL    HW220598   4.074   3.348  11.685  1.2346  0.5086  4.2054
 2988SOL     OW20599   4.239   1.789   2.081  0.4035  0.1711 -0.0400
 2988SOL    HW120600   4.319   1.749   2.048  0.6721 -0.8495  1.8754
 2988SOL    HW220601   4.245   1.760   2.172  3.9564  2.6154  0.4781
 2989SOL     OW20602   1.777   4.326   8.695  0.4026 -0.4266 -0.5034
 2989SOL    HW120603   1.699   4.381   8.684  1.1496  0.5715 -0.7754
 2989SOL    HW220604   1.746   4.259   8.755 -0.8216  0.2167 -0.4001
 2990SOL     OW20605   0.307   4.709   4.412 -0.5390 -0.1313  0.6129
 2990SOL    HW120606   0.226   4.726   4.461 -1.1826  1.1787 -0.9319
 2990SOL    HW220607   0.278   4.685   4.324  0.0340 -0.8091  0.6088
 2991SOL     OW20608   3.603   0.273   1.784  0.1683 -0.3048  0.1692
 2991SOL    HW120609   3.664   0.339   1.752  1.1291 -1.0667  0.4114
 2991SOL    HW220610   3.651   0.197   1.750 -0.9895 -1.2836  0.7532
 2992SOL     OW20611   0.071   2.208   7.360 -0.0745 -0.6167  0.1131
 2992SOL    HW120612   0.087   2.302   7.359 -0.3479 -0.5726 -0.0019
 2992SOL    HW220613   4.732   2.213   7.419 -1.1084  1.2011 -1.3585
 2993SOL     OW20614   0.073   1.787   6.777  0.1798  0.0983  0.3775
 2993SOL    HW120615   0.017   1.865   6.782  0.3574  0.2627 -0.2577
 2993SOL    HW220616   0.157   1.828   6.798 -0.2222  0.6230  0.9663
 2994SOL     OW20617   0.916   0.079   7.283  0.5551  0.4408  0.3712
 2994SOL    HW120618   0.887   0.054   7.195  2.3913 -1.3400  0.2613
 2994SOL    HW220619   0.862   0.037   7.350 -0.8910  1.8373  0.0771
 2995SOL     OW20620   2.414   3.640   8.655 -0.0710 -0.3443 -0.2540
 2995SOL    HW120621   2.398   3.707   8.722 -1.3994  0.9305 -1.8306
 2995SOL    HW220622   2.498   3.604   8.683  0.5539 -0.8785 -2.8128
 2996SOL     OW20623   2.703   3.549   3.547 -0.0119 -0.2749 -0.2570
 2996SOL    HW120624   2.638   3.586   3.487  0.3810  1.1880  0.2228
 2996SOL    HW220625   2.741   3.487   3.485  2.3972  0.9611 -0.0267
 2997SOL     OW20626   4.601   3.345   6.007  0.2586  0.2022  0.0493
 2997SOL    HW120627   4.545   3.397   6.064 -0.2139 -0.1251 -0.1135
 2997SOL    HW220628   4.628   3.274   6.066  0.9258  0.2273 -0.2285
 2998SOL     OW20629   0.135   1.333   2.851 -0.0948  0.2179 -0.7819
 2998SOL    HW120630   0.063   1.285   2.892 -0.3003  0.1283 -1.2518
 2998SOL    HW220631   0.130   1.295   2.763  0.0229 -0.4442 -0.5009
 2999SOL     OW20632   3.613   3.558   8.837 -0.1307  0.0534  0.0110
 2999SOL    HW120633   3.597   3.646   8.872 -1.3445 -0.2814  0.3020
 2999SOL    HW220634   3.694   3.563   8.787  0.2270  0.6619  0.6497
 3000SOL     OW20635   1.244   0.680   8.280 -0.0532 -0.1896  0.1645
 3000SOL    HW120636   1.199   0.653   8.200 -0.2357 -0.6733  0.4288
 3000SOL    HW220637   1.179   0.742   8.311  0.0943  0.0911 -0.0919
 3001SOL     OW20638   0.613   2.892   7.653 -0.1331 -0.0144  0.1854
 3001SOL    HW120639   0.589   2.974   7.609  1.4894 -0.2525 -1.1520
 3001SOL    HW220640   0.566   2.825   7.604  0.8961 -0.4938 -0.1539
 3002SOL     OW20641   1.171   2.694   2.594 -0.0634  0.3731 -0.6767
 3002SOL    HW120642   1.124   2.712   2.512 -1.5705  0.2084  0.1460
 3002SOL    HW220643   1.208   2.607   2.579  0.4682  0.2256  1.5149
 3003SOL     OW20644   2.361   2.111   6.116 -0.3758  0.0290 -0.2744
 3003SOL    HW120645   2.395   2.067   6.038 -0.1944  2.1936 -1.4296
 3003SOL    HW220646   2.309   2.038   6.149 -0.1253 -0.3068 -0.6128
 3004SOL     OW20647   1.770   0.732   8.045 -0.0830  0.0373 -0.4098
 3004SOL    HW120648   1.785   0.642   8.017  1.3826 -0.5365  2.2128
 3004SOL    HW220649   1.679   0.728   8.076  1.4080 -0.0046  3.9283
 3005SOL     OW20650   2.487   3.421  14.332 -0.1442  0.4573 -0.7441
 3005SOL    HW120651   2.539   3.342  14.314 -0.3369  0.4757 -1.4048
 3005SOL    HW220652   2.462   3.439  14.241 -1.3014  1.2773 -0.2564
 3006SOL     OW20653   0.147   4.229   5.565  0.2715  0.0124  0.0152
 3006SOL    HW120654   0.181   4.298   5.508 -0.0311 -0.0765 -0.2768
 3006SOL    HW220655   0.064   4.269   5.592  0.6383  0.5832  0.3145
 3007SOL     OW20656   3.055   0.281  12.092  0.2675  0.0861 -0.4123
 3007SOL    HW120657   2.968   0.313  12.070 -0.3836 -1.4663 -0.1209
 3007SOL    HW220658   3.050   0.187  12.071 -0.2751 -0.3077  1.4772
 3008SOL     OW20659   3.907   2.651  14.184 -0.1049 -0.4330  0.3071
 3008SOL    HW120660   3.993   2.630  14.220  0.7446  0.9931 -0.8915
 3008SOL    HW220661   3.872   2.565  14.160 -0.0070  0.3647 -2.7474
 3009SOL     OW20662   4.102   3.773   3.085  0.2153  0.7186 -0.6284
 3009SOL    HW120663   4.072   3.863   3.081  0.9589  0.9471 -1.0944
 3009SOL    HW220664   4.195   3.786   3.067  0.2511  0.6053 -0.5267
 3010SOL     OW20665   2.371   4.177  13.155  0.4830  0.0614  0.3469
 3010SOL    HW120666   2.441   4.118  13.183  0.0756 -1.1038 -1.0711
 3010SOL    HW220667   2.414   4.262  13.149 -0.3769  0.4531 -0.3683
 3011SOL     OW20668   0.837   1.882  12.317 -0.5762 -0.0497  0.4913
 3011SOL    HW120669   0.894   1.805  12.315 -0.3820  0.0744  1.2009
 3011SOL    HW220670   0.799   1.873  12.230  0.2808  0.4448  0.0625
 3012SOL     OW20671   4.569   3.051   4.258  0.5503 -0.2144 -0.1376
 3012SOL    HW120672   4.497   2.991   4.274  0.2297  0.1971 -0.0376
 3012SOL    HW220673   4.637   3.019   4.318  0.9772  0.9520  0.0083
 3013SOL     OW20674   0.223   2.888   3.675  0.1825  0.3320  0.7527
 3013SOL    HW120675   0.250   2.876   3.584  1.4338 -1.2092  1.3243
 3013SOL    HW220676   0.303   2.929   3.709  0.5861 -1.0296  1.4653
 3014SOL     OW20677   1.697   4.128   0.130  0.0859  0.1537 -0.1837
 3014SOL    HW120678   1.643   4.193   0.084 -0.2565  1.5607  2.2141
 3014SOL    HW220679   1.740   4.203   0.171 -2.5876  2.0630 -0.8768
 3015SOL     OW20680   2.458   0.908   8.788  0.2696 -0.3872 -0.3006
 3015SOL    HW120681   2.433   0.893   8.697 -1.2199  0.6369 -0.0693
 3015SOL    HW220682   2.429   0.998   8.800 -0.3540 -0.6930  0.5288
 3016SOL     OW20683   0.321   3.530   3.986 -0.0351  0.0306  0.4800
 3016SOL    HW120684   0.361   3.616   4.004  0.9788 -0.8713  2.5589
 3016SOL    HW220685   0.338   3.523   3.892 -0.9798  0.8125  0.2463
 3017SOL     OW20686   1.325   4.088   5.300  0.3237 -0.0580 -0.1561
 3017SOL    HW120687   1.242   4.066   5.256  1.0589 -0.8084 -1.1649
 3017SOL    HW220688   1.286   4.087   5.388 -2.3745 -0.1511 -1.3311
 3018SOL     OW20689   3.216   0.129  14.478  0.1436 -0.4300 -0.3878
 3018SOL    HW120690   3.176   0.151  14.394  2.9935  2.9959 -0.8382
 3018SOL    HW220691   3.148   0.163  14.536  0.5127  0.8767 -0.7049
 3019SOL     OW20692   2.641   2.711  17.735 -0.3035  0.0489  0.1392
 3019SOL    HW120693   2.716   2.694   0.050 -0.9659  0.5283  1.1485
 3019SOL    HW220694   2.692   2.714  17.654 -1.2658 -1.6484 -0.5264
 3020SOL     OW20695   2.960   3.057   9.594  0.0254  0.1652 -0.3611
 3020SOL    HW120696   2.906   3.102   9.659  0.6766 -0.2619  0.4669
 3020SOL    HW220697   3.047   3.059   9.633  0.4710 -1.2281 -1.3081
 3021SOL     OW20698   1.877   4.285   4.042 -0.4531 -1.0019 -0.0601
 3021SOL    HW120699   1.862   4.249   4.130  0.5739  1.3910  1.0987
 3021SOL    HW220700   1.955   4.236   4.016 -0.8018  0.7665 -4.4226
 3022SOL     OW20701   4.462   4.074   0.759  0.2300  0.0364  0.1577
 3022SOL    HW120702   4.461   3.983   0.789  1.5086  0.8724  2.8058
 3022SOL    HW220703   4.486   4.074   0.667  0.5828 -0.4835  0.2514
 3023SOL     OW20704   2.306   4.502   1.613 -0.0223  0.4117 -0.2821
 3023SOL    HW120705   2.391   4.538   1.588  0.8467 -0.8413  0.9282
 3023SOL    HW220706   2.258   4.585   1.618  0.2094  0.3809  2.6531
 3024SOL     OW20707   3.159   1.874   5.533  0.7032  1.2229  0.3219
 3024SOL    HW120708   3.247   1.848   5.506  0.2472 -0.7122  0.7137
 3024SOL    HW220709   3.117   1.887   5.449 -2.5384  2.6928  2.1815
 3025SOL     OW20710   1.724   0.001   9.451 -0.1257  0.7618 -0.6377
 3025SOL    HW120711   1.659   4.690   9.400  1.5570 -0.5289 -1.6216
 3025SOL    HW220712   1.712   0.094   9.434  2.3816  0.9526 -1.3597
 3026SOL     OW20713   3.048   2.503  10.018  0.5219 -0.1882 -0.2514
 3026SOL    HW120714   2.983   2.542   9.959 -0.4303  1.4624  1.8821
 3026SOL    HW220715   3.116   2.569  10.003 -0.5833  1.1484  0.6316
 3027SOL     OW20716   2.626   3.318   5.901 -0.0973  0.0635 -0.0840
 3027SOL    HW120717   2.658   3.376   5.832 -1.8246 -0.5812 -1.4202
 3027SOL    HW220718   2.667   3.234   5.878  0.8267  1.1182 -2.3380
 3028SOL     OW20719   1.560   4.327   1.476 -0.1482  0.5807  0.4018
 3028SOL    HW120720   1.573   4.273   1.554  0.2174  1.1882  0.7671
 3028SOL    HW220721   1.511   4.268   1.419  0.0607 -0.3547  1.1947
 3029SOL     OW20722   0.271   3.962   6.947 -0.4655 -0.2958 -0.6719
 3029SOL    HW120723   0.315   3.880   6.971  0.8100  0.4576 -0.4374
 3029SOL    HW220724   0.219   3.929   6.873 -2.8560 -0.9166  1.2799
 3030SOL     OW20725   2.266   1.750  16.418 -0.0388 -0.1849 -0.9599
 3030SOL    HW120726   2.221   1.689  16.476  1.9655 -1.2050 -0.4674
 3030SOL    HW220727   2.194   1.796  16.376 -0.8110 -2.3387 -2.0272
 3031SOL     OW20728   1.756   4.106   5.610  0.4367 -0.1596 -0.0495
 3031SOL    HW120729   1.795   4.138   5.529 -0.2632  1.2391  0.1787
 3031SOL    HW220730   1.826   4.078   5.669  0.5218  0.9254  0.3597
 3032SOL     OW20731   0.628   2.652   3.585 -0.3302 -0.3411 -0.1012
 3032SOL    HW120732   0.706   2.628   3.636 -0.8103 -0.2962  0.6565
 3032SOL    HW220733   0.605   2.731   3.633 -1.3868 -0.2968 -0.6908
 3033SOL     OW20734   0.174   0.087  17.117 -0.3548  0.2328  0.0860
 3033SOL    HW120735   0.225   0.029  17.174 -0.8862  0.0324  0.3568
 3033SOL    HW220736   0.161   0.171  17.161 -0.4798 -0.0276  0.5387
 3034SOL     OW20737   3.758   0.976   4.212 -0.4340 -0.2217 -0.3138
 3034SOL    HW120738   3.785   0.886   4.229 -1.1849 -0.3719  0.0977
 3034SOL    HW220739   3.827   0.997   4.149  0.9481 -0.6265  1.0703
 3035SOL     OW20740   3.997   0.550   1.581 -0.0704  0.5614 -0.1465
 3035SOL    HW120741   4.059   0.543   1.508 -0.4656 -0.5810 -0.3624
 3035SOL    HW220742   3.987   0.644   1.599  2.7008  1.0524 -1.1459
 3036SOL     OW20743   1.232   3.746   9.033  0.3928  0.1059 -0.6440
 3036SOL    HW120744   1.194   3.828   9.004  2.0404  1.2642  0.4958
 3036SOL    HW220745   1.150   3.698   9.041 -0.2297  1.3974  0.6529
 3037SOL     OW20746   1.082   0.155   5.831  0.1259  0.7042 -0.1569
 3037SOL    HW120747   1.019   0.182   5.897 -0.7075 -0.8583 -0.3242
 3037SOL    HW220748   1.137   0.234   5.835 -1.1742  1.6760 -1.6935
 3038SOL     OW20749   1.427   2.751   5.756 -0.4385  0.1522  0.0561
 3038SOL    HW120750   1.389   2.678   5.806  1.4066 -0.7145  0.2011
 3038SOL    HW220751   1.514   2.716   5.739 -1.0800 -1.1897 -0.5311
 3039SOL     OW20752   0.100   0.185   5.152 -0.2784 -0.4195 -0.2625
 3039SOL    HW120753   0.037   0.115   5.170 -0.6943 -0.7546 -3.1235
 3039SOL    HW220754   0.042   0.262   5.153  0.0841 -0.1451 -2.7750
 3040SOL     OW20755   3.380   3.505   3.798  0.5660 -0.0192 -0.0774
 3040SOL    HW120756   3.322   3.448   3.849  0.9173  0.7163  1.1398
 3040SOL    HW220757   3.401   3.574   3.862 -0.8225 -0.8103  1.2507
 3041SOL     OW20758   3.808   2.347  10.430 -0.2258 -0.5773 -0.0915
 3041SOL    HW120759   3.898   2.323  10.408 -0.4918 -1.7879  0.1421
 3041SOL    HW220760   3.819   2.442  10.437  0.3721 -0.6263 -0.3249
 3042SOL     OW20761   2.573   4.717   0.812  0.4840  0.0260 -0.0774
 3042SOL    HW120762   2.577   0.049   0.879 -1.8298 -0.3837  0.4623
 3042SOL    HW220763   2.480   4.703   0.796  0.0780  1.3949  1.1247
 3043SOL     OW20764   0.290   0.900   9.927  0.7446 -0.4124 -0.7141
 3043SOL    HW120765   0.243   0.858   9.998  0.4549  1.5538  0.2713
 3043SOL    HW220766   0.228   0.962   9.890 -0.0742 -1.2691 -0.7688
 3044SOL     OW20767   4.436   1.191   6.507  0.1375  0.5905  0.1124
 3044SOL    HW120768   4.384   1.270   6.518  0.1009  0.4220  1.1062
 3044SOL    HW220769   4.511   1.199   6.566 -0.5185 -0.6869  1.1309
 3045SOL     OW20770   4.467   0.338   8.624 -0.5166  0.2457  0.0137
 3045SOL    HW120771   4.552   0.323   8.666 -0.5237 -2.8379 -1.0580
 3045SOL    HW220772   4.463   0.433   8.618  0.4272  0.0898 -3.6901
 3046SOL     OW20773   3.950   0.463   2.333  0.2582 -0.0907 -0.6712
 3046SOL    HW120774   3.978   0.502   2.250 -2.4652  1.0387 -1.0836
 3046SOL    HW220775   3.892   0.533   2.364 -0.2540 -0.9848  0.3959
 3047SOL     OW20776   4.543   1.475   4.303  0.0171  0.1142  0.6229
 3047SOL    HW120777   4.526   1.550   4.360 -6.6551 -1.0801  0.1404
 3047SOL    HW220778   4.553   1.517   4.217  0.9450  1.4054  1.3649
 3048SOL     OW20779   1.838   1.897  17.268  0.5863  0.3492 -0.3429
 3048SOL    HW120780   1.919   1.864  17.231  0.5603 -1.0987  0.8931
 3048SOL    HW220781   1.799   1.818  17.306 -0.6454  0.1393 -2.0342
 3049SOL     OW20782   4.659   0.954   4.621 -0.8384 -0.0872  0.3851
 3049SOL    HW120783   4.639   0.980   4.531  1.4146  1.0964  0.2417
 3049SOL    HW220784   4.727   1.014   4.651 -1.6914  0.4613  1.2198
 3050SOL     OW20785   0.084   2.882   7.551  0.0992 -0.0144 -0.3415
 3050SOL    HW120786   0.172   2.915   7.536  0.0768  0.3614  0.3464
 3050SOL    HW220787   0.095   2.796   7.592  2.7680  0.2749 -0.4547
 3051SOL     OW20788   1.105   1.219   0.368 -0.7472  0.0543  0.2896
 3051SOL    HW120789   1.065   1.137   0.395 -0.6849  0.3159  1.1816
 3051SOL    HW220790   1.081   1.224   0.275 -0.2270 -0.6579  0.1136
 3052SOL     OW20791   2.692   0.604  10.759  0.0569  0.0083  0.5041
 3052SOL    HW120792   2.713   0.684  10.712 -0.6223 -0.1535 -0.0803
 3052SOL    HW220793   2.674   0.639  10.846  1.6005  1.0871  0.3862
 3053SOL     OW20794   0.168   4.359   8.959  0.2423 -0.4026 -0.1722
 3053SOL    HW120795   0.183   4.304   8.881  0.9637  0.9887 -1.0303
 3053SOL    HW220796   0.147   4.294   9.025  0.3474 -1.1825 -0.8971
 3054SOL     OW20797   1.536   0.623   4.793 -0.2790 -0.3926 -0.2924
 3054SOL    HW120798   1.496   0.668   4.719 -0.4237 -1.1432 -0.6684
 3054SOL    HW220799   1.502   0.673   4.867 -1.4005 -1.2777 -0.2104
 3055SOL     OW20800   1.186   4.559   4.657 -0.5184 -0.3066 -0.4690
 3055SOL    HW120801   1.111   4.590   4.707 -0.1323  1.9266 -1.2735
 3055SOL    HW220802   1.157   4.571   4.566  1.1670  0.8374 -0.8610
 3056SOL     OW20803   4.434   2.789   2.421  0.0755 -0.1307 -0.2862
 3056SOL    HW120804   4.383   2.710   2.401 -2.1063  0.8904  1.1690
 3056SOL    HW220805   4.518   2.744   2.430  0.3221  0.0681 -1.5953
 3057SOL     OW20806   0.015   2.167   5.659 -0.6766  0.5491 -0.2924
 3057SOL    HW120807   4.681   2.231   5.673 -0.9188  0.3425 -0.5645
 3057SOL    HW220808   0.069   2.219   5.599  0.6633 -0.7264 -0.1901
 3058SOL     OW20809   2.299   3.064   5.458  0.2780  0.5103 -0.3163
 3058SOL    HW120810   2.320   2.999   5.524  0.2403  0.5693 -0.2466
 3058SOL    HW220811   2.330   3.145   5.497 -2.5832  1.4642 -0.0047
 3059SOL     OW20812   1.615   1.216   3.620 -0.5120  0.6415 -0.5502
 3059SOL    HW120813   1.554   1.151   3.585  1.7578 -1.6736 -0.2936
 3059SOL    HW220814   1.568   1.259   3.691  0.4438  0.1171  0.4124
 3060SOL     OW20815   0.146   0.247  10.255 -0.0525 -0.7060 -0.4812
 3060SOL    HW120816   0.097   0.169  10.279 -0.2846 -0.6866 -0.9021
 3060SOL    HW220817   0.135   0.300  10.334 -0.4399 -0.0635 -0.9744
 3061SOL     OW20818   2.109   0.099  15.377  0.3478 -0.4741  0.0013
 3061SOL    HW120819   2.040   0.077  15.439  2.0978  1.3444  2.5658
 3061SOL    HW220820   2.160   0.171  15.412  0.8757 -0.4273 -0.8619
 3062SOL     OW20821   0.116   0.348   6.295  0.1043 -0.5279  0.1247
 3062SOL    HW120822   0.193   0.307   6.255 -0.3581 -1.1163 -0.1382
 3062SOL    HW220823   0.144   0.433   6.329  1.5184 -0.5178 -1.0585
 3063SOL     OW20824   1.356   1.710   1.965 -0.2044  0.4053 -0.5375
 3063SOL    HW120825   1.266   1.691   1.937  0.0929 -0.0843 -1.1434
 3063SOL    HW220826   1.353   1.805   1.957 -0.2361  0.4170 -0.3843
 3064SOL     OW20827   3.548   2.318  15.322 -0.2115 -0.0449 -0.4160
 3064SOL    HW120828   3.516   2.397  15.366 -0.0480  0.6231 -1.4979
 3064SOL    HW220829   3.503   2.245  15.364  1.1728 -0.6265  0.0803
 3065SOL     OW20830   2.060   1.793   0.185  0.7633  0.0388 -0.0577
 3065SOL    HW120831   2.131   1.730   0.175  0.4938 -0.4689  1.2053
 3065SOL    HW220832   2.100   1.878   0.172  0.7234 -0.1071 -1.1327
 3066SOL     OW20833   1.549   4.409   7.272 -0.0484  0.0789  0.3461
 3066SOL    HW120834   1.572   4.339   7.334  3.5113 -0.1116 -1.1957
 3066SOL    HW220835   1.622   4.468   7.291  0.6562  0.0286 -2.2117
 3067SOL     OW20836   0.891   1.996   1.309  0.7342  0.1286 -0.1780
 3067SOL    HW120837   0.869   2.036   1.225 -2.1929 -1.4196 -0.1379
 3067SOL    HW220838   0.804   2.007   1.346  2.1418 -0.2114  3.2345
 3068SOL     OW20839   4.227   0.462   6.636 -0.2302  0.2910  0.9505
 3068SOL    HW120840   4.296   0.400   6.659 -1.8950 -1.9024  0.1329
 3068SOL    HW220841   4.203   0.488   6.725  0.3105  1.0955  0.8642
 3069SOL     OW20842   0.725   2.100  16.889  0.1073 -0.1574 -0.3109
 3069SOL    HW120843   0.743   2.007  16.903 -1.2906 -0.5436 -1.0916
 3069SOL    HW220844   0.665   2.088  16.815 -1.1912 -1.5607  0.9664
 3070SOL     OW20845   3.449   3.668   5.464 -0.2945  0.0513  0.3682
 3070SOL    HW120846   3.372   3.612   5.475 -0.2189 -0.0580  0.3421
 3070SOL    HW220847   3.455   3.657   5.370  1.6159 -1.5784  0.6942
 3071SOL     OW20848   3.710   4.172   0.375  0.0990 -0.5957 -0.3596
 3071SOL    HW120849   3.729   4.263   0.353 -1.9991  0.1188  0.7292
 3071SOL    HW220850   3.783   4.137   0.324  2.3495  3.6594  0.0221
 3072SOL     OW20851   2.445   0.199   8.173  0.3278 -0.0078  0.0983
 3072SOL    HW120852   2.362   0.244   8.188  1.2279  1.4642  0.6737
 3072SOL    HW220853   2.478   0.194   8.263  0.2649 -0.2399  0.1074
 3073SOL     OW20854   3.332   1.653   7.246  0.3705  0.3725 -0.6221
 3073SOL    HW120855   3.349   1.727   7.305  0.0163  1.0877 -1.4086
 3073SOL    HW220856   3.369   1.697   7.169  0.3781 -1.8639 -1.8933
 3074SOL     OW20857   3.851   4.459   4.416 -0.6160  0.3115 -0.3622
 3074SOL    HW120858   3.883   4.369   4.417  0.8363  0.8428  1.6340
 3074SOL    HW220859   3.792   4.444   4.342 -1.2673 -1.2137  0.4746
 3075SOL     OW20860   1.345   4.195   5.788 -0.3130  0.6305  0.1296
 3075SOL    HW120861   1.301   4.209   5.872  1.0608  3.3509  0.3920
 3075SOL    HW220862   1.292   4.253   5.732 -0.6585  0.6175  0.4410
 3076SOL     OW20863   0.154   1.050   1.654  0.4168 -0.1606 -0.0158
 3076SOL    HW120864   0.145   1.104   1.575  0.9686 -0.0531 -0.0073
 3076SOL    HW220865   0.195   0.969   1.622  1.3273 -0.2379  1.3579
 3077SOL     OW20866   3.173   0.983   7.838 -0.3310 -0.1268  0.2592
 3077SOL    HW120867   3.127   0.997   7.921  1.0478  1.6667  0.7195
 3077SOL    HW220868   3.258   0.951   7.869 -0.0079  0.4343 -0.0389
 3078SOL     OW20869   3.394   0.567   1.711  0.1226  0.0987  0.3374
 3078SOL    HW120870   3.431   0.544   1.796  2.3058 -1.5071 -1.0239
 3078SOL    HW220871   3.413   0.660   1.719 -0.2568  0.2076 -0.0272
 3079SOL     OW20872   3.153   3.684   6.791  0.1846 -0.0286 -0.1749
 3079SOL    HW120873   3.125   3.766   6.750 -1.4464 -2.0891 -3.1961
 3079SOL    HW220874   3.090   3.686   6.863 -1.1064 -1.2149 -1.2509
 3080SOL     OW20875   3.419   2.658   8.960  0.2631  0.1641 -0.1865
 3080SOL    HW120876   3.504   2.697   8.981  0.3739 -0.2575  0.1835
 3080SOL    HW220877   3.448   2.590   8.899 -2.3949 -1.8574  0.7852
 3081SOL     OW20878   2.968   3.730   5.619  0.6083 -0.1222 -0.6571
 3081SOL    HW120879   2.954   3.640   5.590  0.2412  0.3861 -2.0625
 3081SOL    HW220880   2.989   3.785   5.544 -0.1182 -1.3327 -1.7511
 3082SOL     OW20881   3.112   4.054  14.984 -0.0078 -0.0636 -0.3725
 3082SOL    HW120882   3.173   4.127  15.001  0.7040 -0.2002 -2.3897
 3082SOL    HW220883   3.175   3.989  14.955  2.2169  1.1352  1.7179
 3083SOL     OW20884   1.416   3.093  16.960 -0.2152 -0.0285 -0.3138
 3083SOL    HW120885   1.422   3.183  16.927  1.4325  0.2134  0.5934
 3083SOL    HW220886   1.468   3.107  17.040 -0.0174  1.9537 -0.7718
 3084SOL     OW20887   2.571   0.044   5.832  0.7179 -0.3723 -0.3039
 3084SOL    HW120888   2.619   0.110   5.782  0.2177 -0.0592 -0.3795
 3084SOL    HW220889   2.622   4.707   5.797  2.0291  0.7973 -0.8105
 3085SOL     OW20890   2.968   0.154  17.136 -0.0486  0.3207 -0.4331
 3085SOL    HW120891   3.002   0.243  17.139 -1.5802  0.8200  2.7966
 3085SOL    HW220892   2.928   0.154  17.049  1.2392  2.0363 -1.0108
 3086SOL     OW20893   1.854   4.211   1.988  0.5589  0.1561 -0.9629
 3086SOL    HW120894   1.904   4.174   2.060  0.4436  0.4819 -0.7182
 3086SOL    HW220895   1.802   4.276   2.035  2.2865  1.4417 -0.8368
 3087SOL     OW20896   0.418   3.093   4.536 -0.2240  0.2789  0.3654
 3087SOL    HW120897   0.334   3.134   4.554 -0.3903 -0.1539  0.5796
 3087SOL    HW220898   0.442   3.116   4.446 -0.3258  3.1618  1.0897
 3088SOL     OW20899   2.050   3.359   4.246  0.3320  0.3667  0.3458
 3088SOL    HW120900   2.127   3.329   4.295 -0.3333 -1.9537 -0.0367
 3088SOL    HW220901   1.982   3.299   4.278  0.0276  0.9309  0.7475
 3089SOL     OW20902   4.292   3.277   9.043 -0.1312 -0.3559  0.7980
 3089SOL    HW120903   4.219   3.267   8.983 -0.2273  0.0980  0.8378
 3089SOL    HW220904   4.364   3.294   8.982 -0.2235 -0.2243  0.7272
 3090SOL     OW20905   3.952   1.219   5.416  0.5355  0.4684 -0.4801
 3090SOL    HW120906   3.933   1.280   5.487 -3.9946  0.8717 -2.0450
 3090SOL    HW220907   3.963   1.136   5.463 -3.0331  0.2856  0.0389
 3091SOL     OW20908   1.157   2.523   6.043  0.3111 -0.5917  0.0207
 3091SOL    HW120909   1.154   2.481   6.129  0.7829 -1.8135 -0.5768
 3091SOL    HW220910   1.155   2.614   6.072  2.3031 -0.1775 -1.1336
 3092SOL     OW20911   0.136   3.968   7.828  0.4687 -0.2089 -0.5427
 3092SOL    HW120912   0.222   3.979   7.868  0.2409 -0.4010 -0.0068
 3092SOL    HW220913   0.128   4.062   7.811 -0.3830 -0.4483 -1.5366
 3093SOL     OW20914   3.331   1.107   7.652  0.7127  0.1857 -0.3623
 3093SOL    HW120915   3.331   1.014   7.628  0.3081  0.0232  0.2516
 3093SOL    HW220916   3.313   1.106   7.746  1.5737  1.0050 -0.1897
 3094SOL     OW20917   4.596   1.077   2.244  0.1849  0.2381 -0.2243
 3094SOL    HW120918   4.593   0.982   2.235 -0.7094  0.2363  0.1670
 3094SOL    HW220919   4.685   1.089   2.210  0.9480  1.4208  2.1616
 3095SOL     OW20920   4.161   3.331   8.310  0.0588  0.3354 -0.2171
 3095SOL    HW120921   4.220   3.406   8.302  1.4014 -0.8247 -1.3821
 3095SOL    HW220922   4.072   3.364   8.319 -0.8783 -2.2080 -0.1080
 3096SOL     OW20923   4.427   3.982   3.477  0.3799 -0.1988 -0.0760
 3096SOL    HW120924   4.434   3.891   3.447  1.1633  0.0871 -0.7657
 3096SOL    HW220925   4.425   4.024   3.391 -0.3234  1.1081  0.5862
 3097SOL     OW20926   0.028   2.685  12.840 -0.0029 -0.0245 -0.3320
 3097SOL    HW120927   4.727   2.600  12.866  2.2308 -0.7668  0.3797
 3097SOL    HW220928   4.693   2.748  12.852 -0.8535 -1.1125  0.4571
 3098SOL     OW20929   1.575   2.758   7.360  0.1331 -0.1175 -0.9461
 3098SOL    HW120930   1.547   2.721   7.444 -2.1454  0.0642 -1.6274
 3098SOL    HW220931   1.503   2.811   7.326 -0.2233 -0.4264 -0.6790
 3099SOL     OW20932   0.351   3.546   8.327 -0.3279 -0.4882 -0.0441
 3099SOL    HW120933   0.433   3.532   8.280 -0.7894  1.2697 -1.3678
 3099SOL    HW220934   0.320   3.455   8.330  0.4645 -0.7163  1.7598
 3100SOL     OW20935   0.154   1.289   8.502  0.5052 -0.4768 -0.0230
 3100SOL    HW120936   0.148   1.196   8.479 -0.5208 -0.4969  0.3276
 3100SOL    HW220937   0.136   1.280   8.595  0.8274  0.0633  0.0897
 3101SOL     OW20938   3.331   4.059   6.214 -0.5489 -0.0536  0.0986
 3101SOL    HW120939   3.382   4.140   6.217  0.2542 -0.4469 -2.2362
 3101SOL    HW220940   3.377   3.999   6.272 -0.0338 -0.5344 -0.7993
 3102SOL     OW20941   3.818   2.772   6.375 -0.1176  0.2556 -0.6586
 3102SOL    HW120942   3.877   2.832   6.422 -0.9284  0.5456 -0.0115
 3102SOL    HW220943   3.875   2.713   6.325 -1.1976 -1.6700  0.3867
 3103SOL     OW20944   1.185   3.176   6.592 -0.1892 -0.1303 -0.8984
 3103SOL    HW120945   1.157   3.100   6.641 -0.3312 -0.4340 -1.4488
 3103SOL    HW220946   1.121   3.238   6.627  0.4680  0.3308 -0.5106
 3104SOL     OW20947   1.531   3.913   4.964  0.0402 -0.0341  0.4722
 3104SOL    HW120948   1.445   3.877   4.988 -0.1707  0.2914  0.1976
 3104SOL    HW220949   1.595   3.889   5.031 -1.3315 -0.3053  1.6980
 3105SOL     OW20950   2.021   1.485   7.933 -0.7802  0.3687  0.2137
 3105SOL    HW120951   1.962   1.485   7.857  0.2050  0.7315 -0.5498
 3105SOL    HW220952   1.980   1.424   7.995  0.3476 -0.9392 -0.3352
 3106SOL     OW20953   2.699   2.636  11.707  0.0133  0.4070 -0.1867
 3106SOL    HW120954   2.672   2.548  11.683 -0.4185  1.0946 -2.1949
 3106SOL    HW220955   2.621   2.692  11.701  0.4652  1.0299 -0.2834
 3107SOL     OW20956   1.756   0.217   1.705  0.5136 -0.3321 -0.0281
 3107SOL    HW120957   1.848   0.229   1.685  0.5454 -0.8599 -0.1905
 3107SOL    HW220958   1.728   0.163   1.631 -1.0116 -0.4566  0.6379
 3108SOL     OW20959   0.526   0.836   2.453  0.2452 -0.2700 -0.0696
 3108SOL    HW120960   0.494   0.912   2.405 -0.2561  0.3471  1.2305
 3108SOL    HW220961   0.559   0.784   2.380 -0.0356  2.9170 -2.4419
 3109SOL     OW20962   4.285   2.545   2.342  0.1698  0.7613 -0.0078
 3109SOL    HW120963   4.289   2.595   2.260  0.3345 -1.0246 -1.0935
 3109SOL    HW220964   4.197   2.574   2.369  0.0445  1.2497 -0.9311
 3110SOL     OW20965   3.993   4.070   7.570 -0.3774  0.2514  0.2341
 3110SOL    HW120966   4.040   4.078   7.487 -1.3259 -0.5377 -0.3803
 3110SOL    HW220967   4.038   4.137   7.621  0.4542  1.5259 -2.1485
 3111SOL     OW20968   4.127   1.189  14.932  0.0192 -0.2765  0.0019
 3111SOL    HW120969   4.044   1.169  14.975 -0.2616 -0.8134 -0.7872
 3111SOL    HW220970   4.111   1.277  14.898 -1.4704 -0.1634  1.0189
 3112SOL     OW20971   2.996   2.492   0.006 -0.7725  0.2501  0.4031
 3112SOL    HW120972   2.936   2.423  17.718  0.9674 -1.1726  0.1359
 3112SOL    HW220973   3.078   2.443   0.001  0.0953  1.7651 -0.0419
 3113SOL     OW20974   1.676   3.870  17.016 -0.3622  0.3295  0.1321
 3113SOL    HW120975   1.636   3.900  16.934 -2.0702  0.6271  1.0574
 3113SOL    HW220976   1.765   3.839  17.001 -1.1886 -2.3259  0.7205
 3114SOL     OW20977   3.162   0.497   6.281 -0.0070  0.7273  0.9202
 3114SOL    HW120978   3.155   0.488   6.376 -1.4842  0.7356  0.8032
 3114SOL    HW220979   3.099   0.437   6.241  0.4615  0.2582  0.8764
 3115SOL     OW20980   0.485   0.382  17.443  0.8350 -1.1040 -0.0149
 3115SOL    HW120981   0.422   0.441  17.402  1.2996 -1.0481 -0.6458
 3115SOL    HW220982   0.550   0.448  17.469  0.5381 -0.3771 -1.1288
 3116SOL     OW20983   4.005   0.822   5.901 -0.1061  0.4959  0.1722
 3116SOL    HW120984   4.013   0.762   5.975 -0.2680 -0.5152 -0.6266
 3116SOL    HW220985   4.051   0.895   5.941 -0.5165  0.0830  1.3844
 3117SOL     OW20986   2.739   2.477   6.846  0.1728  0.4269 -0.4059
 3117SOL    HW120987   2.656   2.488   6.799 -1.5293 -0.8194  2.2668
 3117SOL    HW220988   2.781   2.554   6.807  0.2567 -1.3318 -3.7610
 3118SOL     OW20989   3.548   0.869  15.893 -0.0959 -0.8372  0.1379
 3118SOL    HW120990   3.513   0.881  15.805  1.2061 -2.1088 -0.5628
 3118SOL    HW220991   3.636   0.837  15.874  0.8674  1.4407  0.7794
 3119SOL     OW20992   2.113   1.403   5.518 -0.1309  0.1343  0.3215
 3119SOL    HW120993   2.070   1.393   5.433  0.0854  0.3049  0.1904
 3119SOL    HW220994   2.133   1.497   5.517  2.5546 -0.4421  0.5428
 3120SOL     OW20995   4.437   4.111  12.567  0.0689  0.5346 -0.9331
 3120SOL    HW120996   4.447   4.135  12.475 -0.6886 -1.2242 -1.4828
 3120SOL    HW220997   4.449   4.188  12.623 -1.4487 -0.7981  1.2404
 3121SOL     OW20998   4.172   1.074   6.446 -0.4076  0.0095 -0.2772
 3121SOL    HW120999   4.187   0.985   6.477  0.7604  1.0723  2.1794
 3121SOL    HW221000   4.249   1.126   6.470 -0.4331 -0.1873  0.2161
 3122SOL     OW21001   0.954   0.617   2.960 -0.3616 -0.4295  0.5910
 3122SOL    HW121002   0.987   0.585   3.044  0.4291  1.4516  1.0051
 3122SOL    HW221003   0.895   0.680   2.999 -0.6110 -0.7942  0.7990
 3123SOL     OW21004   2.906   0.964  15.627  0.0015 -0.0536  0.3285
 3123SOL    HW121005   2.995   0.928  15.631 -0.1102 -0.2424  1.2006
 3123SOL    HW221006   2.859   0.903  15.683 -2.3773  0.7838 -0.7781
 3124SOL     OW21007   3.299   2.196   8.021 -0.3939  0.3052 -0.1787
 3124SOL    HW121008   3.205   2.206   8.004 -0.1360  3.2103  0.1097
 3124SOL    HW221009   3.308   2.248   8.101  1.4447  0.1477 -0.2863
 3125SOL     OW21010   0.326   0.585   3.436 -0.3538 -0.2195 -0.4303
 3125SOL    HW121011   0.336   0.538   3.519  1.1336  2.0517  0.6582
 3125SOL    HW221012   0.356   0.518   3.375  1.3546  0.9444 -0.8528
 3126SOL     OW21013   0.149   2.482   7.453 -0.4117 -0.3834 -0.4342
 3126SOL    HW121014   0.225   2.478   7.511  0.4352  1.0514 -1.4264
 3126SOL    HW221015   0.107   2.560   7.491 -1.0186 -0.6713 -0.5189
 3127SOL     OW21016   3.145   1.564   3.331  0.2265 -0.5153  0.6415
 3127SOL    HW121017   3.218   1.600   3.382 -0.4303  1.7679 -0.0021
 3127SOL    HW221018   3.196   1.495   3.288 -1.3561 -2.5852  2.1340
 3128SOL     OW21019   1.424   4.070   4.649 -0.1098 -0.0434  0.4851
 3128SOL    HW121020   1.379   3.985   4.642 -1.4728  0.6901  0.2092
 3128SOL    HW221021   1.360   4.131   4.612 -0.6223 -0.2026  1.1141
 3129SOL     OW21022   3.215   4.342   4.405  0.7989  0.0525 -0.3741
 3129SOL    HW121023   3.262   4.368   4.326  0.5350 -0.1993 -0.6127
 3129SOL    HW221024   3.156   4.278   4.366  0.0075  0.3280  0.3750
 3130SOL     OW21025   1.898   2.064   0.293  0.2125  0.5716 -0.0122
 3130SOL    HW121026   1.920   2.116   0.216 -1.3006  0.9606 -0.1748
 3130SOL    HW221027   1.806   2.052   0.267 -0.1812  0.5201  1.4376
 3131SOL     OW21028   4.510   3.108   4.979 -0.5907 -0.3788 -0.1398
 3131SOL    HW121029   4.501   3.193   5.022 -2.0806 -0.8877  0.5461
 3131SOL    HW221030   4.595   3.114   4.934 -0.9369  1.0619 -0.6332
 3132SOL     OW21031   1.647   1.113   4.053 -0.5490  0.4716 -0.3077
 3132SOL    HW121032   1.565   1.156   4.077 -1.0089 -0.8818  0.5221
 3132SOL    HW221033   1.685   1.081   4.135 -1.0710 -1.0497 -0.6672
 3133SOL     OW21034   1.599   3.355   3.024 -0.4710 -0.0332 -0.1014
 3133SOL    HW121035   1.613   3.319   3.112  0.5651  1.2074  0.2470
 3133SOL    HW221036   1.525   3.301   2.995 -1.9508  1.7478  0.3522
 3134SOL     OW21037   3.506   0.867   4.246  0.1807 -0.2485  0.0089
 3134SOL    HW121038   3.526   0.812   4.170 -0.1007  1.2828 -1.1688
 3134SOL    HW221039   3.571   0.934   4.225  1.2259 -0.8981  1.1783
 3135SOL     OW21040   4.662   2.101   4.297  0.2292 -0.0208 -0.1437
 3135SOL    HW121041   4.641   2.190   4.268 -2.1505 -1.4285 -2.6185
 3135SOL    HW221042   4.689   2.125   4.386  0.6728 -0.4212 -0.1699
 3136SOL     OW21043   0.206   1.437  15.271  0.1868  0.3842  0.1295
 3136SOL    HW121044   0.298   1.409  15.269 -0.2200 -1.0324  1.2765
 3136SOL    HW221045   0.158   1.423  15.189  1.0802 -1.1680 -0.1211
 3137SOL     OW21046   2.052   3.241  15.312 -0.4632  0.0393  0.1780
 3137SOL    HW121047   2.001   3.174  15.358  0.6189 -0.4075  0.7292
 3137SOL    HW221048   2.046   3.315  15.372  1.9337  1.4439 -1.3405
 3138SOL     OW21049   2.841   0.825   8.284  0.1227 -0.3172 -0.2910
 3138SOL    HW121050   2.765   0.769   8.269  0.6253 -1.0224 -0.1987
 3138SOL    HW221051   2.860   0.838   8.377  0.3823  2.1005 -0.6879
 3139SOL     OW21052   2.776   4.377   9.521 -0.1627  0.5766 -0.0774
 3139SOL    HW121053   2.799   4.338   9.606  1.8474  0.7273 -0.5379
 3139SOL    HW221054   2.718   4.316   9.477 -1.4829  1.9249 -0.2160
 3140SOL     OW21055   4.643   0.296  16.791  0.1573 -0.2516 -0.0044
 3140SOL    HW121056   4.608   0.221  16.743  1.4158 -0.3268 -0.8205
 3140SOL    HW221057   4.733   0.298  16.760 -0.1014 -2.4294 -0.9234
 3141SOL     OW21058   1.796   2.556   5.328 -0.8276  0.1927 -0.2368
 3141SOL    HW121059   1.874   2.531   5.378 -0.2062 -0.6238 -1.6056
 3141SOL    HW221060   1.739   2.479   5.331  2.2156 -2.0994 -0.0811
 3142SOL     OW21061   1.714   0.685   5.158  0.4042  0.1333  0.1234
 3142SOL    HW121062   1.730   0.703   5.250  1.0354  0.6860 -0.0972
 3142SOL    HW221063   1.780   0.620   5.134  0.3254  0.7122 -1.7087
 3143SOL     OW21064   3.736   4.158   3.491 -0.4843  0.0050 -0.1907
 3143SOL    HW121065   3.704   4.068   3.497 -1.5771  0.5478  2.2206
 3143SOL    HW221066   3.819   4.146   3.444 -0.4284 -0.3167 -0.0117
 3144SOL     OW21067   1.909   1.587  12.939 -0.1244 -0.0709 -0.9683
 3144SOL    HW121068   1.993   1.596  12.984 -1.1568 -1.4799  1.2693
 3144SOL    HW221069   1.867   1.673  12.937  1.5000  0.7718  1.6138
 3145SOL     OW21070   1.013   0.231   2.157  0.2816 -0.6322 -0.0842
 3145SOL    HW121071   1.090   0.244   2.101 -0.6782 -1.4068 -1.5646
 3145SOL    HW221072   1.038   0.157   2.212 -0.4372 -0.9644 -0.2153
 3146SOL     OW21073   1.654   4.565   2.602 -0.1001 -0.0965  0.5790
 3146SOL    HW121074   1.672   4.524   2.686 -0.0499  0.8925  1.0435
 3146SOL    HW221075   1.731   4.547   2.548  0.2224 -0.8934  1.3163
 3147SOL     OW21076   0.274   2.216  12.749  0.1133  0.2930 -0.1108
 3147SOL    HW121077   0.337   2.147  12.728 -0.2343 -0.3517  0.9931
 3147SOL    HW221078   0.284   2.266  12.668  0.4342  0.5850  0.1125
 3148SOL     OW21079   1.713   3.072  17.663  0.7125 -0.7289  0.2336
 3148SOL    HW121080   1.710   3.167  17.651  0.1185 -0.5826  1.5640
 3148SOL    HW221081   1.668   3.040  17.585  0.3473  2.8770 -0.9982
 3149SOL     OW21082   2.088   1.785   8.247 -0.3345 -0.0397  0.2260
 3149SOL    HW121083   2.000   1.783   8.209  0.0249 -0.5425 -0.5704
 3149SOL    HW221084   2.129   1.713   8.200  2.4259  1.3823  0.4958
 3150SOL     OW21085   0.509   1.003   0.634 -0.0588  0.4802  0.1719
 3150SOL    HW121086   0.465   1.008   0.719  2.6099 -0.6859  1.6419
 3150SOL    HW221087   0.573   1.072   0.649  0.4446  0.0406  0.0267
 3151SOL     OW21088   0.565   4.386   6.161 -0.6312  0.7922  0.4714
 3151SOL    HW121089   0.553   4.466   6.109 -0.4917  1.7718  1.9449
 3151SOL    HW221090   0.604   4.427   6.238  2.7685 -0.8098 -0.3959
 3152SOL     OW21091   1.717   1.697   1.992 -0.0673 -0.5378 -0.1056
 3152SOL    HW121092   1.730   1.606   2.016 -0.2993 -0.9277 -1.4624
 3152SOL    HW221093   1.687   1.731   2.076  0.9950 -0.8507  0.3876
 3153SOL     OW21094   0.695   0.270  14.154  0.0631  0.1727 -0.0522
 3153SOL    HW121095   0.640   0.348  14.153  0.2468  0.3446  4.2167
 3153SOL    HW221096   0.724   0.277  14.063 -1.8545  1.9952 -0.5262
 3154SOL     OW21097   1.909   2.328   0.389  0.5426  0.1577 -0.2999
 3154SOL    HW121098   1.914   2.232   0.389  0.5905  0.1601 -0.2759
 3154SOL    HW221099   1.845   2.344   0.320 -1.2580 -2.8209  0.6590
 3155SOL     OW21100   1.263   1.326   3.230  0.6646  0.3209  0.0032
 3155SOL    HW121101   1.189   1.322   3.171  2.0862 -0.9839 -1.7007
 3155SOL    HW221102   1.338   1.319   3.171  1.7119  0.9002  1.2572
 3156SOL     OW21103   4.733   0.009   6.736  0.3064  0.0961 -0.6320
 3156SOL    HW121104   4.699   4.733   6.647 -0.4396  1.5374 -0.5393
 3156SOL    HW221105   4.663   4.706   6.787 -0.3558  0.2116 -1.4501
 3157SOL     OW21106   3.887   1.071  11.011  0.3327  0.3340 -0.2180
 3157SOL    HW121107   3.802   1.029  10.995  0.0123  1.4182 -1.3675
 3157SOL    HW221108   3.867   1.163  11.032 -3.4449 -0.6078  0.3478
 3158SOL     OW21109   1.436   2.910   2.482  0.2065  0.3498 -0.4214
 3158SOL    HW121110   1.400   2.979   2.538  3.1225  1.4123  0.1942
 3158SOL    HW221111   1.528   2.903   2.508 -0.5752 -3.3829  1.3308
 3159SOL     OW21112   2.771   3.143   3.212  0.0730 -0.6044 -0.2582
 3159SOL    HW121113   2.733   3.159   3.125  0.6543 -0.0580 -0.4186
 3159SOL    HW221114   2.862   3.121   3.191 -0.2694 -0.0987 -2.3584
 3160SOL     OW21115   1.069   0.891   5.915 -0.0141 -0.0866 -0.1993
 3160SOL    HW121116   1.052   0.890   6.009  0.9474  2.6890  0.0058
 3160SOL    HW221117   1.120   0.971   5.905  2.5467 -1.8967 -1.9102
 3161SOL     OW21118   2.148   3.059   2.169 -0.0156  0.1017  0.2824
 3161SOL    HW121119   2.121   3.139   2.213  1.6173  2.1401 -2.3615
 3161SOL    HW221120   2.102   3.074   2.086  0.7697 -0.4985 -0.2654
 3162SOL     OW21121   0.051   0.860   1.301  0.4335 -0.1385 -0.1914
 3162SOL    HW121122   0.108   0.839   1.375 -3.4883 -0.5018  2.6841
 3162SOL    HW221123   0.079   0.952   1.300  0.4551 -0.1586 -1.1590
 3163SOL     OW21124   2.811   2.142  14.198 -0.2603 -0.2490 -0.3502
 3163SOL    HW121125   2.835   2.084  14.125 -1.5288  0.8748 -1.6467
 3163SOL    HW221126   2.734   2.184  14.161  0.4753  0.2854 -1.2958
 3164SOL     OW21127   1.700   1.471  14.075  0.0019 -0.0188 -0.0827
 3164SOL    HW121128   1.628   1.505  14.021 -2.2495 -1.5794  1.9352
 3164SOL    HW221129   1.740   1.405  14.018  0.6615 -2.4878  3.2647
 3165SOL     OW21130   3.479   1.025  12.777 -0.0985 -0.3451 -0.5097
 3165SOL    HW121131   3.491   0.973  12.698 -3.0381  0.6496 -1.6350
 3165SOL    HW221132   3.385   1.011  12.788 -0.1049 -0.4880 -0.7578
 3166SOL     OW21133   1.743   0.083  15.250 -0.5699 -0.5808 -0.1827
 3166SOL    HW121134   1.690   0.157  15.224  0.4992  0.5038  0.6795
 3166SOL    HW221135   1.697   0.055  15.329 -3.9616  1.5413 -1.4518
 3167SOL     OW21136   2.164   2.461   7.625  0.6738  0.1182  0.0892
 3167SOL    HW121137   2.203   2.407   7.693 -2.3291 -2.2220 -0.0644
 3167SOL    HW221138   2.144   2.400   7.554  0.6539  1.9016 -1.4412
 3168SOL     OW21139   3.846   2.848   2.122  0.6071  0.1663 -0.1194
 3168SOL    HW121140   3.898   2.836   2.042  1.6729  3.3681  0.0928
 3168SOL    HW221141   3.812   2.938   2.119 -1.9026 -0.7145  2.7634
 3169SOL     OW21142   0.267   2.967   9.168 -0.0795 -0.1511 -0.1746
 3169SOL    HW121143   0.341   2.907   9.181 -1.0243 -1.6073 -1.4818
 3169SOL    HW221144   0.275   3.020   9.247  3.7028  2.3918 -2.2668
 3170SOL     OW21145   1.610   0.381   4.021 -0.0663 -0.3489  0.0683
 3170SOL    HW121146   1.643   0.450   4.079  0.7889 -0.5935 -0.1339
 3170SOL    HW221147   1.592   0.427   3.939  1.3477  0.7953  0.4101
 3171SOL     OW21148   2.658   3.090   4.622  0.1367 -0.3929  0.2845
 3171SOL    HW121149   2.629   3.063   4.535  0.3750  0.6888 -0.1269
 3171SOL    HW221150   2.571   3.104   4.661  0.4942  3.4950 -0.3166
 3172SOL     OW21151   3.999   4.706   4.369 -0.1257  0.3724 -0.1996
 3172SOL    HW121152   4.053   4.667   4.301  0.4448  2.1561 -0.7734
 3172SOL    HW221153   3.939   4.634   4.389  2.3534 -1.8815 -0.9231
 3173SOL     OW21154   3.069   3.670   8.026 -0.1417  0.2826 -0.3685
 3173SOL    HW121155   3.135   3.605   8.005 -0.5464 -0.4434  0.6123
 3173SOL    HW221156   3.068   3.672   8.122  0.1910 -1.3152 -0.3232
 3174SOL     OW21157   3.156   1.319   2.261 -0.2103  0.2418  0.1738
 3174SOL    HW121158   3.174   1.225   2.251  1.1959  0.4282  1.0247
 3174SOL    HW221159   3.094   1.347   2.194  1.1116  2.7127  0.0130
 3175SOL     OW21160   0.216   1.698   2.748 -0.1378 -0.0629 -0.0274
 3175SOL    HW121161   0.176   1.619   2.712 -0.1378 -0.8974  1.8048
 3175SOL    HW221162   0.159   1.766   2.714 -1.1437 -1.0072 -0.2181
 3176SOL     OW21163   3.231   2.764  17.187  0.3851  0.2315  0.3306
 3176SOL    HW121164   3.294   2.809  17.244 -0.2415 -0.7950  1.8288
 3176SOL    HW221165   3.276   2.684  17.160  0.4698  0.3910 -0.0033
 3177SOL     OW21166   2.130   3.317   8.815  0.1718 -0.4778  0.2010
 3177SOL    HW121167   2.088   3.243   8.771  1.0757 -1.9173  1.7293
 3177SOL    HW221168   2.168   3.355   8.737 -1.8336  0.1050 -0.4981
 3178SOL     OW21169   2.638   0.970   4.751 -0.0831 -0.7769  0.7304
 3178SOL    HW121170   2.595   1.012   4.826  0.3117 -0.5751  0.8443
 3178SOL    HW221171   2.713   1.027   4.731  1.0082 -1.8556  1.7453
 3179SOL     OW21172   2.045   3.896   9.078  0.3274  0.1679  0.3360
 3179SOL    HW121173   2.047   3.985   9.041  1.2308 -0.7061 -1.7315
 3179SOL    HW221174   2.077   3.905   9.167 -1.0450 -0.7400  0.9214
 3180SOL     OW21175   3.965   1.978   8.365  0.0827 -0.4570 -0.5490
 3180SOL    HW121176   4.032   1.982   8.434 -1.5311  0.5997  0.9617
 3180SOL    HW221177   3.970   2.060   8.316  0.6897 -0.6242 -0.7747
 3181SOL     OW21178   2.872   2.817  11.416 -0.1346 -0.1370 -0.7625
 3181SOL    HW121179   2.879   2.912  11.419  1.7387 -0.3779  2.2225
 3181SOL    HW221180   2.908   2.797  11.502 -0.8160  2.6126  0.1485
 3182SOL     OW21181   0.627   1.287  13.168 -0.4644  0.0037 -0.0868
 3182SOL    HW121182   0.716   1.312  13.195 -0.0505  1.2134 -2.5994
 3182SOL    HW221183   0.642   1.244  13.084  3.9094 -0.5275  0.9676
 3183SOL     OW21184   4.248   3.107  13.685 -0.2094 -0.2398  0.5405
 3183SOL    HW121185   4.204   3.150  13.758 -2.4620  0.1316 -1.0280
 3183SOL    HW221186   4.213   3.018  13.687  1.4692 -0.9319 -0.7972
 3184SOL     OW21187   4.530   1.300  17.207 -0.3453 -0.5544  0.5476
 3184SOL    HW121188   4.606   1.353  17.184 -1.0320  0.7791  1.3280
 3184SOL    HW221189   4.505   1.328  17.295 -0.8800 -0.1208  0.2608
 3185SOL     OW21190   1.426   1.745   8.129 -0.1618 -0.2214  0.4918
 3185SOL    HW121191   1.434   1.650   8.117  0.3251 -0.0727 -0.3489
 3185SOL    HW221192   1.332   1.762   8.130 -0.4489 -1.7334 -0.1397
 3186SOL     OW21193   4.317   1.963   2.885 -0.1118  0.0661 -0.2456
 3186SOL    HW121194   4.238   2.018   2.882 -1.1443 -1.2659  1.7101
 3186SOL    HW221195   4.369   2.007   2.818 -1.0962  0.2483 -0.8957
 3187SOL     OW21196   0.998   2.969   2.050 -0.5605 -0.3181 -0.0575
 3187SOL    HW121197   1.008   3.043   2.110 -0.0832 -0.9830  0.6821
 3187SOL    HW221198   0.910   2.988   2.018 -0.6809 -0.3830  0.2330
 3188SOL     OW21199   0.576   4.308   2.096 -0.6526 -0.1237 -0.1927
 3188SOL    HW121200   0.508   4.256   2.053  1.0484 -0.3188 -2.6153
 3188SOL    HW221201   0.522   4.348   2.164 -1.2078  1.5451 -1.5934
 3189SOL     OW21202   1.532   0.236   0.323 -0.2923 -1.0086  0.2711
 3189SOL    HW121203   1.574   0.271   0.401  0.1537 -0.6779 -0.1184
 3189SOL    HW221204   1.457   0.192   0.364 -1.1840 -1.4093 -1.7682
 3190SOL     OW21205   1.634   3.789   3.176  0.1032 -0.6176  0.2133
 3190SOL    HW121206   1.653   3.726   3.106  0.7807  0.1214 -0.2731
 3190SOL    HW221207   1.720   3.815   3.211  0.5447 -1.1155 -0.5083
 3191SOL     OW21208   3.045   4.655   7.657  0.3372 -0.4603 -0.3417
 3191SOL    HW121209   2.961   4.652   7.611  0.7916 -0.0542 -1.2002
 3191SOL    HW221210   3.035   4.587   7.724  1.2296  1.8722  2.1498
 3192SOL     OW21211   2.301   4.281   7.187  0.6062 -0.1247  0.2276
 3192SOL    HW121212   2.371   4.334   7.149 -0.4555  0.8024 -0.4274
 3192SOL    HW221213   2.297   4.307   7.279  0.5911 -1.1061  0.5115
 3193SOL     OW21214   2.256   2.151   4.825  0.6138 -0.0947  0.0236
 3193SOL    HW121215   2.334   2.122   4.873 -0.3056  0.2913  1.7654
 3193SOL    HW221216   2.257   2.244   4.846 -2.3612 -0.4046  1.5255
 3194SOL     OW21217   1.876   1.787   8.578 -0.3132  0.0412  0.2324
 3194SOL    HW121218   1.941   1.760   8.643  0.3106  0.9178 -0.0244
 3194SOL    HW221219   1.935   1.846   8.530 -0.4622  0.2951  0.3641
 3195SOL     OW21220   2.169   3.680   9.012 -0.3109  0.3104  0.1621
 3195SOL    HW121221   2.104   3.745   9.038  0.2664  1.3927 -1.0661
 3195SOL    HW221222   2.211   3.714   8.933  0.1802  0.5704  0.5380
 3196SOL     OW21223   3.629   2.403  15.063  0.5860 -0.1207  0.1569
 3196SOL    HW121224   3.586   2.488  15.074 -0.7151 -0.4079 -2.5634
 3196SOL    HW221225   3.620   2.363  15.149 -2.3796  0.9503  0.3549
 3197SOL     OW21226   0.720   0.130   6.183  0.3148  0.2930  0.8306
 3197SOL    HW121227   0.673   0.059   6.141 -0.6497  1.7349 -0.5065
 3197SOL    HW221228   0.747   0.093   6.267  0.5057  0.0270  0.6518
 3198SOL     OW21229   0.770   3.237   7.853  0.4936  0.1565 -0.2870
 3198SOL    HW121230   0.719   3.304   7.807 -0.5638 -1.1917 -1.0555
 3198SOL    HW221231   0.795   3.179   7.780 -1.5166 -2.6183  1.2399
 3199SOL     OW21232   4.312   0.525  15.811  0.2866 -0.4004  0.5340
 3199SOL    HW121233   4.280   0.527  15.721  0.1812 -0.6808  0.5663
 3199SOL    HW221234   4.250   0.574  15.865 -1.9102 -0.8751 -1.5873
 3200SOL     OW21235   2.065   4.278   7.682 -0.3113 -0.3110  0.2966
 3200SOL    HW121236   2.009   4.231   7.620  1.9000 -0.7829 -1.3460
 3200SOL    HW221237   2.132   4.323   7.630 -1.1878 -0.1859 -0.7442
 3201SOL     OW21238   1.278   4.152  12.529 -0.2040 -0.0737 -0.1462
 3201SOL    HW121239   1.244   4.202  12.456  0.8680  1.8101  0.6203
 3201SOL    HW221240   1.330   4.086  12.484 -2.4330 -1.2844 -0.9361
 3202SOL     OW21241   0.178   0.457   6.892 -0.5343 -0.1352 -0.5806
 3202SOL    HW121242   0.272   0.452   6.878 -0.4315  0.4374 -0.1283
 3202SOL    HW221243   0.171   0.553   6.892  3.1132  0.1385  1.6334
 3203SOL     OW21244   2.301   0.220   6.364 -0.3593  0.2528 -0.0142
 3203SOL    HW121245   2.252   0.195   6.285 -2.4309  1.3294  0.9518
 3203SOL    HW221246   2.261   0.171   6.435 -1.1406 -2.4365 -2.3163
 3204SOL     OW21247   2.097   1.704   8.746 -0.4049 -0.1035 -0.8499
 3204SOL    HW121248   2.095   1.659   8.831 -0.4406 -0.9901 -1.3230
 3204SOL    HW221249   2.161   1.771   8.770  0.4690 -1.0680 -0.5207
 3205SOL     OW21250   3.402   1.262   3.504 -0.0240  0.1408  0.3497
 3205SOL    HW121251   3.312   1.292   3.522  0.2194 -1.0176  3.4161
 3205SOL    HW221252   3.444   1.342   3.536  1.6703 -0.4940 -0.3100
 3206SOL     OW21253   2.886   2.198   4.915  0.6118 -0.0920  0.4622
 3206SOL    HW121254   2.973   2.159   4.909  0.3530 -0.5487 -0.2823
 3206SOL    HW221255   2.923   2.270   4.967 -0.3243  1.3466 -0.8468
 3207SOL     OW21256   3.847   2.160   9.594 -0.0734 -0.4045 -0.1066
 3207SOL    HW121257   3.885   2.132   9.511 -1.1147  0.8453 -1.0071
 3207SOL    HW221258   3.908   2.229   9.621 -0.7521 -0.1666  0.8318
 3208SOL     OW21259   0.195   4.424   3.849  0.0187 -0.0784 -0.4553
 3208SOL    HW121260   0.214   4.334   3.821 -1.0950 -0.3490 -0.3551
 3208SOL    HW221261   0.284   4.457   3.854  1.1248 -3.2733  1.1376
 3209SOL     OW21262   2.191   4.298   4.916  0.4212  0.0352  0.2833
 3209SOL    HW121263   2.187   4.203   4.917  2.1156 -0.0506 -3.2358
 3209SOL    HW221264   2.102   4.322   4.944 -0.8352 -3.2399 -0.9807
 3210SOL     OW21265   0.020   3.187   0.298  0.2312 -0.1823  0.1820
 3210SOL    HW121266   4.667   3.168   0.268  0.9900  1.1716 -2.9053
 3210SOL    HW221267   0.017   3.149   0.385 -1.1381  0.9401  0.6195
 3211SOL     OW21268   3.161   2.794   8.582  0.1842 -0.3499  0.0254
 3211SOL    HW121269   3.101   2.865   8.606  0.1836 -0.5711  0.6776
 3211SOL    HW221270   3.242   2.845   8.584  0.2869 -0.4506 -1.6816
 3212SOL     OW21271   1.228   4.301   4.580  0.8346  0.2427  0.7555
 3212SOL    HW121272   1.223   4.383   4.629 -2.9982  0.9145 -0.7870
 3212SOL    HW221273   1.146   4.293   4.532  1.2199  0.1570  0.1079
 3213SOL     OW21274   2.405   0.886   2.130 -0.2306  0.0848  0.1041
 3213SOL    HW121275   2.475   0.843   2.080 -0.2681 -0.0050  0.1289
 3213SOL    HW221276   2.344   0.817   2.154 -0.6753  0.7221  0.7863
 3214SOL     OW21277   2.122   4.116   4.004 -0.2371 -0.2190  0.1420
 3214SOL    HW121278   2.200   4.060   4.007  0.5668  0.8407 -1.1515
 3214SOL    HW221279   2.077   4.079   4.080 -0.7671  0.1337 -0.0047
 3215SOL     OW21280   0.982   1.505  11.698  0.4787 -0.0752  0.2389
 3215SOL    HW121281   1.025   1.420  11.698  0.3599 -0.1342  1.0951
 3215SOL    HW221282   0.910   1.491  11.636 -1.3459 -0.1909  2.3856
 3216SOL     OW21283   0.599   0.638  17.540  0.3498 -0.4001 -0.9233
 3216SOL    HW121284   0.660   0.712  17.533 -1.0542  0.7542 -0.8483
 3216SOL    HW221285   0.666   0.571  17.555  1.0217  0.6138  0.7567
 3217SOL     OW21286   3.709   3.078   3.624  0.1280 -1.0268 -0.1887
 3217SOL    HW121287   3.737   3.044   3.710  0.2426 -0.7125 -0.1009
 3217SOL    HW221288   3.768   3.153   3.615  0.5704 -1.3744 -0.1880
 3218SOL     OW21289   3.982   3.438   1.859  0.2900  0.0893 -0.2085
 3218SOL    HW121290   3.938   3.503   1.804  0.0444 -0.1626 -0.3068
 3218SOL    HW221291   3.920   3.366   1.849  0.9893 -0.1798 -2.6779
 3219SOL     OW21292   3.214   2.364   8.815 -0.5079  0.1358  0.3264
 3219SOL    HW121293   3.245   2.299   8.751  0.0948  0.9107 -0.1750
 3219SOL    HW221294   3.290   2.421   8.823 -0.8878  0.5294  1.1077
 3220SOL     OW21295   1.501   3.521   3.761  0.1375  0.0535 -0.7599
 3220SOL    HW121296   1.594   3.502   3.748  0.0769 -1.4731  1.0218
 3220SOL    HW221297   1.496   3.615   3.743  0.0169 -0.2203 -2.2076
 3221SOL     OW21298   2.727   1.535  12.732  0.0860 -0.2761 -0.0128
 3221SOL    HW121299   2.767   1.622  12.735  2.6212 -1.4272 -0.8426
 3221SOL    HW221300   2.696   1.545  12.642 -0.8530  0.6344  0.4238
 3222SOL     OW21301   1.552   3.603   8.275  0.3235  0.3780 -0.1740
 3222SOL    HW121302   1.590   3.529   8.323 -0.6788 -0.8849 -1.3020
 3222SOL    HW221303   1.547   3.672   8.341 -1.9269 -0.7245  0.8382
 3223SOL     OW21304   1.516   3.632  10.112 -0.0151 -0.0729  0.5089
 3223SOL    HW121305   1.536   3.635  10.018  0.6360 -0.4644  0.6272
 3223SOL    HW221306   1.433   3.586  10.103 -1.6139  2.9173  0.2178
 3224SOL     OW21307   4.111   4.138   2.434  0.0081  0.2020 -0.3865
 3224SOL    HW121308   4.150   4.224   2.451 -1.3031  1.0884 -1.8617
 3224SOL    HW221309   4.166   4.073   2.479  0.8810  0.7264 -0.7088
 3225SOL     OW21310   1.911   0.114   4.380 -0.4087 -0.1492 -0.5184
 3225SOL    HW121311   1.985   0.174   4.375 -0.7144  0.2363 -0.4353
 3225SOL    HW221312   1.943   0.047   4.320  1.9983  0.7489 -0.2274
 3226SOL     OW21313   3.504   2.077  15.739 -0.1235  0.3217  0.5414
 3226SOL    HW121314   3.561   2.006  15.769  0.7293  0.1505 -1.5368
 3226SOL    HW221315   3.556   2.157  15.744 -0.9657  1.0734 -2.7328
 3227SOL     OW21316   0.119   3.503   9.900 -0.1553 -0.0696  0.3467
 3227SOL    HW121317   0.099   3.578   9.844  1.2368 -1.2937 -1.8250
 3227SOL    HW221318   0.106   3.431   9.838  1.5421 -1.2684  1.3892
 3228SOL     OW21319   2.185   2.009   7.387  0.0695  0.3367  0.2000
 3228SOL    HW121320   2.224   1.982   7.304 -0.4515 -0.5272  0.2429
 3228SOL    HW221321   2.252   1.985   7.450 -0.6367 -1.4891  0.2452
 3229SOL     OW21322   1.243   2.850   6.513 -0.5496 -0.2298  0.3999
 3229SOL    HW121323   1.249   2.934   6.467  2.0166  0.1429  1.4453
 3229SOL    HW221324   1.251   2.777   6.452  0.0223 -0.3421  0.6051
 3230SOL     OW21325   4.223   0.309   8.018 -0.4160  0.0787 -0.4968
 3230SOL    HW121326   4.191   0.279   7.933  0.0477 -0.2856 -0.5446
 3230SOL    HW221327   4.270   0.238   8.062 -4.1238 -2.8502 -1.2940
 3231SOL     OW21328   4.058   4.591   2.884  0.4998  0.2552  0.0407
 3231SOL    HW121329   4.070   4.498   2.903 -1.9980 -0.2979 -1.0983
 3231SOL    HW221330   3.964   4.604   2.897  0.7178 -0.8778  2.5668
 3232SOL     OW21331   2.529   1.588  15.225  0.1443  0.0804  0.3015
 3232SOL    HW121332   2.588   1.555  15.157 -2.2181  0.2128 -1.7982
 3232SOL    HW221333   2.535   1.521  15.294  2.7635 -0.5610 -0.5439
 3233SOL     OW21334   4.116   4.120   6.561 -0.0465 -0.8787 -0.0431
 3233SOL    HW121335   4.145   4.209   6.539 -2.3879 -0.1461 -0.1638
 3233SOL    HW221336   4.124   4.076   6.477 -1.6664 -1.4823  0.1119
 3234SOL     OW21337   0.726   4.094  11.083 -0.1982 -0.2246  0.4488
 3234SOL    HW121338   0.701   4.144  11.160  1.9466 -1.6727  2.0737
 3234SOL    HW221339   0.777   4.025  11.126  0.1538  0.9802  1.9256
 3235SOL     OW21340   1.947   2.587   9.507 -0.0863 -0.6975  0.1149
 3235SOL    HW121341   2.021   2.535   9.537  1.4019  2.5601  2.1904
 3235SOL    HW221342   1.940   2.656   9.573  1.5623  0.4170 -0.8753
 3236SOL     OW21343   3.019   3.202   4.909 -0.4754  0.0032 -0.1451
 3236SOL    HW121344   2.967   3.234   4.983  0.2217  0.5176  0.1185
 3236SOL    HW221345   2.961   3.211   4.834  1.0592  2.3900 -1.0486
 3237SOL     OW21346   3.058   1.666  13.761 -0.2606 -0.5199 -0.2017
 3237SOL    HW121347   3.127   1.726  13.731  0.4367 -1.4139 -0.3932
 3237SOL    HW221348   3.072   1.689  13.853 -1.5985  0.5158 -0.2575
 3238SOL     OW21349   2.653   0.306   5.217  0.0049  0.4720 -0.3553
 3238SOL    HW121350   2.572   0.256   5.223  0.4510 -0.4178 -1.7422
 3238SOL    HW221351   2.702   0.230   5.185 -0.6431 -0.5382  1.0306
 3239SOL     OW21352   2.322   1.594   5.732 -0.0483  0.2255  0.1317
 3239SOL    HW121353   2.412   1.609   5.704 -0.6455  2.1087 -0.8225
 3239SOL    HW221354   2.277   1.618   5.651 -1.5405 -1.2414  0.5299
 3240SOL     OW21355   0.316   1.327   2.105 -0.3035  0.2963  0.2777
 3240SOL    HW121356   0.227   1.336   2.141 -0.2690 -0.0019  0.4367
 3240SOL    HW221357   0.299   1.337   2.012 -1.5059 -0.5481  0.3996
 3241SOL     OW21358   3.394   3.118  11.140 -0.2683  0.0486  0.2475
 3241SOL    HW121359   3.462   3.051  11.139 -1.8280 -1.5189  0.0308
 3241SOL    HW221360   3.321   3.074  11.097  0.0872 -0.4012  0.0999
 3242SOL     OW21361   1.565   0.860   7.699 -0.1343 -0.3372 -0.4933
 3242SOL    HW121362   1.659   0.872   7.713 -0.5564  2.9878 -0.3983
 3242SOL    HW221363   1.562   0.882   7.606  0.3781  0.8437 -0.2347
 3243SOL     OW21364   0.209   2.880   5.041 -0.0172  0.0040  0.0549
 3243SOL    HW121365   0.123   2.923   5.040  0.7567  1.5361 -0.7148
 3243SOL    HW221366   0.205   2.843   4.953 -1.8001  0.6498 -0.1518
 3244SOL     OW21367   1.811   4.428   2.798 -0.0075 -0.2030  0.5420
 3244SOL    HW121368   1.785   4.509   2.842  0.6191  0.5921 -0.5678
 3244SOL    HW221369   1.903   4.442   2.776 -0.4214  0.9191 -0.4592
 3245SOL     OW21370   2.447   1.032   2.483 -0.0919 -0.1225 -0.3744
 3245SOL    HW121371   2.429   1.064   2.571  0.6876  2.8347 -1.3003
 3245SOL    HW221372   2.434   1.111   2.432  1.9589  0.7469  0.4858
 3246SOL     OW21373   3.975   1.769  12.163 -0.1676  0.6178  0.0590
 3246SOL    HW121374   3.942   1.693  12.211 -0.7019  1.1190  0.4731
 3246SOL    HW221375   3.893   1.810  12.137 -0.9705 -1.0356 -0.0582
 3247SOL     OW21376   3.832   0.314  16.008 -0.3025 -0.7055  0.4069
 3247SOL    HW121377   3.844   0.221  15.989 -0.1410 -0.3175 -1.3799
 3247SOL    HW221378   3.906   0.325  16.068  0.5976 -0.8850 -0.6715
 3248SOL     OW21379   3.011   0.753  14.814  0.3245 -0.2944 -0.1019
 3248SOL    HW121380   2.926   0.789  14.838 -0.5832 -2.7669  0.3127
 3248SOL    HW221381   3.029   0.707  14.896  0.6758  0.7200  0.3886
 3249SOL     OW21382   2.577   4.490  11.977  0.0534 -0.1826  0.0288
 3249SOL    HW121383   2.506   4.456  12.032  0.9099 -2.8460 -0.5018
 3249SOL    HW221384   2.518   4.540  11.921 -0.4162  0.6292  1.2428
 3250SOL     OW21385   1.001   1.168   5.793  0.3973 -0.6596  0.4559
 3250SOL    HW121386   0.947   1.139   5.866  0.9081  0.0048  1.0965
 3250SOL    HW221387   1.089   1.160   5.831  0.3524 -2.2753  0.2118
 3251SOL     OW21388   3.923   4.046  17.281  0.1289  0.1266 -0.0730
 3251SOL    HW121389   3.845   4.099  17.262 -0.3631 -0.7037 -0.3362
 3251SOL    HW221390   3.965   4.104  17.345 -1.9052  0.3202  1.1002
 3252SOL     OW21391   1.857   2.419   1.779  0.1409 -0.2031 -0.3995
 3252SOL    HW121392   1.808   2.385   1.854 -0.5394 -0.1439 -0.8166
 3252SOL    HW221393   1.912   2.483   1.825 -2.7210  0.4632  2.0839
 3253SOL     OW21394   2.924   4.648  12.522  0.2402  0.2322 -0.6191
 3253SOL    HW121395   2.914   4.558  12.489 -2.3419  0.6041 -0.8160
 3253SOL    HW221396   2.922   4.632  12.616 -2.1791  0.1751 -0.6770
 3254SOL     OW21397   4.164   1.391  16.547  0.0493  0.2239  0.4033
 3254SOL    HW121398   4.245   1.346  16.573  0.9684  1.4988 -0.2418
 3254SOL    HW221399   4.166   1.397  16.452 -0.4270 -1.8610  0.2686
 3255SOL     OW21400   0.827   3.641   5.644 -0.3942 -0.2929  0.1298
 3255SOL    HW121401   0.842   3.670   5.554 -0.4017 -0.4222  0.0876
 3255SOL    HW221402   0.764   3.573   5.622 -0.4110 -0.6380  1.2395
 3256SOL     OW21403   1.435   2.112   5.043  0.4026  0.3054  0.1043
 3256SOL    HW121404   1.470   2.198   5.067 -0.7567  0.3011  1.8357
 3256SOL    HW221405   1.360   2.140   4.991  1.1217 -1.5220 -1.9013
 3257SOL     OW21406   1.214   0.409   4.480  0.0923  0.4079 -0.3415
 3257SOL    HW121407   1.250   0.423   4.567  2.2541  1.7144 -1.4491
 3257SOL    HW221408   1.280   0.345   4.453  0.5570 -0.3224  2.5028
 3258SOL     OW21409   2.140   1.046   7.078 -0.6086  0.0781  0.1289
 3258SOL    HW121410   2.130   1.009   6.990 -0.8475 -1.8140  0.9522
 3258SOL    HW221411   2.159   1.135   7.050 -0.3862 -0.2080 -0.6460
 3259SOL     OW21412   4.137   0.470   3.025 -0.2227 -0.3453 -0.3411
 3259SOL    HW121413   4.082   0.493   2.950  0.7341  0.4200 -0.7981
 3259SOL    HW221414   4.161   0.556   3.061  0.7579 -1.2886  1.2539
 3260SOL     OW21415   2.219   2.763  15.104  0.2976  0.7504 -0.2098
 3260SOL    HW121416   2.260   2.742  15.188 -0.6816  1.0967  0.3500
 3260SOL    HW221417   2.126   2.766  15.129 -0.0512 -2.8660 -1.1834
 3261SOL     OW21418   3.680   1.329   7.010 -0.1395 -0.2645 -0.0409
 3261SOL    HW121419   3.629   1.352   6.932 -1.0243  0.0314  0.6199
 3261SOL    HW221420   3.617   1.356   7.077  0.5982  1.1395  0.0932
 3262SOL     OW21421   0.288   0.451   0.388  0.1607 -0.0778  0.6152
 3262SOL    HW121422   0.368   0.492   0.357  1.1467 -1.9826  0.5958
 3262SOL    HW221423   0.295   0.463   0.483  1.9485 -0.9211  0.5847
 3263SOL     OW21424   3.742   1.824  14.127 -0.6936 -0.2008  0.7045
 3263SOL    HW121425   3.729   1.807  14.033  2.3311 -0.8806  0.3867
 3263SOL    HW221426   3.818   1.773  14.155  0.4302  0.6062 -0.8750
 3264SOL     OW21427   3.288   0.585   4.741  0.1410 -0.0294 -0.5753
 3264SOL    HW121428   3.369   0.614   4.783 -0.0239 -1.8142  0.9651
 3264SOL    HW221429   3.296   0.490   4.732 -2.8150 -0.3723  0.5266
 3265SOL     OW21430   4.061   4.306   2.955  1.4599  0.1971  0.3604
 3265SOL    HW121431   4.113   4.264   2.886  0.1283 -1.1963  0.1865
 3265SOL    HW221432   4.130   4.307   3.021  0.0963 -0.3107  1.7852
 3266SOL     OW21433   0.951   4.297  16.964  0.7048 -0.3396  0.5564
 3266SOL    HW121434   0.913   4.331  16.883 -0.1395  0.7541  1.4127
 3266SOL    HW221435   0.953   4.376  17.017  0.4952 -0.1174  0.2355
 3267SOL     OW21436   3.272   4.044   9.584  0.3084 -0.1398  0.7189
 3267SOL    HW121437   3.309   4.106   9.647  0.8851  1.1085 -0.8348
 3267SOL    HW221438   3.182   4.050   9.616  0.7867  0.8309  1.8996
 3268SOL     OW21439   0.626   0.246  10.948  0.0102 -0.1173 -0.4891
 3268SOL    HW121440   0.537   0.246  10.912  0.0942  0.0870 -0.6939
 3268SOL    HW221441   0.662   0.167  10.907  1.1087  0.5936 -0.8800
 3269SOL     OW21442   3.209   0.441   6.935 -0.0586  0.3327 -0.3673
 3269SOL    HW121443   3.227   0.431   7.029 -0.5750 -2.2181 -0.5357
 3269SOL    HW221444   3.163   0.526   6.937 -1.3059 -0.4032  2.6604
 3270SOL     OW21445   3.886   3.282   3.551 -0.0005  0.1713  0.6437
 3270SOL    HW121446   3.949   3.328   3.496  0.5475 -1.0579  0.2346
 3270SOL    HW221447   3.830   3.354   3.581  0.4732  0.3831  1.0180
 3271SOL     OW21448   3.104   0.092   4.904  0.3990  0.1591 -0.8902
 3271SOL    HW121449   3.049   0.015   4.887 -0.2724  0.5337 -0.4047
 3271SOL    HW221450   3.059   0.129   4.980 -0.9301  3.0434 -3.0886
 3272SOL     OW21451   3.709   2.660   7.184 -0.6405  0.1542  0.0516
 3272SOL    HW121452   3.714   2.565   7.181  0.3216  0.2649 -1.9938
 3272SOL    HW221453   3.617   2.672   7.209 -1.0764  0.9810 -1.9107
 3273SOL     OW21454   1.670   3.853   6.158  0.1805 -0.6913 -0.3699
 3273SOL    HW121455   1.656   3.861   6.252 -1.9626  1.7888 -0.8946
 3273SOL    HW221456   1.702   3.941   6.138 -2.8865  0.8551  1.6159
 3274SOL     OW21457   3.466   4.039   6.700  0.2072 -0.3230 -0.3077
 3274SOL    HW121458   3.418   4.071   6.777  1.5461 -0.0947  0.4192
 3274SOL    HW221459   3.439   4.109   6.640  0.3473  0.7695  0.9102
 3275SOL     OW21460   0.614   4.541   9.189 -0.5382  0.7066 -0.2277
 3275SOL    HW121461   0.647   4.616   9.139  0.4731 -1.0373 -2.2301
 3275SOL    HW221462   0.547   4.522   9.123 -1.4576 -0.9197  1.1812
 3276SOL     OW21463   3.290   3.381   6.375 -0.0806 -0.1668  0.1468
 3276SOL    HW121464   3.207   3.376   6.327  0.6126 -2.2840 -0.8336
 3276SOL    HW221465   3.292   3.466   6.419  2.1841 -0.4552  0.5829
 3277SOL     OW21466   2.943   2.766  11.680 -0.2701  0.0943  0.0326
 3277SOL    HW121467   2.869   2.706  11.673  0.0638 -0.2001 -0.9273
 3277SOL    HW221468   2.988   2.749  11.764 -0.2858  0.3868  0.0997
 3278SOL     OW21469   1.737   3.563   7.157  0.3161 -0.4256 -0.2911
 3278SOL    HW121470   1.758   3.635   7.096 -0.6203  0.9318  0.9868
 3278SOL    HW221471   1.735   3.486   7.100 -2.3796 -0.5885  0.0039
 3279SOL     OW21472   1.560   0.364  11.675  0.1798  0.2068 -0.0642
 3279SOL    HW121473   1.507   0.284  11.668  0.2580  0.2854 -1.6955
 3279SOL    HW221474   1.650   0.342  11.654 -0.3806 -0.8851 -1.3748
 3280SOL     OW21475   1.648   2.729   8.547 -0.0857 -0.0822 -0.1740
 3280SOL    HW121476   1.689   2.813   8.528 -1.2992  0.8123  1.1601
 3280SOL    HW221477   1.712   2.667   8.511 -0.1565  0.4746 -1.2684
 3281SOL     OW21478   2.432   0.207   9.605 -0.2489 -0.0651  0.4551
 3281SOL    HW121479   2.403   0.298   9.612 -0.3005 -0.0882  0.5338
 3281SOL    HW221480   2.380   0.165   9.673 -0.6933 -0.1710  0.0460
 3282SOL     OW21481   4.208   0.719   2.761 -0.3414  0.5996 -0.6039
 3282SOL    HW121482   4.114   0.706   2.768 -0.1043  0.2525  1.8917
 3282SOL    HW221483   4.211   0.753   2.672  2.2346 -1.8139 -1.4085
 3283SOL     OW21484   1.906   3.936  15.580  0.3397  0.3131  0.6650
 3283SOL    HW121485   1.955   3.857  15.603  2.1381  1.1564 -0.2589
 3283SOL    HW221486   1.820   3.899  15.596  0.4027  0.4339  1.2678
 3284SOL     OW21487   3.440   1.467  16.888 -0.5335  0.1882 -0.5099
 3284SOL    HW121488   3.371   1.532  16.898 -0.5178  0.1165  0.0550
 3284SOL    HW221489   3.382   1.391  16.879  0.4547 -0.6107 -0.1980
 3285SOL     OW21490   2.497   3.031   4.351 -0.2856  0.0287 -0.5178
 3285SOL    HW121491   2.460   3.079   4.277 -2.5131  0.1919  0.6878
 3285SOL    HW221492   2.422   2.990   4.396  0.1129  0.0177  0.1301
 3286SOL     OW21493   4.429   0.900  16.094 -0.3079  0.3890 -0.0333
 3286SOL    HW121494   4.484   0.905  16.016  1.0961  1.1029  0.9949
 3286SOL    HW221495   4.491   0.939  16.157  0.0985  0.4811 -0.4900
 3287SOL     OW21496   2.111   2.325   5.173 -0.5457  0.3212 -0.4954
 3287SOL    HW121497   2.145   2.308   5.261  0.5681  1.0560 -0.7716
 3287SOL    HW221498   2.051   2.255   5.149 -0.5042  0.0773  0.1256
 3288SOL     OW21499   0.577   4.547   8.262 -0.1666 -0.0170  0.0189
 3288SOL    HW121500   0.639   4.584   8.326  1.4734 -2.8218  0.0726
 3288SOL    HW221501   0.501   4.606   8.263 -1.1985 -1.3642  0.8464
 3289SOL     OW21502   4.234   3.678   4.788  0.3612  0.3339 -0.4455
 3289SOL    HW121503   4.187   3.604   4.826 -0.7074  1.2701  0.0566
 3289SOL    HW221504   4.300   3.633   4.735 -0.3592 -0.6670 -0.4954
 3290SOL     OW21505   3.230   4.562  11.699 -0.0256 -0.1574 -0.3983
 3290SOL    HW121506   3.175   4.516  11.635  1.9824 -1.1427 -1.4302
 3290SOL    HW221507   3.199   4.649  11.674  1.6444  0.8356  0.9796
 3291SOL     OW21508   3.538   1.043   3.410  1.0695 -0.0021  0.1068
 3291SOL    HW121509   3.588   1.104   3.357  0.4677  0.3046 -0.1142
 3291SOL    HW221510   3.492   1.115   3.455  1.3659 -0.0810  0.5357
 3292SOL     OW21511   2.150   0.276   4.377 -0.1202 -0.1397 -0.0367
 3292SOL    HW121512   2.194   0.354   4.412  0.2162  0.2710 -1.3932
 3292SOL    HW221513   2.225   0.217   4.373  0.0437 -0.0174  1.0087
 3293SOL     OW21514   3.572   0.408  13.386 -0.2149  0.1590  0.0944
 3293SOL    HW121515   3.649   0.456  13.416  0.0145 -0.2998  0.2417
 3293SOL    HW221516   3.501   0.471  13.398 -2.1524 -1.9643 -0.2651
 3294SOL     OW21517   1.791   0.727  14.747  0.1954 -0.8380  0.4475
 3294SOL    HW121518   1.757   0.809  14.782 -1.1378 -1.1578 -0.0920
 3294SOL    HW221519   1.813   0.751  14.657 -0.0896 -0.0919  0.5809
 3295SOL     OW21520   4.488   0.124   7.856  0.0416 -0.7057  0.4056
 3295SOL    HW121521   4.400   0.107   7.822 -0.4448  1.8386  0.3610
 3295SOL    HW221522   4.466   0.139   7.948  2.9577  1.1563  0.7955
 3296SOL     OW21523   2.996   0.352   6.513  0.3817  0.1554  0.3512
 3296SOL    HW121524   3.081   0.375   6.551 -0.4810  0.7106  1.9505
 3296SOL    HW221525   2.935   0.409   6.561 -0.8124 -0.0280 -0.9668
 3297SOL     OW21526   1.819   1.395   2.826  0.5116 -0.0515 -0.7628
 3297SOL    HW121527   1.829   1.416   2.919  0.3116 -0.9212 -0.5475
 3297SOL    HW221528   1.908   1.415   2.795 -0.5110  3.9165 -1.1555
 3298SOL     OW21529   2.948   4.580  12.798 -0.6457 -0.1484 -0.1562
 3298SOL    HW121530   3.021   4.521  12.817  1.1277  1.6959 -1.2591
 3298SOL    HW221531   2.880   4.514  12.783  1.0647 -2.0527  0.6408
 3299SOL     OW21532   1.074   1.478  17.121 -0.1935  0.0345  0.2333
 3299SOL    HW121533   1.163   1.453  17.144 -1.1511 -0.8396  3.0841
 3299SOL    HW221534   1.036   1.451  17.205  0.0887  0.0860  0.3788
 3300SOL     OW21535   1.760   1.708   5.740  0.5822  0.6127  0.4987
 3300SOL    HW121536   1.739   1.628   5.692 -1.1466  1.3967 -0.0743
 3300SOL    HW221537   1.850   1.734   5.722  1.0335  0.1818  2.1016
 3301SOL     OW21538   3.435   1.439   4.796 -0.1174  0.3313 -0.1691
 3301SOL    HW121539   3.483   1.388   4.861 -3.3173  0.3521  2.2377
 3301SOL    HW221540   3.348   1.399   4.807 -1.4496  2.8766 -1.4041
 3302SOL     OW21541   2.861   2.626   7.461 -0.3840  0.6943  0.0318
 3302SOL    HW121542   2.842   2.561   7.528 -4.6634  1.8481 -0.0652
 3302SOL    HW221543   2.795   2.692   7.483 -0.7720 -1.0536  4.0708
 3303SOL     OW21544   2.799   2.913  16.827 -0.0427  0.0279  0.2541
 3303SOL    HW121545   2.743   2.872  16.761  1.0980 -0.9192 -0.1311
 3303SOL    HW221546   2.883   2.906  16.781  0.1835  3.6158  0.1607
 3304SOL     OW21547   2.733   2.351  12.608 -0.6259 -0.4531  1.0484
 3304SOL    HW121548   2.696   2.290  12.545 -1.5734  0.5928  0.5946
 3304SOL    HW221549   2.649   2.388  12.636 -0.7385  1.6873 -2.1973
 3305SOL     OW21550   3.539   1.929  11.036  0.1377  0.4876  0.1971
 3305SOL    HW121551   3.445   1.935  11.018 -0.5553 -0.4191  3.5656
 3305SOL    HW221552   3.568   1.983  10.962 -2.9831 -0.3098 -1.5954
 3306SOL     OW21553   2.462   4.222  10.585 -0.4795  0.6593 -0.5776
 3306SOL    HW121554   2.435   4.176  10.665  0.4640 -0.3618 -0.8402
 3306SOL    HW221555   2.462   4.147  10.526 -1.8753  1.3833 -1.4810
 3307SOL     OW21556   3.026   2.412   6.496 -0.0120 -0.1503 -0.3662
 3307SOL    HW121557   3.042   2.473   6.568 -0.3124 -1.1616  0.5724
 3307SOL    HW221558   2.987   2.346   6.554 -1.6601  0.3756 -0.9006
 3308SOL     OW21559   3.422   1.833  16.136  0.1111 -0.0917 -0.1110
 3308SOL    HW121560   3.492   1.850  16.073 -0.0287 -0.7203 -0.4342
 3308SOL    HW221561   3.463   1.778  16.202  2.0504 -0.3894 -1.5843
 3309SOL     OW21562   0.071   4.119   5.840 -0.3688  0.0868  0.2788
 3309SOL    HW121563   0.159   4.092   5.864 -1.0357 -1.9065  0.5001
 3309SOL    HW221564   0.085   4.127   5.746  0.0102 -0.4402  0.2908
 3310SOL     OW21565   0.114   2.423   5.281  0.0442  0.0482  0.1098
 3310SOL    HW121566   0.159   2.371   5.215  3.6575  1.5580  1.4131
 3310SOL    HW221567   0.162   2.506   5.282  2.4678 -1.3784  1.2988
 3311SOL     OW21568   1.065   0.435   0.174 -0.0124 -0.0631 -0.1796
 3311SOL    HW121569   1.160   0.428   0.177 -0.0237 -0.8529 -1.8284
 3311SOL    HW221570   1.064   0.484   0.091 -0.4014 -0.7851 -0.6011
 3312SOL     OW21571   2.930   2.281   7.286  0.2687 -0.1217  0.0625
 3312SOL    HW121572   2.849   2.271   7.336 -1.0545  0.3334 -1.9723
 3312SOL    HW221573   2.992   2.275   7.359  2.1807  0.4791 -1.5027
 3313SOL     OW21574   1.206   2.702   1.878  0.1477  0.3156 -0.0671
 3313SOL    HW121575   1.236   2.792   1.891  1.2437  0.0858 -0.9282
 3313SOL    HW221576   1.293   2.662   1.874 -0.2354 -0.4422 -0.8609
 3314SOL     OW21577   4.029   0.353   0.827 -0.2166 -0.1420  0.5884
 3314SOL    HW121578   3.945   0.338   0.871 -0.3240  3.5751  1.6967
 3314SOL    HW221579   4.079   0.296   0.884  0.5938  0.4238  0.4512
 3315SOL     OW21580   0.601   3.487   8.240  0.6205 -0.0172  0.1437
 3315SOL    HW121581   0.644   3.403   8.254  0.6056 -0.5662 -3.1746
 3315SOL    HW221582   0.637   3.514   8.156 -0.4515 -0.6665 -0.5201
 3316SOL     OW21583   2.718   1.940   4.069  0.5985 -0.3209 -0.2268
 3316SOL    HW121584   2.680   2.020   4.033 -0.3628 -1.0271 -0.7710
 3316SOL    HW221585   2.740   1.893   3.988  2.2202  0.1563 -0.0674
 3317SOL     OW21586   4.723   1.536  15.406  0.0011  0.3529  0.5621
 3317SOL    HW121587   4.696   1.615  15.361  0.7206  0.1976 -0.1508
 3317SOL    HW221588   0.080   1.521  15.387  0.3300  0.8475  1.7642
 3318SOL     OW21589   2.555   3.958   4.936 -0.5085  0.0280  1.1698
 3318SOL    HW121590   2.605   4.020   4.884 -1.1750  0.2503  0.7913
 3318SOL    HW221591   2.470   4.001   4.948 -0.4272  0.8891 -1.4651
 3319SOL     OW21592   3.538   3.775   1.830  0.2761  0.1289 -0.4410
 3319SOL    HW121593   3.597   3.823   1.888  0.2163 -1.9453  1.3491
 3319SOL    HW221594   3.553   3.811   1.743  1.0297  0.1502 -0.3027
 3320SOL     OW21595   1.379   3.263   2.713 -0.3784  0.4708  0.1204
 3320SOL    HW121596   1.329   3.344   2.724 -3.3467 -1.2784 -0.6593
 3320SOL    HW221597   1.395   3.268   2.619 -0.0320 -2.0333  0.0648
 3321SOL     OW21598   3.153   3.215   2.065 -0.5530 -0.1615 -0.1668
 3321SOL    HW121599   3.092   3.190   1.996  1.0377  0.8290 -1.9284
 3321SOL    HW221600   3.206   3.276   2.014 -0.5516 -0.6689 -0.7682
 3322SOL     OW21601   3.045   4.428  11.450 -0.1611  0.2595  0.0905
 3322SOL    HW121602   2.998   4.356  11.408  0.6519  0.6243 -1.4315
 3322SOL    HW221603   2.990   4.500  11.420  0.0545  1.3830  2.4244
 3323SOL     OW21604   1.300   0.815   2.730 -0.3623  0.1729 -0.0574
 3323SOL    HW121605   1.358   0.855   2.665  0.1080 -2.1809 -1.0968
 3323SOL    HW221606   1.238   0.887   2.743  0.6629  0.8331  1.1492
 3324SOL     OW21607   1.491   3.769   6.834 -0.4296 -0.6358  0.9242
 3324SOL    HW121608   1.399   3.744   6.843 -0.6249 -0.4565 -0.6019
 3324SOL    HW221609   1.511   3.764   6.741  2.9595  1.9905  1.5255
 3325SOL     OW21610   2.884   2.101  16.386  0.2003  0.2832 -0.3603
 3325SOL    HW121611   2.830   2.135  16.457  0.2261 -1.2396  0.3672
 3325SOL    HW221612   2.975   2.108  16.414 -0.1926  0.2435  0.8829
 3326SOL     OW21613   3.203   2.252   7.236  0.1033  0.0532 -0.0550
 3326SOL    HW121614   3.110   2.240   7.255 -0.0303 -0.7029 -1.1831
 3326SOL    HW221615   3.218   2.328   7.293 -0.8954  1.0168 -1.0760
 3327SOL     OW21616   3.954   2.013   7.188 -0.0600  0.1085 -0.1206
 3327SOL    HW121617   3.890   1.962   7.237  1.6694 -1.4596  0.5052
 3327SOL    HW221618   3.912   2.099   7.185 -0.6172 -0.1033  1.5774
 3328SOL     OW21619   1.253   0.677  13.337 -0.3284  0.1693 -0.4764
 3328SOL    HW121620   1.322   0.740  13.359  0.9507 -1.4487  0.1275
 3328SOL    HW221621   1.308   0.602  13.316 -0.3488  1.3663 -4.7650
 3329SOL     OW21622   1.867   1.421   7.700 -0.1124  0.2563 -0.2129
 3329SOL    HW121623   1.905   1.475   7.630  0.7221 -0.7112 -0.5028
 3329SOL    HW221624   1.897   1.332   7.683  2.5069  0.9406  0.8100
 3330SOL     OW21625   3.781   3.211   1.858 -0.7239  0.3125  0.0023
 3330SOL    HW121626   3.808   3.124   1.828 -0.5202  0.3301  0.1357
 3330SOL    HW221627   3.755   3.191   1.948 -2.1539  3.0039  0.1867
 3331SOL     OW21628   0.409   2.981  12.988 -0.8394 -0.3656  0.3098
 3331SOL    HW121629   0.380   2.932  12.910 -0.7828  1.6098 -0.9693
 3331SOL    HW221630   0.332   3.031  13.016 -2.7473 -1.8208 -2.2644
 3332SOL     OW21631   4.649   2.277   6.719 -0.1665 -0.1533  0.0127
 3332SOL    HW121632   4.662   2.364   6.756 -3.0583 -0.0250  0.6940
 3332SOL    HW221633   4.568   2.291   6.671 -0.6278 -0.8424  0.5928
 3333SOL     OW21634   0.624   0.435  15.309 -0.1730  0.4112 -0.2430
 3333SOL    HW121635   0.692   0.501  15.300  0.0675 -0.0891 -2.2114
 3333SOL    HW221636   0.640   0.406  15.398  1.4774  0.3013 -0.5699
 3334SOL     OW21637   1.480   0.609   0.878 -0.2514 -0.3775  0.8552
 3334SOL    HW121638   1.509   0.593   0.788 -0.2362  1.3150  0.5616
 3334SOL    HW221639   1.500   0.702   0.887 -0.8861 -0.1621  0.0132
 3335SOL     OW21640   0.142   3.157   8.730  0.1286 -0.0328 -0.2689
 3335SOL    HW121641   0.219   3.194   8.688  0.0541 -0.1715 -0.5326
 3335SOL    HW221642   0.161   3.161   8.823 -1.8657  4.3553 -0.0540
 3336SOL     OW21643   2.523   1.108   2.171 -0.1382 -0.1548 -0.0474
 3336SOL    HW121644   2.569   1.112   2.255  0.7641  0.3414 -0.5582
 3336SOL    HW221645   2.498   1.016   2.170 -1.5715  0.2380  0.6420
 3337SOL     OW21646   3.382   1.678   2.689 -0.4539 -0.6812  0.2633
 3337SOL    HW121647   3.293   1.658   2.719 -1.1478  0.3932 -1.0626
 3337SOL    HW221648   3.394   1.590   2.654  1.6892  0.0454 -0.7583
 3338SOL     OW21649   2.451   0.111  11.524  0.7577 -0.5038 -0.3312
 3338SOL    HW121650   2.423   0.081  11.438 -0.0130  1.7566 -0.8682
 3338SOL    HW221651   2.486   0.196  11.498 -0.3066 -1.0953 -3.6580
 3339SOL     OW21652   1.297   3.552   8.493 -0.0358  0.5348 -0.3024
 3339SOL    HW121653   1.388   3.580   8.481  0.3401 -0.0521  1.3179
 3339SOL    HW221654   1.256   3.623   8.542  0.6692  1.5292 -1.1407
 3340SOL     OW21655   3.303   4.241   5.668 -0.4957 -0.0536 -0.3255
 3340SOL    HW121656   3.246   4.201   5.734 -1.2312 -0.8531 -1.4475
 3340SOL    HW221657   3.274   4.331   5.657 -0.3897  0.1861  1.3437
 3341SOL     OW21658   1.544   1.136   8.928  0.1696  0.3930  0.3279
 3341SOL    HW121659   1.482   1.130   8.855  2.0275  1.5606 -1.3477
 3341SOL    HW221660   1.538   1.228   8.953  3.8330  1.2074 -1.7929
 3342SOL     OW21661   0.990   1.600   5.392 -0.3259 -0.0286  0.4294
 3342SOL    HW121662   0.932   1.545   5.443 -0.0630 -0.0446  0.7156
 3342SOL    HW221663   0.964   1.685   5.429 -0.5618 -0.3433  0.9744
 3343SOL     OW21664   0.353   1.093   3.920  0.1305  0.3768  0.0457
 3343SOL    HW121665   0.407   1.172   3.917 -0.5841  0.8656  0.2406
 3343SOL    HW221666   0.299   1.097   3.999  0.3966 -0.5025  0.2678
 3344SOL     OW21667   0.741   3.210   4.865 -0.0114 -0.3692 -0.2967
 3344SOL    HW121668   0.697   3.133   4.829  0.5434 -0.5061 -0.6713
 3344SOL    HW221669   0.793   3.160   4.928  1.7755 -2.4782 -3.4738
 3345SOL     OW21670   1.451   3.636   2.477  0.2041 -0.4569 -0.0529
 3345SOL    HW121671   1.442   3.722   2.435  1.8130  0.2378  1.0302
 3345SOL    HW221672   1.543   3.643   2.503 -0.5666 -1.7403  3.0245
 3346SOL     OW21673   3.223   4.323   2.699 -0.4023 -0.1707  0.2036
 3346SOL    HW121674   3.158   4.260   2.667  0.6890 -1.2899  0.1811
 3346SOL    HW221675   3.162   4.388   2.732  0.8823  1.3325 -0.3723
 3347SOL     OW21676   3.411   0.987   6.041 -0.1949  0.1034 -0.0676
 3347SOL    HW121677   3.495   0.971   6.083  0.6345  1.0820 -1.3538
 3347SOL    HW221678   3.349   0.922   6.072  1.0444 -2.9829 -4.1100
 3348SOL     OW21679   1.900   3.906   3.290  0.1796 -0.6721  0.3226
 3348SOL    HW121680   1.960   3.979   3.276 -1.4444  0.6281  0.1604
 3348SOL    HW221681   1.959   3.831   3.293  0.4563 -0.5060 -0.8879
 3349SOL     OW21682   3.799   1.180   7.435 -0.7293  0.0121 -0.2824
 3349SOL    HW121683   3.719   1.144   7.472 -1.3229  1.5337 -0.0867
 3349SOL    HW221684   3.773   1.272   7.427 -1.4739 -0.4511 -2.9676
 3350SOL     OW21685   4.042   0.037  12.459  0.6111 -0.0641  0.4913
 3350SOL    HW121686   4.074   4.687  12.431  0.6621  0.4208 -0.9234
 3350SOL    HW221687   3.989   0.012  12.534  0.8505  1.4620  1.1787
 3351SOL     OW21688   1.324   2.984   7.559 -0.3237 -0.3426 -0.6285
 3351SOL    HW121689   1.404   3.034   7.576  0.4233 -0.6859 -3.1330
 3351SOL    HW221690   1.303   2.950   7.646 -0.9318  2.2799  0.2398
 3352SOL     OW21691   3.208   0.675  14.085  0.2691  0.1027 -0.7047
 3352SOL    HW121692   3.281   0.680  14.022 -0.2885  0.0539 -1.3557
 3352SOL    HW221693   3.256   0.661  14.167 -0.9410  0.9515  0.1375
 3353SOL     OW21694   1.706   4.457  11.274 -0.6076 -0.3470  0.4426
 3353SOL    HW121695   1.611   4.455  11.271 -0.5332 -0.8358 -1.1647
 3353SOL    HW221696   1.730   4.365  11.272  1.2264  0.1546 -0.4545
 3354SOL     OW21697   1.313   0.678   0.459  0.1591 -0.6194  0.0910
 3354SOL    HW121698   1.227   0.672   0.500  0.0949  0.7077  0.1443
 3354SOL    HW221699   1.284   0.718   0.376  3.4761 -1.0047 -1.2554
 3355SOL     OW21700   2.301   3.083  13.336  0.0874  0.3435 -0.7339
 3355SOL    HW121701   2.250   3.143  13.281 -2.7309 -1.0292  0.3946
 3355SOL    HW221702   2.298   3.000  13.287  0.5398 -0.4211  0.5417
 3356SOL     OW21703   0.812   4.602  16.972 -0.1679 -0.4399 -0.1049
 3356SOL    HW121704   0.869   4.599  17.048 -0.2916 -2.1584 -0.0743
 3356SOL    HW221705   0.725   4.576  17.004  0.3963  0.2304  1.9103
 3357SOL     OW21706   1.318   2.403   4.351 -0.6544 -0.5165  0.0669
 3357SOL    HW121707   1.351   2.314   4.365  0.7038 -0.3431 -2.0776
 3357SOL    HW221708   1.398   2.453   4.367 -1.2824  0.9884 -1.5294
 3358SOL     OW21709   0.628   4.156   1.278  0.2875 -0.0408  0.0444
 3358SOL    HW121710   0.663   4.072   1.306 -4.2081 -1.9715 -0.1247
 3358SOL    HW221711   0.534   4.139   1.270  0.0924  0.3236  1.5285
 3359SOL     OW21712   1.144   3.912  14.461  0.2097 -0.3631  0.3916
 3359SOL    HW121713   1.172   3.988  14.411  0.0780  1.1289  2.5562
 3359SOL    HW221714   1.233   3.887  14.489  0.0119 -0.2837  1.0996
 3360SOL     OW21715   0.343   4.311   6.988 -0.1180  0.1795  0.5119
 3360SOL    HW121716   0.276   4.316   6.920 -0.2570 -2.8574  0.4172
 3360SOL    HW221717   0.317   4.377   7.052  0.7468  1.2623 -0.2521
 3361SOL     OW21718   0.321   3.650   1.702  0.3806  0.0561  0.0847
 3361SOL    HW121719   0.261   3.588   1.660 -0.0761  1.3126 -1.0982
 3361SOL    HW221720   0.278   3.657   1.787 -0.1761 -0.7513 -0.1183
 3362SOL     OW21721   2.753   2.751  17.518 -0.4568  0.0295  0.1422
 3362SOL    HW121722   2.822   2.813  17.541  0.5162 -0.6617 -0.9393
 3362SOL    HW221723   2.713   2.784  17.437  0.0704 -1.4040 -0.7039
 3363SOL     OW21724   2.498   1.140   4.981  0.4588  0.0240  0.0602
 3363SOL    HW121725   2.559   1.089   5.033 -0.3507  1.5337  2.4584
 3363SOL    HW221726   2.510   1.229   5.012  1.1851  0.1668 -0.6196
 3364SOL     OW21727   3.501   4.002   0.473 -0.5117 -0.2379 -0.4807
 3364SOL    HW121728   3.538   3.914   0.471  1.3846  0.5072  2.4055
 3364SOL    HW221729   3.571   4.052   0.431  0.6641 -1.6883 -0.2304
 3365SOL     OW21730   1.262   1.153   0.899  0.0065 -0.2257  0.4036
 3365SOL    HW121731   1.213   1.174   0.821  2.2226  0.5727 -0.7777
 3365SOL    HW221732   1.214   1.210   0.959 -1.2539 -0.6479 -0.2136
 3366SOL     OW21733   4.394   1.578   8.535  0.0517 -0.1562  0.1079
 3366SOL    HW121734   4.410   1.656   8.483  1.1053  0.8089  1.8729
 3366SOL    HW221735   4.415   1.627   8.614 -2.0014  0.6172  0.1812
 3367SOL     OW21736   0.023   1.622  13.624 -0.8485 -0.0112 -0.4833
 3367SOL    HW121737   0.010   1.571  13.544 -0.6926 -0.0305 -0.4958
 3367SOL    HW221738   4.703   1.697  13.605  1.9573  2.0640 -0.4487
 3368SOL     OW21739   3.175   4.397   6.116  0.6758 -0.3611 -0.0189
 3368SOL    HW121740   3.218   4.481   6.100  2.0353 -0.5593  2.5694
 3368SOL    HW221741   3.239   4.337   6.078 -0.2881 -1.0625 -0.5148
 3369SOL     OW21742   4.600   4.682  10.090 -1.4782  0.8308  0.1518
 3369SOL    HW121743   4.669   4.689  10.156 -0.6212  0.9730 -0.7462
 3369SOL    HW221744   4.593   0.037  10.060 -2.6721  0.6152 -0.1967
 3370SOL     OW21745   1.117   4.717  16.035  0.1963 -1.0334 -0.4316
 3370SOL    HW121746   1.053   0.044  16.003  1.3448  0.7190  0.7187
 3370SOL    HW221747   1.058   4.647  16.064 -0.1865 -0.0353  1.2213
 3371SOL     OW21748   3.117   1.317   5.564 -0.0511  0.1530  0.2564
 3371SOL    HW121749   3.199   1.343   5.523 -0.4257 -2.6455 -2.2863
 3371SOL    HW221750   3.096   1.233   5.523  0.5887  1.6758 -3.1552
 3372SOL     OW21751   4.577   1.568   2.845  0.3808  0.0508 -0.2135
 3372SOL    HW121752   4.545   1.496   2.899  3.3625 -1.0225  0.1028
 3372SOL    HW221753   4.616   1.630   2.906 -1.1944  0.3398  0.5075
 3373SOL     OW21754   2.375   3.609  13.347  0.1655  0.1798  0.5181
 3373SOL    HW121755   2.317   3.675  13.309  0.2850  0.6113  1.0789
 3373SOL    HW221756   2.308   3.558  13.392  1.1969 -1.7297 -0.0952
 3374SOL     OW21757   4.057   2.979   2.537  0.2833 -0.3036 -0.0840
 3374SOL    HW121758   4.099   2.909   2.487  1.0659 -0.0722  0.2491
 3374SOL    HW221759   3.963   2.964   2.530  0.4083 -0.6987 -0.9903
 3375SOL     OW21760   0.674   0.110   9.334 -0.3054 -0.0070  0.1673
 3375SOL    HW121761   0.650   0.094   9.243 -1.4604 -0.1002  0.4873
 3375SOL    HW221762   0.763   0.143   9.320  0.5965 -2.1539  0.8808
 3376SOL     OW21763   1.187   1.043   4.262  0.3126 -0.0926 -0.1267
 3376SOL    HW121764   1.216   0.994   4.185 -1.4662  0.9779 -1.4748
 3376SOL    HW221765   1.259   1.104   4.252 -1.1557  1.5123 -0.9138
 3377SOL     OW21766   4.452   4.054  14.896  0.7977  0.2636  0.4304
 3377SOL    HW121767   4.428   4.028  14.807  1.5537  1.0216  0.0060
 3377SOL    HW221768   4.464   4.148  14.884 -0.0184  0.3635  0.3626
 3378SOL     OW21769   2.125   0.025   0.644  0.4408 -0.1355  0.4313
 3378SOL    HW121770   2.156   0.115   0.637  1.6811 -0.6630 -0.7465
 3378SOL    HW221771   2.041   0.040   0.688  0.8416  1.5913  0.6345
 3379SOL     OW21772   0.371   2.287  14.486 -0.3530  0.2043 -0.1311
 3379SOL    HW121773   0.338   2.245  14.407  1.1928 -2.5073  0.6265
 3379SOL    HW221774   0.368   2.381  14.467  1.9429  0.3152  0.0476
 3380SOL     OW21775   1.345   0.271   0.649 -0.5008 -0.2931  0.2071
 3380SOL    HW121776   1.292   0.314   0.716  0.8624  0.2075  0.9478
 3380SOL    HW221777   1.404   0.218   0.703  1.1816  2.6066  1.1974
 3381SOL     OW21778   3.655   3.509  11.177  0.7017  0.0829  0.3755
 3381SOL    HW121779   3.580   3.450  11.178  2.0169 -1.5965 -0.1489
 3381SOL    HW221780   3.721   3.459  11.129  2.2110  0.2593  2.2551
 3382SOL     OW21781   1.985   4.511   8.610 -0.8814 -0.5714  0.6712
 3382SOL    HW121782   1.947   4.423   8.618 -1.6396 -0.2739  0.3647
 3382SOL    HW221783   2.018   4.518   8.700 -2.2863 -0.1941  1.1626
 3383SOL     OW21784   2.709   2.927   2.520 -0.1983  0.1298  0.0369
 3383SOL    HW121785   2.784   2.981   2.545  0.3822  0.8689 -3.2664
 3383SOL    HW221786   2.648   3.000   2.521  0.2095  0.5081 -2.1213
 3384SOL     OW21787   3.623   1.260   2.995  0.1293  0.4446 -0.4558
 3384SOL    HW121788   3.693   1.224   2.940  1.2117 -1.8923  2.4429
 3384SOL    HW221789   3.606   1.346   2.956  2.5065  1.4981  0.7956
 3385SOL     OW21790   3.309   0.667   8.288 -0.0548 -0.1665 -0.2201
 3385SOL    HW121791   3.390   0.621   8.312 -1.2915 -1.6895  1.0580
 3385SOL    HW221792   3.339   0.739   8.233  0.3181 -1.1696 -1.3553
 3386SOL     OW21793   3.402   0.407   6.162  0.4442 -0.1956 -0.0369
 3386SOL    HW121794   3.325   0.412   6.219  0.8684 -0.9840  0.6072
 3386SOL    HW221795   3.346   0.396   6.084 -0.2142 -0.9451  0.5433
 3387SOL     OW21796   1.895   3.389  12.532 -0.5583  0.2013 -0.0233
 3387SOL    HW121797   1.858   3.412  12.618  2.4348  0.6811  1.1371
 3387SOL    HW221798   1.825   3.338  12.490 -0.4731 -0.9673  1.2169
 3388SOL     OW21799   3.408   2.910  16.328  0.4890  0.2262  0.6337
 3388SOL    HW121800   3.325   2.902  16.282 -0.0018  2.9018  1.0951
 3388SOL    HW221801   3.479   2.933  16.268 -1.6191  1.7137 -1.2474
 3389SOL     OW21802   3.829   0.811   1.162  0.1291  0.3486  0.2187
 3389SOL    HW121803   3.768   0.795   1.234  0.4127 -1.3090  0.1059
 3389SOL    HW221804   3.767   0.821   1.091  0.0331 -1.3557  0.0599
 3390SOL     OW21805   2.205   3.525   5.361  0.5410  0.3267 -0.4888
 3390SOL    HW121806   2.198   3.489   5.449  2.4813 -0.0463 -0.4843
 3390SOL    HW221807   2.247   3.448   5.323  0.5625  0.1394 -0.0827
 3391SOL     OW21808   4.257   0.096  13.481  0.1613  0.1843  0.5593
 3391SOL    HW121809   4.169   0.122  13.453 -0.5362 -2.1024  0.6463
 3391SOL    HW221810   4.239   0.023  13.540 -1.7321 -0.5003 -0.8615
 3392SOL     OW21811   4.144   4.709   8.037 -0.6922 -0.1241  0.0527
 3392SOL    HW121812   4.160   4.728   8.130 -0.6299  1.5145 -0.2826
 3392SOL    HW221813   4.138   4.614   8.036 -0.5263 -0.1242 -0.9715
 3393SOL     OW21814   1.911   2.801   6.174 -0.4008  0.2426 -0.2840
 3393SOL    HW121815   1.859   2.748   6.114  0.8339 -1.6676  0.3426
 3393SOL    HW221816   1.875   2.889   6.158  1.1239  1.0232  0.6479
 3394SOL     OW21817   2.781   0.895  14.962 -0.1488 -0.0424 -0.3379
 3394SOL    HW121818   2.743   0.816  15.000 -1.1776  0.1685 -0.9230
 3394SOL    HW221819   2.764   0.956  15.034  0.2966 -0.0323 -0.2447
 3395SOL     OW21820   1.926   0.499   1.597  0.7429  0.2160  0.0716
 3395SOL    HW121821   1.837   0.478   1.569  1.4491 -3.1872  0.4215
 3395SOL    HW221822   1.982   0.506   1.519  0.6605 -1.2320 -0.1175
 3396SOL     OW21823   4.467   1.382   2.982  0.5501 -0.0500 -0.2520
 3396SOL    HW121824   4.463   1.381   3.077  0.0603  1.3807 -0.2645
 3396SOL    HW221825   4.395   1.323   2.958  0.4334 -0.2865  0.6701
 3397SOL     OW21826   1.908   3.659   3.535 -0.2048 -0.1729  0.3469
 3397SOL    HW121827   1.926   3.746   3.571  1.0127  0.1122 -0.9447
 3397SOL    HW221828   1.927   3.663   3.441  0.5736 -1.5561  0.4496
 3398SOL     OW21829   2.549   1.603   6.346  0.3743  0.6114 -0.0366
 3398SOL    HW121830   2.476   1.591   6.285 -0.6809  1.8841  0.9566
 3398SOL    HW221831   2.505   1.656   6.413  0.1333 -1.3044  1.3309
 3399SOL     OW21832   2.305   0.798   1.157 -0.0962  0.1716  0.1939
 3399SOL    HW121833   2.336   0.880   1.117  1.6808 -2.0561 -2.9907
 3399SOL    HW221834   2.364   0.784   1.231 -0.6458 -1.0039  0.4051
 3400SOL     OW21835   4.273   4.572   1.390  0.3664  0.1379  0.7022
 3400SOL    HW121836   4.224   4.507   1.339  1.8032  0.0698 -0.6056
 3400SOL    HW221837   4.209   4.586   1.460 -0.4933  1.3122 -0.3129
 3401SOL     OW21838   3.476   3.830   8.499 -0.0689  0.6573  0.2734
 3401SOL    HW121839   3.544   3.767   8.474 -2.1283 -0.1941 -3.1640
 3401SOL    HW221840   3.532   3.890   8.548 -0.5832 -0.2233  1.9605
 3402SOL     OW21841   1.427   4.313   8.974  0.3167 -0.5204 -0.4866
 3402SOL    HW121842   1.413   4.277   8.886 -4.9118 -2.0840  0.9639
 3402SOL    HW221843   1.395   4.243   9.031  2.1787  0.6869  2.0558
 3403SOL     OW21844   0.176   2.189   4.684 -0.0910  0.1755 -0.2361
 3403SOL    HW121845   0.143   2.111   4.640  0.7892  1.2745 -2.8180
 3403SOL    HW221846   0.266   2.175   4.655  0.9099  2.2324  1.8506
 3404SOL     OW21847   1.463   1.031  11.617  0.3337  0.2495 -0.4636
 3404SOL    HW121848   1.497   0.992  11.698 -1.7767 -2.5930 -0.9608
 3404SOL    HW221849   1.422   1.115  11.639  3.6694  1.3356  1.7196
 3405SOL     OW21850   3.570   1.831   4.324  0.1821 -0.4119 -0.9784
 3405SOL    HW121851   3.530   1.856   4.408  0.4440  0.1976 -1.0380
 3405SOL    HW221852   3.630   1.904   4.313 -0.1671 -0.2100 -1.5182
 3406SOL     OW21853   2.023   2.992  13.334  0.5280  0.1330 -0.4053
 3406SOL    HW121854   2.071   2.978  13.416  0.2363  0.1707 -0.2251
 3406SOL    HW221855   2.090   2.958  13.276  0.5918  0.9489 -0.8014
 3407SOL     OW21856   3.346   0.878   0.200  0.0267  0.7127 -0.5372
 3407SOL    HW121857   3.282   0.948   0.214 -2.3321 -1.4471 -0.4559
 3407SOL    HW221858   3.367   0.884   0.107 -0.6034  0.8050 -0.6746
 3408SOL     OW21859   4.726   2.823  12.332 -0.2715  0.4614  0.5095
 3408SOL    HW121860   0.054   2.786  12.270 -0.7591 -1.9897  1.5082
 3408SOL    HW221861   4.659   2.854  12.271 -0.8817  1.8404  1.8665
 3409SOL     OW21862   3.579   0.303   8.420  0.1410  0.5360  0.1636
 3409SOL    HW121863   3.498   0.323   8.467 -0.4084  1.3492 -1.1273
 3409SOL    HW221864   3.574   0.358   8.342  0.3329 -2.0687 -1.6815
 3410SOL     OW21865   0.516   2.960   7.914  0.1996 -0.3694  0.6107
 3410SOL    HW121866   0.564   3.036   7.947 -2.7101  1.3407  0.8608
 3410SOL    HW221867   0.565   2.951   7.832 -2.5230  1.3864 -1.1894
 3411SOL     OW21868   0.497   3.890  12.094 -0.1653 -0.0550 -0.0041
 3411SOL    HW121869   0.467   3.972  12.132  1.1516 -0.0679  1.0856
 3411SOL    HW221870   0.494   3.908  12.000  3.8806 -2.4476 -0.6125
 3412SOL     OW21871   3.394   1.437   5.238 -0.5093 -0.2477 -0.2983
 3412SOL    HW121872   3.301   1.429   5.217 -0.1393 -2.6615 -1.0332
 3412SOL    HW221873   3.419   1.347   5.258 -0.0014 -0.3684 -1.4466
 3413SOL     OW21874   2.760   0.237   2.292  0.0697  0.7430 -0.1948
 3413SOL    HW121875   2.763   0.249   2.197 -1.5151 -1.5009 -0.5167
 3413SOL    HW221876   2.849   0.211   2.318 -0.3838 -0.1638  0.4304
 3414SOL     OW21877   4.149   1.562  14.348 -0.4440 -0.2786 -0.3404
 3414SOL    HW121878   4.210   1.634  14.328 -0.3690 -0.1290  0.4293
 3414SOL    HW221879   4.176   1.531  14.434  2.0906 -0.0553 -1.0424
 3415SOL     OW21880   2.224   0.981   5.184  0.3240  0.2392 -0.4338
 3415SOL    HW121881   2.260   0.912   5.129  3.7784  1.4313  0.2952
 3415SOL    HW221882   2.282   1.055   5.164 -2.4806  1.8228 -2.7488
 3416SOL     OW21883   3.434   1.153  16.649 -0.0024  0.6287 -0.4740
 3416SOL    HW121884   3.443   1.195  16.564 -0.1564 -2.0851 -1.8175
 3416SOL    HW221885   3.525   1.161  16.677 -0.2177  2.0322 -0.1336
 3417SOL     OW21886   0.805   1.793  14.694 -0.2327  0.0583  0.0399
 3417SOL    HW121887   0.776   1.723  14.637 -0.4737 -0.9005  1.3470
 3417SOL    HW221888   0.782   1.765  14.783 -0.5354  1.1302  0.3076
 3418SOL     OW21889   3.496   0.288   2.773  0.1046 -0.2262 -0.0068
 3418SOL    HW121890   3.439   0.236   2.831 -0.4251  1.3743  0.9053
 3418SOL    HW221891   3.488   0.237   2.692  1.7285 -0.0888 -0.2524
 3419SOL     OW21892   0.257   3.422   2.242  0.5669 -0.1052 -1.0089
 3419SOL    HW121893   0.174   3.390   2.207  0.1037 -1.0789  1.0128
 3419SOL    HW221894   0.303   3.338   2.248 -1.1555 -0.9466  0.4571
 3420SOL     OW21895   1.424   2.955   5.013  0.7165 -0.6229  0.1657
 3420SOL    HW121896   1.342   2.921   4.978 -0.0119  1.0513  0.2391
 3420SOL    HW221897   1.399   3.048   5.016  1.3873 -0.4664  0.6940
 3421SOL     OW21898   4.135   4.603   0.999  0.4440 -0.4231  0.2163
 3421SOL    HW121899   4.105   4.538   1.062  1.9627 -2.1706 -0.8467
 3421SOL    HW221900   4.230   4.611   1.012  0.6663 -0.4742 -1.3601
 3422SOL     OW21901   3.409   2.533   2.794 -0.0683 -0.2882  0.0887
 3422SOL    HW121902   3.319   2.508   2.773  0.1721 -0.7275 -0.4157
 3422SOL    HW221903   3.401   2.583   2.875  3.0328 -0.6545  0.6295
 3423SOL     OW21904   2.023   2.200   2.788  0.2387  0.9784 -0.0291
 3423SOL    HW121905   2.092   2.204   2.854  0.8652  0.5532 -0.6591
 3423SOL    HW221906   2.086   2.208   2.716  0.5146 -2.3994 -0.1905
 3424SOL     OW21907   4.246   4.307   2.604 -0.5155  0.2594 -0.3386
 3424SOL    HW121908   4.297   4.252   2.664 -0.8711  0.1423 -0.1380
 3424SOL    HW221909   4.310   4.376   2.589 -0.4986  0.3996  0.3749
 3425SOL     OW21910   3.258   1.762  17.504  0.1409 -0.5318  0.1970
 3425SOL    HW121911   3.349   1.787  17.523 -0.6446 -0.1735  3.4325
 3425SOL    HW221912   3.208   1.792  17.580 -0.5091  2.1228 -1.2983
 3426SOL     OW21913   0.970   2.089   3.971  0.5351  0.1202  0.2093
 3426SOL    HW121914   0.998   2.012   4.019 -1.5566 -1.0087 -0.3717
 3426SOL    HW221915   0.997   2.045   3.891  0.4107 -0.6612  0.5986
 3427SOL     OW21916   3.437   2.987   6.063 -0.5344 -0.4164 -0.1566
 3427SOL    HW121917   3.375   3.011   6.132 -1.9240 -0.1913 -1.4627
 3427SOL    HW221918   3.481   2.922   6.118 -2.5349 -0.6487  1.1716
 3428SOL     OW21919   0.334   4.090   3.026 -0.3198  0.1923 -0.1050
 3428SOL    HW121920   0.283   4.171   3.032 -0.3934  0.1894 -0.7346
 3428SOL    HW221921   0.385   4.108   2.947  0.2751 -0.2009  0.1873
 3429SOL     OW21922   0.512   4.230   4.750 -0.1332  0.4104 -0.3780
 3429SOL    HW121923   0.512   4.325   4.748  0.0695  0.4273  0.2818
 3429SOL    HW221924   0.539   4.203   4.662  0.3572 -1.1325  0.2322
 3430SOL     OW21925   0.593   2.933   5.762  0.6736 -0.3341 -0.0273
 3430SOL    HW121926   0.611   2.840   5.746 -1.2362 -0.6086 -0.4951
 3430SOL    HW221927   0.671   2.978   5.729  0.0729  0.1993 -0.6928
 3431SOL     OW21928   2.923   4.318  15.269  0.4723  0.1775  0.0369
 3431SOL    HW121929   2.863   4.244  15.281  0.2887  0.5751  1.5383
 3431SOL    HW221930   2.857   4.382  15.240  0.3955 -0.1599 -0.5322
 3432SOL     OW21931   0.599   2.221  14.991 -0.1066  0.0545  0.4647
 3432SOL    HW121932   0.536   2.260  14.930 -0.8480 -0.7545  0.7229
 3432SOL    HW221933   0.570   2.248  15.078 -0.7532 -2.2860  0.9775
 3433SOL     OW21934   2.797   1.120   3.382 -0.3013  0.4305 -0.1060
 3433SOL    HW121935   2.812   1.065   3.459  0.4355 -2.0717 -2.0489
 3433SOL    HW221936   2.881   1.102   3.338 -0.1778  0.2934  0.1863
 3434SOL     OW21937   3.061   3.425   9.460 -0.2606  0.7247  0.5751
 3434SOL    HW121938   3.133   3.385   9.508  0.5776  0.0647 -1.2288
 3434SOL    HW221939   2.991   3.359   9.463  1.2797 -0.8750  1.1695
 3435SOL     OW21940   1.896   4.260   3.580 -0.2249 -0.1916  0.3498
 3435SOL    HW121941   1.875   4.264   3.486  0.4744  0.8462  0.2422
 3435SOL    HW221942   1.957   4.332   3.587  0.2475 -0.6084  0.5343
 3436SOL     OW21943   2.518   4.718   8.740  0.2764 -0.1573  0.2043
 3436SOL    HW121944   2.431   4.730   8.777  0.4652 -0.2620  0.6729
 3436SOL    HW221945   2.566   0.063   8.756 -1.3262  0.7042  0.6297
 3437SOL     OW21946   3.955   0.167  13.470 -0.9563  0.7226 -0.6272
 3437SOL    HW121947   3.935   0.216  13.550 -1.4157 -0.1783 -0.1913
 3437SOL    HW221948   3.916   0.207  13.392 -1.2259  0.7369 -0.4874
 3438SOL     OW21949   0.795   2.044   2.365 -0.0653 -0.7334 -0.0368
 3438SOL    HW121950   0.819   1.998   2.445 -0.6874 -1.3985 -0.2307
 3438SOL    HW221951   0.746   2.115   2.407 -0.7053 -0.8049 -0.6546
 3439SOL     OW21952   1.765   0.612   6.967  0.4690  0.6525 -0.1912
 3439SOL    HW121953   1.745   0.703   6.943  1.0572  0.6175 -0.8050
 3439SOL    HW221954   1.701   0.565   6.913  0.6187 -1.4062  1.4530
 3440SOL     OW21955   4.336   0.757  10.046 -0.3012  0.1711 -0.7313
 3440SOL    HW121956   4.420   0.799  10.064  0.5464 -1.2712 -1.3216
 3440SOL    HW221957   4.274   0.822  10.079 -1.3829 -1.2405  0.0257
 3441SOL     OW21958   2.980   0.876   1.252 -0.0110  0.0029 -0.0450
 3441SOL    HW121959   3.009   0.809   1.189  3.2533  1.3453  0.0203
 3441SOL    HW221960   3.062   0.924   1.260  1.7875 -2.5085 -3.1198
 3442SOL     OW21961   3.943   2.207   4.479 -0.2180  0.1227  0.1682
 3442SOL    HW121962   4.026   2.245   4.506 -1.2013  0.8038  2.1602
 3442SOL    HW221963   3.893   2.287   4.463 -2.3830 -1.0904  0.8146
 3443SOL     OW21964   4.393   3.038  11.891 -0.1083 -0.5041 -0.4042
 3443SOL    HW121965   4.330   3.026  11.961  2.7480 -2.4847  1.8453
 3443SOL    HW221966   4.364   2.980  11.820 -0.3167 -0.3826 -0.4179
 3444SOL     OW21967   0.044   0.900   8.634 -0.5023  0.0551 -0.2110
 3444SOL    HW121968   0.126   0.949   8.637 -1.0624  0.8425  2.6183
 3444SOL    HW221969   0.074   0.825   8.686 -0.1927 -1.0295 -1.9443
 3445SOL     OW21970   3.661   1.805  10.354  0.3606 -0.4140 -0.5259
 3445SOL    HW121971   3.571   1.831  10.370  0.0217 -2.1233  0.3420
 3445SOL    HW221972   3.673   1.776  10.445 -1.5739 -1.3908 -0.5905
 3446SOL     OW21973   0.345   2.864   4.139  0.3147 -0.7354 -0.1849
 3446SOL    HW121974   0.358   2.770   4.155 -0.7172 -0.2991  3.1457
 3446SOL    HW221975   0.428   2.894   4.176 -0.5740 -1.6282  2.5716
 3447SOL     OW21976   3.652   3.884   3.862  0.0016  0.5004  0.0636
 3447SOL    HW121977   3.737   3.900   3.904  0.8094 -0.4376 -1.2391
 3447SOL    HW221978   3.622   3.975   3.860  0.9877  0.8049 -0.7902
 3448SOL     OW21979   3.017   4.591   9.061 -0.0026 -0.2200  0.1309
 3448SOL    HW121980   3.103   4.552   9.074  0.5602  1.4058  1.2687
 3448SOL    HW221981   2.969   4.531   9.118  0.6475 -0.5729  0.3076
 3449SOL     OW21982   4.330   3.260   5.647  0.0774  0.2948 -0.2660
 3449SOL    HW121983   4.418   3.223   5.640  0.2126  0.4785  0.4704
 3449SOL    HW221984   4.285   3.210   5.579 -0.3789  0.9483 -0.4496
 3450SOL     OW21985   0.010   0.141   3.745  0.1014 -0.3706 -0.7058
 3450SOL    HW121986   4.735   0.177   3.657 -0.2605 -0.3184 -0.6385
 3450SOL    HW221987   0.102   0.159   3.763 -0.4887  1.6506  0.3258
 3451SOL     OW21988   2.953   3.473   5.534 -0.5017  0.4667 -0.1171
 3451SOL    HW121989   2.940   3.396   5.478 -1.1028 -0.5020  1.3560
 3451SOL    HW221990   3.001   3.419   5.597  0.3575  0.5533 -0.6956
 3452SOL     OW21991   3.538   3.026   7.050 -0.1081  0.0225  0.1696
 3452SOL    HW121992   3.468   3.054   6.990 -0.8642  0.1181  1.0925
 3452SOL    HW221993   3.614   3.016   6.993 -1.2071 -1.3303 -1.0671
 3453SOL     OW21994   3.346   2.799  13.026  0.0310 -0.0656  0.3801
 3453SOL    HW121995   3.307   2.774  12.942  0.8886 -0.5352  0.1211
 3453SOL    HW221996   3.410   2.728  13.034 -0.9089 -0.2741  6.1099
 3454SOL     OW21997   3.091   4.297   6.361  0.5804 -0.0241 -0.0700
 3454SOL    HW121998   3.135   4.326   6.281 -1.4031 -1.1213 -1.5409
 3454SOL    HW221999   3.024   4.364   6.374  0.5934 -0.2547  1.1984
 3455SOL     OW22000   0.256   3.520   7.050  0.4209  0.1497  0.1701
 3455SOL    HW122001   0.219   3.438   7.018  1.9890 -0.7319  0.5828
 3455SOL    HW222002   0.230   3.515   7.142 -0.0824  2.0778  0.1392
 3456SOL     OW22003   4.011   2.638   8.871 -0.0974  0.4298  0.0101
 3456SOL    HW122004   4.086   2.594   8.832  0.7454  0.9683  1.0423
 3456SOL    HW222005   4.012   2.595   8.957  2.1643 -1.6542 -1.0579
 3457SOL     OW22006   3.733   3.462   6.998 -0.5911 -0.4379 -0.6919
 3457SOL    HW122007   3.671   3.535   7.001 -0.1253 -0.1270  0.9296
 3457SOL    HW222008   3.772   3.471   7.084 -1.3161 -2.6292 -0.1332
 3458SOL     OW22009   0.552   4.139   4.505  0.4213  0.0432 -0.4464
 3458SOL    HW122010   0.494   4.123   4.431 -1.3498 -0.7373  1.1186
 3458SOL    HW222011   0.638   4.146   4.464  0.5798 -0.8749 -0.2650
 3459SOL     OW22012   1.233   4.415   1.339  0.0666 -0.3207  0.1423
 3459SOL    HW122013   1.238   4.415   1.244 -2.5681  1.1873 -0.0030
 3459SOL    HW222014   1.294   4.484   1.366  1.2091 -0.7242 -1.4474
 3460SOL     OW22015   4.355   1.124  10.618 -0.2265  0.3532 -0.5383
 3460SOL    HW122016   4.338   1.046  10.671 -1.3878  0.8037 -0.2272
 3460SOL    HW222017   4.287   1.109  10.552 -1.5452 -0.9426  1.0833
 3461SOL     OW22018   2.347   3.014   2.638  0.6191 -0.0193 -0.3256
 3461SOL    HW122019   2.310   2.996   2.552  0.6410 -1.2061 -0.0934
 3461SOL    HW222020   2.290   2.957   2.690  0.9721 -0.7003 -0.6768
 3462SOL     OW22021   1.276   2.888  17.091 -0.4485  0.1748  0.2688
 3462SOL    HW122022   1.289   2.968  17.041 -1.5925  0.7003  0.8199
 3462SOL    HW222023   1.340   2.831  17.046 -0.1420  1.1557 -0.5456
 3463SOL     OW22024   4.599   3.307   2.604 -0.1871  0.1083  0.4486
 3463SOL    HW122025   4.635   3.219   2.607 -0.5248 -0.0825 -1.0866
 3463SOL    HW222026   4.550   3.289   2.523  1.8229 -0.8330 -0.5352
 3464SOL     OW22027   0.393   1.736   9.024  0.2354 -0.1784 -0.0446
 3464SOL    HW122028   0.399   1.660   8.967  0.3840 -0.5259  0.4361
 3464SOL    HW222029   0.435   1.804   8.970 -0.1457  1.0592  1.2141
 3465SOL     OW22030   2.810   1.290   2.996 -0.1448  0.0492 -0.1844
 3465SOL    HW122031   2.874   1.294   3.067 -1.6823 -1.9977  1.3160
 3465SOL    HW222032   2.797   1.195   2.990 -2.7221  0.4456 -1.1040
 3466SOL     OW22033   3.520   2.367   4.090  0.4428 -0.1975 -0.7638
 3466SOL    HW122034   3.436   2.325   4.070 -0.3478  0.4335  1.3045
 3466SOL    HW222035   3.504   2.460   4.077 -0.1934 -0.0748  0.9841
 3467SOL     OW22036   2.093   2.222   7.505 -0.6360 -0.4962  0.1072
 3467SOL    HW122037   2.030   2.180   7.563  0.6300 -0.9422  1.1480
 3467SOL    HW222038   2.135   2.152   7.454 -2.4009 -1.0758 -0.5351
 3468SOL     OW22039   4.553   0.582   6.655  0.2276 -0.1953  0.5514
 3468SOL    HW122040   4.533   0.555   6.565 -2.2406 -1.4343  1.4754
 3468SOL    HW222041   4.607   0.506   6.673 -2.1570 -2.5617 -2.1396
 3469SOL     OW22042   0.178   0.116   6.912  0.2813 -0.3010  0.3572
 3469SOL    HW122043   0.201   0.182   6.847 -1.2353  0.3880  0.5261
 3469SOL    HW222044   0.105   0.075   6.866  2.2333 -0.3743 -2.6600
 3470SOL     OW22045   0.966   4.439  13.965  0.1462  0.2229 -0.2926
 3470SOL    HW122046   1.042   4.460  14.019 -1.0319 -0.8434  1.8199
 3470SOL    HW222047   0.891   4.426  14.024 -0.7553 -1.8266 -1.8736
 3471SOL     OW22048   2.730   2.378  16.193  0.2704  0.2842  0.3875
 3471SOL    HW122049   2.716   2.452  16.134  0.7558  0.8549  0.9796
 3471SOL    HW222050   2.800   2.329  16.152  1.2514  0.4754  1.8071
 3472SOL     OW22051   3.051   3.928   3.013 -0.4639 -0.4349  0.0992
 3472SOL    HW122052   3.094   3.929   2.928 -0.8317  2.2296 -0.0519
 3472SOL    HW222053   3.124   3.971   3.058 -0.0945 -0.1504 -0.7797
 3473SOL     OW22054   1.280   3.801   1.123 -0.2099 -0.5944 -0.6990
 3473SOL    HW122055   1.205   3.758   1.163 -0.3555  0.6170  0.3367
 3473SOL    HW222056   1.269   3.776   1.031 -2.5492  3.2222 -1.4737
 3474SOL     OW22057   4.168   3.428   7.722  0.2390 -0.1982  0.2096
 3474SOL    HW122058   4.239   3.461   7.667  0.4169 -0.7013  0.1465
 3474SOL    HW222059   4.147   3.501   7.781 -1.1062 -1.7879  1.7166
 3475SOL     OW22060   3.432   4.210   8.726  0.1006  0.4289  0.2325
 3475SOL    HW122061   3.408   4.148   8.795 -0.5835  1.1454  0.6388
 3475SOL    HW222062   3.484   4.268   8.782  0.0838  0.6197  0.0520
 3476SOL     OW22063   4.402   4.006  10.612 -0.0394 -0.7153  0.7177
 3476SOL    HW122064   4.403   4.101  10.620 -0.2860 -0.4962 -1.8420
 3476SOL    HW222065   4.475   3.987  10.672 -0.5872 -1.3043  1.1881
 3477SOL     OW22066   4.208   3.822   5.346  0.5701  0.1872 -0.1173
 3477SOL    HW122067   4.263   3.767   5.401 -0.3067 -0.3408  0.2397
 3477SOL    HW222068   4.121   3.783   5.359  0.2717  0.7644 -0.3656
 3478SOL     OW22069   1.146   3.244   8.317  0.6470 -0.2938 -0.1964
 3478SOL    HW122070   1.141   3.330   8.277  0.3686 -0.6861 -1.0128
 3478SOL    HW222071   1.240   3.237   8.329  0.4846 -1.5665  0.3940
 3479SOL     OW22072   2.373   2.368   2.031  0.4103  0.1873  0.7773
 3479SOL    HW122073   2.289   2.337   1.998  1.6730 -1.9061 -0.4558
 3479SOL    HW222074   2.340   2.456   2.049  1.3263  0.6569  0.1642
 3480SOL     OW22075   0.653   1.275   7.996  0.3222 -0.5015  0.0041
 3480SOL    HW122076   0.588   1.330   8.041 -1.7706 -1.9669 -1.2255
 3480SOL    HW222077   0.729   1.333   8.006  2.3463 -3.6841  2.7879
 3481SOL     OW22078   4.709   0.701   7.851  0.1777  0.2023  0.6126
 3481SOL    HW122079   0.027   0.757   7.907  2.2384 -1.0686 -0.1015
 3481SOL    HW222080   4.680   0.754   7.778 -0.7066 -1.0217  0.0796
 3482SOL     OW22081   3.425   4.437   4.157  0.1718  0.5071  0.5740
 3482SOL    HW122082   3.500   4.459   4.211  0.3940 -2.9867  1.7150
 3482SOL    HW222083   3.426   4.341   4.164  1.0556  0.4379 -0.3929
 3483SOL     OW22084   3.681   0.406   6.236  0.3875  0.0771 -0.0234
 3483SOL    HW122085   3.718   0.384   6.151 -0.4778  0.6900 -0.5501
 3483SOL    HW222086   3.591   0.375   6.225  1.0855 -1.2347 -2.0259
 3484SOL     OW22087   3.620   1.404   8.220 -0.0952  0.2115  0.5175
 3484SOL    HW122088   3.616   1.385   8.127 -0.4858 -3.0331  1.2142
 3484SOL    HW222089   3.596   1.497   8.222  0.5694  0.4020 -0.4574
 3485SOL     OW22090   0.354   2.773   9.655 -0.0491  0.0249 -0.4185
 3485SOL    HW122091   0.264   2.744   9.638 -1.0419  1.4476  2.4196
 3485SOL    HW222092   0.341   2.821   9.736  0.4316 -0.6929  0.0789
 3486SOL     OW22093   2.068   2.821  12.361 -0.0979  0.1363 -0.0249
 3486SOL    HW122094   2.106   2.879  12.426  0.0995  0.4641 -0.4353
 3486SOL    HW222095   1.974   2.834  12.374 -0.0473 -0.8144  1.2608
 3487SOL     OW22096   0.391   1.613   3.796 -0.2800  0.0060  0.6155
 3487SOL    HW122097   0.451   1.634   3.868  1.6834 -0.3869 -0.9210
 3487SOL    HW222098   0.422   1.671   3.727 -3.4057  0.2442 -0.5846
 3488SOL     OW22099   4.710   4.030   7.503 -0.6535 -0.7915  0.4636
 3488SOL    HW122100   0.009   4.080   7.430  2.3528 -1.3796  1.5144
 3488SOL    HW222101   4.615   4.033   7.491 -0.4614  1.0879 -0.4996
 3489SOL     OW22102   4.144   3.687   1.434 -0.5192 -0.1008 -0.2554
 3489SOL    HW122103   4.114   3.597   1.427 -1.5315  0.0560  1.8306
 3489SOL    HW222104   4.070   3.731   1.478 -0.6371  0.5873 -1.1484
 3490SOL     OW22105   3.599   1.573  13.034 -0.3382 -0.1117  0.4783
 3490SOL    HW122106   3.602   1.484  13.067 -2.4726 -0.3568 -0.0112
 3490SOL    HW222107   3.506   1.587  13.022 -0.2912 -0.8427 -0.6370
 3491SOL     OW22108   2.444   2.167   3.543 -0.4598  0.6792  0.4775
 3491SOL    HW122109   2.492   2.084   3.545 -1.5040  0.0295 -1.6776
 3491SOL    HW222110   2.512   2.221   3.584 -0.1229 -1.0272  2.1879
 3492SOL     OW22111   3.517   4.186   3.957 -0.3433  0.5830 -0.0373
 3492SOL    HW122112   3.582   4.139   4.010 -0.2265  2.2795  1.2836
 3492SOL    HW222113   3.578   4.246   3.914  0.5378  0.7865  1.4831
 3493SOL     OW22114   0.036   3.462   8.644  0.3089 -0.2687  0.1769
 3493SOL    HW122115   4.699   3.519   8.619  1.3517  1.2493  0.5582
 3493SOL    HW222116   0.012   3.377   8.608  1.2481 -0.6858  0.5519
 3494SOL     OW22117   1.157   1.117   7.468  0.1575  0.2458 -0.4988
 3494SOL    HW122118   1.203   1.038   7.495 -0.5538  0.9471  2.7889
 3494SOL    HW222119   1.186   1.119   7.377  1.3216  0.1480 -0.1306
 3495SOL     OW22120   3.497   1.064  16.935  0.0230 -0.9126  0.1616
 3495SOL    HW122121   3.478   1.104  17.019  1.0415 -0.6956  0.2889
 3495SOL    HW222122   3.412   1.054  16.893  0.8060  1.3186 -1.9683
 3496SOL     OW22123   4.240   3.490   6.194  0.3673  0.2025 -0.3691
 3496SOL    HW122124   4.198   3.551   6.133  0.9988  0.3342 -0.6743
 3496SOL    HW222125   4.327   3.531   6.202  0.7180 -0.5044 -0.5142
 3497SOL     OW22126   2.000   3.306   7.527 -0.0419 -0.5887 -0.0577
 3497SOL    HW122127   2.027   3.370   7.592 -0.0766  1.4168 -2.0074
 3497SOL    HW222128   2.051   3.326   7.449 -0.5679  2.9196  0.5231
 3498SOL     OW22129   0.801   4.197   0.477 -0.8233 -0.5802 -0.2272
 3498SOL    HW122130   0.834   4.185   0.388 -0.5974  0.9834 -0.3531
 3498SOL    HW222131   0.740   4.123   0.477 -0.4925 -0.8432 -2.3448
 3499SOL     OW22132   0.643   2.169   5.412 -0.0184 -0.3483  0.0102
 3499SOL    HW122133   0.611   2.083   5.388 -2.0476 -0.1329  1.9630
 3499SOL    HW222134   0.733   2.165   5.379 -0.0134 -1.7175  0.2036
 3500SOL     OW22135   0.556   0.835   7.742  0.1972  0.7674 -0.3324
 3500SOL    HW122136   0.526   0.746   7.761 -1.7471  1.4652 -0.1233
 3500SOL    HW222137   0.611   0.858   7.817  0.8597 -0.1620 -0.5377
 3501SOL     OW22138   4.459   0.377   3.891  0.4405 -0.5352  0.1053
 3501SOL    HW122139   4.508   0.436   3.833  0.7853  0.1136  1.0634
 3501SOL    HW222140   4.440   0.425   3.971 -1.0538 -0.0682 -0.5295
 3502SOL     OW22141   2.484   3.844   5.363 -0.5329 -0.3021  0.0212
 3502SOL    HW122142   2.520   3.832   5.451 -1.7299  1.0648  0.7008
 3502SOL    HW222143   2.480   3.759   5.319 -0.6568  0.3496 -1.2408
 3503SOL     OW22144   3.532   0.391   2.397 -0.4828  0.0757  0.0883
 3503SOL    HW122145   3.576   0.307   2.411 -3.0625 -1.1409  1.0879
 3503SOL    HW222146   3.570   0.405   2.311  2.0334  1.6155  1.4433
 3504SOL     OW22147   3.711   2.143   4.731  0.0235 -0.5894 -0.4967
 3504SOL    HW122148   3.732   2.138   4.638 -1.4908 -0.5804 -0.8507
 3504SOL    HW222149   3.779   2.196   4.772  0.3529 -0.3879 -1.3113
 3505SOL     OW22150   4.438   4.509   9.577  0.3500  0.0822  0.5693
 3505SOL    HW122151   4.466   4.446   9.511 -1.2889 -0.5718  0.4879
 3505SOL    HW222152   4.343   4.516   9.567  0.4084  2.2088  1.3732
 3506SOL     OW22153   1.319   2.082   8.186 -0.1425  0.1197  0.3404
 3506SOL    HW122154   1.262   2.026   8.132  0.7676  0.6893 -1.1941
 3506SOL    HW222155   1.332   2.160   8.133 -0.4915  0.2527  0.4474
 3507SOL     OW22156   1.926   1.633  16.288 -0.0881 -1.1256  0.0195
 3507SOL    HW122157   1.995   1.691  16.256  0.0775 -0.4732  1.5671
 3507SOL    HW222158   1.852   1.693  16.273  1.2755  1.4307  3.4641
 3508SOL     OW22159   0.552   3.754   8.801  0.2691 -0.5969 -0.2895
 3508SOL    HW122160   0.552   3.712   8.715 -0.7773 -2.3000  0.5378
 3508SOL    HW222161   0.640   3.732   8.832  0.2913 -0.4746 -0.2652
 3509SOL     OW22162   3.667   2.872   5.809  0.0222  0.4429 -0.1882
 3509SOL    HW122163   3.760   2.893   5.802 -0.0270  0.8070  0.1993
 3509SOL    HW222164   3.629   2.959   5.825 -0.5609  0.3839 -1.2653
 3510SOL     OW22165   3.736   3.600  14.424 -0.0063 -0.3539 -0.8757
 3510SOL    HW122166   3.744   3.580  14.331  0.7095 -1.4713 -0.5744
 3510SOL    HW222167   3.646   3.633  14.428 -0.2421 -0.9376 -1.4427
 3511SOL     OW22168   0.304   0.431   7.524  0.0114  0.0999 -0.1462
 3511SOL    HW122169   0.359   0.411   7.600 -2.8838  1.3483  2.2637
 3511SOL    HW222170   0.233   0.462   7.579  0.7099  0.3048  0.6413
 3512SOL     OW22171   0.249   4.107   8.164 -0.2637 -0.6509  0.0781
 3512SOL    HW122172   0.169   4.067   8.198 -0.1092 -2.8854 -2.2663
 3512SOL    HW222173   0.311   4.039   8.189 -0.9815 -1.3046  0.0937
 3513SOL     OW22174   2.196   0.561   6.215 -0.6184 -0.1566 -0.3822
 3513SOL    HW122175   2.166   0.651   6.230 -0.9166 -0.2007 -0.6951
 3513SOL    HW222176   2.169   0.512   6.292  1.6026 -0.9969 -0.1473
 3514SOL     OW22177   2.189   4.064  11.073  0.3113  1.1834  0.0179
 3514SOL    HW122178   2.255   4.134  11.073 -0.2104  1.6772  0.3327
 3514SOL    HW222179   2.178   4.064  11.168 -0.1111 -1.4999 -0.0378
 3515SOL     OW22180   0.673   2.734  15.615 -0.3709 -0.3699  0.1907
 3515SOL    HW122181   0.607   2.801  15.637 -0.3653 -0.8060  1.5461
 3515SOL    HW222182   0.752   2.742  15.668  1.1754 -0.3389 -2.1167
 3516SOL     OW22183   1.220   2.976   3.765 -0.2573  0.4627  0.5997
 3516SOL    HW122184   1.199   3.033   3.691  0.5403 -0.7672 -0.5710
 3516SOL    HW222185   1.220   2.898   3.711 -0.5962  1.5642 -0.9957
 3517SOL     OW22186   2.999   4.008  13.450  0.2468 -0.3340  0.4038
 3517SOL    HW122187   3.052   4.083  13.475  0.8209 -0.1725 -1.2837
 3517SOL    HW222188   2.916   4.053  13.436  0.4126  0.1453  0.9692
 3518SOL     OW22189   1.918   1.750   0.700 -0.6692 -0.4011 -0.6680
 3518SOL    HW122190   1.911   1.703   0.783 -0.1361 -1.8475 -1.4451
 3518SOL    HW222191   1.996   1.801   0.722 -0.7307 -0.6646  0.1759
 3519SOL     OW22192   2.454   0.502   5.507 -0.1109 -0.1535 -0.7534
 3519SOL    HW122193   2.369   0.489   5.550 -0.3385 -1.0038 -1.4599
 3519SOL    HW222194   2.460   0.596   5.526 -1.0122  0.2008 -2.2133
 3520SOL     OW22195   4.397   1.985   6.546  0.1861 -0.1549 -0.1215
 3520SOL    HW122196   4.448   1.966   6.624  1.0279 -3.1383 -1.3909
 3520SOL    HW222197   4.446   1.935   6.481 -1.3821 -2.5455  0.5360
 3521SOL     OW22198   4.079   0.647   4.541  0.2182  0.6280 -0.4448
 3521SOL    HW122199   4.149   0.701   4.576  0.2214  0.8894 -0.8466
 3521SOL    HW222200   4.009   0.712   4.531 -2.1016 -2.0650 -1.6016
 3522SOL     OW22201   1.769   1.192   9.089 -0.0489  0.2107  0.2173
 3522SOL    HW122202   1.696   1.158   9.039  1.8785 -1.0538 -1.7442
 3522SOL    HW222203   1.849   1.164   9.044 -0.8813 -0.1617 -1.0184
 3523SOL     OW22204   4.029   4.243  13.090  0.1379  0.0822 -0.6386
 3523SOL    HW122205   3.946   4.205  13.120  1.1467 -0.9026  0.9167
 3523SOL    HW222206   4.063   4.255  13.179 -0.0201 -2.1372 -0.2943
 3524SOL     OW22207   0.603   1.373   4.174  0.0031  0.2325  0.5021
 3524SOL    HW122208   0.533   1.370   4.240  0.1680  0.6473  0.6911
 3524SOL    HW222209   0.670   1.318   4.214  0.2456  0.3300  0.2247
 3525SOL     OW22210   0.492   1.002  17.362 -0.2860  0.4875  0.3126
 3525SOL    HW122211   0.556   0.981  17.294  0.0313 -1.6417  1.2635
 3525SOL    HW222212   0.530   1.086  17.387 -0.6722  0.5500  0.6744
 3526SOL     OW22213   3.272   3.294   7.017 -0.1872 -0.1121 -0.0040
 3526SOL    HW122214   3.333   3.233   6.976  0.2977 -1.1412  2.2465
 3526SOL    HW222215   3.292   3.379   6.976 -1.2827  1.1833  2.1409
 3527SOL     OW22216   2.100   1.147   0.931 -0.0572  0.2706  0.0920
 3527SOL    HW122217   2.113   1.152   1.026  0.6174  0.7791 -0.0257
 3527SOL    HW222218   2.008   1.170   0.919 -0.2494  0.0927  1.2446
 3528SOL     OW22219   4.685   4.518   4.694  0.6453  0.3854  0.6618
 3528SOL    HW122220   4.618   4.466   4.738  2.0770  0.5875  3.0958
 3528SOL    HW222221   0.033   4.484   4.725  0.7019 -0.4509 -0.4394
 3529SOL     OW22222   3.062   1.326   5.921  0.1597  0.3388  0.0249
 3529SOL    HW122223   3.048   1.280   5.839 -0.9179 -0.0093  0.4081
 3529SOL    HW222224   3.148   1.297   5.951  0.6169 -0.6446 -2.2410
 3530SOL     OW22225   2.282   2.851   5.979  0.4408  0.3644  0.1871
 3530SOL    HW122226   2.333   2.782   5.937 -0.3328 -0.9465  1.4015
 3530SOL    HW222227   2.267   2.804   6.061 -0.5611  1.4191  0.6113
 3531SOL     OW22228   3.975   0.951   4.875 -0.0020 -0.1617  0.3005
 3531SOL    HW122229   4.042   0.920   4.935  0.8526  0.1075 -0.5078
 3531SOL    HW222230   3.958   1.036   4.915 -2.0215  0.7985 -2.5631
 3532SOL     OW22231   3.764   0.194   3.069 -0.2040  0.0634 -0.0381
 3532SOL    HW122232   3.712   0.267   3.103 -2.6921 -2.1719  0.8939
 3532SOL    HW222233   3.695   0.137   3.036 -0.7203 -0.5240  2.1004
 3533SOL     OW22234   1.909   0.433   6.599 -0.2328 -0.3234  0.2209
 3533SOL    HW122235   1.977   0.381   6.642  1.3577  1.5278 -0.0619
 3533SOL    HW222236   1.880   0.383   6.523  0.6060 -1.6028  0.7288
 3534SOL     OW22237   1.392   0.568  12.114  0.4390 -0.3588 -0.4152
 3534SOL    HW122238   1.471   0.622  12.119  0.4364 -0.3866 -0.0220
 3534SOL    HW222239   1.420   0.503  12.179 -2.5780 -1.8118 -0.5573
 3535SOL     OW22240   4.401   4.660   3.436 -0.3752  0.6308 -0.0981
 3535SOL    HW122241   4.319   4.625   3.400 -0.9116  0.0320  1.7017
 3535SOL    HW222242   4.385   4.661   3.530  0.4618  2.0525  0.0207
 3536SOL     OW22243   1.348   4.506   8.433 -0.1394  0.4941 -0.2585
 3536SOL    HW122244   1.425   4.493   8.489 -1.2265  0.8250  1.3228
 3536SOL    HW222245   1.347   4.422   8.387  0.0058 -0.0392  0.7154
 3537SOL     OW22246   3.743   1.334   1.332  0.0300 -0.3310 -0.1992
 3537SOL    HW122247   3.779   1.367   1.250 -0.2668 -1.9438 -0.9943
 3537SOL    HW222248   3.782   1.247   1.338 -1.3782 -0.7854  2.4425
 3538SOL     OW22249   2.635   3.426   4.953  0.3929  0.2068  0.2274
 3538SOL    HW122250   2.705   3.413   4.889  0.0594  0.5467 -0.2101
 3538SOL    HW222251   2.630   3.519   4.930 -0.4722 -0.0542 -0.6402
 3539SOL     OW22252   3.392   0.631   2.308  0.5185 -0.2455  0.7559
 3539SOL    HW122253   3.297   0.619   2.321  0.5285 -2.4238 -1.2032
 3539SOL    HW222254   3.425   0.549   2.346  0.4998 -0.1636  0.9505
 3540SOL     OW22255   1.686   0.944   7.427  0.7710  0.3346 -0.4727
 3540SOL    HW122256   1.765   0.997   7.423  0.3849  0.9963  0.5158
 3540SOL    HW222257   1.722   0.858   7.404 -0.5276 -0.9714  2.3380
 3541SOL     OW22258   2.878   0.679   4.591  0.1400 -0.0273  0.1160
 3541SOL    HW122259   2.872   0.741   4.519  0.2530 -0.0850  0.0569
 3541SOL    HW222260   2.973   0.671   4.581 -0.0926  0.0389 -2.0068
 3542SOL     OW22261   2.622   2.396   2.099 -0.1239  0.0757 -0.0520
 3542SOL    HW122262   2.663   2.408   2.014 -0.5265 -0.0574 -0.2633
 3542SOL    HW222263   2.530   2.415   2.082 -0.1940 -0.9290 -0.8045
 3543SOL     OW22264   1.521   0.316  10.999 -0.1617  0.4806  0.0501
 3543SOL    HW122265   1.515   0.284  11.089 -2.6736  1.7972  0.3283
 3543SOL    HW222266   1.562   0.401  11.016  1.3731  0.6751 -4.4194
 3544SOL     OW22267   2.194   4.415   9.050 -0.4082 -0.6267 -0.5683
 3544SOL    HW122268   2.262   4.373   8.999 -0.0385 -1.5429  0.6693
 3544SOL    HW222269   2.255   4.438   9.120 -0.7926  0.3831 -0.5659
 3545SOL     OW22270   2.269   0.066  17.713  0.0962 -0.2909  0.0008
 3545SOL    HW122271   2.260   0.038   0.063 -0.2014  0.7891  0.2921
 3545SOL    HW222272   2.200   0.132  17.710  2.9656  2.6939  0.2032
 3546SOL     OW22273   4.178   3.751   3.791  0.5488 -0.1925  0.5175
 3546SOL    HW122274   4.152   3.720   3.878 -1.9813 -0.5100 -0.3250
 3546SOL    HW222275   4.174   3.846   3.796  1.6306 -0.0558 -1.0850
 3547SOL     OW22276   0.228   3.580   7.382  0.2701  0.1299 -0.1235
 3547SOL    HW122277   0.164   3.513   7.358 -1.7586  1.2383  2.0975
 3547SOL    HW222278   0.194   3.665   7.355  0.1905 -0.0761 -0.6722
 3548SOL     OW22279   3.211   1.471   6.245 -0.2883  0.4543 -0.2531
 3548SOL    HW122280   3.294   1.518   6.254 -0.4113  0.6854 -0.3149
 3548SOL    HW222281   3.205   1.418   6.324  0.2522  0.2843 -0.3276
 3549SOL     OW22282   4.376   2.950  17.141 -0.5102 -1.4900 -0.3927
 3549SOL    HW122283   4.286   2.935  17.113 -1.1610 -1.1938  1.5261
 3549SOL    HW222284   4.387   3.034  17.097  0.9200 -2.4159 -1.7942
 3550SOL     OW22285   0.856   0.616  11.038  0.9593  0.5238 -0.2012
 3550SOL    HW122286   0.908   0.637  11.116  0.8647 -2.6511  0.7251
 3550SOL    HW222287   0.910   0.548  10.999  0.3005 -0.0800 -0.0614
 3551SOL     OW22288   0.132   3.577  13.695 -0.5418 -0.2689  0.0571
 3551SOL    HW122289   0.196   3.570  13.767  0.5302 -0.9071 -0.9518
 3551SOL    HW222290   0.052   3.544  13.736 -1.9000  0.8159 -1.7058
 3552SOL     OW22291   0.143   2.382   1.843  0.4377  0.2814  0.3702
 3552SOL    HW122292   0.228   2.421   1.864  0.2597  1.0304 -0.2813
 3552SOL    HW222293   0.077   2.433   1.890 -1.6351 -0.6985 -1.4699
 3553SOL     OW22294   3.862   0.302  15.208 -0.7324 -0.4446 -0.0815
 3553SOL    HW122295   3.825   0.330  15.124  1.0032  1.5227 -0.2023
 3553SOL    HW222296   3.791   0.246  15.237  0.5512 -2.5318 -0.9521
 3554SOL     OW22297   3.663   3.907   3.487 -0.1660 -0.4587 -0.8974
 3554SOL    HW122298   3.708   3.848   3.548 -2.9605  0.7005  2.3070
 3554SOL    HW222299   3.592   3.848   3.461  0.4055 -1.3570 -0.4229
 3555SOL     OW22300   1.456   4.372   1.059 -1.0905 -0.5592  0.5862
 3555SOL    HW122301   1.449   4.412   0.972  0.0425  2.3837  1.8482
 3555SOL    HW222302   1.550   4.375   1.075 -1.1868 -0.0542  1.0539
 3556SOL     OW22303   2.714   1.663  12.486 -0.1774 -0.4339  0.0108
 3556SOL    HW122304   2.664   1.624  12.414  1.2394 -0.6114 -0.8676
 3556SOL    HW222305   2.675   1.751  12.489  0.8036  0.0194 -0.6945
 3557SOL     OW22306   1.766   0.780   0.848 -0.0507 -0.3093 -0.3996
 3557SOL    HW122307   1.756   0.862   0.799  0.0612  0.5080  0.9432
 3557SOL    HW222308   1.773   0.806   0.940 -2.3079 -2.6763  0.4342
 3558SOL     OW22309   1.803   2.530   1.168 -0.5226  0.0205  0.4008
 3558SOL    HW122310   1.800   2.572   1.253 -0.3527 -1.1340  0.9835
 3558SOL    HW222311   1.751   2.589   1.113  1.0900  1.6556  0.6268
 3559SOL     OW22312   3.717   2.188   1.557  0.3190  0.1057 -0.5242
 3559SOL    HW122313   3.718   2.193   1.653 -0.3689 -0.9597 -0.4636
 3559SOL    HW222314   3.702   2.094   1.544  0.1572  0.4701 -2.9688
 3560SOL     OW22315   0.840   4.405   5.558  0.4250 -0.0660 -0.3748
 3560SOL    HW122316   0.804   4.317   5.572  0.1798  0.0219 -0.4511
 3560SOL    HW222317   0.807   4.438   5.474  0.5879 -1.2928 -0.9308
 3561SOL     OW22318   2.554   1.571  16.954  0.5869 -0.0570  0.3670
 3561SOL    HW122319   2.541   1.649  17.008  1.7576 -1.5298  2.7567
 3561SOL    HW222320   2.525   1.604  16.869  1.7700 -0.1252 -0.0662
 3562SOL     OW22321   1.657   2.174   8.541 -0.3838 -0.1990 -0.4011
 3562SOL    HW122322   1.590   2.242   8.531 -1.4132 -1.2923 -0.8503
 3562SOL    HW222323   1.721   2.209   8.603  0.4076 -0.7676 -0.9012
 3563SOL     OW22324   3.764   3.588   7.588 -0.0237  0.3265  0.5144
 3563SOL    HW122325   3.748   3.626   7.674 -0.1467  2.8748 -0.6248
 3563SOL    HW222326   3.756   3.494   7.600  1.9791  0.3807  2.2038
 3564SOL     OW22327   1.585   1.824  11.381  0.3071 -0.0804 -0.2449
 3564SOL    HW122328   1.571   1.906  11.428 -0.6738 -0.8522  0.8212
 3564SOL    HW222329   1.659   1.786  11.429  0.1804  1.1314  0.9142
 3565SOL     OW22330   0.840   2.635   2.364 -0.7984  0.5202 -0.1773
 3565SOL    HW122331   0.814   2.573   2.296  0.1475 -1.4757  1.2658
 3565SOL    HW222332   0.931   2.643   2.339  0.2856 -1.8425  2.9390
 3566SOL     OW22333   2.302   1.164   0.561 -0.2367  0.9430  0.6422
 3566SOL    HW122334   2.233   1.187   0.500  0.5474  3.1511  0.5971
 3566SOL    HW222335   2.376   1.210   0.521  1.5800 -1.6406  0.9941
 3567SOL     OW22336   3.201   3.254   6.648  0.1246  0.6106 -1.0493
 3567SOL    HW122337   3.212   3.309   6.571  0.0799  2.0416 -0.0530
 3567SOL    HW222338   3.127   3.199   6.624  0.0404 -0.1827  1.0430
 3568SOL     OW22339   2.130   2.294  13.795  0.2071  0.3035  0.4643
 3568SOL    HW122340   2.198   2.357  13.819  0.8016 -1.1739  2.7897
 3568SOL    HW222341   2.195   2.226  13.777 -1.6653 -1.2554 -0.4112
 3569SOL     OW22342   3.129   1.596   2.810 -0.4958  0.4525 -0.2285
 3569SOL    HW122343   3.138   1.501   2.822  2.9458  0.9336  0.8996
 3569SOL    HW222344   3.091   1.622   2.894  0.7977  1.2210  0.1143
 3570SOL     OW22345   4.136   4.597   4.144 -0.5923  0.1071  0.0163
 3570SOL    HW122346   4.163   4.686   4.123  0.0579  0.0120  0.4492
 3570SOL    HW222347   4.201   4.539   4.106 -1.0182  1.4937 -2.8119
 3571SOL     OW22348   0.655   2.887  16.589 -0.0647  0.8442  0.5193
 3571SOL    HW122349   0.673   2.794  16.573  0.7383  1.1759 -0.5362
 3571SOL    HW222350   0.673   2.885  16.683  0.2698  0.0816  0.4408
 3572SOL     OW22351   0.663   0.689  11.212 -0.0030 -0.5612  0.9233
 3572SOL    HW122352   0.741   0.654  11.254 -0.0277 -2.0273 -0.2606
 3572SOL    HW222353   0.630   0.606  11.178  0.8228  0.1073 -1.4880
 3573SOL     OW22354   0.972   3.580   1.869 -0.4336 -0.1118 -0.0151
 3573SOL    HW122355   0.966   3.660   1.921 -0.2065 -0.5695  0.7090
 3573SOL    HW222356   1.016   3.604   1.788  2.5567  0.3874  1.7472
 3574SOL     OW22357   1.367   4.687   2.378  0.1591  0.5122 -0.5907
 3574SOL    HW122358   1.386   0.045   2.380 -1.0049  0.7391  0.0476
 3574SOL    HW222359   1.355   4.671   2.472 -3.9196 -0.8329 -1.3118
 3575SOL     OW22360   2.601   1.234   1.465  0.8432 -0.2032  0.3705
 3575SOL    HW122361   2.665   1.279   1.409  0.9915 -1.0052 -0.1069
 3575SOL    HW222362   2.555   1.175   1.404  0.0073  1.0078 -0.1750
 3576SOL     OW22363   2.235   1.335  16.638  0.1273 -0.5785 -0.4144
 3576SOL    HW122364   2.297   1.306  16.704  0.7928  0.6438 -0.5140
 3576SOL    HW222365   2.180   1.257  16.629 -2.3526  1.0390  0.8071
 3577SOL     OW22366   0.636   0.517   2.077  0.0871  0.8809  0.3107
 3577SOL    HW122367   0.680   0.437   2.048  3.0703  2.0059  1.8023
 3577SOL    HW222368   0.721   0.557   2.092  1.2707 -1.2506 -0.6947
 3578SOL     OW22369   3.684   3.983  11.210 -0.0334 -0.2756 -0.1191
 3578SOL    HW122370   3.777   3.958  11.209 -0.0779 -0.4066 -0.8969
 3578SOL    HW222371   3.653   3.959  11.122  0.2968 -0.0222 -0.3041
 3579SOL     OW22372   2.527   0.693   4.309  0.0809  0.6444  0.4230
 3579SOL    HW122373   2.510   0.613   4.359 -2.1003  1.5014  1.0613
 3579SOL    HW222374   2.540   0.744   4.388  1.8843 -2.0879  1.8849
 3580SOL     OW22375   3.166   3.769   7.553  0.1023 -0.3791 -0.0420
 3580SOL    HW122376   3.230   3.795   7.486  0.4774 -1.5211 -0.1328
 3580SOL    HW222377   3.211   3.692   7.589  0.6702  0.5708  1.2744
 3581SOL     OW22378   1.352   4.723   7.942 -0.1768  0.5676  0.2589
 3581SOL    HW122379   1.274   4.695   7.990  1.3026 -2.4197  0.8942
 3581SOL    HW222380   1.372   0.068   7.989 -0.4532  0.6689  0.2018
 3582SOL     OW22381   2.861   4.652   3.843  0.3958  0.2768 -0.7064
 3582SOL    HW122382   2.831   4.561   3.850 -0.7668  0.6684 -0.6100
 3582SOL    HW222383   2.860   4.670   3.937 -0.5219 -1.5412 -0.3733
 3583SOL     OW22384   4.323   4.136   1.609 -0.1541  0.4367 -0.7495
 3583SOL    HW122385   4.369   4.096   1.683 -1.1867 -0.0606 -0.3761
 3583SOL    HW222386   4.328   4.229   1.630 -0.6725  0.3172 -0.0754
 3584SOL     OW22387   3.643   3.615   9.249  0.0109  0.2733  0.2559
 3584SOL    HW122388   3.586   3.686   9.278 -0.9436  0.1156 -1.2587
 3584SOL    HW222389   3.728   3.642   9.284 -0.3294  1.5352  0.1098
 3585SOL     OW22390   3.606   0.803   0.967 -0.1803 -0.3622 -0.4671
 3585SOL    HW122391   3.614   0.799   0.872 -1.3443  2.4465 -0.6732
 3585SOL    HW222392   3.569   0.717   0.986  0.4493 -0.9220 -1.7444
 3586SOL     OW22393   0.178   3.895   3.683 -0.4320  0.1161 -0.1996
 3586SOL    HW122394   0.084   3.893   3.702 -0.1082 -3.4146  1.1113
 3586SOL    HW222395   0.182   3.851   3.598  1.5047  0.9582 -0.5377
 3587SOL     OW22396   0.369   3.464  16.570  0.2802  0.0241 -0.0063
 3587SOL    HW122397   0.411   3.496  16.490 -0.9063 -1.8591 -1.3681
 3587SOL    HW222398   0.441   3.415  16.610 -0.1585 -1.2172 -0.7508
 3588SOL     OW22399   1.367   4.687   4.325  0.2936  0.0150  0.2353
 3588SOL    HW122400   1.307   4.686   4.250  0.0199 -3.4405  0.5369
 3588SOL    HW222401   1.368   4.593   4.342 -2.0627 -0.4063 -1.8867
 3589SOL     OW22402   4.433   0.176  12.790  0.5832  0.4350 -0.3608
 3589SOL    HW122403   4.518   0.133  12.788  1.1959  1.7219 -2.4184
 3589SOL    HW222404   4.454   0.252  12.736  0.2776 -0.7217 -2.1216
 3590SOL     OW22405   0.002   2.563   7.881  0.6372 -0.5517 -0.6760
 3590SOL    HW122406   0.009   2.571   7.976  0.4651 -1.2282 -0.6085
 3590SOL    HW222407   0.035   2.474   7.871 -1.4717 -1.4877  0.6112
 3591SOL     OW22408   0.837   4.436  11.362  0.1127  0.0223 -0.3659
 3591SOL    HW122409   0.831   4.502  11.293 -2.1629  0.7738  0.5660
 3591SOL    HW222410   0.885   4.480  11.432  1.4017 -2.7811  0.5371
 3592SOL     OW22411   1.776   2.998   2.054 -0.2929 -0.2199 -0.3981
 3592SOL    HW122412   1.697   3.005   2.001  1.6174 -2.2405 -3.5654
 3592SOL    HW222413   1.761   3.054   2.130  0.0611  0.7363 -1.0328
 3593SOL     OW22414   4.210   1.498  14.856  0.3349  0.5498  0.4674
 3593SOL    HW122415   4.288   1.522  14.906  2.0801 -1.3932 -1.3051
 3593SOL    HW222416   4.160   1.490  14.937  2.1974 -1.8024  1.3935
 3594SOL     OW22417   1.922   4.647   5.415 -0.7861 -0.0780  0.1903
 3594SOL    HW122418   1.854   4.714   5.418  1.1367  1.8316  1.3978
 3594SOL    HW222419   2.002   4.700   5.422 -0.9528 -0.2227  3.4867
 3595SOL     OW22420   0.172   0.266   3.510  0.3739 -0.2597  0.0486
 3595SOL    HW122421   0.199   0.183   3.472 -1.0095 -0.8847  0.4027
 3595SOL    HW222422   0.255   0.306   3.534  0.4922 -0.9065  0.7156
 3596SOL     OW22423   0.615   2.781   8.988 -0.2257 -0.1215  0.3346
 3596SOL    HW122424   0.648   2.779   9.078  2.5507 -1.9506 -0.7694
 3596SOL    HW222425   0.536   2.727   8.989 -0.0655 -0.3593 -0.3526
 3597SOL     OW22426   2.067   4.490   3.570  0.5601 -0.0102 -0.1131
 3597SOL    HW122427   2.157   4.523   3.565  0.4135  0.3367 -0.4404
 3597SOL    HW222428   2.056   4.488   3.665 -0.0869  0.5729 -0.1740
 3598SOL     OW22429   2.285   0.008   6.920  0.2693  0.7568 -0.1675
 3598SOL    HW122430   2.312   4.708   7.005  1.1852  3.1817  0.5527
 3598SOL    HW222431   2.258   0.094   6.953 -1.5341  0.8037 -1.7983
 3599SOL     OW22432   2.380   3.609  10.775  0.2812 -0.2278  0.2647
 3599SOL    HW122433   2.410   3.518  10.780  0.3405 -0.0899  2.4890
 3599SOL    HW222434   2.300   3.603  10.827 -0.4109 -3.2028 -1.1348
 3600SOL     OW22435   1.780   1.455  14.350 -0.3212 -0.4072 -0.1154
 3600SOL    HW122436   1.736   1.371  14.366  2.1089 -1.7396 -0.3870
 3600SOL    HW222437   1.780   1.456  14.255  1.2345 -2.0552 -0.1455
 3601SOL     OW22438   3.878   3.767   9.294  0.0097 -0.2261 -0.1777
 3601SOL    HW122439   3.919   3.760   9.380 -1.5319 -1.0523  0.4822
 3601SOL    HW222440   3.855   3.860   9.298  1.9823  0.1619  2.1164
 3602SOL     OW22441   1.675   3.099   0.954 -0.1853 -0.2827  0.4517
 3602SOL    HW122442   1.687   3.133   0.866  2.2642 -0.0650  0.8600
 3602SOL    HW222443   1.580   3.094   0.963 -0.5090  1.6240 -2.1323
 3603SOL     OW22444   4.390   0.320   9.914  0.2909  0.0132  0.3849
 3603SOL    HW122445   4.411   0.408   9.945  0.1842  0.2981 -0.3340
 3603SOL    HW222446   4.395   0.344   9.821 -0.8593  0.3584  0.4114
 3604SOL     OW22447   2.079   0.740   9.485 -0.3149  0.0790  0.7300
 3604SOL    HW122448   2.147   0.786   9.434 -0.4678 -1.3889 -0.7870
 3604SOL    HW222449   2.074   0.656   9.439  0.0833  0.3823  0.1257
 3605SOL     OW22450   4.087   3.768   8.636  0.0128 -0.0135 -0.0150
 3605SOL    HW122451   4.093   3.862   8.624 -1.5350  0.3658  2.1312
 3605SOL    HW222452   4.104   3.744   8.545  0.3932  1.1532 -0.2444
 3606SOL     OW22453   3.421   3.650   7.626 -0.1023  0.1571 -0.1063
 3606SOL    HW122454   3.508   3.610   7.625  0.0332  0.5007 -1.1796
 3606SOL    HW222455   3.442   3.741   7.645 -1.2505  0.1277  1.3791
 3607SOL     OW22456   3.141   0.731   6.937 -0.4657 -0.3544 -0.6055
 3607SOL    HW122457   3.170   0.804   6.883 -0.6337  0.1270 -0.0518
 3607SOL    HW222458   3.159   0.765   7.025 -1.0866 -0.4065 -0.4602
 3608SOL     OW22459   0.013   1.053   2.483 -0.0427  0.0048  0.4655
 3608SOL    HW122460   4.675   1.056   2.423  0.4573  0.3608 -0.1265
 3608SOL    HW222461   4.712   1.025   2.567 -1.0614 -0.6996 -0.2178
 3609SOL     OW22462   2.975   0.558   3.182 -0.3243 -0.7394  0.4137
 3609SOL    HW122463   3.060   0.570   3.225 -1.2359  0.1396  1.9226
 3609SOL    HW222464   2.958   0.638   3.132  0.3309 -0.8004  0.0913
 3610SOL     OW22465   2.290   1.781  16.809 -0.0351 -0.0202  0.0498
 3610SOL    HW122466   2.226   1.710  16.806  0.7328 -0.7092 -0.0496
 3610SOL    HW222467   2.365   1.739  16.767  1.3080  1.3967  1.0481
 3611SOL     OW22468   1.115   1.215   8.933  0.1794 -0.3124  0.0438
 3611SOL    HW122469   1.024   1.244   8.929  0.3207  0.1284  0.0616
 3611SOL    HW222470   1.161   1.276   8.876  1.9536 -1.9788 -0.3018
 3612SOL     OW22471   3.327   3.113  10.033  0.2402 -0.0986 -0.2002
 3612SOL    HW122472   3.240   3.141  10.005  0.4970 -0.7630 -1.6509
 3612SOL    HW222473   3.383   3.135   9.959 -0.6341  0.7838 -0.5967
 3613SOL     OW22474   1.587   2.802  16.440  0.4693 -0.3645 -0.5390
 3613SOL    HW122475   1.652   2.753  16.490  0.4326 -2.1807 -2.2597
 3613SOL    HW222476   1.622   2.891  16.439 -1.2736  0.3380  1.3632
 3614SOL     OW22477   4.361   4.134   4.598  0.4247  0.0339  0.1896
 3614SOL    HW122478   4.425   4.159   4.665  0.7035 -1.1423  0.3642
 3614SOL    HW222479   4.332   4.047   4.624 -2.7476  0.9433 -0.3291
 3615SOL     OW22480   0.992   0.505   8.814 -0.0245 -0.3202  0.2871
 3615SOL    HW122481   1.003   0.595   8.844 -0.3791 -0.0011 -0.5457
 3615SOL    HW222482   1.044   0.473   8.887 -0.6102 -1.3393  0.2515
 3616SOL     OW22483   2.726   2.825   5.700 -0.4248  0.3400  0.1872
 3616SOL    HW122484   2.811   2.836   5.657 -0.3135  0.2392  0.3809
 3616SOL    HW222485   2.692   2.744   5.663 -3.5383  2.2590 -1.1515
 3617SOL     OW22486   2.149   3.630  10.942  0.0574 -0.6849 -0.1518
 3617SOL    HW122487   2.062   3.592  10.956  0.3849 -1.1885  0.5150
 3617SOL    HW222488   2.125   3.723  10.941 -2.6177 -1.3788  0.2006
 3618SOL     OW22489   3.911   1.400   3.090 -0.0269  0.5491  0.1392
 3618SOL    HW122490   3.838   1.359   3.044 -0.4758  0.2816  1.0764
 3618SOL    HW222491   3.864   1.445   3.161  1.2314 -0.7889  1.8358
 3619SOL     OW22492   0.343   1.415   5.950 -0.1669 -0.2989  0.3418
 3619SOL    HW122493   0.356   1.433   6.043 -0.6087  2.5213 -0.1593
 3619SOL    HW222494   0.426   1.449   5.916 -0.3175 -0.0697  0.2046
 3620SOL     OW22495   2.098   3.494   6.262 -0.0687 -0.6482  0.3695
 3620SOL    HW122496   2.021   3.439   6.278 -0.9702  0.0156 -1.7066
 3620SOL    HW222497   2.056   3.580   6.259  1.1542 -0.0793 -0.2632
 3621SOL     OW22498   4.734   2.172  16.582 -0.5374 -0.1307 -0.0871
 3621SOL    HW122499   0.045   2.099  16.623  1.6295 -0.1253 -2.5294
 3621SOL    HW222500   4.645   2.158  16.615 -0.1911  3.0313  2.1615
 3622SOL     OW22501   0.093   3.677   6.793  0.4172 -0.0468  0.2472
 3622SOL    HW122502   0.110   3.611   6.860  3.2713  0.4305  0.0023
 3622SOL    HW222503   0.104   3.625   6.713 -3.0091  1.0296 -0.9261
 3623SOL     OW22504   1.665   3.704   7.403  0.3261  0.1395  0.1851
 3623SOL    HW122505   1.682   3.625   7.351 -0.3646  0.4522 -0.5112
 3623SOL    HW222506   1.701   3.662   7.482  0.4419  0.0904  0.1057
 3624SOL     OW22507   2.392   3.683  12.830 -0.2028  0.6145  0.1267
 3624SOL    HW122508   2.345   3.682  12.913 -0.3195  2.0315  0.0691
 3624SOL    HW222509   2.340   3.749  12.784 -0.1718  0.5682  0.0242
 3625SOL     OW22510   4.171   2.363   2.679 -0.3961  0.7051  0.0121
 3625SOL    HW122511   4.090   2.403   2.646 -1.7420 -1.5741  0.5776
 3625SOL    HW222512   4.153   2.270   2.689 -0.5415  0.8003  0.6313
 3626SOL     OW22513   3.965   0.941  13.373  0.1558  0.0458 -0.2633
 3626SOL    HW122514   3.916   1.022  13.359  1.5965  0.7441 -1.2743
 3626SOL    HW222515   4.032   0.961  13.307 -0.7782 -1.2516 -1.6065
 3627SOL     OW22516   2.752   3.774   5.858 -0.5929  0.4570  0.3013
 3627SOL    HW122517   2.844   3.765   5.880 -0.6683 -3.3799 -0.8500
 3627SOL    HW222518   2.702   3.756   5.938  0.1370 -2.0419  0.1796
 3628SOL     OW22519   4.375   0.827   3.322 -0.0484 -0.1040  0.7445
 3628SOL    HW122520   4.414   0.775   3.392  2.2527  0.4400 -0.1253
 3628SOL    HW222521   4.365   0.902   3.381 -0.4844  0.1166  0.3948
 3629SOL     OW22522   1.296   2.885  13.071  0.7664  0.3443 -0.3237
 3629SOL    HW122523   1.213   2.841  13.054  0.0118  2.2020 -1.4472
 3629SOL    HW222524   1.286   2.915  13.162  1.1489  0.2800 -0.2582
 3630SOL     OW22525   0.725   0.806   6.458 -0.0682  0.0002 -0.5932
 3630SOL    HW122526   0.760   0.719   6.441 -1.0749 -0.7200  1.0311
 3630SOL    HW222527   0.708   0.841   6.371 -1.1335  2.9186  0.7898
 3631SOL     OW22528   4.703   0.523   4.090 -0.1559 -0.7199  0.2887
 3631SOL    HW122529   4.648   0.446   4.105 -2.1466  0.6968  0.2772
 3631SOL    HW222530   0.009   0.512   4.005  1.2050 -1.8302  1.1029
 3632SOL     OW22531   4.605   1.714  12.268 -0.3209 -0.0555 -0.5295
 3632SOL    HW122532   4.670   1.758  12.213  0.0478 -1.3567 -1.1359
 3632SOL    HW222533   4.571   1.788  12.317  0.6871  1.2445 -1.7880
 3633SOL     OW22534   0.187   0.618   9.070 -0.1523  0.2049  0.3254
 3633SOL    HW122535   0.129   0.542   9.069 -0.5546  0.4753  2.0215
 3633SOL    HW222536   0.253   0.587   9.133 -0.6900 -0.2550  0.6594
 3634SOL     OW22537   3.923   0.675   8.488 -0.9099 -0.1082 -0.1240
 3634SOL    HW122538   3.868   0.656   8.412 -0.1994  1.5617 -1.0706
 3634SOL    HW222539   4.002   0.690   8.436 -0.8091  2.8230  0.8264
 3635SOL     OW22540   3.794   3.017  10.887  0.0191  0.0902  0.5878
 3635SOL    HW122541   3.759   2.944  10.940  0.6769 -0.7695 -0.1738
 3635SOL    HW222542   3.711   3.046  10.848  1.3178  0.3982 -1.8938
 3636SOL     OW22543   4.388   3.009   2.779  0.5837  0.0152  0.2659
 3636SOL    HW122544   4.384   3.053   2.694  3.0091  0.5777  0.4617
 3636SOL    HW222545   4.308   3.042   2.820 -0.2687  0.2516 -1.5505
 3637SOL     OW22546   1.467   0.116  16.592  0.7487 -0.3714 -0.1938
 3637SOL    HW122547   1.410   0.188  16.617 -1.2076 -1.5795 -1.1593
 3637SOL    HW222548   1.392   0.057  16.578  0.4302 -0.1260  0.4412
 3638SOL     OW22549   0.814   1.078   7.780  0.7087 -0.5296 -0.3940
 3638SOL    HW122550   0.858   1.129   7.713 -2.1288  2.0781 -0.2609
 3638SOL    HW222551   0.824   0.992   7.739 -0.1482 -0.7572 -0.1178
 3639SOL     OW22552   4.709   0.273   2.852 -0.1848  0.0410  0.5203
 3639SOL    HW122553   4.637   0.317   2.896 -0.6287 -0.2683  0.1043
 3639SOL    HW222554   0.022   0.351   2.824  1.5795 -1.3828 -0.3737
 3640SOL     OW22555   0.729   1.815   8.205  0.7101 -0.4554  0.4532
 3640SOL    HW122556   0.672   1.889   8.183 -0.9323 -1.8964 -0.1876
 3640SOL    HW222557   0.690   1.747   8.150 -4.1984 -0.8369  4.4305
 3641SOL     OW22558   4.095   0.592   3.605  0.8239 -0.0761  0.0029
 3641SOL    HW122559   4.138   0.650   3.668 -1.2731 -0.7262  2.0083
 3641SOL    HW222560   4.140   0.510   3.626 -0.1277 -0.5132  0.3191
 3642SOL     OW22561   2.551   2.544   3.965  0.1378  0.1357 -0.0824
 3642SOL    HW122562   2.474   2.490   3.946 -0.6868  1.4929 -0.6430
 3642SOL    HW222563   2.510   2.626   3.992  1.8139  0.8109  0.4209
 3643SOL     OW22564   1.056   1.983   8.820  0.3372  0.2190 -0.3696
 3643SOL    HW122565   1.125   1.964   8.884  0.4185 -2.8606 -1.3864
 3643SOL    HW222566   1.101   2.038   8.756  0.4549  1.2055  0.5544
 3644SOL     OW22567   2.639   1.135   5.676  0.7696  0.3244  0.0891
 3644SOL    HW122568   2.702   1.066   5.655  1.3052  0.8684 -0.0703
 3644SOL    HW222569   2.570   1.085   5.719  0.5521  0.1339 -0.4740
 3645SOL     OW22570   1.140   3.822   5.686 -0.3004  0.3764  0.2772
 3645SOL    HW122571   1.161   3.899   5.633  0.0733 -1.5592 -2.3905
 3645SOL    HW222572   1.176   3.750   5.634  0.7463 -0.9454  2.8025
 3646SOL     OW22573   3.305   1.610   1.941 -0.1975 -0.2475 -0.0041
 3646SOL    HW122574   3.236   1.610   2.007  0.3170 -1.8740  0.5229
 3646SOL    HW222575   3.323   1.518   1.925 -1.5828 -0.2551 -1.4626
 3647SOL     OW22576   0.335   1.956   4.353  0.8168 -0.7498 -0.1041
 3647SOL    HW122577   0.403   1.945   4.420  1.3874 -0.8371 -0.7037
 3647SOL    HW222578   0.389   2.011   4.298  0.0294 -0.0669 -0.2002
 3648SOL     OW22579   3.444   4.499   2.771  0.1751 -0.2064 -0.0570
 3648SOL    HW122580   3.484   4.531   2.690  1.8629 -2.0960  0.0279
 3648SOL    HW222581   3.372   4.466   2.718 -0.0297 -1.7292  1.1765
 3649SOL     OW22582   2.956   1.388  15.324  0.2487 -0.0825  0.2118
 3649SOL    HW122583   2.874   1.437  15.330  0.4735  0.4289 -1.0277
 3649SOL    HW222584   2.926   1.297  15.323  2.4652 -0.8184  1.4058
 3650SOL     OW22585   0.666   2.820  11.800  0.1352 -0.9002 -0.5127
 3650SOL    HW122586   0.670   2.891  11.864  1.5268 -0.4430 -1.0995
 3650SOL    HW222587   0.614   2.863  11.732 -1.3282 -2.3761 -0.3330
 3651SOL     OW22588   0.617   1.048   5.319  0.3507  0.0784 -0.3488
 3651SOL    HW122589   0.688   1.106   5.346  0.6181  0.1995 -1.3393
 3651SOL    HW222590   0.634   0.966   5.367 -2.9491  0.0392  0.7362
 3652SOL     OW22591   3.214   3.404   4.899 -0.2460 -0.1270  0.2338
 3652SOL    HW122592   3.289   3.425   4.844 -1.5908  2.9752 -0.4400
 3652SOL    HW222593   3.189   3.316   4.873 -0.5063  0.6897 -2.2702
 3653SOL     OW22594   1.875   3.983  16.725 -0.3043  0.2738  0.3683
 3653SOL    HW122595   1.904   3.939  16.805 -0.5874 -0.8668 -0.1622
 3653SOL    HW222596   1.875   3.908  16.666  0.7049 -0.6395  1.5402
 3654SOL     OW22597   3.719   2.387  16.253 -0.5107  0.1536 -0.4293
 3654SOL    HW122598   3.723   2.479  16.229 -1.8160  0.6473  1.2563
 3654SOL    HW222599   3.758   2.381  16.340  1.4291 -0.7641 -1.3544
 3655SOL     OW22600   3.935   3.228   1.570  0.1814  0.4003  0.3801
 3655SOL    HW122601   3.842   3.217   1.591 -0.2530  0.8817 -1.2841
 3655SOL    HW222602   3.966   3.152   1.619  1.1470 -0.1727 -1.1186
 3656SOL     OW22603   1.840   0.032  17.540 -0.0219 -0.1804 -0.3632
 3656SOL    HW122604   1.810   0.051  17.451  1.7447  0.7816 -0.7554
 3656SOL    HW222605   1.835   0.117  17.584 -3.1873 -0.0181 -1.0152
 3657SOL     OW22606   4.061   2.481   4.669 -0.3822  0.4906 -0.5457
 3657SOL    HW122607   3.993   2.432   4.717 -1.2740 -0.3263 -2.6171
 3657SOL    HW222608   4.121   2.410   4.647 -1.6769 -1.5721  2.5436
 3658SOL     OW22609   3.826   0.341   8.574  0.3266  0.2792  0.3399
 3658SOL    HW122610   3.782   0.295   8.645  1.3349 -1.6126 -0.2453
 3658SOL    HW222611   3.747   0.372   8.530  1.1623 -0.7022 -1.8431
 3659SOL     OW22612   0.934   4.223  16.110  0.0733  0.1108  0.2292
 3659SOL    HW122613   0.915   4.136  16.147 -0.8610  0.5283  0.7168
 3659SOL    HW222614   1.005   4.203  16.048 -2.8300 -3.5071 -1.9852
 3660SOL     OW22615   0.220   1.938   4.599  0.2759  0.4924 -0.1930
 3660SOL    HW122616   0.243   1.852   4.633 -3.0414 -0.4891 -0.4075
 3660SOL    HW222617   0.293   1.946   4.538 -0.3178 -0.6598 -1.0409
 3661SOL     OW22618   3.194   0.204   1.772  0.1976  0.0989  0.0818
 3661SOL    HW122619   3.244   0.131   1.735 -0.3603  0.5193 -1.4850
 3661SOL    HW222620   3.268   0.249   1.813  0.0920 -0.7614  1.2068
 3662SOL     OW22621   3.150   2.447   2.756  0.7356 -1.0709 -0.1647
 3662SOL    HW122622   3.098   2.396   2.817  1.7685 -0.2512  1.4075
 3662SOL    HW222623   3.200   2.381   2.708  1.3857 -1.2856  0.7955
 3663SOL     OW22624   2.895   1.285   7.052  0.0207 -0.4098 -0.6450
 3663SOL    HW122625   2.988   1.273   7.072 -0.0366  0.9609  0.4376
 3663SOL    HW222626   2.863   1.320   7.135 -0.3659 -1.8082 -0.1991
 3664SOL     OW22627   3.498   3.309   3.038  0.5641  0.2143 -0.6942
 3664SOL    HW122628   3.444   3.323   2.960  0.3611 -2.5076 -1.0634
 3664SOL    HW222629   3.561   3.380   3.032  0.3947  0.4688  0.6623
 3665SOL     OW22630   4.682   3.873   5.399 -0.1822  0.6567 -0.2258
 3665SOL    HW122631   4.609   3.826   5.441  0.2505  1.8192  1.8039
 3665SOL    HW222632   0.004   3.905   5.468 -2.2462 -0.9016  2.2328
 3666SOL     OW22633   1.917   3.099   7.912 -0.6002 -0.0459 -0.0878
 3666SOL    HW122634   1.940   3.190   7.926 -0.1451  0.0014 -1.1561
 3666SOL    HW222635   1.868   3.077   7.991  0.7166 -0.3021  0.6584
 3667SOL     OW22636   4.502   3.092   0.548  0.2678  0.5296  0.5852
 3667SOL    HW122637   4.591   3.089   0.513 -0.5237  0.6890 -1.4532
 3667SOL    HW222638   4.510   3.031   0.622  0.3965  0.2035  0.3047
 3668SOL     OW22639   2.326   4.278   4.686 -0.2239 -0.1729 -0.1162
 3668SOL    HW122640   2.283   4.278   4.771 -0.1342 -1.6487 -0.0708
 3668SOL    HW222641   2.338   4.372   4.674  1.1859 -0.2033  0.9091
 3669SOL     OW22642   2.053   1.118   1.678 -0.0380  0.0565 -0.6491
 3669SOL    HW122643   2.083   1.177   1.609  3.0929  0.7201  1.2838
 3669SOL    HW222644   2.131   1.074   1.712  1.5982  1.9943 -1.8749
 3670SOL     OW22645   2.792   0.576   7.158  0.1544 -0.0977 -0.0969
 3670SOL    HW122646   2.839   0.538   7.083 -0.1239  0.5350 -0.5906
 3670SOL    HW222647   2.864   0.609   7.211 -1.1350  3.0076 -0.2943
 3671SOL     OW22648   0.620   1.638  11.817  0.0521  0.3402  0.1252
 3671SOL    HW122649   0.684   1.678  11.758 -1.2398 -1.3989 -2.4364
 3671SOL    HW222650   0.665   1.565  11.860 -1.0081 -0.8710 -0.8290
 3672SOL     OW22651   1.513   2.477   2.908  0.6566  0.1122 -0.1340
 3672SOL    HW122652   1.506   2.569   2.882 -1.2296 -0.1681 -0.6060
 3672SOL    HW222653   1.602   2.450   2.884  0.9566  0.9377  0.0484
 3673SOL     OW22654   2.230   1.524   1.632 -0.5686 -0.4634 -0.1753
 3673SOL    HW122655   2.233   1.553   1.540  1.1518  1.3371  0.4384
 3673SOL    HW222656   2.311   1.478   1.651  0.2475  0.8722 -0.3950
 3674SOL     OW22657   2.861   3.785   1.845 -0.1474  0.0743 -0.7547
 3674SOL    HW122658   2.855   3.727   1.769 -3.8773 -1.3252  0.6157
 3674SOL    HW222659   2.887   3.723   1.913 -0.3401  1.1649  0.3092
 3675SOL     OW22660   3.599   4.644   1.386  0.2072 -0.1065  0.0989
 3675SOL    HW122661   3.545   4.579   1.430  0.8514 -0.6367  0.0975
 3675SOL    HW222662   3.542   4.721   1.383  1.6005  0.8924 -0.6117
 3676SOL     OW22663   3.873   1.620   0.100  0.1475 -0.2411  0.5086
 3676SOL    HW122664   3.820   1.594   0.024 -0.1410  0.5041  0.4561
 3676SOL    HW222665   3.929   1.686   0.059  0.2707 -0.2198  0.7143
 3677SOL     OW22666   2.038   4.210  17.637 -0.0184 -0.0701 -0.2328
 3677SOL    HW122667   2.075   4.246  17.718  0.2140  1.4774 -1.0226
 3677SOL    HW222668   2.064   4.282  17.579 -2.1366 -0.0178 -1.1157
 3678SOL     OW22669   1.551   1.739   3.155  0.0522 -0.0282  0.0558
 3678SOL    HW122670   1.581   1.830   3.148 -0.0102  0.1495  2.1085
 3678SOL    HW222671   1.514   1.721   3.069  0.3784 -0.6103  0.0403
 3679SOL     OW22672   2.314   1.179   7.643 -0.0900  0.7672 -0.2254
 3679SOL    HW122673   2.308   1.229   7.724 -0.8126 -0.9723  0.7957
 3679SOL    HW222674   2.408   1.186   7.627  0.1052 -0.6353  0.3191
 3680SOL     OW22675   0.151   1.921   8.644  0.2019 -0.3001  0.2051
 3680SOL    HW122676   0.085   1.923   8.574  2.7093 -0.3590 -2.1640
 3680SOL    HW222677   0.215   1.871   8.594 -1.2114  0.5233 -2.4522
 3681SOL     OW22678   2.822   1.819   6.659 -0.0839  0.1373  0.0470
 3681SOL    HW122679   2.814   1.886   6.590 -1.2115 -1.9643 -1.8533
 3681SOL    HW222680   2.835   1.742   6.604  2.5415 -0.3694  1.3929
 3682SOL     OW22681   1.058   3.627   8.807 -0.1135 -0.0146 -0.3036
 3682SOL    HW122682   1.112   3.565   8.856  0.5084 -0.8677 -2.0966
 3682SOL    HW222683   1.129   3.687   8.785  1.1043 -1.8774 -1.4393
 3683SOL     OW22684   1.806   1.702   6.483 -0.1495 -0.2863 -0.1538
 3683SOL    HW122685   1.722   1.733   6.518  0.7436 -0.6003  2.2100
 3683SOL    HW222686   1.840   1.786   6.452  1.9717 -0.9688  0.3396
 3684SOL     OW22687   1.044   4.177   5.225 -0.7127 -0.1864 -0.3366
 3684SOL    HW122688   1.084   4.232   5.159  1.3581  0.4521  1.4415
 3684SOL    HW222689   0.959   4.219   5.233 -0.3613  0.2404  1.2023
 3685SOL     OW22690   1.308   1.392   1.702  0.0294  0.0759 -0.2615
 3685SOL    HW122691   1.375   1.340   1.656  1.4236  1.1374  0.5559
 3685SOL    HW222692   1.238   1.327   1.702 -0.2349  0.3690 -2.0009
 3686SOL     OW22693   2.570   1.276  13.915  0.1153 -0.3374  0.0950
 3686SOL    HW122694   2.485   1.319  13.902 -0.0666 -0.3120  1.3876
 3686SOL    HW222695   2.634   1.341  13.885 -1.3820  0.6148 -1.0455
 3687SOL     OW22696   4.195   1.613   8.211 -0.3475  0.6172 -0.4087
 3687SOL    HW122697   4.167   1.526   8.240  2.7821 -0.2084  0.1122
 3687SOL    HW222698   4.234   1.656   8.287  2.1903  0.2030 -1.4646
 3688SOL     OW22699   3.055   0.140   3.505  0.2971  0.4670  0.0020
 3688SOL    HW122700   3.000   0.132   3.583  0.4324  0.8883  0.1405
 3688SOL    HW222701   3.070   0.048   3.487  1.1877  0.7885 -0.9117
 3689SOL     OW22702   3.315   2.627   4.902  0.3198  0.4076  0.2609
 3689SOL    HW122703   3.295   2.681   4.979 -0.7539 -1.9077  1.5962
 3689SOL    HW222704   3.224   2.614   4.876  1.3788  1.7302 -4.0442
 3690SOL     OW22705   3.240   3.790   4.980  0.6523  0.5775 -0.2570
 3690SOL    HW122706   3.281   3.712   4.942 -1.8716 -0.1741 -1.5021
 3690SOL    HW222707   3.245   3.855   4.910  0.1249  1.3089  0.3909
 3691SOL     OW22708   4.486   1.442   8.113 -0.2735  0.4641 -0.6147
 3691SOL    HW122709   4.489   1.536   8.130  1.5926  0.4033 -0.6396
 3691SOL    HW222710   4.529   1.432   8.028 -1.1424 -0.6365 -0.9293
 3692SOL     OW22711   0.696   2.759   4.807  0.3971 -0.6532  0.5508
 3692SOL    HW122712   0.692   2.854   4.791  2.8231 -0.5095  0.8566
 3692SOL    HW222713   0.694   2.741   4.713  2.8681 -0.6856  0.5028
 3693SOL     OW22714   0.372   3.727   3.386  0.0465  0.2626  0.8742
 3693SOL    HW122715   0.299   3.778   3.349  1.8673  2.7408  0.6753
 3693SOL    HW222716   0.440   3.789   3.359 -0.3914  0.7367  0.8600
 3694SOL     OW22717   1.135   1.462   8.349 -0.2954  0.3331 -0.5806
 3694SOL    HW122718   1.121   1.496   8.261 -2.4237 -0.4247 -0.5093
 3694SOL    HW222719   1.154   1.371   8.329  1.4790 -0.0407  2.6919
 3695SOL     OW22720   2.703   0.687   8.621 -0.6853  0.1393  0.5960
 3695SOL    HW122721   2.781   0.635   8.601 -0.7910 -0.5770  2.0867
 3695SOL    HW222722   2.642   0.656   8.554  0.0142 -2.0171  0.9468
 3696SOL     OW22723   3.982   4.146   1.916  1.1395 -0.1805 -0.1922
 3696SOL    HW122724   3.898   4.166   1.958  0.0387 -0.8304 -2.0851
 3696SOL    HW222725   4.037   4.193   1.980 -0.6906 -0.2328  1.4222
 3697SOL     OW22726   2.122   0.371   1.439  0.5654 -0.1033  0.0830
 3697SOL    HW122727   2.059   0.307   1.474  1.7416 -0.9578  0.6152
 3697SOL    HW222728   2.200   0.318   1.429 -0.7695 -1.7975 -1.4699
 3698SOL     OW22729   2.823   3.311   4.724  0.2806  0.2499  0.8665
 3698SOL    HW122730   2.830   3.397   4.683 -0.4658 -0.1454 -0.0843
 3698SOL    HW222731   2.791   3.249   4.659 -3.0820  1.8456  0.9979
 3699SOL     OW22732   1.877   0.871   9.620 -0.1239  0.0924  0.3592
 3699SOL    HW122733   1.861   0.964   9.635  2.2642  0.5450  0.1599
 3699SOL    HW222734   1.959   0.867   9.569 -0.2056  0.9609  0.1637
 3700SOL     OW22735   0.149   2.931  12.529  0.0250  0.1612  0.3383
 3700SOL    HW122736   0.077   2.977  12.571  0.1933  0.8805 -0.1565
 3700SOL    HW222737   0.092   2.889  12.464  0.1676  1.2582 -0.4865
 3701SOL     OW22738   1.849   3.007  12.176 -0.1304  0.0533  0.1924
 3701SOL    HW122739   1.836   3.088  12.125 -1.5282 -1.7814 -2.3770
 3701SOL    HW222740   1.769   2.966  12.142 -0.6421  0.3421  1.0328
 3702SOL     OW22741   1.399   0.311   3.659  0.4123  0.2003 -0.2953
 3702SOL    HW122742   1.366   0.319   3.748 -1.0832 -2.8530 -0.5907
 3702SOL    HW222743   1.464   0.245   3.682 -0.5895 -0.7965 -0.3827
 3703SOL     OW22744   1.085   2.907   4.696  0.1334  0.2999  0.3908
 3703SOL    HW122745   1.033   2.953   4.762 -0.6710 -0.4725  0.2866
 3703SOL    HW222746   1.043   2.934   4.614 -1.0829  1.0712  1.2828
 3704SOL     OW22747   0.405   2.991   5.956 -0.2326  0.3476  0.4650
 3704SOL    HW122748   0.499   3.012   5.956  0.1193 -1.2800  1.9510
 3704SOL    HW222749   0.403   2.944   5.873 -0.9331  0.6802  0.2890
 3705SOL     OW22750   2.935   3.680   6.961 -0.1353 -0.1424  0.0385
 3705SOL    HW122751   2.878   3.749   6.996 -0.9502 -0.0385 -1.4549
 3705SOL    HW222752   2.994   3.661   7.033  0.0380  1.4839  0.3313
 3706SOL     OW22753   2.477   0.466   6.857 -0.8129 -0.5164  0.2344
 3706SOL    HW122754   2.413   0.537   6.848 -1.2753 -0.9924 -0.2873
 3706SOL    HW222755   2.443   0.432   6.940 -0.8708 -1.0318 -0.0001
 3707SOL     OW22756   0.872   2.119   6.744 -0.3824 -0.0827 -0.1830
 3707SOL    HW122757   0.787   2.128   6.787 -1.1007 -0.9790 -1.4012
 3707SOL    HW222758   0.921   2.078   6.816 -1.6619 -0.0719  0.6863
 3708SOL     OW22759   1.431   0.249   8.021 -0.0246  0.3720  0.3810
 3708SOL    HW122760   1.516   0.264   8.064  0.1594  0.6971 -0.0926
 3708SOL    HW222761   1.431   0.330   7.970 -0.4012  0.6222  0.7843
 3709SOL     OW22762   2.262   3.819   6.084 -1.1113  0.0802 -0.2808
 3709SOL    HW122763   2.254   3.898   6.138  2.1293  0.4145 -0.2847
 3709SOL    HW222764   2.178   3.784   6.114 -0.1008 -1.9504  0.1858
 3710SOL     OW22765   0.489   4.445   2.899 -0.0939  0.6675  1.0181
 3710SOL    HW122766   0.506   4.436   2.992 -0.6030  0.4737  1.0926
 3710SOL    HW222767   0.397   4.472   2.889 -0.4997 -1.5847 -1.3584
 3711SOL     OW22768   0.399   2.605   4.157 -0.0345  0.3967 -0.0906
 3711SOL    HW122769   0.480   2.568   4.194 -0.9721  0.0687  1.6362
 3711SOL    HW222770   0.343   2.528   4.156 -1.1809  1.2661 -1.6914
 3712SOL     OW22771   0.282   2.824  12.760 -0.1042 -0.0895  0.1869
 3712SOL    HW122772   0.233   2.776  12.827  0.2898  1.7203  1.7552
 3712SOL    HW222773   0.231   2.802  12.682  0.0634 -1.2920  0.4210
 3713SOL     OW22774   2.980   3.384  12.991  0.3898 -0.0781 -0.7465
 3713SOL    HW122775   2.969   3.465  13.040 -1.8631 -0.4280 -0.6862
 3713SOL    HW222776   2.894   3.348  13.014  0.8838 -0.1897  0.8881
 3714SOL     OW22777   1.831   1.521   1.740 -0.4573  0.2375  0.1013
 3714SOL    HW122778   1.828   1.472   1.822  0.6228  2.2735  1.3769
 3714SOL    HW222779   1.747   1.565   1.755 -0.5818 -0.2987  0.9981
 3715SOL     OW22780   1.623   2.073   0.233 -0.1448  0.0771 -0.3601
 3715SOL    HW122781   1.570   2.028   0.298  0.8495  0.5630  0.7796
 3715SOL    HW222782   1.639   2.159   0.271 -1.0684 -0.3345  0.9606
 3716SOL     OW22783   0.200   0.880  10.444 -0.5169  0.2426 -0.3272
 3716SOL    HW122784   0.264   0.945  10.415  1.0558 -1.0153  0.3525
 3716SOL    HW222785   0.127   0.933  10.476 -0.3302 -1.2322  2.5568
 3717SOL     OW22786   4.477   0.317   1.320  0.1190 -0.5380 -0.1785
 3717SOL    HW122787   4.543   0.330   1.251  0.5061 -0.7882  0.1421
 3717SOL    HW222788   4.537   0.269   1.377  1.3406  1.2696  0.0708
 3718SOL     OW22789   0.188   2.266  10.109  0.4152 -0.2716 -0.3390
 3718SOL    HW122790   0.138   2.218  10.174  1.5861  0.0258  0.7870
 3718SOL    HW222791   0.274   2.225  10.117  0.0531 -0.8011  0.7935
 3719SOL     OW22792   2.572   3.984  10.385 -0.2390 -0.0686  0.2172
 3719SOL    HW122793   2.586   3.889  10.383 -0.8464 -0.1916  2.4865
 3719SOL    HW222794   2.478   3.987  10.365 -1.0220 -1.5611  3.7984
 3720SOL     OW22795   1.697   4.351   0.375 -0.1843 -0.4854 -0.3748
 3720SOL    HW122796   1.772   4.298   0.403 -1.6999 -1.9914  0.8898
 3720SOL    HW222797   1.633   4.286   0.403  0.7959 -1.5883 -0.7040
 3721SOL     OW22798   4.313   1.513   4.851 -0.3323  0.4540  0.0383
 3721SOL    HW122799   4.332   1.442   4.911 -0.1182 -0.8138 -1.5258
 3721SOL    HW222800   4.221   1.499   4.829 -0.3792 -0.5457  0.9155
 3722SOL     OW22801   2.630   2.798   7.383 -0.1771  0.7287 -0.3655
 3722SOL    HW122802   2.652   2.849   7.305  1.8992  2.4061  1.2880
 3722SOL    HW222803   2.570   2.734   7.344 -1.0131  1.2890 -0.0013
 3723SOL     OW22804   2.022   3.113  10.481 -0.1734 -0.4654 -0.5726
 3723SOL    HW122805   2.028   3.208  10.485 -0.3630 -0.4291 -1.2192
 3723SOL    HW222806   2.031   3.094  10.575 -2.2646 -0.9317 -0.4632
 3724SOL     OW22807   3.090   1.648   1.086 -0.5745  0.3230 -0.3877
 3724SOL    HW122808   3.152   1.721   1.094  0.4629 -0.3615 -2.1849
 3724SOL    HW222809   3.125   1.573   1.134 -1.5575  0.0741 -0.0810
 3725SOL     OW22810   1.339   3.606   3.294  0.1013  0.0226  0.0200
 3725SOL    HW122811   1.432   3.617   3.311 -0.0657 -0.4926  1.2790
 3725SOL    HW222812   1.333   3.516   3.326  1.7795 -0.0170  0.1985
 3726SOL     OW22813   1.664   2.834   4.914  0.3594 -0.1102 -0.3249
 3726SOL    HW122814   1.710   2.753   4.936  1.9283  1.4006  1.8782
 3726SOL    HW222815   1.573   2.812   4.932  0.6589 -0.1633  1.0800
 3727SOL     OW22816   2.231   0.009   0.226  0.4450  0.0568  0.0851
 3727SOL    HW122817   2.272   4.664   0.256  1.9314  0.6345 -0.3917
 3727SOL    HW222818   2.235   0.067   0.302 -1.2062  1.3285 -0.7813
 3728SOL     OW22819   1.617   4.470   6.651 -0.1697  0.3019 -0.2726
 3728SOL    HW122820   1.684   4.457   6.719  0.5082 -1.8364 -1.3470
 3728SOL    HW222821   1.607   4.378   6.626 -1.2533  0.6641 -1.1427
 3729SOL     OW22822   0.805   2.800  15.370 -0.4591  0.1267 -0.0245
 3729SOL    HW122823   0.744   2.766  15.436 -1.2586 -0.6175 -1.1392
 3729SOL    HW222824   0.862   2.856  15.423  1.1139  0.3103 -1.9344
 3730SOL     OW22825   3.618   2.319   8.454  0.2536  0.0520 -0.8503
 3730SOL    HW122826   3.709   2.291   8.448  0.1105 -0.4899 -0.4934
 3730SOL    HW222827   3.583   2.254   8.515  1.0726  1.9016  1.5498
 3731SOL     OW22828   1.433   1.471   8.120  0.2414  0.5611  0.2847
 3731SOL    HW122829   1.517   1.445   8.082 -0.5247 -0.0517 -0.9789
 3731SOL    HW222830   1.409   1.404   8.184 -0.8665  0.9302  0.2724
 3732SOL     OW22831   2.405   3.578   9.134  0.0277  0.2298  0.2461
 3732SOL    HW122832   2.450   3.502   9.096  1.5790  1.0628  0.4596
 3732SOL    HW222833   2.322   3.579   9.086 -1.8750 -1.6164  3.4242
 3733SOL     OW22834   0.209   1.894  10.380 -0.3260 -0.7717 -0.4035
 3733SOL    HW122835   0.260   1.838  10.322 -0.6042  0.7026 -2.0550
 3733SOL    HW222836   0.150   1.937  10.318  1.9863 -0.5832 -2.4861
 3734SOL     OW22837   3.403   3.191   8.207  0.1304 -0.0669 -0.0437
 3734SOL    HW122838   3.468   3.124   8.186 -1.6566 -1.8348  0.1194
 3734SOL    HW222839   3.418   3.212   8.300  1.6965  1.3140 -0.6150
 3735SOL     OW22840   4.614   0.038   2.030  0.2865 -0.3221 -0.0581
 3735SOL    HW122841   4.667   0.081   2.097 -0.8699  0.3118  0.4603
 3735SOL    HW222842   4.544   0.103   2.030  2.3351  1.8763  0.2559
 3736SOL     OW22843   2.496   3.791  10.934  0.0893 -0.4044  0.0295
 3736SOL    HW122844   2.476   3.725  10.868 -1.4916 -0.7808  0.8896
 3736SOL    HW222845   2.570   3.743  10.972  1.0796  0.8796 -0.2636
 3737SOL     OW22846   4.453   3.841   8.001 -0.8183 -0.2615 -0.0274
 3737SOL    HW122847   4.426   3.911   8.061  2.1972 -0.0648  1.1177
 3737SOL    HW222848   4.549   3.848   8.000 -0.8207 -0.0551  0.7571
 3738SOL     OW22849   0.859   3.188   9.540  0.2917  0.5798  0.2598
 3738SOL    HW122850   0.817   3.102   9.541 -1.1958  1.2803 -1.1334
 3738SOL    HW222851   0.790   3.240   9.582 -0.3023  0.0541 -0.0611
 3739SOL     OW22852   3.692   1.168   6.392  0.2123  0.1679  0.4047
 3739SOL    HW122853   3.664   1.116   6.467  0.9778 -1.7935 -0.6836
 3739SOL    HW222854   3.785   1.174   6.413  0.4902 -0.2173 -0.7244
 3740SOL     OW22855   3.287   1.262   8.608  0.2619  0.0958 -0.5139
 3740SOL    HW122856   3.361   1.224   8.561  1.0412 -1.2633  1.8176
 3740SOL    HW222857   3.307   1.237   8.698 -2.2386  0.9602  0.2794
 3741SOL     OW22858   1.020   2.211   6.537  0.3767 -0.0053  0.1274
 3741SOL    HW122859   1.098   2.221   6.591 -0.1114 -1.1769  1.0583
 3741SOL    HW222860   0.953   2.189   6.601  1.0109 -0.2962  0.6863
 3742SOL     OW22861   2.543   4.589   2.352 -0.1413 -0.6060 -0.0430
 3742SOL    HW122862   2.611   4.642   2.394 -1.0475  1.1978 -0.8682
 3742SOL    HW222863   2.598   4.545   2.287 -1.2143 -0.7275 -0.8570
 3743SOL     OW22864   3.467   2.641   4.090 -0.6265 -0.2870 -0.3126
 3743SOL    HW122865   3.478   2.730   4.125 -1.0173 -0.3534 -0.0281
 3743SOL    HW222866   3.384   2.645   4.044 -1.5261  0.2120  1.3437
 3744SOL     OW22867   1.211   2.992  15.972 -0.0537  0.2083 -0.3459
 3744SOL    HW122868   1.271   3.030  16.035  0.3234 -1.3357  0.2329
 3744SOL    HW222869   1.275   2.944  15.918 -1.8481 -0.5924 -1.7676
 3745SOL     OW22870   1.535   2.978   3.160  0.1634  0.2563 -0.0684
 3745SOL    HW122871   1.628   2.983   3.180 -0.1028  0.6226  1.0529
 3745SOL    HW222872   1.498   2.982   3.248 -1.7504  0.7041 -0.8896
 3746SOL     OW22873   1.006   3.575   9.088  0.1050  0.0010 -0.3038
 3746SOL    HW122874   0.915   3.602   9.076 -0.2321 -0.7251  0.6324
 3746SOL    HW222875   1.013   3.558   9.182 -1.4042  0.7601 -0.0475
 3747SOL     OW22876   2.773   1.405  12.246  0.5741 -0.6326  0.1341
 3747SOL    HW122877   2.694   1.433  12.293 -1.6320 -3.6283 -1.7586
 3747SOL    HW222878   2.734   1.350  12.178 -4.1946  2.4331  0.3370
 3748SOL     OW22879   0.223   2.321  12.980 -0.3495 -0.7992 -0.8487
 3748SOL    HW122880   0.308   2.309  13.021 -0.6399  3.2254  0.9077
 3748SOL    HW222881   0.236   2.284  12.893 -0.1686 -0.5106 -0.9409
 3749SOL     OW22882   4.284   1.065   3.448  0.3362 -0.0496  0.5236
 3749SOL    HW122883   4.267   1.146   3.399  1.8819 -0.9888 -1.5507
 3749SOL    HW222884   4.351   1.094   3.510  1.6260  0.6578 -1.1702
 3750SOL     OW22885   3.182   0.155   2.161  1.0307 -0.2045  0.1122
 3750SOL    HW122886   3.134   0.167   2.079 -0.0839 -3.6945  0.2524
 3750SOL    HW222887   3.269   0.195   2.154  1.3366 -0.6555  1.4954
 3751SOL     OW22888   1.923   0.504   3.423 -0.3544  0.1934  0.8086
 3751SOL    HW122889   1.978   0.532   3.496  1.5161 -0.6620 -0.2691
 3751SOL    HW222890   1.835   0.536   3.446 -0.7363 -0.3689  0.1354
 3752SOL     OW22891   2.058   0.967   8.460 -0.0648  0.0424 -0.2328
 3752SOL    HW122892   2.030   0.902   8.397 -0.9888 -0.4760  0.7171
 3752SOL    HW222893   2.005   0.946   8.537 -1.9057  1.3664 -1.1668
 3753SOL     OW22894   3.567   1.504   6.619  0.2859  0.2216  0.1391
 3753SOL    HW122895   3.512   1.459   6.684  0.8627 -1.0948 -0.2912
 3753SOL    HW222896   3.643   1.521   6.675 -0.6471 -1.9442  2.0381
 3754SOL     OW22897   4.326   1.048   3.879  0.0951 -0.0633  0.0841
 3754SOL    HW122898   4.266   1.030   3.807 -0.2019 -0.7089  0.4926
 3754SOL    HW222899   4.274   1.114   3.926 -1.7264 -0.8723 -0.8102
 3755SOL     OW22900   1.147   4.724   5.495 -0.0165 -0.5450  0.1033
 3755SOL    HW122901   1.070   0.001   5.439  0.5158 -0.1891 -0.5395
 3755SOL    HW222902   1.215   0.030   5.443  1.2542 -2.1962  0.4321
 3756SOL     OW22903   2.405   3.374   6.851 -0.3553  0.2142 -0.2287
 3756SOL    HW122904   2.467   3.377   6.924  0.1206  0.8371 -0.6547
 3756SOL    HW222905   2.455   3.316   6.793  2.4415  0.7960  1.6160
 3757SOL     OW22906   4.127   2.309   7.345  0.1010 -0.2688  0.9861
 3757SOL    HW122907   4.045   2.339   7.382  0.7086 -1.2707  3.1156
 3757SOL    HW222908   4.126   2.366   7.268 -1.1010 -0.7775  0.6300
 3758SOL     OW22909   1.778   1.089   1.738 -0.0618  0.3278  0.0542
 3758SOL    HW122910   1.868   1.105   1.708  0.1182 -0.6923  0.0716
 3758SOL    HW222911   1.794   1.084   1.832  2.1169  3.6919 -0.1094
 3759SOL     OW22912   3.417   3.367  11.204 -0.3212  0.2086 -0.2801
 3759SOL    HW122913   3.422   3.278  11.170 -1.3509  0.4784 -1.1547
 3759SOL    HW222914   3.438   3.342  11.294  0.2270 -0.2319 -0.5335
 3760SOL     OW22915   0.508   1.312   7.403 -0.4676  0.2207  0.0411
 3760SOL    HW122916   0.447   1.239   7.413  0.5524 -0.2767  2.4519
 3760SOL    HW222917   0.469   1.368   7.470 -0.7865 -0.4184  0.3934
 3761SOL     OW22918   2.335   4.573  12.233 -0.4744 -0.6302  0.3022
 3761SOL    HW122919   2.348   4.635  12.305  0.1873 -1.2222  0.6853
 3761SOL    HW222920   2.266   4.609  12.178  1.3315  1.7749 -0.4348
 3762SOL     OW22921   2.878   3.081  12.056 -0.6079  0.1072  0.2093
 3762SOL    HW122922   2.884   3.003  12.110 -1.1403  0.7815  1.2474
 3762SOL    HW222923   2.900   3.048  11.969  0.0459 -0.3781  0.5576
 3763SOL     OW22924   4.517   3.077   3.376 -0.3102  0.0772 -0.4963
 3763SOL    HW122925   4.510   3.014   3.304 -0.6261  1.0021 -1.2704
 3763SOL    HW222926   4.519   3.163   3.335  1.1674  0.6476  0.8009
 3764SOL     OW22927   3.401   0.361   9.611 -0.2934 -0.1907 -0.1312
 3764SOL    HW122928   3.349   0.336   9.534  0.3597  0.3302 -0.7309
 3764SOL    HW222929   3.479   0.306   9.612  0.4149  0.8344  0.6061
 3765SOL     OW22930   3.733   1.131   5.275 -0.0788  0.0223 -0.1572
 3765SOL    HW122931   3.784   1.121   5.195  1.5364 -0.9517  0.9909
 3765SOL    HW222932   3.805   1.135   5.338  0.4956  1.5537 -0.9195
 3766SOL     OW22933   0.123   0.697   0.310  0.1345  0.8026  0.1902
 3766SOL    HW122934   0.154   0.615   0.272 -2.1598 -0.7879  1.6911
 3766SOL    HW222935   0.134   0.759   0.238 -1.6643  0.6427 -0.2097
 3767SOL     OW22936   2.217   0.025  17.099 -0.0004 -0.1845  0.3866
 3767SOL    HW122937   2.136   4.734  17.142  0.6787 -0.4120  1.5211
 3767SOL    HW222938   2.259   0.060  17.177  1.9436  1.2463 -1.2858
 3768SOL     OW22939   1.133   0.160   6.261 -0.3413 -0.2113 -0.2857
 3768SOL    HW122940   1.207   0.147   6.201 -1.3624  0.5541 -1.7182
 3768SOL    HW222941   1.094   0.074   6.271 -0.3565 -0.2778 -0.8700
 3769SOL     OW22942   1.775   2.731   6.887  0.0645 -0.0302  0.5789
 3769SOL    HW122943   1.723   2.698   6.961  1.8656 -2.2088  0.8847
 3769SOL    HW222944   1.843   2.771   6.942 -0.5971  0.8264  0.7784
 3770SOL     OW22945   4.729   1.297  10.288  0.0867  0.1777  0.9145
 3770SOL    HW122946   4.671   1.349  10.345 -0.5031  0.4463  0.0738
 3770SOL    HW222947   0.078   1.341  10.283  0.2001 -0.2505 -0.9060
 3771SOL     OW22948   0.206   2.901   8.666  0.3196  0.0930  0.3226
 3771SOL    HW122949   0.165   2.984   8.688  1.7797  0.8417  0.2030
 3771SOL    HW222950   0.180   2.846   8.739 -0.2770  2.7638  2.1170
 3772SOL     OW22951   2.380   2.689  10.844  0.4129 -0.4078 -0.5928
 3772SOL    HW122952   2.306   2.737  10.883  1.0771 -0.5082  0.7903
 3772SOL    HW222953   2.324   2.633  10.791  1.5119 -1.1361 -0.9767
 3773SOL     OW22954   1.192   4.640   4.956  0.3220 -0.4371 -0.4845
 3773SOL    HW122955   1.244   4.702   5.006 -0.1946  0.1815 -0.7166
 3773SOL    HW222956   1.245   4.561   4.946  0.0910 -0.5524 -0.8079
 3774SOL     OW22957   2.831   4.640  12.002 -0.1973  0.2789 -0.4060
 3774SOL    HW122958   2.754   4.590  11.979  0.3461 -1.1649  0.9079
 3774SOL    HW222959   2.804   4.666  12.090  1.5618  0.9930 -0.0648
 3775SOL     OW22960   0.097   4.405  13.406  0.0108 -0.2451 -0.3103
 3775SOL    HW122961   0.153   4.481  13.418  1.3891 -1.0869 -1.3673
 3775SOL    HW222962   0.160   4.334  13.389  2.2211  1.6777 -0.0263
 3776SOL     OW22963   1.936   3.053   7.565 -0.1200 -0.1121  0.8446
 3776SOL    HW122964   1.943   3.148   7.553 -2.1169 -0.0975 -0.1775
 3776SOL    HW222965   1.946   3.032   7.473 -2.1653  0.1197  0.5731
 3777SOL     OW22966   1.826   1.188   4.831  0.0394  0.3230  0.4287
 3777SOL    HW122967   1.873   1.141   4.762  1.0384  0.1856  1.2054
 3777SOL    HW222968   1.885   1.184   4.906 -0.9317 -0.0827  1.1793
 3778SOL     OW22969   3.460   0.471  15.800  0.3116  0.0473 -0.5145
 3778SOL    HW122970   3.528   0.496  15.862 -1.4715 -0.5612  1.7369
 3778SOL    HW222971   3.465   0.537  15.731  1.3123  0.0429 -0.4420
 3779SOL     OW22972   2.201   2.360   0.112 -0.6941  0.5294 -0.2871
 3779SOL    HW122973   2.264   2.415   0.066  1.2830 -1.9226 -0.4701
 3779SOL    HW222974   2.229   2.370   0.203  0.4326  2.0635 -0.8029
 3780SOL     OW22975   2.260   2.919   4.458  0.4773 -0.0767 -0.2628
 3780SOL    HW122976   2.177   2.899   4.416  1.4371  0.0517 -2.2222
 3780SOL    HW222977   2.225   2.967   4.532  0.1067  0.5844 -0.8655
 3781SOL     OW22978   1.751   0.301   0.160 -0.7040  0.3694 -0.0807
 3781SOL    HW122979   1.675   0.278   0.214  0.1241 -0.0339  0.8894
 3781SOL    HW222980   1.792   0.219   0.130 -0.5119  0.4500 -0.0342
 3782SOL     OW22981   3.580   3.202   4.566 -0.3264  0.3208 -0.5932
 3782SOL    HW122982   3.605   3.110   4.565  0.9026  0.6510  1.6297
 3782SOL    HW222983   3.486   3.184   4.570 -0.2838 -0.2646 -1.9934
 3783SOL     OW22984   3.522   2.855   0.875  0.0815  0.0131  0.1508
 3783SOL    HW122985   3.509   2.769   0.916 -3.8309 -0.1509 -1.4302
 3783SOL    HW222986   3.486   2.836   0.788 -0.5532  2.2873 -0.0814
 3784SOL     OW22987   2.317   0.278   8.719  0.3758  0.0982 -0.4903
 3784SOL    HW122988   2.276   0.194   8.699 -1.9680  0.7505  1.6592
 3784SOL    HW222989   2.244   0.325   8.759  0.7838  0.2637  0.0567
 3785SOL     OW22990   3.330   3.953   5.921 -0.0446 -0.0518 -0.0433
 3785SOL    HW122991   3.335   3.997   6.006  2.2722  3.3191 -1.9059
 3785SOL    HW222992   3.261   4.012   5.890 -0.7024 -0.2716  1.0357
 3786SOL     OW22993   0.165   1.680  11.342 -0.0703  0.3087 -0.1013
 3786SOL    HW122994   0.247   1.660  11.387  0.8058  2.4425 -0.7470
 3786SOL    HW222995   0.118   1.597  11.337 -1.7448  1.2906 -0.4386
 3787SOL     OW22996   0.917   1.668   1.598 -0.2955  0.1287 -0.1230
 3787SOL    HW122997   0.841   1.619   1.629  0.2782 -0.0319  1.0226
 3787SOL    HW222998   0.954   1.705   1.678 -1.3533  0.1229  0.3763
 3788SOL     OW22999   0.612   1.728  16.421 -0.4549  0.3148  0.4701
 3788SOL    HW123000   0.630   1.810  16.467 -0.2548 -0.2502  1.3854
 3788SOL    HW223001   0.642   1.734  16.330 -0.7515  2.8677  0.5280
 3789SOL     OW23002   3.368   2.819  11.772 -0.2389  0.2061 -0.4042
 3789SOL    HW123003   3.438   2.761  11.802 -1.5925 -0.0296  2.3206
 3789SOL    HW223004   3.328   2.767  11.702  0.4994  1.0511 -1.4564
 3790SOL     OW23005   0.357   1.651   5.609  0.0334  0.3647  0.1898
 3790SOL    HW123006   0.410   1.712   5.660  0.1956  1.9692 -1.9067
 3790SOL    HW223007   0.412   1.573   5.600  3.1286  2.3362  1.9631
 3791SOL     OW23008   2.678   4.079   9.797 -0.5853 -0.0592  0.4840
 3791SOL    HW123009   2.726   4.000   9.773  0.1861  0.4181  0.4383
 3791SOL    HW223010   2.600   4.084   9.742 -0.1188  2.2843  0.0186
 3792SOL     OW23011   1.667   2.750   8.029  0.2619 -0.2384  0.0650
 3792SOL    HW123012   1.599   2.747   7.962 -0.2237  0.7193  0.5172
 3792SOL    HW223013   1.743   2.709   7.988 -1.2513 -2.3487 -0.6322
 3793SOL     OW23014   2.157   2.238   6.817 -1.0702  0.8468  0.6369
 3793SOL    HW123015   2.070   2.238   6.856  0.5483  2.1651  4.2941
 3793SOL    HW223016   2.201   2.316   6.852 -3.9351  2.1054  1.3843
 3794SOL     OW23017   3.140   2.060  12.705 -0.1319  0.0974 -0.6540
 3794SOL    HW123018   3.070   2.124  12.716  0.9311  1.1773 -0.2061
 3794SOL    HW223019   3.209   2.098  12.651  0.9440  0.5498  1.0382
 3795SOL     OW23020   3.636   3.541   4.144  0.1607 -0.0197 -0.0404
 3795SOL    HW123021   3.583   3.469   4.178  0.5033  0.9439  2.5582
 3795SOL    HW223022   3.704   3.538   4.211 -0.2837  1.6721  0.4847
 3796SOL     OW23023   3.372   1.903  12.059  0.1471  0.4043 -0.2045
 3796SOL    HW123024   3.379   1.870  12.149  0.4832  2.8807  0.6772
 3796SOL    HW223025   3.345   1.820  12.020 -0.2848  0.7305 -0.5920
 3797SOL     OW23026   1.418   3.906   3.370 -0.1770  0.6240  0.2742
 3797SOL    HW123027   1.382   3.853   3.300 -0.6577  2.1256 -0.6182
 3797SOL    HW223028   1.348   3.970   3.383 -1.2054 -0.3900 -0.3508
 3798SOL     OW23029   3.486   0.420   5.408 -0.4042 -0.4395 -0.0651
 3798SOL    HW123030   3.541   0.468   5.470 -1.0764  0.2019  0.0253
 3798SOL    HW223031   3.541   0.426   5.329  1.5423  2.1432  1.4780
 3799SOL     OW23032   1.409   2.381   6.970  0.2242 -0.0816 -0.6597
 3799SOL    HW123033   1.413   2.285   6.974  3.2164  0.0982  0.1325
 3799SOL    HW223034   1.487   2.405   7.019 -0.0519  1.2096 -0.8629
 3800SOL     OW23035   3.745   3.974   6.001 -0.2876  0.0708  0.5669
 3800SOL    HW123036   3.758   3.880   6.008  1.8887  0.2042 -1.5639
 3800SOL    HW223037   3.678   3.982   5.932 -0.9445 -0.9121  1.0970
 3801SOL     OW23038   1.637   3.320  16.846 -0.6014 -0.0220 -0.5123
 3801SOL    HW123039   1.543   3.323  16.828 -0.9701  0.2119  1.4603
 3801SOL    HW223040   1.646   3.319  16.941 -0.1081  0.8304 -0.5509
 3802SOL     OW23041   3.820   0.947   3.172  0.4125  0.0583 -0.2986
 3802SOL    HW123042   3.861   0.993   3.099 -0.3502 -1.2203 -1.5053
 3802SOL    HW223043   3.732   0.983   3.159  0.7856  1.9521  2.2061
 3803SOL     OW23044   3.368   1.123   4.934 -0.0616 -0.4077  0.0475
 3803SOL    HW123045   3.411   1.086   4.857 -1.3369 -1.3096 -0.2277
 3803SOL    HW223046   3.440   1.173   4.972 -1.1435  1.8967 -0.9867
 3804SOL     OW23047   2.088   3.683   3.322 -0.0312  0.0698  0.6689
 3804SOL    HW123048   2.152   3.635   3.374  1.2190  2.3076  1.1865
 3804SOL    HW223049   2.144   3.740   3.270 -1.0762  0.1601 -0.3711
 3805SOL     OW23050   1.654   1.547   4.158 -0.9725  0.1431 -0.2263
 3805SOL    HW123051   1.658   1.629   4.109  1.2045  0.4914  0.5656
 3805SOL    HW223052   1.574   1.563   4.209  1.1692  3.4452  2.1113
 3806SOL     OW23053   2.842   2.476   8.463 -0.3570 -0.1517  0.7604
 3806SOL    HW123054   2.770   2.537   8.445  0.2339  0.4966  0.5671
 3806SOL    HW223055   2.927   2.517   8.479 -0.2896 -0.5282  1.3589
 3807SOL     OW23056   0.718   1.347  17.686 -0.1696 -0.1534  0.7615
 3807SOL    HW123057   0.709   1.306   0.030 -1.7646 -1.0519  0.1667
 3807SOL    HW223058   0.650   1.414  17.691 -0.0046  0.1609 -1.5356
 3808SOL     OW23059   2.276   4.165   6.722 -0.2948  0.2036  0.2956
 3808SOL    HW123060   2.273   4.119   6.806  0.0772 -1.5093 -0.6300
 3808SOL    HW223061   2.332   4.241   6.735  0.6098 -0.1356 -1.5672
 3809SOL     OW23062   1.927   3.366   4.580 -0.3783  0.1434 -0.0594
 3809SOL    HW123063   1.884   3.395   4.499 -0.4825  2.7502  0.9311
 3809SOL    HW223064   1.875   3.287   4.597 -0.6161 -0.2484 -2.5202
 3810SOL     OW23065   2.299   0.775  15.171  0.2414  0.1657 -0.1347
 3810SOL    HW123066   2.353   0.755  15.248 -1.9978 -2.9578  0.6011
 3810SOL    HW223067   2.213   0.770  15.213 -0.1303 -0.5358 -0.9950
 3811SOL     OW23068   1.788   4.436  15.017 -0.3132  0.6980  0.5361
 3811SOL    HW123069   1.804   4.531  15.020 -0.6116  0.7819 -0.6122
 3811SOL    HW223070   1.728   4.430  15.092  0.0591 -0.4887  0.7332
 3812SOL     OW23071   4.395   1.934   8.077 -0.9695  0.1730  0.2217
 3812SOL    HW123072   4.387   1.924   7.982  0.6430 -0.0599  0.1244
 3812SOL    HW223073   4.305   1.949   8.108 -1.3486 -0.2474 -0.6743
 3813SOL     OW23074   0.022   3.193  10.844 -0.9086 -0.2673 -0.0294
 3813SOL    HW123075   4.725   3.276  10.879  0.8325  1.2352 -2.0311
 3813SOL    HW223076   0.109   3.181  10.881 -1.3653 -0.6204  0.9661
 3814SOL     OW23077   3.575   1.676   1.398 -0.1920 -0.2538 -0.8017
 3814SOL    HW123078   3.635   1.614   1.439 -2.6404 -2.7393 -0.9682
 3814SOL    HW223079   3.516   1.693   1.471  2.4097  0.0297  1.2308
 3815SOL     OW23080   0.890   1.745   5.655  0.0482  0.2137 -0.3549
 3815SOL    HW123081   0.899   1.821   5.713  0.7700  1.1197 -1.6560
 3815SOL    HW223082   0.830   1.777   5.587 -0.2646  1.0050  0.3039
 3816SOL     OW23083   3.381   1.094   8.349 -0.4277 -0.4166 -0.2607
 3816SOL    HW123084   3.287   1.091   8.365 -0.7583 -0.9490 -2.2442
 3816SOL    HW223085   3.397   1.024   8.285  2.2770  0.0912 -0.1558
 3817SOL     OW23086   0.707   0.029  14.253  0.0733 -0.1127  0.4305
 3817SOL    HW123087   0.614   0.028  14.276 -0.7713  0.2429 -2.9386
 3817SOL    HW223088   0.712   0.114  14.208  0.4531  1.5208  3.5845
 3818SOL     OW23089   2.922   3.756  15.104 -0.3904  0.0356  0.0078
 3818SOL    HW123090   2.966   3.837  15.080 -0.7052  0.0906 -0.3728
 3818SOL    HW223091   2.885   3.779  15.189  0.3840  0.1618  0.3059
 3819SOL     OW23092   4.551   0.097   2.661 -0.1317  0.3599  0.3837
 3819SOL    HW123093   4.642   0.123   2.645  0.4622 -3.5024 -2.5288
 3819SOL    HW223094   4.558   0.034   2.733  2.5533 -0.2051 -0.3627
 3820SOL     OW23095   3.776   0.251   6.819 -0.2989 -0.3076 -0.2551
 3820SOL    HW123096   3.774   0.328   6.763  1.8158  0.6109  0.9102
 3820SOL    HW223097   3.737   0.188   6.759 -1.2050  0.7146 -0.7179
 3821SOL     OW23098   4.627   2.691   8.812  0.2554  0.4663 -0.9883
 3821SOL    HW123099   4.647   2.611   8.861 -0.0194  0.7219 -0.4596
 3821SOL    HW223100   4.716   2.726   8.820  1.4960 -2.9659  0.3643
 3822SOL     OW23101   0.037   1.967   8.388 -0.1331 -0.1876 -0.1889
 3822SOL    HW123102   0.023   2.006   8.302  1.5927  0.1710 -0.3158
 3822SOL    HW223103   4.724   1.885   8.385  1.9564 -1.4514  0.0484
 3823SOL     OW23104   4.472   2.919   1.003 -0.4575  0.0644  0.3995
 3823SOL    HW123105   4.401   2.895   1.064  0.4808  1.7482  2.1423
 3823SOL    HW223106   4.422   2.983   0.953 -1.3162 -1.9532 -1.3543
 3824SOL     OW23107   0.861   3.501   7.259  0.1807  0.0057  0.0425
 3824SOL    HW123108   0.911   3.443   7.316 -0.4030 -0.9765 -0.4227
 3824SOL    HW223109   0.768   3.491   7.282 -0.3063 -1.0117 -2.3443
 3825SOL     OW23110   0.149   0.012   7.687 -0.3106 -0.4096  0.4750
 3825SOL    HW123111   0.155   0.038   7.595 -2.7711 -1.1716  0.1092
 3825SOL    HW223112   0.072   4.692   7.695  0.2512 -1.2133  0.3378
 3826SOL     OW23113   0.520   3.904  16.238 -0.5778 -0.0941 -1.2008
 3826SOL    HW123114   0.489   3.957  16.311  0.1049 -0.1242 -0.8883
 3826SOL    HW223115   0.441   3.894  16.184 -0.3772  3.1072 -2.0633
 3827SOL     OW23116   0.058   4.260   2.389  0.0036 -0.6069 -0.0172
 3827SOL    HW123117   0.088   4.303   2.469  0.6607  1.3813 -1.3165
 3827SOL    HW223118   0.029   4.181   2.433  0.0404 -1.1033 -0.8957
 3828SOL     OW23119   0.181   4.309   4.159  0.0205  0.4547 -0.2582
 3828SOL    HW123120   0.118   4.349   4.219  0.5303  0.2637  0.4075
 3828SOL    HW223121   0.173   4.366   4.082  0.9448  0.7985 -0.1054
 3829SOL     OW23122   1.966   3.666   1.525  0.9034 -0.4313  0.3387
 3829SOL    HW123123   1.890   3.657   1.468 -1.0201 -2.3043  3.1804
 3829SOL    HW223124   1.939   3.620   1.604 -0.4248  0.2579  0.2804
 3830SOL     OW23125   4.470   1.547  14.903  0.3270 -0.1945  0.3329
 3830SOL    HW123126   4.549   1.514  14.860  0.3241  0.1169  0.0855
 3830SOL    HW223127   4.504   1.631  14.935  0.6571  0.7101 -2.3747
 3831SOL     OW23128   3.598   4.510   7.732  0.0811 -0.0048  0.2743
 3831SOL    HW123129   3.516   4.559   7.734 -0.4677 -0.9794  1.5642
 3831SOL    HW223130   3.664   4.562   7.686  0.7064 -0.0454  1.1369
 3832SOL     OW23131   1.215   4.216   6.678 -0.0331  0.1535 -0.1482
 3832SOL    HW123132   1.151   4.158   6.638 -1.7763  2.3410 -0.4987
 3832SOL    HW223133   1.281   4.226   6.609  0.6566  1.2465  0.6564
 3833SOL     OW23134   0.923   1.694   2.891 -0.1547 -0.2907  0.0066
 3833SOL    HW123135   0.847   1.654   2.848  1.6284 -0.3560 -3.1195
 3833SOL    HW223136   0.987   1.626   2.875  1.7868  1.5644 -0.0704
 3834SOL     OW23137   3.952   2.217   7.741  0.0631  0.7045 -0.7181
 3834SOL    HW123138   3.957   2.134   7.695 -0.7737  0.0667  0.3358
 3834SOL    HW223139   3.933   2.283   7.674  1.6317 -0.5613 -2.3943
 3835SOL     OW23140   3.044   0.177  14.269 -0.5569  0.3363 -0.3304
 3835SOL    HW123141   3.007   0.092  14.246 -2.2923  0.5520  1.7010
 3835SOL    HW223142   2.970   0.237  14.275  0.6956  1.7193  1.2884
 3836SOL     OW23143   3.773   3.520   6.254 -0.1170 -0.5385 -0.0160
 3836SOL    HW123144   3.702   3.460   6.277 -0.3798 -0.4231 -0.5420
 3836SOL    HW223145   3.813   3.483   6.176 -0.2413 -1.5445  0.4012
 3837SOL     OW23146   3.206   1.092   2.146  0.0174 -0.3430 -0.1345
 3837SOL    HW123147   3.249   1.109   2.063 -0.3011  0.0700 -0.2168
 3837SOL    HW223148   3.122   1.050   2.128  1.3518 -3.5954  1.2752
 3838SOL     OW23149   2.991   2.497   8.862  0.1367  0.0731 -0.3395
 3838SOL    HW123150   2.943   2.442   8.924 -0.4065  0.5032 -0.3852
 3838SOL    HW223151   3.072   2.445   8.859 -0.1441 -0.5303  3.0736
 3839SOL     OW23152   0.400   2.135   4.927 -0.5291  0.2685  0.8215
 3839SOL    HW123153   0.341   2.203   4.895 -3.0108 -1.0530  2.6204
 3839SOL    HW223154   0.478   2.185   4.952 -1.0220  0.9928  0.8899
 3840SOL     OW23155   0.217   3.608  16.722 -0.3647 -0.5965  0.2785
 3840SOL    HW123156   0.147   3.552  16.754  1.6109 -2.5820  1.1139
 3840SOL    HW223157   0.259   3.544  16.665  1.9515  1.9454 -0.8580
 3841SOL     OW23158   3.325   1.273   0.795  0.2242 -0.3081 -0.5581
 3841SOL    HW123159   3.264   1.319   0.853  1.3013 -2.5338  2.3906
 3841SOL    HW223160   3.409   1.284   0.839  0.0172 -0.8868 -0.0106
 3842SOL     OW23161   0.756   1.687   7.837 -0.6871  0.0581  0.2348
 3842SOL    HW123162   0.837   1.732   7.814 -0.5757 -0.5818 -0.6502
 3842SOL    HW223163   0.785   1.596   7.843 -2.1633 -0.3585  0.9781
 3843SOL     OW23164   1.337   1.035   8.274 -0.0811  0.4534  0.3599
 3843SOL    HW123165   1.269   1.090   8.236  0.4558  1.1352  0.3921
 3843SOL    HW223166   1.316   0.947   8.244  0.3028  0.7194 -0.6904
 3844SOL     OW23167   0.615   4.438   4.061  0.3876 -0.2377 -0.4041
 3844SOL    HW123168   0.693   4.385   4.044  1.4228  0.6041  1.6964
 3844SOL    HW223169   0.647   4.525   4.085  0.9150 -0.3603 -0.6600
 3845SOL     OW23170   0.372   3.834   6.684 -0.5308 -0.5062  0.0677
 3845SOL    HW123171   0.394   3.759   6.740  1.8812  1.0967  1.2728
 3845SOL    HW223172   0.459   3.851   6.647 -0.1872  1.0531  1.6024
 3846SOL     OW23173   3.794   0.848   6.294  0.0406  0.1692  0.0327
 3846SOL    HW123174   3.805   0.900   6.373  0.7025 -1.4833  1.0193
 3846SOL    HW223175   3.813   0.761   6.330  2.3726  0.9654  0.7262
 3847SOL     OW23176   1.844   1.368  17.213  0.1026 -0.4459  0.0886
 3847SOL    HW123177   1.809   1.439  17.267  1.4392 -0.3641  0.8534
 3847SOL    HW223178   1.825   1.395  17.123 -2.5802 -1.0573  0.4722
 3848SOL     OW23179   0.114   2.105   9.538  0.5279  0.3396  0.1517
 3848SOL    HW123180   0.069   2.114   9.454  1.1831 -1.1748 -0.3595
 3848SOL    HW223181   0.190   2.159   9.516  0.1094  2.0092  2.8124
 3849SOL     OW23182   4.392   2.738   9.220  0.6251 -0.2857 -0.4429
 3849SOL    HW123183   4.474   2.708   9.260  0.3884 -2.3331 -1.4770
 3849SOL    HW223184   4.352   2.655   9.194  1.9307 -0.9280 -0.4066
 3850SOL     OW23185   4.441   0.123  12.047  0.2874  0.2060  0.5244
 3850SOL    HW123186   4.407   0.036  12.029 -0.3936  0.3917  0.8764
 3850SOL    HW223187   4.480   0.111  12.134 -0.3514 -1.0595  0.6346
 3851SOL     OW23188   0.479   0.098   8.050 -0.0461  0.0752 -0.1992
 3851SOL    HW123189   0.557   0.105   7.994  0.1122 -0.7745 -0.0898
 3851SOL    HW223190   0.402   0.086   7.994 -1.4955 -2.4811  2.3190
 3852SOL     OW23191   1.188   1.739   7.900 -0.1208  0.3858  0.0278
 3852SOL    HW123192   1.254   1.679   7.865 -0.1986  1.1951 -1.5106
 3852SOL    HW223193   1.123   1.744   7.831 -0.1317 -1.2625 -0.0823
 3853SOL     OW23194   4.352   3.323   7.134  0.0901  0.2429 -0.3612
 3853SOL    HW123195   4.288   3.372   7.082 -0.1623 -0.1752 -0.4473
 3853SOL    HW223196   4.326   3.232   7.122 -2.4116  1.0044 -0.6885
 3854SOL     OW23197   3.891   3.771   2.338  0.0654  0.0453  0.1528
 3854SOL    HW123198   3.842   3.854   2.343  1.5490  0.9220  0.1681
 3854SOL    HW223199   3.822   3.705   2.336 -0.3532  0.3437  3.3614
 3855SOL     OW23200   0.870   4.171  11.433  0.3055  0.2465 -0.0278
 3855SOL    HW123201   0.789   4.161  11.382  2.4891 -0.7860 -3.2455
 3855SOL    HW223202   0.877   4.265  11.421  1.7149  0.1334 -0.0305
 3856SOL     OW23203   3.585   3.137   0.998  0.3967 -0.0445  0.4390
 3856SOL    HW123204   3.497   3.119   1.032  0.1775  1.6342  0.7616
 3856SOL    HW223205   3.592   3.224   1.038  0.0143 -0.2619  0.9815
 3857SOL     OW23206   1.477   2.157   6.742 -0.2092  0.1266  0.5709
 3857SOL    HW123207   1.514   2.242   6.720 -2.2900  0.7866 -0.4371
 3857SOL    HW223208   1.405   2.160   6.678  1.6616  2.7257 -1.3883
 3858SOL     OW23209   3.841   2.154   9.287 -0.1740 -0.0249  0.2339
 3858SOL    HW123210   3.774   2.099   9.245 -0.6174 -0.1045  1.0406
 3858SOL    HW223211   3.805   2.242   9.272  1.9927  0.5448 -1.5443
 3859SOL     OW23212   1.969   0.276   7.677  0.0640  0.0414  0.0620
 3859SOL    HW123213   1.964   0.181   7.685  0.3604  0.1909  2.0135
 3859SOL    HW223214   2.026   0.279   7.599  0.2609  0.4242  0.2193
 3860SOL     OW23215   2.976   2.047   8.282  0.2317  0.5419 -0.0213
 3860SOL    HW123216   3.001   1.956   8.296 -1.6398  0.0664  0.1674
 3860SOL    HW223217   2.900   2.059   8.339 -1.4721  2.3876 -2.6674
 3861SOL     OW23218   3.803   2.375   9.911 -0.3872 -0.6818  0.0602
 3861SOL    HW123219   3.831   2.370  10.003  1.9625 -2.0024 -0.7221
 3861SOL    HW223220   3.879   2.414   9.867 -0.7017  0.0807  0.1873
 3862SOL     OW23221   3.091   3.625   1.575  1.1510 -0.1914  0.2122
 3862SOL    HW123222   3.040   3.646   1.496  0.5163 -0.1619  0.6274
 3862SOL    HW223223   3.019   3.605   1.635  0.6035 -1.1003 -0.7347
 3863SOL     OW23224   4.450   1.206   4.219 -0.1539  0.3675  0.0497
 3863SOL    HW123225   4.473   1.291   4.257 -0.8554  1.9248 -3.0377
 3863SOL    HW223226   4.450   1.227   4.126 -0.4749 -2.1426 -0.5293
 3864SOL     OW23227   1.442   3.861   2.313  0.1541  0.7096  0.2960
 3864SOL    HW123228   1.394   3.941   2.295  0.3500  0.5137 -1.1385
 3864SOL    HW223229   1.490   3.853   2.230  0.8224  0.6166  0.6866
 3865SOL     OW23230   2.707   3.500   5.706 -0.4058  0.0474  0.1677
 3865SOL    HW123231   2.788   3.474   5.662 -0.8541  0.5879 -0.9619
 3865SOL    HW223232   2.748   3.565   5.763 -0.2307 -0.6594  0.8600
 3866SOL     OW23233   3.903   4.490   5.927 -0.2293 -0.7025  0.0907
 3866SOL    HW123234   3.968   4.423   5.906 -1.2418 -1.9864  1.0014
 3866SOL    HW223235   3.849   4.437   5.985  0.4716 -1.2254  0.2670
 3867SOL     OW23236   2.888   1.044  14.316  0.0094  0.2349  0.2097
 3867SOL    HW123237   2.873   0.972  14.254 -0.6494  1.0092 -0.5380
 3867SOL    HW223238   2.983   1.039  14.325  0.0013 -0.5204 -0.0665
 3868SOL     OW23239   2.983   2.379  14.128 -0.1336  0.0863 -0.1008
 3868SOL    HW123240   2.939   2.299  14.154  0.7190 -0.7785 -1.2844
 3868SOL    HW223241   3.056   2.342  14.078 -0.3107 -0.1637 -0.1768
 3869SOL     OW23242   2.084   0.620  12.129 -0.2398  0.0271  0.5473
 3869SOL    HW123243   2.108   0.712  12.126 -1.0713  0.2728  1.6790
 3869SOL    HW223244   2.172   0.582  12.121  0.3409  1.0825  1.8943
 3870SOL     OW23245   4.084   2.389   9.856 -0.2074 -0.2744  0.0580
 3870SOL    HW123246   4.139   2.447   9.908  0.1665  1.3064 -2.0712
 3870SOL    HW223247   4.126   2.303   9.863 -0.2260 -0.4404 -1.7769
 3871SOL     OW23248   3.801   2.080   9.913 -0.5142  0.7182 -0.8936
 3871SOL    HW123249   3.819   2.170   9.885  1.0800  1.0822  1.3282
 3871SOL    HW223250   3.848   2.036   9.843  1.8822 -1.3471  2.0195
 3872SOL     OW23251   1.147   1.600   1.813  0.0765 -0.1826 -0.5606
 3872SOL    HW123252   1.202   1.526   1.786  0.4797 -0.3364  0.6607
 3872SOL    HW223253   1.067   1.558   1.846  0.4492  1.0343  1.9398
 3873SOL     OW23254   3.361   0.244   4.973 -0.1158 -0.3545  0.0375
 3873SOL    HW123255   3.351   0.216   5.064 -0.6263  0.4846  0.2411
 3873SOL    HW223256   3.306   0.181   4.927 -1.7761  1.5301 -0.5761
 3874SOL     OW23257   0.008   3.950   8.285 -0.2439  0.1145  0.0884
 3874SOL    HW123258   4.682   4.021   8.265  2.4761  2.0266 -1.5451
 3874SOL    HW223259   4.692   3.870   8.282  1.1770 -0.8452  1.2055
 3875SOL     OW23260   0.901   0.928   4.357  0.3156 -0.4820 -0.5479
 3875SOL    HW123261   0.864   0.936   4.445  2.3973  2.2150  0.0920
 3875SOL    HW223262   0.977   0.872   4.366 -1.9595 -3.5681 -0.6286
 3876SOL     OW23263   4.096   2.363   5.876 -0.9057  0.1084  0.0252
 3876SOL    HW123264   4.078   2.299   5.945 -0.2994 -1.7093 -1.5008
 3876SOL    HW223265   4.160   2.311   5.827 -0.1165  1.0855  0.0138
 3877SOL     OW23266   1.208   2.837   6.775  0.0033  0.8824 -0.6778
 3877SOL    HW123267   1.220   2.847   6.680  0.3058  4.0521 -0.2843
 3877SOL    HW223268   1.162   2.753   6.767  1.2034  0.2420 -0.7852
 3878SOL     OW23269   1.328   1.606  12.440  0.4650 -0.1911  0.8542
 3878SOL    HW123270   1.373   1.659  12.506 -0.3241  0.1177  1.1354
 3878SOL    HW223271   1.236   1.623  12.462 -0.0578 -0.6605 -1.0498
 3879SOL     OW23272   0.134   1.610   9.381  0.2104 -0.0644 -0.1903
 3879SOL    HW123273   0.106   1.522   9.406 -1.7554  1.2144  2.0596
 3879SOL    HW223274   0.164   1.643   9.466  0.3568  1.2712 -0.7531
 3880SOL     OW23275   0.019   0.718  14.718 -0.1620 -0.4213 -0.6087
 3880SOL    HW123276   4.691   0.711  14.789 -1.5002  0.6666 -1.6955
 3880SOL    HW223277   4.709   0.791  14.675  2.0455  1.0493 -0.4804
 3881SOL     OW23278   0.013   4.673  13.750 -0.1749  0.0883 -0.0865
 3881SOL    HW123279   4.729   4.736  13.680  0.8905  1.3746  0.7702
 3881SOL    HW223280   0.024   4.730  13.826 -0.6211  0.0862 -0.0217
 3882SOL     OW23281   0.897   3.850   2.005  0.5714 -0.7754 -0.0008
 3882SOL    HW123282   0.872   3.801   2.083 -2.0524 -2.2011 -1.7534
 3882SOL    HW223283   0.832   3.920   2.009  0.8760 -0.4884 -0.0180
 3883SOL     OW23284   3.527   1.819   5.226 -0.0121  0.1351 -0.3553
 3883SOL    HW123285   3.475   1.878   5.172  0.3456 -0.9304 -1.8820
 3883SOL    HW223286   3.540   1.745   5.166 -0.1210  0.6411 -1.0099
 3884SOL     OW23287   1.826   4.411   1.146  0.1081  0.0314 -0.3083
 3884SOL    HW123288   1.790   4.341   1.200  0.8923 -1.7973 -2.1897
 3884SOL    HW223289   1.916   4.425   1.174 -0.1982 -0.1521  0.7653
 3885SOL     OW23290   3.616   0.187   5.281 -0.1039  0.2662 -0.3401
 3885SOL    HW123291   3.522   0.175   5.269 -0.4544  1.8926  0.8172
 3885SOL    HW223292   3.648   0.154   5.197 -2.8602  0.2856 -1.3770
 3886SOL     OW23293   2.683   2.350  15.588 -0.0762  0.5057  0.4098
 3886SOL    HW123294   2.672   2.415  15.519  0.0542 -0.1762 -0.2514
 3886SOL    HW223295   2.617   2.292  15.551 -0.3815  1.3569 -0.3888
 3887SOL     OW23296   4.117   4.395  12.678 -0.3554  0.5769  0.1242
 3887SOL    HW123297   4.136   4.319  12.732  0.6205  1.3273  0.8419
 3887SOL    HW223298   4.055   4.436  12.738 -2.6275 -2.9277  0.1254
 3888SOL     OW23299   0.393   4.132   1.983  0.0780  0.3332 -0.6453
 3888SOL    HW123300   0.419   4.041   2.000  1.4744  0.8458 -0.0109
 3888SOL    HW223301   0.307   4.130   2.024 -0.3308  0.8275 -1.4911
 3889SOL     OW23302   4.243   2.235  12.280  0.0420  0.1109  0.4627
 3889SOL    HW123303   4.246   2.329  12.299 -2.3070  0.1325  0.7489
 3889SOL    HW223304   4.181   2.203  12.345  0.6571 -2.5305 -0.2253
 3890SOL     OW23305   4.027   3.677   3.535  0.3964 -0.1323  1.0126
 3890SOL    HW123306   4.079   3.732   3.593  0.6142  0.7474  0.0007
 3890SOL    HW223307   3.949   3.680   3.590  0.0671 -0.8771  0.5986
 3891SOL     OW23308   2.751   2.272  10.596 -0.3445 -0.2146 -0.2504
 3891SOL    HW123309   2.789   2.335  10.658  2.0340 -1.0143 -0.8720
 3891SOL    HW223310   2.812   2.296  10.526 -0.4705  1.4608  0.2060
 3892SOL     OW23311   3.542   0.925   3.123  0.1964  0.5787 -0.1001
 3892SOL    HW123312   3.490   0.845   3.115 -0.0967  0.6535  1.0268
 3892SOL    HW223313   3.536   0.943   3.217 -0.6612  2.1746 -0.4651
 3893SOL     OW23314   2.033   0.603   2.548 -0.0609 -0.0608 -0.3616
 3893SOL    HW123315   1.959   0.543   2.550 -0.8093  0.7929 -2.2248
 3893SOL    HW223316   2.097   0.532   2.546 -0.1809 -0.1092 -2.1076
 3894SOL     OW23317   0.396   1.151   1.391  0.0219  0.1191  0.5722
 3894SOL    HW123318   0.352   1.211   1.451  0.7208  0.6970  0.5077
 3894SOL    HW223319   0.459   1.210   1.349 -0.4767  0.5131  0.3909
 3895SOL     OW23320   1.524   3.824   1.364 -0.3127 -0.7916  0.0795
 3895SOL    HW123321   1.509   3.875   1.284  1.6036 -1.7767 -0.9175
 3895SOL    HW223322   1.497   3.885   1.433  0.0470 -1.8229  1.1220
 3896SOL     OW23323   1.427   0.786   5.448  0.1504 -0.1526  0.1479
 3896SOL    HW123324   1.482   0.711   5.470 -2.2528 -1.6223  1.1627
 3896SOL    HW223325   1.486   0.860   5.464  0.6186 -0.1487 -1.6210
 3897SOL     OW23326   2.351   4.602   4.299  0.3772 -0.6246  0.3159
 3897SOL    HW123327   2.358   4.544   4.224  1.2317  1.1080 -0.9457
 3897SOL    HW223328   2.299   4.544   4.355 -2.5246  3.4821  1.9135
 3898SOL     OW23329   4.440   1.446  11.883 -0.2549 -0.3259 -0.3869
 3898SOL    HW123330   4.388   1.515  11.843  1.5168  1.5839  0.6109
 3898SOL    HW223331   4.395   1.361  11.885  0.9954 -1.0126 -1.7513
 3899SOL     OW23332   2.167   4.377   6.502  1.2790 -0.0515 -0.4936
 3899SOL    HW123333   2.245   4.392   6.449  2.3696 -2.0738  0.5616
 3899SOL    HW223334   2.205   4.380   6.590  0.2591  0.9524 -0.0887
 3900SOL     OW23335   2.400   0.550   8.734  0.5544  0.1129 -0.1560
 3900SOL    HW123336   2.384   0.461   8.702 -0.6405  0.8950 -1.6994
 3900SOL    HW223337   2.495   0.559   8.731  0.6438 -0.8530 -0.2405
 3901SOL     OW23338   3.854   0.297  10.285 -0.1163 -0.0329  0.3509
 3901SOL    HW123339   3.789   0.228  10.297 -0.9002  0.8946  1.3353
 3901SOL    HW223340   3.859   0.311  10.190 -0.4193  0.2530  0.3778
 3902SOL     OW23341   3.826   0.862  16.054  0.5343 -0.0824 -0.2369
 3902SOL    HW123342   3.829   0.948  16.094  0.8393  0.1601 -0.7849
 3902SOL    HW223343   3.848   0.810  16.131  1.7545 -0.2316 -0.6777
 3903SOL     OW23344   4.446   4.249   0.399 -0.3586 -0.4467  0.3426
 3903SOL    HW123345   4.423   4.162   0.433  0.3029 -0.0316  1.8135
 3903SOL    HW223346   4.536   4.232   0.372 -0.2409  1.0053 -0.1943
 3904SOL     OW23347   2.007   3.779   1.196  0.3360 -0.3747  0.1539
 3904SOL    HW123348   1.938   3.734   1.245 -0.2282 -0.2245 -0.5053
 3904SOL    HW223349   2.072   3.710   1.183  1.4186  0.8470 -0.8649
 3905SOL     OW23350   0.930   3.427   2.213  0.2831  0.1573  0.8172
 3905SOL    HW123351   0.842   3.453   2.183  0.1980 -0.5296  0.4797
 3905SOL    HW223352   0.968   3.510   2.243  1.4673  0.8612 -2.5419
 3906SOL     OW23353   4.237   0.773   0.686 -0.0927  0.6007  0.3183
 3906SOL    HW123354   4.299   0.700   0.681 -1.9864 -0.9626 -0.6360
 3906SOL    HW223355   4.170   0.728   0.738  0.0720  1.1381  0.9819
 3907SOL     OW23356   2.016   3.646   3.905 -0.0602  0.2205  0.2599
 3907SOL    HW123357   1.960   3.569   3.914 -0.0278  0.1871  0.1774
 3907SOL    HW223358   2.037   3.651   3.998  0.6960 -0.5761  0.1416
 3908SOL     OW23359   2.987   3.355  11.455  0.0022 -0.2220 -0.1309
 3908SOL    HW123360   3.045   3.372  11.380 -0.1784  0.5741 -0.0874
 3908SOL    HW223361   2.913   3.410  11.429  0.5302 -0.3796 -1.9992
 3909SOL     OW23362   2.970   3.048  15.364  0.5919  0.2409 -0.0969
 3909SOL    HW123363   2.940   3.063  15.275  1.2044 -1.8909 -0.6611
 3909SOL    HW223364   3.047   2.993  15.350  0.4118  0.3397 -1.3894
 3910SOL     OW23365   0.405   0.031   5.856 -0.2791  0.6128  0.3643
 3910SOL    HW123366   0.373   4.688   5.899  1.6129 -0.2279  0.2066
 3910SOL    HW223367   0.351   0.100   5.895 -0.5688 -0.5559  2.0180
 3911SOL     OW23368   4.105   4.361   4.287 -0.6823 -0.0254  0.1719
 3911SOL    HW123369   4.102   4.441   4.236  2.3833  0.9580  1.5248
 3911SOL    HW223370   4.167   4.385   4.356 -2.0379  1.4112  0.8902
 3912SOL     OW23371   4.569   3.028   8.422 -0.1769  0.2225 -0.4660
 3912SOL    HW123372   4.566   2.969   8.498  0.5745  1.7919  0.7755
 3912SOL    HW223373   4.499   2.992   8.368 -1.3492  0.5020  0.8716
 3913SOL     OW23374   1.313   4.111   9.151 -0.1129 -0.0404  0.4141
 3913SOL    HW123375   1.229   4.068   9.168 -0.2725 -0.1686 -0.7100
 3913SOL    HW223376   1.348   4.058   9.080  0.2868  0.2175  0.4179
 3914SOL     OW23377   2.591   1.980   3.244  0.3081 -0.5023 -0.1056
 3914SOL    HW123378   2.534   1.904   3.233 -3.2898  2.3289 -0.8508
 3914SOL    HW223379   2.636   1.943   3.320 -0.1159  1.1902  0.9631
 3915SOL     OW23380   2.355   3.563   6.104 -0.6426  0.1879 -0.2458
 3915SOL    HW123381   2.282   3.544   6.163 -0.5201 -0.5859 -0.3451
 3915SOL    HW223382   2.335   3.656   6.092 -0.3031  0.5136  1.6825
 3916SOL     OW23383   2.647   3.560   8.266  0.2511  0.2579 -0.1783
 3916SOL    HW123384   2.635   3.486   8.326  2.3016  0.0542 -0.0002
 3916SOL    HW223385   2.623   3.527   8.180 -1.5918 -1.0662  0.8676
 3917SOL     OW23386   4.490   0.742   3.576  0.0009 -0.6503  0.2689
 3917SOL    HW123387   4.424   0.708   3.638  0.1814 -1.0281  0.2560
 3917SOL    HW223388   4.573   0.737   3.623  0.2006  0.5781  0.0454
 3918SOL     OW23389   1.703   2.697   3.133  0.2725  0.7648 -0.0642
 3918SOL    HW123390   1.610   2.722   3.131 -0.0938 -0.6411 -0.5940
 3918SOL    HW223391   1.703   2.661   3.221  0.9707 -1.8734 -1.1399
 3919SOL     OW23392   1.276   1.067  10.576  0.3197 -0.1252  0.1900
 3919SOL    HW123393   1.330   1.038  10.502 -0.7864  1.4197 -1.2243
 3919SOL    HW223394   1.313   1.154  10.590  0.8394 -0.0291 -1.7036
 3920SOL     OW23395   2.964   1.060   3.708  0.1015  0.6874 -0.3275
 3920SOL    HW123396   3.023   1.085   3.637  0.5118 -0.3801 -0.3530
 3920SOL    HW223397   3.012   1.001   3.766 -0.3839 -0.1408 -0.7666
 3921SOL     OW23398   3.535   1.501   3.528  0.4602 -0.3294  0.0478
 3921SOL    HW123399   3.593   1.529   3.598 -0.4660 -0.2679  0.7922
 3921SOL    HW223400   3.474   1.575   3.524  2.7509  1.4907 -0.8841
 3922SOL     OW23401   1.393   1.024  10.083  0.2305  0.0833  0.4341
 3922SOL    HW123402   1.366   1.104  10.036  0.8463  0.0986  0.1164
 3922SOL    HW223403   1.394   1.043  10.177 -0.5346 -0.3881  0.5418
 3923SOL     OW23404   3.701   1.620   5.523  0.1080 -0.1488 -0.1975
 3923SOL    HW123405   3.769   1.557   5.548  0.4641  0.2559 -0.1586
 3923SOL    HW223406   3.633   1.613   5.590 -0.3919  2.3237 -0.4650
 3924SOL     OW23407   3.807   2.340   5.127 -0.5682  0.5978  0.0363
 3924SOL    HW123408   3.852   2.418   5.093  1.0047 -1.2552 -2.0876
 3924SOL    HW223409   3.882   2.282   5.138  0.2414  2.0108  2.0427
 3925SOL     OW23410   0.444   4.204   5.432 -0.1551  0.3789 -0.6492
 3925SOL    HW123411   0.416   4.113   5.419 -1.4519  0.9439 -1.8076
 3925SOL    HW223412   0.372   4.247   5.387  1.3135  1.6277 -1.7993
 3926SOL     OW23413   0.643   0.175   7.792  0.3033  0.1470 -0.2109
 3926SOL    HW123414   0.713   0.218   7.743 -1.0741  1.3983 -1.0784
 3926SOL    HW223415   0.573   0.162   7.728 -1.8347  1.1650  1.8677
 3927SOL     OW23416   0.660   1.700   5.481  0.3261  0.0468  0.8691
 3927SOL    HW123417   0.574   1.742   5.486  0.0086 -0.8766  3.0612
 3927SOL    HW223418   0.637   1.613   5.514 -1.8052 -0.2794 -1.4365
 3928SOL     OW23419   1.522   1.721   4.507  0.0063  0.1966 -0.4162
 3928SOL    HW123420   1.522   1.643   4.562 -2.0973 -0.3174 -1.1545
 3928SOL    HW223421   1.495   1.681   4.424  0.7616 -1.9038  0.3283
 3929SOL     OW23422   3.211   2.852  12.024  0.4071  0.0300  0.0305
 3929SOL    HW123423   3.125   2.891  12.012  0.9074  1.7394  1.9465
 3929SOL    HW223424   3.244   2.836  11.935 -3.3757  0.9917 -1.5287
 3930SOL     OW23425   3.441   0.590   0.907  0.2094 -0.5908 -0.5730
 3930SOL    HW123426   3.471   0.558   0.822  2.0377 -1.1385  0.2745
 3930SOL    HW223427   3.345   0.582   0.903  0.0294  2.1099 -1.1990
 3931SOL     OW23428   3.567   2.398   7.221  0.1046  0.5820  0.2728
 3931SOL    HW123429   3.500   2.466   7.232 -1.5536 -1.0899  0.4494
 3931SOL    HW223430   3.542   2.342   7.295 -2.0588  1.9451  0.5967
 3932SOL     OW23431   3.377   1.808   0.606 -0.0045 -0.3262 -0.1788
 3932SOL    HW123432   3.387   1.739   0.672 -1.7631 -0.4054 -0.0144
 3932SOL    HW223433   3.339   1.873   0.665  1.4896 -0.2170  0.6670
 3933SOL     OW23434   3.978   4.593   1.890  0.3224 -0.4232 -0.0540
 3933SOL    HW123435   4.039   4.664   1.909  0.1417  0.0629 -1.2470
 3933SOL    HW223436   4.017   4.522   1.840  1.3049 -0.7914  1.2465
 3934SOL     OW23437   1.629   1.649   7.297  0.0386  0.1830 -0.1973
 3934SOL    HW123438   1.537   1.623   7.306 -0.0289  0.4622 -0.0889
 3934SOL    HW223439   1.661   1.615   7.381 -0.4975  0.0959 -0.0255
 3935SOL     OW23440   3.698   1.084   2.281 -0.0152  0.5922 -0.1179
 3935SOL    HW123441   3.665   0.994   2.277  0.3804  0.4414  0.0203
 3935SOL    HW223442   3.785   1.064   2.316  0.1800  2.2131  0.3391
 3936SOL     OW23443   0.906   1.501   1.914 -0.6909 -0.2401 -0.6818
 3936SOL    HW123444   0.858   1.477   1.834 -2.2835 -4.0396  1.4360
 3936SOL    HW223445   0.858   1.468   1.989  0.6826 -1.4231 -0.3373
 3937SOL     OW23446   3.303   3.013  10.342  0.0309 -0.0857  0.1056
 3937SOL    HW123447   3.261   3.070  10.279  0.0948  2.0328  1.9798
 3937SOL    HW223448   3.359   2.969  10.278  0.1586 -1.9315  1.4478
 3938SOL     OW23449   0.068   2.475   7.185  0.9650 -0.0378 -0.3777
 3938SOL    HW123450   0.074   2.505   7.275 -1.2160 -0.0717 -0.2000
 3938SOL    HW223451   0.073   2.558   7.138 -2.0588 -0.3275 -1.2207
 3939SOL     OW23452   2.494   3.986  13.322  0.0900 -0.1142  0.1051
 3939SOL    HW123453   2.486   3.917  13.256 -0.6219 -2.2136  2.4210
 3939SOL    HW223454   2.411   3.977  13.369  0.5495 -1.7027  0.6000
 3940SOL     OW23455   3.912   0.935   5.468 -0.3140 -0.2820 -0.5078
 3940SOL    HW123456   3.839   0.885   5.433 -2.4032  2.6311 -0.3291
 3940SOL    HW223457   3.967   0.943   5.389 -1.4679  2.4078 -1.0481
 3941SOL     OW23458   2.508   4.560  13.409  0.2517 -0.1342 -0.0505
 3941SOL    HW123459   2.520   4.601  13.495  1.5902 -2.3158  0.8098
 3941SOL    HW223460   2.462   4.629  13.363  1.1581  0.3187 -0.2592
 3942SOL     OW23461   2.210   0.284   3.027  0.4462 -0.1493  0.4604
 3942SOL    HW123462   2.147   0.340   3.072 -0.2569  0.8509 -1.7942
 3942SOL    HW223463   2.159   0.253   2.952  1.0331  0.4247 -0.1752
 3943SOL     OW23464   0.182   3.956   6.094 -0.5345  0.2566  0.1677
 3943SOL    HW123465   0.263   3.962   6.043 -1.1431  1.0440 -0.6902
 3943SOL    HW223466   0.170   4.049   6.114 -0.3639 -0.4197  3.4009
 3944SOL     OW23467   2.485   0.836  16.241 -0.1693  0.4190  0.0630
 3944SOL    HW123468   2.483   0.773  16.313  1.3773 -0.9873 -1.1146
 3944SOL    HW223469   2.556   0.894  16.267  2.6103 -1.7910 -2.4645
 3945SOL     OW23470   0.559   4.523   3.406 -0.0683 -0.2316 -0.5975
 3945SOL    HW123471   0.526   4.456   3.466  0.7776  0.4647  0.6462
 3945SOL    HW223472   0.569   4.476   3.323 -1.8005 -2.4037  0.4370
 3946SOL     OW23473   1.883   0.681   1.983  0.0420 -0.2257 -0.0197
 3946SOL    HW123474   1.929   0.704   2.064  0.6986 -0.3810 -0.3485
 3946SOL    HW223475   1.937   0.730   1.921 -2.6488 -2.8145 -4.4141
 3947SOL     OW23476   1.710   1.624   7.593  0.2450 -0.4462  0.0138
 3947SOL    HW123477   1.724   1.543   7.641 -2.1084 -1.0468 -0.3103
 3947SOL    HW223478   1.781   1.679   7.625 -0.9853  1.9607 -1.3946
 3948SOL     OW23479   3.305   0.276  17.250 -0.1436  0.2594  0.9627
 3948SOL    HW123480   3.234   0.333  17.282 -1.4488 -1.3336  0.9254
 3948SOL    HW223481   3.291   0.284  17.155 -1.2949  0.6713  1.1576
 3949SOL     OW23482   1.639   1.271   4.387 -0.5246 -0.2281  0.1231
 3949SOL    HW123483   1.726   1.292   4.354 -0.4911  0.3691  0.5974
 3949SOL    HW223484   1.655   1.195   4.444 -0.7204 -0.7162 -0.4678
 3950SOL     OW23485   4.330   3.730   9.664  0.4202  0.0535 -0.0081
 3950SOL    HW123486   4.238   3.728   9.692  0.7872  0.2781  1.2063
 3950SOL    HW223487   4.327   3.689   9.578 -2.4859 -1.1293  0.6400
 3951SOL     OW23488   3.712   1.729   4.683  0.3881 -1.0260  0.3056
 3951SOL    HW123489   3.747   1.645   4.653  1.0180 -0.0401 -1.6858
 3951SOL    HW223490   3.620   1.722   4.656  0.2890  2.2023 -0.1645
 3952SOL     OW23491   1.867   2.750   7.480 -0.2344 -0.3971  0.4008
 3952SOL    HW123492   1.903   2.712   7.561  3.5262 -0.6614 -1.4210
 3952SOL    HW223493   1.774   2.728   7.482 -0.6233  1.3427  1.3013
 3953SOL     OW23494   2.754   0.048  13.396 -0.0873 -0.3642  0.8838
 3953SOL    HW123495   2.696   0.038  13.472 -2.3094  1.4825 -0.5521
 3953SOL    HW223496   2.805   4.704  13.386  1.1016  0.5348 -0.2897
 3954SOL     OW23497   1.578   4.203  14.927  0.0672  0.6080 -0.5773
 3954SOL    HW123498   1.623   4.268  14.981 -0.3341  0.4842 -0.0981
 3954SOL    HW223499   1.498   4.195  14.979  0.8828 -1.0140  0.4325
 3955SOL     OW23500   1.628   3.096   2.280 -0.6014 -0.2604  0.6168
 3955SOL    HW123501   1.585   3.164   2.227  2.8653  2.0377  0.7193
 3955SOL    HW223502   1.594   3.012   2.248 -1.7244  0.9599 -1.4196
 3956SOL     OW23503   1.078   0.535  17.672  0.1342 -0.3533 -0.0875
 3956SOL    HW123504   1.117   0.513  17.587  1.2565 -0.1387  0.3742
 3956SOL    HW223505   1.113   0.621  17.693 -0.8257 -0.5207  2.2739
 3957SOL     OW23506   3.260   1.574   2.374 -0.1032 -0.3433 -0.0691
 3957SOL    HW123507   3.226   1.513   2.309 -0.9904  0.9374 -0.8047
 3957SOL    HW223508   3.265   1.517   2.451  1.1511  0.4163  0.4139
 3958SOL     OW23509   3.065   2.213   6.172  0.2755 -0.7456  0.2013
 3958SOL    HW123510   3.034   2.242   6.086 -1.4058 -1.5300  0.5467
 3958SOL    HW223511   3.115   2.134   6.151  1.4362 -0.0429  0.3711
 3959SOL     OW23512   3.251   2.083   3.125 -0.5222 -0.4398 -0.0494
 3959SOL    HW123513   3.259   2.175   3.150  1.1853 -1.4061  2.8853
 3959SOL    HW223514   3.337   2.068   3.086  0.7160 -0.3469  2.6728
 3960SOL     OW23515   4.471   3.793   7.334 -0.2602  0.2187 -0.4468
 3960SOL    HW123516   4.378   3.782   7.354  0.1131 -0.9095  0.6766
 3960SOL    HW223517   4.483   3.886   7.353 -0.5910  0.3547 -0.8977
 3961SOL     OW23518   0.639   2.349   1.399 -0.3363  0.1084 -0.1251
 3961SOL    HW123519   0.603   2.274   1.351  0.9569 -0.2190 -0.5722
 3961SOL    HW223520   0.635   2.300   1.481 -2.3820  0.8275  0.2097
 3962SOL     OW23521   1.842   0.910  11.986 -0.1606 -0.6149  0.1896
 3962SOL    HW123522   1.823   0.816  11.989 -1.4159 -0.4356 -3.0709
 3962SOL    HW223523   1.933   0.908  12.017  0.3099  0.8294 -1.1253
 3963SOL     OW23524   1.805   3.704  11.186  0.5568  0.3596  0.0847
 3963SOL    HW123525   1.765   3.635  11.239  1.7986 -1.6487 -1.5715
 3963SOL    HW223526   1.828   3.763  11.258 -1.5216  1.6962 -0.3558
 3964SOL     OW23527   1.406   2.367   3.361 -0.3886 -0.2088 -0.1645
 3964SOL    HW123528   1.392   2.296   3.424 -1.0311 -1.9250 -2.2686
 3964SOL    HW223529   1.441   2.432   3.422  0.7713 -1.3934  0.4390
 3965SOL     OW23530   2.930   3.690   7.658  0.0399  0.3184  0.1058
 3965SOL    HW123531   2.954   3.597   7.667  2.5624  1.1840  2.4714
 3965SOL    HW223532   3.016   3.727   7.639  1.4499 -3.0367 -0.1176
 3966SOL     OW23533   0.147   0.251   8.170 -0.2063  0.3511  0.7096
 3966SOL    HW123534   0.123   0.203   8.090  3.0772 -0.8494  0.4600
 3966SOL    HW223535   0.201   0.320   8.132 -0.5574 -1.0666 -2.3223
 3967SOL     OW23536   3.148   0.469   0.244  0.3214  0.7024  0.8184
 3967SOL    HW123537   3.059   0.440   0.264 -0.7838  3.1108 -0.6811
 3967SOL    HW223538   3.128   0.524   0.168  0.3504 -2.1413 -1.2304
 3968SOL     OW23539   0.100   4.154   9.427  0.1144 -0.1212 -0.3588
 3968SOL    HW123540   0.013   4.116   9.410 -0.5844  1.4583 -0.3411
 3968SOL    HW223541   0.142   4.137   9.344  1.1522 -0.7664  0.3016
 3969SOL     OW23542   4.065   1.070   8.939 -1.3549  0.2796 -0.4267
 3969SOL    HW123543   4.039   1.144   8.884 -0.7511  1.7026  1.1915
 3969SOL    HW223544   4.160   1.076   8.951 -1.2439 -0.8048 -0.7663
 3970SOL     OW23545   1.611   3.875   6.405 -0.0149  0.3044  0.4234
 3970SOL    HW123546   1.668   3.911   6.474  0.2090  1.0495 -0.1377
 3970SOL    HW223547   1.592   3.786   6.434  1.3183  0.2581  1.1772
 3971SOL     OW23548   1.072   3.626  12.003  0.0842  0.4420 -0.3822
 3971SOL    HW123549   0.987   3.586  11.984 -0.4148  0.3380  2.0142
 3971SOL    HW223550   1.091   3.643  11.911 -1.6838  0.7513 -0.6884
 3972SOL     OW23551   2.501   4.394  15.207  0.0780  0.3204  0.4476
 3972SOL    HW123552   2.486   4.303  15.181 -0.8013  0.6966 -0.3522
 3972SOL    HW223553   2.588   4.421  15.177  0.2177 -1.4635 -0.7684
 3973SOL     OW23554   4.239   1.739   6.461 -0.0752  0.1708 -0.0769
 3973SOL    HW123555   4.197   1.796   6.526  3.2626  2.4793  0.0510
 3973SOL    HW223556   4.173   1.669   6.462 -1.1402  1.2050  2.7880
 3974SOL     OW23557   2.510   2.466   6.245  0.5259  0.0803  0.2984
 3974SOL    HW123558   2.479   2.434   6.330  1.5308 -1.1699  0.1852
 3974SOL    HW223559   2.552   2.546   6.277 -1.3387  0.6235  1.3309
 3975SOL     OW23560   4.289   1.427   1.229 -0.1046 -0.1752  0.0048
 3975SOL    HW123561   4.229   1.502   1.225 -2.0420 -1.9080 -3.1848
 3975SOL    HW223562   4.377   1.463   1.217  0.5235 -1.6734  0.1267
 3976SOL     OW23563   3.752   2.286   8.998 -0.0288 -0.5415  0.2888
 3976SOL    HW123564   3.707   2.210   9.036 -0.2740 -0.5255  0.0274
 3976SOL    HW223565   3.753   2.264   8.905  0.6334  0.2534  0.1080
 3977SOL     OW23566   3.609   0.091   3.699 -0.1836 -0.6676 -0.6892
 3977SOL    HW123567   3.558   0.089   3.780  1.1751  0.4628  0.1886
 3977SOL    HW223568   3.655   0.175   3.706  0.7394 -1.0485 -2.2076
 3978SOL     OW23569   0.092   3.426   0.397 -0.2057 -0.2289 -0.6267
 3978SOL    HW123570   0.176   3.443   0.354 -0.1100 -0.5242 -0.5542
 3978SOL    HW223571   0.067   3.345   0.353  0.3353 -0.0102 -1.3243
 3979SOL     OW23572   2.385   1.037   3.766  0.0604 -0.4309 -0.2491
 3979SOL    HW123573   2.478   1.033   3.790 -0.3304 -1.6887  1.0831
 3979SOL    HW223574   2.385   1.024   3.671 -0.4821  1.2859 -0.4784
 3980SOL     OW23575   2.345   4.376   9.583 -0.0899  0.0188  0.0423
 3980SOL    HW123576   2.261   4.417   9.604  0.2250  2.5189 -3.4787
 3980SOL    HW223577   2.401   4.436   9.535 -0.8368  0.5759 -0.1458
 3981SOL     OW23578   4.224   0.023   7.761 -0.2601  0.1281  0.1543
 3981SOL    HW123579   4.203   0.037   7.853 -2.2056 -0.7630 -0.1549
 3981SOL    HW223580   4.257   4.669   7.764 -2.2880 -0.6110  0.2909
 3982SOL     OW23581   3.633   0.843   2.014  0.5915  0.4900 -0.4887
 3982SOL    HW123582   3.701   0.782   1.985 -0.8557 -1.7608  0.8789
 3982SOL    HW223583   3.561   0.822   1.955 -0.5842 -0.2050  1.2059
 3983SOL     OW23584   4.595   0.212  10.075 -0.1073  0.5405 -0.2516
 3983SOL    HW123585   4.617   0.271  10.147 -0.7686  0.1812  0.2491
 3983SOL    HW223586   4.526   0.264  10.035 -0.6545  1.3883  1.7968
 3984SOL     OW23587   1.105   0.811  17.741  0.1024 -0.3678  0.4497
 3984SOL    HW123588   1.033   0.870  17.719  0.1039 -0.0358  1.3167
 3984SOL    HW223589   1.178   0.860  17.703 -0.5077 -1.7745 -2.5636
 3985SOL     OW23590   1.154   2.958  13.687 -0.1485  0.1760  0.5627
 3985SOL    HW123591   1.076   2.926  13.642 -1.5540  2.1127  1.6206
 3985SOL    HW223592   1.131   2.917  13.771  0.7430  0.2440  0.8378
 3986SOL     OW23593   4.388   1.335   3.243  0.2136  0.0625 -0.2943
 3986SOL    HW123594   4.374   1.417   3.292  0.5150 -0.1284  0.1118
 3986SOL    HW223595   4.295   1.319   3.232 -0.0968 -0.2234  2.7538
 3987SOL     OW23596   0.345   1.721  16.761 -0.3498  0.6968  0.7120
 3987SOL    HW123597   0.414   1.787  16.769  0.8102  0.0301 -3.5523
 3987SOL    HW223598   0.389   1.637  16.768 -1.3493 -0.0050 -1.2894
 3988SOL     OW23599   4.302   4.366   8.868  0.3487 -0.3985 -0.1197
 3988SOL    HW123600   4.392   4.334   8.863  1.0684  1.3494  1.6293
 3988SOL    HW223601   4.270   4.342   8.781 -0.8155 -2.0805  0.7832
 3989SOL     OW23602   4.398   3.964   6.437  0.3584 -0.7029 -0.5660
 3989SOL    HW123603   4.316   3.980   6.390  1.1924  0.7253 -1.5443
 3989SOL    HW223604   4.450   3.995   6.362  0.6230  0.4633  0.1108
 3990SOL     OW23605   2.788   0.437   1.801  0.0303  0.0051 -0.0485
 3990SOL    HW123606   2.868   0.480   1.769 -0.0924  0.7884  0.7040
 3990SOL    HW223607   2.720   0.470   1.743  1.5366  0.4358 -1.5607
 3991SOL     OW23608   4.194   1.875   8.955 -0.7452  0.3094  0.0180
 3991SOL    HW123609   4.129   1.942   8.935 -0.4751  0.1131 -1.5467
 3991SOL    HW223610   4.260   1.915   9.013  0.0991  0.5863 -1.1336
 3992SOL     OW23611   1.809   2.450  15.382  0.2455 -0.3735 -0.3407
 3992SOL    HW123612   1.870   2.394  15.430 -0.1635 -0.8720 -0.4063
 3992SOL    HW223613   1.855   2.532  15.403 -0.6085  0.1900 -0.6981
 3993SOL     OW23614   1.633   1.465   3.199 -0.0070 -0.0468  0.0543
 3993SOL    HW123615   1.687   1.439   3.274  0.6254  1.2398  0.0404
 3993SOL    HW223616   1.599   1.547   3.236  0.1348  0.3462 -0.6851
 3994SOL     OW23617   2.637   4.483   8.029  0.2229  0.2285 -0.6367
 3994SOL    HW123618   2.726   4.484   8.063  0.0878 -0.3519 -0.2807
 3994SOL    HW223619   2.633   4.390   8.008  1.7161  0.2761 -1.1845
 3995SOL     OW23620   2.386   0.892   3.160 -0.0065 -0.1026  0.4618
 3995SOL    HW123621   2.410   0.983   3.144 -0.1614  0.4603  3.4865
 3995SOL    HW223622   2.294   0.889   3.133 -0.0320 -0.9487  0.6365
 3996SOL     OW23623   2.222   1.702   9.894 -0.2820 -0.1044  0.3041
 3996SOL    HW123624   2.153   1.763   9.921  1.6477  1.4798  1.6767
 3996SOL    HW223625   2.294   1.765   9.884 -0.5615  0.0673 -0.6078
 3997SOL     OW23626   1.847   2.189   5.113  0.5820 -0.0363  0.3646
 3997SOL    HW123627   1.778   2.256   5.107  0.7085  0.3914  3.7963
 3997SOL    HW223628   1.790   2.115   5.131  2.6292 -2.0829 -1.6750
 3998SOL     OW23629   0.966   4.332   4.711 -0.0100  0.5699  0.1003
 3998SOL    HW123630   0.949   4.401   4.647  0.1557  2.1802  1.8163
 3998SOL    HW223631   0.979   4.378   4.793 -2.6422 -2.3951  2.1733
 3999SOL     OW23632   3.314   4.511  10.523 -0.4923 -0.5504  0.1311
 3999SOL    HW123633   3.248   4.531  10.456  1.9868  0.1600 -2.0705
 3999SOL    HW223634   3.394   4.487  10.476  0.0410 -0.4177  0.9744
 4000SOL     OW23635   1.071   0.848   8.400 -0.0596 -0.5555 -0.3481
 4000SOL    HW123636   0.977   0.863   8.402 -0.1183 -0.9608  0.0981
 4000SOL    HW223637   1.100   0.913   8.464  0.0956  1.3310 -2.3270
 4001SOL     OW23638   1.533   1.538  17.615  0.0637  0.7673  0.3942
 4001SOL    HW123639   1.472   1.611  17.628 -0.1383  0.8790 -1.1649
 4001SOL    HW223640   1.569   1.533  17.703  1.0775  0.0987 -0.0564
 4002SOL     OW23641   1.446   0.001   6.354  0.4745  0.0642  0.4196
 4002SOL    HW123642   1.389   4.687   6.412  0.2945 -1.0452 -0.7039
 4002SOL    HW223643   1.514   4.673   6.334  0.1826  0.9091 -3.3584
 4003SOL     OW23644   3.024   0.247   5.430 -0.0177  0.2072  0.5312
 4003SOL    HW123645   2.981   0.322   5.389  0.5119  0.5770  0.6553
 4003SOL    HW223646   3.044   0.196   5.352  0.9921 -0.4822  1.2355
 4004SOL     OW23647   3.338   4.616   7.746  0.2699 -0.0371  0.0930
 4004SOL    HW123648   3.274   4.631   7.677 -2.0950  3.6879  3.0617
 4004SOL    HW223649   3.296   4.559   7.810  0.6039  0.4820  0.7793
 4005SOL     OW23650   0.416   2.210   6.821 -0.0866  0.0359  0.2283
 4005SOL    HW123651   0.354   2.212   6.748 -1.1536 -3.0752  1.0123
 4005SOL    HW223652   0.359   2.182   6.893 -2.2926  1.8365 -0.8515
 4006SOL     OW23653   4.544   4.183   4.366  0.2677 -0.6656  0.4405
 4006SOL    HW123654   4.457   4.167   4.403 -0.7854  2.8668 -0.4397
 4006SOL    HW223655   4.544   4.276   4.344 -0.1138 -0.9533 -0.7895
 4007SOL     OW23656   3.121   1.515   7.410 -0.5419  0.5375 -0.5176
 4007SOL    HW123657   3.181   1.590   7.414 -0.7150  0.6418  0.1632
 4007SOL    HW223658   3.032   1.548   7.421  0.3006  1.8055  2.4116
 4008SOL     OW23659   3.315   2.513  15.684 -0.4401  0.5903  0.4847
 4008SOL    HW123660   3.248   2.571  15.719 -0.4701  1.0283 -0.2962
 4008SOL    HW223661   3.364   2.476  15.758  0.0058 -0.2715 -0.2348
 4009SOL     OW23662   1.996   2.844   7.044 -0.0767 -0.0961 -0.1666
 4009SOL    HW123663   1.966   2.862   7.132 -3.1350  2.3806 -1.7274
 4009SOL    HW223664   2.086   2.816   7.064 -0.1729  1.7208  2.7804
 4010SOL     OW23665   3.083   0.096  12.792 -0.1142  0.5975 -0.0014
 4010SOL    HW123666   3.029   0.019  12.771 -0.0574  0.7561 -0.7255
 4010SOL    HW223667   3.068   0.118  12.884 -1.8770 -0.3503 -0.0672
 4011SOL     OW23668   0.894   2.317   4.654  0.2336 -0.5123 -0.0697
 4011SOL    HW123669   0.926   2.407   4.665  0.4721 -0.3207 -2.1563
 4011SOL    HW223670   0.842   2.318   4.734  0.8183  1.2515  0.2865
 4012SOL     OW23671   2.395   2.625   1.110 -0.1898  0.1637 -0.4420
 4012SOL    HW123672   2.390   2.656   1.201  0.0014  2.4184 -1.1948
 4012SOL    HW223673   2.320   2.668   1.068  0.1910  0.3248 -0.9521
 4013SOL     OW23674   0.793   4.648  14.775 -0.1600 -0.2930  0.0603
 4013SOL    HW123675   0.831   4.705  14.842  0.0667  2.2433 -2.2008
 4013SOL    HW223676   0.864   4.637  14.712 -2.4803  0.9896 -2.8524
 4014SOL     OW23677   1.576   3.023  17.419 -0.5870  0.0482 -0.0916
 4014SOL    HW123678   1.494   2.973  17.411  0.8402 -2.4389  0.9718
 4014SOL    HW223679   1.593   3.054  17.330 -1.7817 -0.9874 -0.6841
 4015SOL     OW23680   3.294   3.565   3.533 -0.4366 -0.3210 -0.1465
 4015SOL    HW123681   3.340   3.503   3.475 -1.2726 -1.0913  0.0217
 4015SOL    HW223682   3.343   3.555   3.614 -0.4065 -1.0150 -0.2488
 4016SOL     OW23683   4.077   0.252   6.452 -0.1253 -0.5349  0.0550
 4016SOL    HW123684   4.096   0.257   6.546  1.4459 -1.0136 -0.2395
 4016SOL    HW223685   4.154   0.292   6.413  0.9651 -2.5406  0.1480
 4017SOL     OW23686   2.447   1.914   5.467  0.5387 -0.3250 -0.9559
 4017SOL    HW123687   2.452   1.979   5.537 -2.2147 -2.1948  0.9780
 4017SOL    HW223688   2.541   1.919   5.455  0.6363 -0.6826 -0.3501
 4018SOL     OW23689   1.614   0.145   3.601 -0.2465  0.4696  0.0746
 4018SOL    HW123690   1.582   0.081   3.537  0.4142  1.0424 -0.8223
 4018SOL    HW223691   1.645   0.088   3.671  0.2272 -1.5370 -1.7456
 4019SOL     OW23692   0.671   3.904   8.242 -0.2980 -0.1616  0.7319
 4019SOL    HW123693   0.583   3.873   8.260 -0.3372 -0.4514  0.0295
 4019SOL    HW223694   0.728   3.828   8.232  1.7223  1.4889 -0.5256
 4020SOL     OW23695   3.375   2.878   3.785 -0.4342 -0.2807 -0.2613
 4020SOL    HW123696   3.290   2.838   3.804 -1.0953  1.6571  0.8232
 4020SOL    HW223697   3.395   2.820   3.712 -0.2768  0.7351 -1.0175
 4021SOL     OW23698   4.129   0.703  13.354  0.0236 -0.1252 -0.1209
 4021SOL    HW123699   4.069   0.631  13.333  1.2084 -0.8465 -1.0311
 4021SOL    HW223700   4.079   0.782  13.336 -0.1245  0.1745  1.5607
 4022SOL     OW23701   4.235   3.491   5.736 -0.2283 -0.4229  0.8837
 4022SOL    HW123702   4.287   3.414   5.712  1.1916  0.0477  2.4378
 4022SOL    HW223703   4.313   3.540   5.761 -0.5530  0.6042 -0.1163
 4023SOL     OW23704   3.491   3.750   0.640  1.1157 -0.4954 -0.4013
 4023SOL    HW123705   3.572   3.710   0.672  0.7588 -1.0877 -0.2387
 4023SOL    HW223706   3.431   3.739   0.714 -0.6466  0.3684 -1.7025
 4024SOL     OW23707   1.139   0.385   4.849 -0.1385 -0.0271  0.2300
 4024SOL    HW123708   1.191   0.337   4.914  0.0682  0.6293  0.5603
 4024SOL    HW223709   1.199   0.371   4.776  0.6874  1.7687  0.5431
 4025SOL     OW23710   1.445   0.985   2.570 -0.1205 -0.1695  0.0029
 4025SOL    HW123711   1.378   1.008   2.505  0.4637  1.6731  0.0456
 4025SOL    HW223712   1.498   0.937   2.507  2.9929  0.5944  2.0706
 4026SOL     OW23713   2.079   3.426   7.128  0.0887 -0.4780 -0.6030
 4026SOL    HW123714   2.049   3.470   7.207 -2.4205 -0.2184 -1.7136
 4026SOL    HW223715   2.075   3.335   7.159  1.6425 -0.6222 -0.7858
 4027SOL     OW23716   4.417   4.580  13.537  0.4480  0.1505  0.0578
 4027SOL    HW123717   4.480   4.547  13.600 -0.2274 -1.1693  0.0519
 4027SOL    HW223718   4.344   4.525  13.567  3.5495 -3.3575  1.2127
 4028SOL     OW23719   1.068   1.048   2.648 -0.4023  0.6617 -0.7504
 4028SOL    HW123720   1.142   1.108   2.660 -0.5672  0.2326  2.4606
 4028SOL    HW223721   1.093   1.038   2.557 -1.6813  0.4331 -1.0819
 4029SOL     OW23722   3.450   0.051  11.796 -0.3181  0.4816 -0.4009
 4029SOL    HW123723   3.479   0.058  11.887 -0.3348 -2.3447 -0.1716
 4029SOL    HW223724   3.357   0.075  11.798 -0.5682 -0.5299  0.0616
 4030SOL     OW23725   4.627   3.042   9.374  0.3460 -0.0595 -0.2800
 4030SOL    HW123726   4.610   3.064   9.282  0.3551  0.5433 -0.1371
 4030SOL    HW223727   4.697   3.104   9.396  1.8712 -1.8404 -0.0734
 4031SOL     OW23728   2.628   0.051   7.716 -0.2021 -0.2646  0.1001
 4031SOL    HW123729   2.563   4.719   7.731  0.1975 -0.6434  0.1013
 4031SOL    HW223730   2.638   0.096   7.800 -0.2537 -1.5454  0.7932
 4032SOL     OW23731   2.802   4.195   0.026 -0.1699  0.0304  0.0411
 4032SOL    HW123732   2.848   4.119   0.064 -2.0057 -1.5026 -0.7904
 4032SOL    HW223733   2.737   4.216   0.093  0.2305 -1.2045  0.8313
 4033SOL     OW23734   3.365   1.824   6.979  0.0541 -0.0316 -0.0167
 4033SOL    HW123735   3.385   1.898   6.921 -1.7788 -0.4681 -1.1848
 4033SOL    HW223736   3.282   1.795   6.942 -0.2142  0.7362 -0.0305
 4034SOL     OW23737   2.136   3.465  13.414 -0.2086 -0.7782  0.0677
 4034SOL    HW123738   2.057   3.503  13.451  0.4916 -1.0202  1.8210
 4034SOL    HW223739   2.154   3.395  13.477 -0.1616  0.1806  1.1078
 4035SOL     OW23740   1.646   0.106   1.504  0.7474  0.2248 -0.1880
 4035SOL    HW123741   1.666   0.054   1.427  0.7425 -0.8803  0.5563
 4035SOL    HW223742   1.630   0.193   1.468 -0.6036  0.5618  1.2221
 4036SOL     OW23743   1.980   0.342  10.178 -0.1916  0.5498 -0.1100
 4036SOL    HW123744   1.940   0.369  10.096 -0.2091 -0.9346 -0.5875
 4036SOL    HW223745   1.901   0.335  10.231 -1.4300  0.3657 -2.0124
 4037SOL     OW23746   3.218   2.971   3.082 -0.4054 -0.5517 -0.5550
 4037SOL    HW123747   3.240   3.030   3.010  0.6311 -1.0004 -0.5989
 4037SOL    HW223748   3.304   2.965   3.124  0.1341 -0.1554 -1.6201
 4038SOL     OW23749   1.374   0.914   0.898 -0.0565 -0.1008 -0.4683
 4038SOL    HW123750   1.332   1.000   0.895 -0.8324 -0.4578 -0.0368
 4038SOL    HW223751   1.412   0.924   0.985 -2.3515  0.9706  0.4023
 4039SOL     OW23752   2.452   0.487   8.061 -0.1292 -0.0638  0.0093
 4039SOL    HW123753   2.538   0.445   8.073  0.0706  1.0463  2.4167
 4039SOL    HW223754   2.397   0.414   8.089  0.4455  0.1006  1.5817
 4040SOL     OW23755   2.871   0.376   2.058 -0.4738 -0.1179  0.8117
 4040SOL    HW123756   2.918   0.301   2.022  0.5020  0.0920  1.6416
 4040SOL    HW223757   2.834   0.407   1.976  0.1110  1.9824  1.3416
 4041SOL     OW23758   1.416   0.037   5.346  0.0601 -0.5496  0.2280
 4041SOL    HW123759   1.432   0.103   5.279  1.6839 -0.7595  0.4183
 4041SOL    HW223760   1.483   0.057   5.412  2.1586 -1.5162 -1.6038
 4042SOL     OW23761   3.803   0.717  15.811  0.5132 -0.0515 -0.0285
 4042SOL    HW123762   3.888   0.718  15.767  0.9196  0.6485  0.7995
 4042SOL    HW223763   3.829   0.762  15.891 -2.3476  1.5362  0.0338
 4043SOL     OW23764   0.325   3.686   9.109 -0.3842  0.2559 -0.1364
 4043SOL    HW123765   0.298   3.618   9.171  0.7676 -0.7265 -0.7263
 4043SOL    HW223766   0.239   3.727   9.107 -0.1255  0.7089 -1.5049
 4044SOL     OW23767   1.969   1.149   4.557  0.1241  0.8877 -0.6566
 4044SOL    HW123768   1.880   1.116   4.549  0.5008 -0.5722  1.0928
 4044SOL    HW223769   1.969   1.239   4.525  0.4637  1.2193  0.2849
 4045SOL     OW23770   1.896   0.806   9.045 -0.4451  0.1383 -0.0660
 4045SOL    HW123771   1.935   0.871   8.986  0.4894 -0.7243 -0.4152
 4045SOL    HW223772   1.804   0.830   9.052 -0.5711 -0.0727 -0.9033
 4046SOL     OW23773   3.427   4.216   8.139  0.3045  0.1225  0.2025
 4046SOL    HW123774   3.516   4.192   8.164  0.5416  2.5527  1.7066
 4046SOL    HW223775   3.423   4.309   8.117 -0.0639  0.4534  1.6289
 4047SOL     OW23776   2.272   0.080   6.621 -0.2331  0.3448  0.1619
 4047SOL    HW123777   2.266   0.051   6.712  1.5711 -0.8278 -0.0803
 4047SOL    HW223778   2.366   0.062   6.612 -0.9032 -1.9736 -2.1464
 4048SOL     OW23779   4.709   0.753   1.024 -0.0555 -0.2475 -0.0611
 4048SOL    HW123780   0.058   0.778   0.989 -0.0457 -1.3085 -0.8113
 4048SOL    HW223781   0.004   0.758   1.114 -1.4891  3.6226  0.1973
 4049SOL     OW23782   2.377   4.546   9.845  0.2486 -0.3843  0.3931
 4049SOL    HW123783   2.374   4.470   9.903  1.1278 -0.2679  0.5852
 4049SOL    HW223784   2.310   4.519   9.782  0.0458 -1.4490  1.0803
 4050SOL     OW23785   2.969   2.914   4.023 -0.0156 -0.7882 -0.5402
 4050SOL    HW123786   2.905   2.902   4.093 -0.4710  0.0959 -0.8066
 4050SOL    HW223787   2.977   2.826   3.987 -0.9523 -0.7592 -0.8084
 4051SOL     OW23788   2.560   0.639   0.069  0.3804  0.0664  1.0475
 4051SOL    HW123789   2.623   0.700   0.108  1.8640 -0.4249 -0.6154
 4051SOL    HW223790   2.482   0.654   0.123 -1.5471 -1.3560 -1.3375
 4052SOL     OW23791   0.550   1.078   5.862 -0.5527 -0.0629  0.1113
 4052SOL    HW123792   0.470   1.050   5.906  0.9284 -0.6094  2.4669
 4052SOL    HW223793   0.521   1.080   5.771 -0.4436 -1.7827  0.0305
 4053SOL     OW23794   0.273   2.762   2.122  0.0652 -0.2774 -0.0574
 4053SOL    HW123795   0.292   2.848   2.158 -0.4576  0.2588 -1.0660
 4053SOL    HW223796   0.295   2.699   2.191 -0.1868 -0.0221  0.2545
 4054SOL     OW23797   4.423   1.827  10.568 -0.0897 -0.2564  0.8355
 4054SOL    HW123798   4.422   1.848  10.662 -1.3572 -2.1426  1.2393
 4054SOL    HW223799   4.518   1.826  10.558 -0.0399  1.8597  1.0565
 4055SOL     OW23800   4.297   0.003   6.386 -0.2850  0.3360  0.1467
 4055SOL    HW123801   4.244   0.012   6.307 -0.5827 -0.8135  0.2142
 4055SOL    HW223802   4.260   0.059   6.454 -0.2045  1.2195 -0.5412
 4056SOL     OW23803   4.296   3.498   7.476  0.0594 -0.0524  0.1622
 4056SOL    HW123804   4.244   3.422   7.452  0.2407 -0.2943  0.5331
 4056SOL    HW223805   4.285   3.552   7.398 -0.1494 -0.3340  0.0004
 4057SOL     OW23806   1.695   2.238  13.209 -0.0925  0.1931 -0.4191
 4057SOL    HW123807   1.660   2.186  13.281 -0.4388  1.6290  0.4502
 4057SOL    HW223808   1.612   2.265  13.169 -1.1993 -1.8269  0.4937
 4058SOL     OW23809   1.492   1.408   8.963  0.0694  1.0267  0.1366
 4058SOL    HW123810   1.410   1.394   9.010 -0.2487 -0.8197 -0.9781
 4058SOL    HW223811   1.478   1.500   8.940 -2.3493  0.7471  0.4953
 4059SOL     OW23812   2.290   0.873   0.496 -0.4576  0.7232 -0.4781
 4059SOL    HW123813   2.353   0.802   0.509 -0.0143  1.2991  0.5890
 4059SOL    HW223814   2.338   0.952   0.524  0.6131 -0.4131  0.8882
 4060SOL     OW23815   0.877   0.736   3.533  0.3820 -0.1738  0.3126
 4060SOL    HW123816   0.842   0.754   3.620  4.1398  0.1377  1.7421
 4060SOL    HW223817   0.860   0.643   3.517  0.0112 -0.3223  1.6134
 4061SOL     OW23818   3.219   0.451   6.644  0.7258  0.3967  0.2265
 4061SOL    HW123819   3.258   0.442   6.731  1.0866 -1.8940 -0.1665
 4061SOL    HW223820   3.271   0.526   6.616  0.8793 -0.8945 -2.9583
 4062SOL     OW23821   1.541   4.138   3.880  0.0773  0.1191  0.5253
 4062SOL    HW123822   1.516   4.229   3.898  0.2824  0.4656 -0.9202
 4062SOL    HW223823   1.471   4.091   3.836 -0.0565 -0.5044  1.3948
 4063SOL     OW23824   1.589   1.950   8.207 -0.8002 -0.4553 -0.0033
 4063SOL    HW123825   1.519   2.015   8.194 -0.1637  0.0932 -0.6720
 4063SOL    HW223826   1.536   1.875   8.178  1.4535 -2.2141  0.4258
 4064SOL     OW23827   1.415   1.928   6.384  0.5521 -0.3256 -0.5166
 4064SOL    HW123828   1.433   2.012   6.343 -1.0532  1.0364  1.5582
 4064SOL    HW223829   1.379   1.884   6.307 -0.3769  0.3926 -0.4957
 4065SOL     OW23830   3.902   1.094   1.866 -0.2740  0.2437 -0.3608
 4065SOL    HW123831   3.896   1.118   1.958 -1.2987 -0.4363 -0.2491
 4065SOL    HW223832   3.995   1.114   1.854 -0.2074 -0.1394 -0.4763
 4066SOL     OW23833   2.146   1.583  16.592  0.5848 -0.1838  0.5342
 4066SOL    HW123834   2.117   1.597  16.682 -1.3671 -0.5721 -0.0520
 4066SOL    HW223835   2.199   1.504  16.601  1.9779  0.5705 -1.0854
 4067SOL     OW23836   3.690   1.923   1.518 -0.3092 -0.8374 -0.1332
 4067SOL    HW123837   3.689   1.855   1.585  2.4284 -0.3462  0.3937
 4067SOL    HW223838   3.656   1.859   1.456 -0.4482  0.1779 -1.1224
 4068SOL     OW23839   4.349   2.548   6.930  0.7124  0.1477  0.6663
 4068SOL    HW123840   4.312   2.575   6.846  1.1176 -1.7734 -0.1252
 4068SOL    HW223841   4.403   2.624   6.953  1.7966 -0.4831  0.2156
 4069SOL     OW23842   1.380   3.871  14.554  0.5908  0.4830 -0.1580
 4069SOL    HW123843   1.407   3.780  14.566 -0.7721 -0.0279 -0.9989
 4069SOL    HW223844   1.470   3.903  14.561 -0.3089  2.6952  1.4070
 4070SOL     OW23845   4.347   2.085   4.122 -0.7033  0.4487 -0.2484
 4070SOL    HW123846   4.370   2.154   4.060  0.2703 -2.7184 -3.3493
 4070SOL    HW223847   4.380   2.007   4.078 -1.2061  0.4018 -0.5439
 4071SOL     OW23848   1.721   2.153  17.433  0.3128 -0.1952  0.3840
 4071SOL    HW123849   1.726   2.191  17.345 -2.7472 -1.2690 -0.2355
 4071SOL    HW223850   1.761   2.069  17.410  0.1001  0.6761 -3.2093
 4072SOL     OW23851   0.579   0.389   8.022  0.0268 -0.1521 -0.1728
 4072SOL    HW123852   0.672   0.373   8.041 -0.5529 -2.4570  0.7404
 4072SOL    HW223853   0.534   0.355   8.099 -0.1604 -0.1167 -0.2661
 4073SOL     OW23854   1.350   1.279   5.024 -0.3556 -0.1399 -0.5027
 4073SOL    HW123855   1.285   1.335   4.981 -0.0578  0.4918 -0.1250
 4073SOL    HW223856   1.367   1.203   4.968  1.4148  0.2240 -0.4308
 4074SOL     OW23857   3.280   1.921   7.970 -0.4014  0.2210  0.3725
 4074SOL    HW123858   3.305   2.011   7.994  1.5135  0.0506 -0.9559
 4074SOL    HW223859   3.363   1.895   7.929 -0.8720 -1.6540  0.6113
 4075SOL     OW23860   3.704   0.460   4.005  0.3018  0.5624 -0.2777
 4075SOL    HW123861   3.722   0.426   3.917 -2.0779 -3.4452  0.7939
 4075SOL    HW223862   3.625   0.412   4.031 -0.0472  1.3094  0.0574
 4076SOL     OW23863   1.044   2.059   4.684  0.9315  0.2404  0.0218
 4076SOL    HW123864   1.012   2.028   4.599  2.4806  1.6638 -1.0777
 4076SOL    HW223865   1.008   2.148   4.686 -0.7238 -0.4566  2.1498
 4077SOL     OW23866   4.572   2.303   7.554 -0.6583 -0.4681 -0.1646
 4077SOL    HW123867   4.513   2.246   7.504 -1.3095  1.5324 -1.7035
 4077SOL    HW223868   4.538   2.306   7.643 -0.9405  0.4232 -0.2935
 4078SOL     OW23869   2.129   2.635   9.246  0.2909  0.6755  0.2601
 4078SOL    HW123870   2.140   2.664   9.337  3.3875 -1.1654  0.4705
 4078SOL    HW223871   2.093   2.716   9.211 -0.1423  0.9230  1.2588
 4079SOL     OW23872   4.589   3.874   5.144 -0.0889 -0.0047  0.1602
 4079SOL    HW123873   4.607   3.913   5.229  2.8027 -0.6422 -0.1674
 4079SOL    HW223874   4.634   3.791   5.160  2.4567  0.4549 -4.4011
 4080SOL     OW23875   0.546   3.421   2.491 -0.1730 -0.4281 -0.2163
 4080SOL    HW123876   0.548   3.410   2.396  2.5792  0.3688 -0.2664
 4080SOL    HW223877   0.521   3.333   2.517 -0.3724 -0.3374 -0.0993
 4081SOL     OW23878   0.017   3.554   4.774 -0.2951 -0.2920 -0.2339
 4081SOL    HW123879   4.714   3.621   4.717  3.5625  1.2166 -1.1164
 4081SOL    HW223880   0.089   3.521   4.719  0.0737  0.3409 -0.1294
 4082SOL     OW23881   1.998   3.892   2.477  0.4455 -0.2891  0.0926
 4082SOL    HW123882   2.081   3.934   2.498 -2.2053  3.0792  3.9220
 4082SOL    HW223883   2.026   3.802   2.463 -0.5349 -0.4593 -0.8002
 4083SOL     OW23884   1.263   3.549   1.962  0.2012 -0.0431 -0.2707
 4083SOL    HW123885   1.244   3.598   2.041 -1.4995  2.0592 -1.9901
 4083SOL    HW223886   1.180   3.529   1.918  0.3346  0.4811 -0.7617
 4084SOL     OW23887   1.970   0.532   3.880 -0.3796  0.4797  0.3177
 4084SOL    HW123888   1.875   0.544   3.887 -0.1631  1.4003  1.4509
 4084SOL    HW223889   1.983   0.451   3.930  1.5095  1.2171  0.9954
 4085SOL     OW23890   2.044   1.094   1.202  0.8333  0.2179  0.1763
 4085SOL    HW123891   1.959   1.138   1.206  0.4538 -0.6974  1.9705
 4085SOL    HW223892   2.038   1.041   1.281 -1.7667 -1.0766 -0.8925
 4086SOL     OW23893   2.099   1.111   6.166 -0.2819  0.3606  0.0711
 4086SOL    HW123894   2.154   1.177   6.124  1.1256  0.6197  2.3500
 4086SOL    HW223895   2.063   1.164   6.237 -1.6375  0.3840 -0.6180
 4087SOL     OW23896   2.496   3.978   5.775 -0.1723 -0.3075  0.1709
 4087SOL    HW123897   2.574   3.959   5.722 -0.1525  0.6752 -0.1459
 4087SOL    HW223898   2.537   3.986   5.861 -2.4658  0.6806  1.1727
 4088SOL     OW23899   4.500   0.698   2.828  0.7908 -0.1999  0.0907
 4088SOL    HW123900   4.493   0.684   2.922  1.0523 -1.3144 -0.0552
 4088SOL    HW223901   4.408   0.682   2.808  0.9462  1.6448 -2.2450
 4089SOL     OW23902   4.118   1.022  11.521 -0.5478 -0.1440  0.3692
 4089SOL    HW123903   4.155   0.995  11.605 -0.0267  0.1719  0.2405
 4089SOL    HW223904   4.062   1.094  11.550 -1.1261 -0.8228  0.9441
 4090SOL     OW23905   4.406   1.600  11.617 -0.5190  0.3837 -0.1763
 4090SOL    HW123906   4.338   1.536  11.638 -0.2421  0.7294  1.7802
 4090SOL    HW223907   4.363   1.650  11.548 -1.3260 -0.2114 -0.1103
 4091SOL     OW23908   1.974   1.184   3.272 -0.5367  0.2667 -0.2658
 4091SOL    HW123909   2.016   1.231   3.344 -1.0594  2.3465 -1.3312
 4091SOL    HW223910   1.884   1.174   3.303 -0.7863  1.1118 -0.7406
 4092SOL     OW23911   0.248   1.594   7.774  0.1159  0.1284 -0.2939
 4092SOL    HW123912   0.292   1.526   7.724  0.5447  0.1999 -0.0160
 4092SOL    HW223913   0.304   1.672   7.768 -0.5419  0.4467 -2.3490
 4093SOL     OW23914   4.598   4.255  13.566 -0.3180  0.1745 -0.1410
 4093SOL    HW123915   4.682   4.272  13.523  0.4988  1.1060  1.8148
 4093SOL    HW223916   4.611   4.325  13.630  0.2375 -0.2596  0.2075
 4094SOL     OW23917   0.632   2.742   9.993  0.0174 -0.1040  0.2065
 4094SOL    HW123918   0.659   2.752  10.085 -0.9071 -0.9803  0.5873
 4094SOL    HW223919   0.650   2.651   9.969  0.9127  0.6076 -1.7342
 4095SOL     OW23920   2.930   4.273  17.538  0.2797 -0.2560 -0.2862
 4095SOL    HW123921   2.905   4.258  17.629 -0.8325  3.3840  0.0049
 4095SOL    HW223922   2.880   4.352  17.517  2.3506  1.8109  2.4068
 4096SOL     OW23923   1.595   1.796  15.584 -0.1290 -0.2373 -0.0059
 4096SOL    HW123924   1.572   1.845  15.505 -0.2474  2.4892  1.7393
 4096SOL    HW223925   1.509   1.760  15.607 -0.2351  0.9616  1.4493
 4097SOL     OW23926   2.003   4.269  14.523  0.0666 -0.0044 -0.3639
 4097SOL    HW123927   1.998   4.215  14.444  1.6563 -0.5826 -0.0501
 4097SOL    HW223928   1.918   4.256  14.566 -0.2506  2.0393 -0.3362
 4098SOL     OW23929   3.319   4.622   6.477 -0.0991  0.7431 -0.1963
 4098SOL    HW123930   3.240   4.571   6.494  0.2459  0.1674 -0.3462
 4098SOL    HW223931   3.284   4.711   6.473  0.0896  0.7838 -1.0045
 4099SOL     OW23932   4.152   0.642   7.109  0.0581  0.2957  0.8497
 4099SOL    HW123933   4.222   0.688   7.155  1.1911  2.0386 -2.5641
 4099SOL    HW223934   4.135   0.702   7.036 -0.4705 -1.0041 -0.1063
 4100SOL     OW23935   3.490   1.860   7.317 -0.4642  0.2412  0.1409
 4100SOL    HW123936   3.465   1.928   7.255 -0.9469  0.9683  1.1268
 4100SOL    HW223937   3.467   1.895   7.403  0.7725 -1.6926  1.2556
 4101SOL     OW23938   4.659   0.597   5.246 -0.0468  0.0988  0.5688
 4101SOL    HW123939   4.569   0.616   5.219  1.3342  3.5181 -1.6322
 4101SOL    HW223940   4.661   0.621   5.338 -1.3292  1.5631  0.2229
 4102SOL     OW23941   4.515   1.822  15.054  0.5700  0.6126 -0.1318
 4102SOL    HW123942   4.562   1.827  14.970  0.3348 -0.5132 -0.3412
 4102SOL    HW223943   4.463   1.902  15.051 -2.3938 -1.3592 -1.2356
 4103SOL     OW23944   1.742   3.808  14.353 -0.1793  0.1411 -0.6447
 4103SOL    HW123945   1.673   3.814  14.287 -0.8461 -1.4273 -0.1040
 4103SOL    HW223946   1.808   3.855  14.303 -0.7578  0.9094 -0.6937
 4104SOL     OW23947   2.998   2.944   9.207 -0.0596 -0.2090  0.1246
 4104SOL    HW123948   2.989   2.866   9.261 -2.2080  0.9716  1.4502
 4104SOL    HW223949   2.976   2.899   9.125 -2.0462 -1.3816  1.2969
 4105SOL     OW23950   2.376   2.519   5.044 -0.6119 -0.2697 -0.3704
 4105SOL    HW123951   2.383   2.425   5.061 -0.7258 -0.1234  0.4577
 4105SOL    HW223952   2.432   2.540   5.118  0.2270 -0.6587 -0.8972
 4106SOL     OW23953   3.303   1.761  11.693  0.6177 -0.4754 -0.3562
 4106SOL    HW123954   3.227   1.818  11.684 -0.1648 -1.3906  0.4422
 4106SOL    HW223955   3.298   1.757  11.789  1.3482  0.6060 -0.2704
 4107SOL     OW23956   2.195   2.648  16.300 -0.0853 -0.0740 -0.8129
 4107SOL    HW123957   2.156   2.697  16.228  3.9876  1.9814 -1.6595
 4107SOL    HW223958   2.186   2.723  16.359  2.0502  0.5194 -1.2253
 4108SOL     OW23959   2.701   2.150   7.899 -0.0668  0.6122 -0.3801
 4108SOL    HW123960   2.607   2.141   7.911 -0.3424  0.2174 -2.9193
 4108SOL    HW223961   2.732   2.074   7.949 -0.4246  0.7170  0.0020
 4109SOL     OW23962   2.452   1.439   6.887  0.0162  0.5632 -0.3437
 4109SOL    HW123963   2.500   1.475   6.962 -0.7615 -0.4172  0.6305
 4109SOL    HW223964   2.515   1.373   6.857  0.0485  0.7274 -0.6353
 4110SOL     OW23965   0.908   0.670  13.920 -0.3992 -0.0629  0.5695
 4110SOL    HW123966   0.887   0.744  13.863  0.3851 -1.1850 -1.1963
 4110SOL    HW223967   0.843   0.602  13.904  0.4252 -0.9365  0.8964
 4111SOL     OW23968   4.081   3.663   8.401 -0.2066  0.1728  0.2393
 4111SOL    HW123969   4.035   3.718   8.338 -0.2498  0.0062  0.1260
 4111SOL    HW223970   4.032   3.583   8.386  2.7092 -1.1380 -2.1282
 4112SOL     OW23971   3.909   4.227   6.993  0.0228 -0.1136 -0.0442
 4112SOL    HW123972   3.886   4.319   6.988 -2.3919 -0.7016  0.3684
 4112SOL    HW223973   3.909   4.210   6.899 -2.8286 -0.0756 -0.0377
 4113SOL     OW23974   4.314   1.371   5.917 -0.3735  0.2226 -0.3999
 4113SOL    HW123975   4.253   1.423   5.865  0.6813 -0.3774 -2.2547
 4113SOL    HW223976   4.402   1.388   5.883  0.6007  0.2140  2.1145
 4114SOL     OW23977   4.725   3.006  13.089  0.1376 -0.4195 -0.4553
 4114SOL    HW123978   4.643   2.959  13.077 -0.1369  0.0815 -0.5506
 4114SOL    HW223979   0.055   2.940  13.108  0.2390 -0.3634 -0.6113
 4115SOL     OW23980   2.411   3.156   4.726  0.6131  0.0876 -0.1125
 4115SOL    HW123981   2.335   3.186   4.676  0.4705 -0.4455 -0.2144
 4115SOL    HW223982   2.462   3.236   4.737 -1.6828  1.5336 -0.0476
 4116SOL     OW23983   1.081   1.704  12.609 -0.3183  0.0900 -0.1759
 4116SOL    HW123984   1.019   1.638  12.580 -2.1131  1.2244  1.0370
 4116SOL    HW223985   1.032   1.787  12.603  0.5269  0.4811 -1.4380
 4117SOL     OW23986   0.036   2.173   3.902 -0.3756  0.2203 -0.6978
 4117SOL    HW123987   0.097   2.145   3.970  0.6152  0.3700 -1.5276
 4117SOL    HW223988   0.088   2.158   3.824 -1.4489 -0.4727 -1.2754
 4118SOL     OW23989   2.190   2.585  12.701 -0.3837  0.0614  0.1914
 4118SOL    HW123990   2.151   2.584  12.613 -2.0861  1.3272  0.9458
 4118SOL    HW223991   2.249   2.657  12.681  1.0127 -1.1245 -0.0314
 4119SOL     OW23992   1.916   4.536   7.498  0.2585  0.1883  0.7231
 4119SOL    HW123993   1.936   4.454   7.454  2.3022  1.1975 -0.2476
 4119SOL    HW223994   2.003   4.576   7.501 -0.0805  1.0966 -2.1730
 4120SOL     OW23995   1.563   2.327   5.112  0.0589 -0.3637  0.1178
 4120SOL    HW123996   1.514   2.374   5.179  0.2866  0.0335  0.0084
 4120SOL    HW223997   1.551   2.368   5.026  2.5646  0.6261  0.2174
 4121SOL     OW23998   1.686   1.448   6.266 -0.0643  0.4063  0.3014
 4121SOL    HW123999   1.639   1.419   6.188  0.7246  2.2141 -0.8387
 4121SOL    HW224000   1.616   1.499   6.307 -0.2263  0.8769 -0.5643
 4122SOL     OW24001   2.298   2.357   7.160 -0.0825  0.4230  0.2584
 4122SOL    HW124002   2.275   2.409   7.083  1.5180  0.2159 -0.3563
 4122SOL    HW224003   2.382   2.395   7.185  0.8194 -1.2660 -0.1960
 4123SOL     OW24004   4.585   0.348   5.125  0.1275 -0.0053 -0.1215
 4123SOL    HW124005   4.497   0.314   5.114  0.0141  0.8969 -1.9684
 4123SOL    HW224006   4.576   0.418   5.189  2.2685  0.2139 -0.0612
 4124SOL     OW24007   2.214   3.119  13.939  0.4204 -0.0487  0.0135
 4124SOL    HW124008   2.161   3.051  13.980 -1.5524  0.7637 -1.1668
 4124SOL    HW224009   2.153   3.192  13.939 -0.7410 -1.0072  0.0330
 4125SOL     OW24010   4.629   4.366  12.170  0.5489 -0.0920 -0.2338
 4125SOL    HW124011   4.602   4.297  12.109 -1.9052  1.4524 -0.8738
 4125SOL    HW224012   4.588   4.325  12.246 -1.1865  0.5329 -0.8506
 4126SOL     OW24013   0.439   3.926   6.010 -0.2127  0.3800  0.0908
 4126SOL    HW124014   0.472   4.014   5.990  2.5472 -1.1070 -1.7824
 4126SOL    HW224015   0.515   3.875   5.984 -0.2529  0.5683 -0.4047
 4127SOL     OW24016   3.552   3.547   7.937 -0.1569 -0.3948 -0.1233
 4127SOL    HW124017   3.530   3.494   7.860  0.3465 -1.5744  0.5355
 4127SOL    HW224018   3.606   3.616   7.900 -2.1214  2.1761  1.8105
 4128SOL     OW24019   3.701   4.149   4.932  0.2405 -0.2931  0.4436
 4128SOL    HW124020   3.777   4.188   4.974  1.9535  0.8066 -3.6765
 4128SOL    HW224021   3.648   4.229   4.930 -0.2282 -0.5961  0.7783
 4129SOL     OW24022   0.271   1.082   3.456  0.2687 -0.1242 -0.0797
 4129SOL    HW124023   0.298   1.012   3.397 -0.2811  0.0413 -0.5258
 4129SOL    HW224024   0.199   1.132   3.416  1.2095  1.6104  0.3879
 4130SOL     OW24025   2.881   2.302   6.677 -0.0157 -0.4659 -0.1827
 4130SOL    HW124026   2.795   2.262   6.683 -0.2185 -0.4127 -2.4746
 4130SOL    HW224027   2.856   2.355   6.753  1.9968  2.7092 -1.7386
 4131SOL     OW24028   4.180   0.020   4.903  0.1697  0.9674  0.2079
 4131SOL    HW124029   4.202   4.719   4.988  1.7872  0.3624 -0.4879
 4131SOL    HW224030   4.101   4.706   4.883 -1.0836  2.3617  1.6526
 4132SOL     OW24031   1.389   0.214   4.121 -0.4965 -0.1127  0.1074
 4132SOL    HW124032   1.468   0.262   4.099 -1.2012  0.1479 -1.8464
 4132SOL    HW224033   1.374   0.233   4.214 -1.1803 -1.1262  0.2099
 4133SOL     OW24034   1.470   1.568   6.534  0.0760  0.2600  0.1631
 4133SOL    HW124035   1.469   1.595   6.442  0.2304 -1.2381 -0.2752
 4133SOL    HW224036   1.511   1.642   6.580 -2.6095  1.0185  1.3496
 4134SOL     OW24037   0.361   3.409   5.215  0.6446 -0.4081 -0.6961
 4134SOL    HW124038   0.389   3.355   5.288 -2.0110  0.0925  0.6769
 4134SOL    HW224039   0.353   3.356   5.135 -2.9224  0.0643 -0.6211
 4135SOL     OW24040   4.632   1.257   6.058  0.0094  0.1757 -0.4666
 4135SOL    HW124041   4.713   1.276   6.105 -0.0125 -1.3777  0.1989
 4135SOL    HW224042   4.579   1.212   6.123  0.8953  0.0531  0.1685
 4136SOL     OW24043   1.428   0.962   7.921 -0.1254  0.1626  0.0024
 4136SOL    HW124044   1.463   0.920   7.842  0.1956 -0.4137  0.4490
 4136SOL    HW224045   1.492   1.026   7.949 -0.4361  1.2085 -1.6893
 4137SOL     OW24046   4.674   0.880   7.613 -0.2607  0.7248  0.0120
 4137SOL    HW124047   4.673   0.976   7.613 -0.2253  0.7217  1.0596
 4137SOL    HW224048   4.612   0.857   7.544 -1.1911  0.8207  0.8299
 4138SOL     OW24049   2.406   3.408  12.791  0.1111 -0.6472  0.0273
 4138SOL    HW124050   2.493   3.374  12.770  0.4893 -0.2046  0.8576
 4138SOL    HW224051   2.435   3.499  12.803 -1.2131 -0.5912  2.8666
 4139SOL     OW24052   2.775   4.424  12.444  0.1899  0.4211 -0.2134
 4139SOL    HW124053   2.766   4.329  12.451  1.2110  0.3077 -0.4054
 4139SOL    HW224054   2.691   4.461  12.418 -0.4146  0.5856  1.9417
 4140SOL     OW24055   2.756   1.410  17.008  0.3481 -0.2140 -0.5418
 4140SOL    HW124056   2.674   1.454  16.986  1.1262  1.4298 -0.0897
 4140SOL    HW224057   2.806   1.486  17.036 -0.3120  0.2233 -0.5519
 4141SOL     OW24058   0.986   3.603   4.135  0.0079 -0.0237 -0.3007
 4141SOL    HW124059   0.908   3.660   4.132 -0.5936 -0.8698 -0.7171
 4141SOL    HW224060   1.042   3.644   4.201 -2.5142 -0.7651  2.3066
 4142SOL     OW24061   3.983   1.830   4.704  0.1193  0.5811 -0.0347
 4142SOL    HW124062   3.999   1.761   4.640 -1.8081  0.3423 -0.2738
 4142SOL    HW224063   3.898   1.863   4.674 -0.4334  2.3549  3.4694
 4143SOL     OW24064   1.089   4.625   8.051 -0.0021  0.4726  0.7298
 4143SOL    HW124065   1.006   4.672   8.060  0.0889  0.2752  2.7563
 4143SOL    HW224066   1.061   4.551   7.997  2.8048 -0.6212  0.7985
 4144SOL     OW24067   3.788   0.240   2.399  0.5826  0.0867  0.3035
 4144SOL    HW124068   3.824   0.213   2.484 -3.0025  0.0766  1.8275
 4144SOL    HW224069   3.826   0.325   2.376  0.4797 -0.3099 -1.3049
 4145SOL     OW24070   1.908   2.481  12.339 -0.1362 -0.2200 -0.2482
 4145SOL    HW124071   1.813   2.481  12.349 -0.2159  3.6525 -1.0111
 4145SOL    HW224072   1.932   2.438  12.421  1.4995  1.2930  0.0786
 4146SOL     OW24073   1.669   1.472  13.168  0.7019  0.0470  0.3913
 4146SOL    HW124074   1.679   1.554  13.119  3.1286  0.2816  1.2411
 4146SOL    HW224075   1.589   1.497  13.214  0.0279  1.1814 -1.4003
 4147SOL     OW24076   0.337   2.840   0.030 -0.1157  0.0934 -0.0637
 4147SOL    HW124077   0.292   2.826  17.689 -2.4564  0.6004  1.1193
 4147SOL    HW224078   0.425   2.847  17.736 -0.2624  0.3711 -0.3662
 4148SOL     OW24079   1.544   4.145   0.369  0.4125  0.3563 -1.0090
 4148SOL    HW124080   1.586   4.125   0.286  2.4786  0.6715 -0.0313
 4148SOL    HW224081   1.456   4.156   0.331  0.5106  1.5601 -0.9075
 4149SOL     OW24082   0.588   2.811   8.367 -0.1481 -0.8529  0.8989
 4149SOL    HW124083   0.616   2.856   8.447  0.0013  2.1455 -0.8659
 4149SOL    HW224084   0.497   2.808   8.398 -0.0242  2.0101  1.5730
 4150SOL     OW24085   2.627   0.674  15.087 -0.0975 -0.3705 -0.3161
 4150SOL    HW124086   2.587   0.590  15.063 -0.9456  0.2443 -1.0959
 4150SOL    HW224087   2.628   0.672  15.182  0.2014 -0.3277 -0.3189
 4151SOL     OW24088   3.621   1.146   9.899  0.6794 -0.1172 -0.0031
 4151SOL    HW124089   3.658   1.096   9.827  1.8650  0.4170  0.2232
 4151SOL    HW224090   3.534   1.163   9.865  0.8397 -0.6129 -0.6585
 4152SOL     OW24091   1.273   3.526  10.061  0.0297 -0.1667  0.1104
 4152SOL    HW124092   1.275   3.533   9.965  0.3636 -2.0249 -0.0269
 4152SOL    HW224093   1.212   3.454  10.074  0.8884 -0.6630  1.3767
 4153SOL     OW24094   3.609   2.470   3.565  1.0050 -0.2117 -0.2278
 4153SOL    HW124095   3.696   2.504   3.546  1.0433  0.9141  1.9941
 4153SOL    HW224096   3.613   2.379   3.536 -0.9643 -0.6668  0.9163
 4154SOL     OW24097   1.079   4.381   9.399 -0.3516  0.3707  0.1140
 4154SOL    HW124098   1.018   4.445   9.363 -0.3672  0.4697  0.3168
 4154SOL    HW224099   1.038   4.363   9.484 -0.9412 -1.0028 -0.4512
 4155SOL     OW24100   1.972   2.647   7.262 -0.2291 -0.3704  0.3597
 4155SOL    HW124101   2.057   2.690   7.257 -0.3743 -0.4789 -3.5102
 4155SOL    HW224102   1.941   2.682   7.345 -0.7832 -2.9083  1.2473
 4156SOL     OW24103   2.335   2.719   6.776  0.7103 -0.0133 -0.8071
 4156SOL    HW124104   2.428   2.726   6.798  0.3207 -0.5714  1.0288
 4156SOL    HW224105   2.329   2.776   6.699 -0.1460  2.0553  0.7756
 4157SOL     OW24106   1.556   1.279   7.893  0.3750 -0.2974 -0.0630
 4157SOL    HW124107   1.644   1.242   7.883 -1.0503 -3.0308 -2.2330
 4157SOL    HW224108   1.517   1.273   7.806 -1.5594  0.0557  0.7855
 4158SOL     OW24109   3.577   3.204  11.392  0.1860  0.2543 -0.1799
 4158SOL    HW124110   3.598   3.156  11.311 -0.0905 -2.3578  1.2821
 4158SOL    HW224111   3.653   3.261  11.404  0.3839  0.3264 -1.6678
 4159SOL     OW24112   2.337   4.446   1.368  0.1076  0.4183 -0.4441
 4159SOL    HW124113   2.289   4.364   1.356  1.6035 -0.2888 -1.6379
 4159SOL    HW224114   2.307   4.459   1.457  2.4320  2.2382  0.0693
 4160SOL     OW24115   3.813   1.253   2.792  0.1066 -0.3773 -0.2820
 4160SOL    HW124116   3.817   1.315   2.719 -0.2581  0.8091  0.6894
 4160SOL    HW224117   3.807   1.169   2.747  1.0943 -0.7736  0.3263
 4161SOL     OW24118   2.169   0.430   1.173 -0.2906  0.3446  0.0716
 4161SOL    HW124119   2.149   0.515   1.134  2.3609  0.7822 -0.3482
 4161SOL    HW224120   2.170   0.447   1.268  0.7842 -1.6859  0.4179
 4162SOL     OW24121   3.477   4.458   8.522  0.1700  0.5429 -0.1611
 4162SOL    HW124122   3.470   4.396   8.595 -3.0593  0.9826 -0.1000
 4162SOL    HW224123   3.483   4.547   8.556  0.0248  1.1433 -1.7068
 4163SOL     OW24124   1.791   1.202   8.755  0.3866 -0.0641  0.2766
 4163SOL    HW124125   1.717   1.192   8.815  1.5216 -1.3344  1.4566
 4163SOL    HW224126   1.744   1.261   8.695 -0.6617 -0.7160  0.4515
 4164SOL     OW24127   1.694   0.557   4.195 -0.7253 -0.1555  0.1429
 4164SOL    HW124128   1.787   0.577   4.195 -0.4976 -1.2191  1.8093
 4164SOL    HW224129   1.648   0.637   4.223 -0.5551 -0.0268  0.0532
 4165SOL     OW24130   2.060   2.750   8.347 -0.6185 -0.2890  0.1567
 4165SOL    HW124131   2.053   2.811   8.273 -1.5377  0.8655  1.2003
 4165SOL    HW224132   2.067   2.810   8.421 -3.1277 -0.7253  0.7372
 4166SOL     OW24133   1.820   0.548   1.040  0.3232  0.1418 -0.1096
 4166SOL    HW124134   1.906   0.588   1.056  0.7223 -1.0143  0.6451
 4166SOL    HW224135   1.787   0.593   0.962 -2.1101  1.7600  1.8545
 4167SOL     OW24136   2.883   3.091   6.672 -0.1553 -0.1785  0.2981
 4167SOL    HW124137   2.862   3.075   6.580 -0.7686  1.3415  0.1736
 4167SOL    HW224138   2.933   3.012   6.691  0.8642  0.2236 -0.7265
 4168SOL     OW24139   1.030   4.705   5.251  0.2898 -0.2055 -0.4154
 4168SOL    HW124140   1.014   0.042   5.191 -1.9984  0.2736  0.7707
 4168SOL    HW224141   0.953   4.648   5.248  0.4625 -0.4670  0.3380
 4169SOL     OW24142   0.917   2.047  17.496 -0.0443 -0.2206  0.3395
 4169SOL    HW124143   0.854   2.117  17.476  0.1218 -0.1857 -0.0652
 4169SOL    HW224144   1.002   2.093  17.492  0.8117 -1.6811  1.8611
 4170SOL     OW24145   0.544   2.434   2.922  0.2559  0.2916 -0.2524
 4170SOL    HW124146   0.635   2.409   2.907 -0.1085 -0.9605 -0.3988
 4170SOL    HW224147   0.523   2.373   2.993 -0.6312  0.3830 -0.4334
 4171SOL     OW24148   3.303   2.371   3.047 -0.0459 -0.0303 -0.1309
 4171SOL    HW124149   3.358   2.312   2.996 -0.6610  0.3909 -1.2864
 4171SOL    HW224150   3.330   2.361   3.138 -0.3133 -0.8517 -0.1395
 4172SOL     OW24151   2.034   0.680  17.407  0.1118  0.0321  0.2491
 4172SOL    HW124152   2.069   0.617  17.344 -0.6737  0.4172 -0.5666
 4172SOL    HW224153   2.025   0.762  17.359  1.0980 -0.4120 -0.6869
 4173SOL     OW24154   1.594   1.395   0.475  0.0976 -0.2700 -0.2653
 4173SOL    HW124155   1.594   1.479   0.429  1.3279 -0.8874 -1.3719
 4173SOL    HW224156   1.520   1.353   0.431 -0.0116  0.1746 -0.5056
 4174SOL     OW24157   0.816   2.641   5.020  0.6747 -0.1896  0.2612
 4174SOL    HW124158   0.769   2.711   5.066 -0.2593 -1.8276  1.7736
 4174SOL    HW224159   0.802   2.684   4.936 -0.1940  2.6188  1.8364
 4175SOL     OW24160   3.002   0.165   1.942  0.1195 -0.9833  0.0031
 4175SOL    HW124161   3.084   0.176   1.894 -0.3374 -2.1490 -1.0640
 4175SOL    HW224162   2.942   0.138   1.872  0.4461  0.5460 -0.8689
 4176SOL     OW24163   3.007   1.743   3.586  0.6105 -0.7197 -0.1960
 4176SOL    HW124164   2.957   1.662   3.583 -0.4352 -0.0830 -0.1067
 4176SOL    HW224165   3.092   1.709   3.558  2.4161  3.4021  0.2487
 4177SOL     OW24166   3.622   3.557  13.056  0.5814 -0.1252 -0.0218
 4177SOL    HW124167   3.603   3.551  12.962 -0.7708  0.2196  0.2329
 4177SOL    HW224168   3.662   3.642  13.073 -0.3479  0.1080  0.9454
 4178SOL     OW24169   2.632   2.311   4.589  0.3082  0.2103 -0.4931
 4178SOL    HW124170   2.622   2.352   4.674 -1.9023 -0.1489 -0.5942
 4178SOL    HW224171   2.540   2.290   4.578 -0.0991  2.6634 -1.9005
 4179SOL     OW24172   3.974   2.765   5.735 -1.0411 -0.2873 -0.2585
 4179SOL    HW124173   3.966   2.701   5.806  0.9572  0.5353  0.7000
 4179SOL    HW224174   3.972   2.844   5.788 -0.1695 -3.1132  3.9937
 4180SOL     OW24175   0.956   1.507   8.662  0.5872 -0.1416 -0.3261
 4180SOL    HW124176   0.868   1.470   8.658  1.3886 -1.9080 -1.6336
 4180SOL    HW224177   0.954   1.586   8.607  0.2415  0.4339  0.5077
 4181SOL     OW24178   1.140   3.520   8.257  0.0278  0.1235 -0.2724
 4181SOL    HW124179   1.187   3.569   8.325 -0.2660 -1.7716  1.2973
 4181SOL    HW224180   1.116   3.579   8.186 -1.3435  1.6012  1.4157
 4182SOL     OW24181   2.139   0.510  10.333 -0.3049  0.0557  0.1416
 4182SOL    HW124182   2.186   0.546  10.258  0.9916  0.5518  1.2044
 4182SOL    HW224183   2.065   0.462  10.295 -1.2629 -0.9760  3.3097
 4183SOL     OW24184   4.610   0.932   0.843  0.4832 -0.3592 -0.4713
 4183SOL    HW124185   4.518   0.940   0.867  1.4302  1.7609  2.3461
 4183SOL    HW224186   4.635   0.864   0.906  2.1769 -0.1622 -0.9089
 4184SOL     OW24187   4.262   2.220   8.329 -0.1767 -0.3298 -0.1975
 4184SOL    HW124188   4.312   2.289   8.371 -1.9440  1.0514 -0.3532
 4184SOL    HW224189   4.267   2.154   8.399 -0.6664 -1.1363 -0.9188
 4185SOL     OW24190   4.198   2.869   7.435 -0.4954 -0.6934 -0.3722
 4185SOL    HW124191   4.212   2.934   7.505 -0.1047 -0.4895 -0.6366
 4185SOL    HW224192   4.116   2.903   7.399 -0.5635 -1.6319 -1.1018
 4186SOL     OW24193   3.693   0.393   1.342  0.0139  0.1193 -0.3481
 4186SOL    HW124194   3.671   0.484   1.361 -2.0724 -0.1646 -1.4425
 4186SOL    HW224195   3.784   0.393   1.313 -0.7751  0.6856 -2.8196
 4187SOL     OW24196   4.379   2.010   4.618 -0.3144  0.1162  0.3575
 4187SOL    HW124197   4.374   1.961   4.536  1.5291 -0.0912  0.3645
 4187SOL    HW224198   4.465   1.984   4.653  0.4501  0.3899 -1.3238
 4188SOL     OW24199   3.330   0.441   9.870 -0.6716 -0.1679  0.7011
 4188SOL    HW124200   3.358   0.418   9.782  1.6691 -0.3859  1.5067
 4188SOL    HW224201   3.405   0.407   9.918 -0.7676 -0.5547  0.5737
 4189SOL     OW24202   1.788   1.334  16.051 -0.2307 -0.1822  0.1151
 4189SOL    HW124203   1.825   1.263  15.999  2.1932 -0.4922  2.2584
 4189SOL    HW224204   1.823   1.412  16.006 -0.3534 -0.7408 -0.9494
 4190SOL     OW24205   4.437   3.096   8.095  0.3613 -0.1287  0.7275
 4190SOL    HW124206   4.512   3.153   8.078 -0.1240 -0.0121 -1.0273
 4190SOL    HW224207   4.443   3.043   8.015  0.1691  2.2983 -0.8940
 4191SOL     OW24208   0.376   2.728   7.010  0.1260 -0.0464 -0.3512
 4191SOL    HW124209   0.285   2.739   7.038 -0.1053 -1.6708 -0.4699
 4191SOL    HW224210   0.388   2.634   6.998 -1.5603 -0.3768  0.5949
 4192SOL     OW24211   2.934   3.347  17.510 -0.0028  0.4960  0.1307
 4192SOL    HW124212   2.917   3.259  17.475  4.2353  0.6874 -2.4379
 4192SOL    HW224213   2.870   3.403  17.468  0.5145  0.0810 -1.2126
 4193SOL     OW24214   1.231   1.811   7.501 -0.4424 -0.3914 -0.2133
 4193SOL    HW124215   1.244   1.897   7.461  0.5344 -0.7172 -0.6186
 4193SOL    HW224216   1.322   1.782   7.504 -0.4004 -0.2255  0.1507
 4194SOL     OW24217   0.685   1.658   0.071  0.8094 -0.3594  0.1658
 4194SOL    HW124218   0.613   1.660   0.134 -0.8959  1.3468 -1.8390
 4194SOL    HW224219   0.741   1.587   0.103 -1.0119 -2.9455 -2.3042
 4195SOL     OW24220   3.813   3.941  11.549 -0.2392  0.4860 -1.0819
 4195SOL    HW124221   3.834   4.028  11.583 -2.6898  1.0765 -1.0920
 4195SOL    HW224222   3.832   3.883  11.622  0.7272  0.2393 -1.5284
 4196SOL     OW24223   1.471   4.562   3.011 -0.6674  0.1330 -0.0471
 4196SOL    HW124224   1.464   4.649   2.972  1.3364  1.0496  1.6229
 4196SOL    HW224225   1.555   4.580   3.055 -0.1150 -1.6088 -0.3839
 4197SOL     OW24226   2.538   4.654   1.585  0.5817  0.1499 -0.0907
 4197SOL    HW124227   2.555   4.636   1.678 -0.8535 -0.5326  0.0403
 4197SOL    HW224228   2.483   4.732   1.589  1.3993  0.6422  1.6775
 4198SOL     OW24229   4.047   1.147   7.990  0.4817 -0.6739  0.3099
 4198SOL    HW124230   4.092   1.063   7.996 -0.2176 -1.2082 -1.8691
 4198SOL    HW224231   4.126   1.202   7.995 -0.2512  0.4012  0.0315
 4199SOL     OW24232   3.651   2.969  12.675  0.2465 -0.1352 -0.3212
 4199SOL    HW124233   3.630   2.876  12.664  1.4755 -0.1545 -2.4132
 4199SOL    HW224234   3.600   2.979  12.756 -1.8348  0.7314 -1.7487
 4200SOL     OW24235   0.078   1.024   8.302  0.4377 -0.2311  0.0759
 4200SOL    HW124236   0.157   0.972   8.308 -0.7438 -2.1894 -1.5321
 4200SOL    HW224237   0.093   1.079   8.225  1.5710 -2.1111 -1.0168
 4201SOL     OW24238   2.506   1.528   2.964  0.8805 -0.2618  0.0200
 4201SOL    HW124239   2.506   1.549   2.871 -0.4997 -1.1124 -0.1696
 4201SOL    HW224240   2.423   1.480   2.971  0.5854  0.4019  1.0777
 4202SOL     OW24241   2.432   2.186   4.255 -0.0115 -0.4567  1.3793
 4202SOL    HW124242   2.360   2.225   4.305 -1.2082 -1.3056  0.3267
 4202SOL    HW224243   2.388   2.111   4.214  0.7732 -0.1328 -0.0422
 4203SOL     OW24244   4.306   1.135   8.674  0.2901  0.0327 -0.5790
 4203SOL    HW124245   4.234   1.186   8.713  0.8717  0.0236  0.5136
 4203SOL    HW224246   4.386   1.186   8.684 -0.5004  1.2554 -0.5105
 4204SOL     OW24247   2.873   2.360   3.445  0.0897 -0.0664  0.0205
 4204SOL    HW124248   2.929   2.417   3.499 -1.0250  0.0373  1.0666
 4204SOL    HW224249   2.941   2.297   3.421  0.9343  0.6356  0.5463
 4205SOL     OW24250   4.619   0.454  10.260 -0.7423  0.1821  0.5946
 4205SOL    HW124251   4.551   0.421  10.319 -1.3337  0.6297  0.1522
 4205SOL    HW224252   4.661   0.522  10.313  0.1276 -0.6844  1.0282
 4206SOL     OW24253   2.107   1.136   2.582 -1.0051  0.2739  0.2620
 4206SOL    HW124254   2.151   1.052   2.591  0.0818  0.8573  0.3137
 4206SOL    HW224255   2.020   1.104   2.605  0.0138 -1.2846  1.9197
 4207SOL     OW24256   1.653   1.929   5.080  0.0347  0.1108  0.0595
 4207SOL    HW124257   1.588   1.991   5.112 -0.8602 -0.4200 -0.7524
 4207SOL    HW224258   1.637   1.853   5.136  0.2784 -0.0426 -0.0784
 4208SOL     OW24259   3.716   4.146   2.076  0.0437 -0.3777 -0.2921
 4208SOL    HW124260   3.779   4.208   2.113 -0.9881 -1.2156  2.8299
 4208SOL    HW224261   3.632   4.187   2.095  0.3619  0.4419 -0.6637
 4209SOL     OW24262   0.855   4.398   2.300  0.7754 -0.2821  0.2711
 4209SOL    HW124263   0.785   4.362   2.245  0.7593 -0.4512  0.4046
 4209SOL    HW224264   0.933   4.369   2.253  0.5229 -0.0056 -0.3260
 4210SOL     OW24265   0.787   2.901   6.225 -0.3411 -0.3056 -0.3504
 4210SOL    HW124266   0.772   2.840   6.153 -1.7346  0.6117 -0.8357
 4210SOL    HW224267   0.740   2.858   6.297  2.8385  0.1145  2.0069
 4211SOL     OW24268   1.417   0.671   7.806 -0.4034  0.0211  0.0657
 4211SOL    HW124269   1.429   0.642   7.715  2.1322 -0.6129  0.6134
 4211SOL    HW224270   1.449   0.760   7.790  0.4399 -0.4796 -1.0237
 4212SOL     OW24271   0.249   0.839   0.089 -0.3026 -0.1745  0.0730
 4212SOL    HW124272   0.265   0.893   0.012 -3.0573 -0.4778 -0.7104
 4212SOL    HW224273   0.291   0.758   0.061 -0.6464 -0.3773  0.1447
 4213SOL     OW24274   0.992   3.950   8.009  0.0715 -0.2345 -0.5803
 4213SOL    HW124275   1.015   4.005   7.935  2.1604  0.8783  0.8968
 4213SOL    HW224276   0.961   4.020   8.067 -4.3108 -0.6370 -2.4563
 4214SOL     OW24277   3.824   0.322   5.065 -0.6060 -0.3087 -0.4278
 4214SOL    HW124278   3.775   0.303   4.984  0.9872 -0.6189 -1.3188
 4214SOL    HW224279   3.916   0.330   5.041 -1.0063  0.0105 -1.8326
 4215SOL     OW24280   3.183   4.393   5.281  0.0887  0.3529 -0.7576
 4215SOL    HW124281   3.148   4.394   5.370 -1.4697 -0.6709 -1.3553
 4215SOL    HW224282   3.180   4.300   5.259 -2.1371  0.5492 -1.3010
 4216SOL     OW24283   1.031   3.278   2.509  0.5672  0.1079 -0.9107
 4216SOL    HW124284   1.118   3.300   2.542  0.0732  0.8239 -0.1104
 4216SOL    HW224285   0.986   3.362   2.506 -1.0439 -0.6624  1.7709
 4217SOL     OW24286   3.483   1.816  14.249  0.0895 -0.6256  0.0216
 4217SOL    HW124287   3.424   1.891  14.244 -0.5989 -1.0963  0.9750
 4217SOL    HW224288   3.558   1.848  14.200 -1.2379 -0.3415 -1.8191
 4218SOL     OW24289   1.909   0.532   7.710 -0.5032 -0.3302 -0.0369
 4218SOL    HW124290   1.939   0.441   7.712 -1.3422 -0.5911  0.5684
 4218SOL    HW224291   1.823   0.521   7.750 -0.0211 -1.7436  0.6056
 4219SOL     OW24292   0.178   4.285   4.512  0.1258  0.1837 -0.2729
 4219SOL    HW124293   0.140   4.198   4.524  1.8033 -0.3737  0.9347
 4219SOL    HW224294   0.150   4.332   4.591 -0.5346  0.0906 -0.4463
 4220SOL     OW24295   0.746   1.470  11.546 -0.2150 -0.7024 -0.5994
 4220SOL    HW124296   0.671   1.524  11.570  1.2704 -0.3458  3.2292
 4220SOL    HW224297   0.745   1.467  11.450  0.8732  1.4906 -0.6722
 4221SOL     OW24298   0.273   1.219  13.228 -0.0550 -0.5506 -0.0825
 4221SOL    HW124299   0.328   1.288  13.192 -0.0393 -1.2777 -1.4439
 4221SOL    HW224300   0.197   1.228  13.170  0.4800  0.4060 -0.6415
 4222SOL     OW24301   3.505   1.617   4.213  0.2047 -0.3631 -0.4543
 4222SOL    HW124302   3.555   1.690   4.252 -2.1369  1.9135 -1.7358
 4222SOL    HW224303   3.414   1.643   4.228 -0.9195 -2.3327 -3.9544
 4223SOL     OW24304   3.057   4.139  10.505 -0.3186 -0.2058 -0.5573
 4223SOL    HW124305   3.034   4.228  10.529  1.3593 -0.1870  0.9687
 4223SOL    HW224306   2.974   4.095  10.488 -1.4360  1.3121  1.0538
 4224SOL     OW24307   3.395   2.250   5.087  0.3383 -0.9632  0.0193
 4224SOL    HW124308   3.466   2.268   5.026 -0.1602 -0.5277 -0.4323
 4224SOL    HW224309   3.423   2.299   5.165 -0.4394 -0.5808  0.0600
 4225SOL     OW24310   0.261   1.240   6.425  0.0099  0.1613 -0.5732
 4225SOL    HW124311   0.192   1.258   6.489 -0.5340 -3.0540 -0.2208
 4225SOL    HW224312   0.320   1.178   6.467 -1.7894 -0.6302  0.7867
 4226SOL     OW24313   1.540   0.634   0.616 -0.3834  0.8806 -0.0144
 4226SOL    HW124314   1.599   0.701   0.581  2.0508 -1.9089 -1.2536
 4226SOL    HW224315   1.465   0.637   0.558 -0.6910 -1.1688  0.2563
 4227SOL     OW24316   3.969   2.521   9.655  0.6229  0.2968 -0.2475
 4227SOL    HW124317   4.019   2.473   9.720  1.6511 -0.4958 -1.6116
 4227SOL    HW224318   3.935   2.591   9.711 -0.3520 -0.2036 -0.2203
 4228SOL     OW24319   4.556   4.274   8.903  0.6167 -0.3552  0.7486
 4228SOL    HW124320   4.627   4.335   8.884  2.5968 -1.6833  3.8411
 4228SOL    HW224321   4.585   4.199   8.851  0.6387 -1.4469  2.3302
 4229SOL     OW24322   3.259   2.774  15.929 -0.2972 -0.3206 -0.0516
 4229SOL    HW124323   3.267   2.789  15.835 -2.4412  0.1548 -0.1524
 4229SOL    HW224324   3.177   2.822  15.942 -0.2562 -0.4307  0.6211
 4230SOL     OW24325   2.014   0.116   0.092 -0.1270  0.2652  0.1546
 4230SOL    HW124326   2.096   0.089   0.133  1.0940  2.8429 -0.5968
 4230SOL    HW224327   1.948   0.056   0.129  1.0858  0.5785  2.8369
 4231SOL     OW24328   3.644   1.599  11.701 -0.5286 -0.5391 -0.1583
 4231SOL    HW124329   3.600   1.514  11.691  2.2391 -1.9436 -0.3174
 4231SOL    HW224330   3.615   1.623  11.789 -1.5824 -0.5257 -0.5022
 4232SOL     OW24331   1.976   3.119  12.630 -0.0055 -0.3622  0.8349
 4232SOL    HW124332   1.968   3.200  12.681 -2.1900 -1.4880  2.2586
 4232SOL    HW224333   1.996   3.155  12.543  1.6520 -0.8843  1.0092
 4233SOL     OW24334   3.938   3.003   5.846  0.0837  0.0140 -0.4729
 4233SOL    HW124335   3.905   3.032   5.931 -0.5193  1.0676 -1.0717
 4233SOL    HW224336   3.912   3.085   5.804 -0.1496 -0.3551 -1.0464
 4234SOL     OW24337   0.644   0.715   9.280 -0.5253  0.1962 -0.5007
 4234SOL    HW124338   0.643   0.755   9.367  1.8314 -1.3549  0.2352
 4234SOL    HW224339   0.653   0.621   9.298 -0.6466  0.1988 -0.4248
 4235SOL     OW24340   2.476   1.962  16.275 -0.0064 -0.1424 -0.0900
 4235SOL    HW124341   2.497   2.026  16.206 -2.3105 -0.4199 -1.0360
 4235SOL    HW224342   2.433   1.889  16.231 -0.7968  0.5719 -0.4805
 4236SOL     OW24343   4.542   0.388   7.035 -0.1046 -0.3757 -0.3938
 4236SOL    HW124344   4.461   0.337   7.035 -0.2337 -0.1724 -0.3602
 4236SOL    HW224345   4.534   0.418   6.944 -1.5209  2.1570  0.5737
 4237SOL     OW24346   0.894   2.056  10.796  0.2567 -0.3040  0.2432
 4237SOL    HW124347   0.945   2.062  10.876  1.5416 -1.6143 -0.4659
 4237SOL    HW224348   0.809   2.094  10.818  0.1001 -1.0755  0.9240
 4238SOL     OW24349   2.330   0.126   7.690 -0.0394 -0.1535  0.2365
 4238SOL    HW124350   2.266   0.099   7.756 -0.4281 -0.1254 -0.1307
 4238SOL    HW224351   2.273   0.147   7.616 -3.0448 -0.3493  2.5299
 4239SOL     OW24352   2.656   0.182  13.184 -0.3204  0.6306  0.2903
 4239SOL    HW124353   2.641   0.267  13.225 -0.2354  0.9024 -0.2401
 4239SOL    HW224354   2.688   0.131  13.258  2.5223 -1.4063 -2.3500
 4240SOL     OW24355   0.334   0.671   5.329 -0.1169  0.6386  0.4856
 4240SOL    HW124356   0.428   0.683   5.315 -0.1004 -0.3148 -0.2192
 4240SOL    HW224357   0.336   0.586   5.373  1.0497 -0.7524 -2.3178
 4241SOL     OW24358   4.656   4.403   5.525  0.1101  0.4549 -0.3947
 4241SOL    HW124359   4.675   4.488   5.566 -1.0112  0.6313 -0.2236
 4241SOL    HW224360   4.572   4.391   5.570 -0.5842  1.2482 -1.4880
 4242SOL     OW24361   4.702   0.701  10.367 -0.2626 -0.2107 -0.1628
 4242SOL    HW124362   4.736   0.738  10.448  0.0674 -5.1331  1.9234
 4242SOL    HW224363   4.654   0.771  10.322 -0.5535 -0.2364  0.1036
 4243SOL     OW24364   3.407   4.320   0.852 -0.7647 -0.0143 -0.6179
 4243SOL    HW124365   3.321   4.293   0.885 -1.3371  0.9847 -1.3047
 4243SOL    HW224366   3.420   4.245   0.793 -1.6336 -0.7787  0.1476
 4244SOL     OW24367   0.938   1.872   0.240  0.4860 -0.6629  0.0070
 4244SOL    HW124368   1.016   1.921   0.265  0.6520 -1.5795  1.3152
 4244SOL    HW224369   0.897   1.929   0.176  2.3849 -0.2085 -0.7930
 4245SOL     OW24370   4.034   0.802   8.973  0.2541  0.3137 -0.6227
 4245SOL    HW124371   3.970   0.777   8.906 -0.6823 -0.2713  0.4938
 4245SOL    HW224372   4.053   0.893   8.952 -0.3267  0.0360 -2.3121
 4246SOL     OW24373   0.877   4.041   8.392 -0.0895  0.2743  0.0207
 4246SOL    HW124374   0.785   4.013   8.399  0.1003 -0.1175  0.9105
 4246SOL    HW224375   0.907   3.974   8.453  0.6122 -1.6331 -2.4365
 4247SOL     OW24376   0.002   4.198  10.520 -0.2148  0.3579  0.4652
 4247SOL    HW124377   4.688   4.270  10.557 -0.5039  0.7482 -0.6721
 4247SOL    HW224378   4.710   4.121  10.569 -0.9861 -0.1877 -0.8259
 4248SOL     OW24379   2.321   0.536   4.445  0.2429  0.1819 -0.6224
 4248SOL    HW124380   2.229   0.557   4.463  0.7291  2.1759 -0.4275
 4248SOL    HW224381   2.349   0.512   4.533  2.7894 -1.1639 -1.8070
 4249SOL     OW24382   1.296   0.891   7.577  0.0346 -0.1035 -0.0166
 4249SOL    HW124383   1.239   0.820   7.608  1.0621 -0.9343 -0.0046
 4249SOL    HW224384   1.360   0.846   7.522 -1.1550 -1.0245 -0.6506
 4250SOL     OW24385   3.328   1.427  16.061  0.2006 -0.3149 -0.3006
 4250SOL    HW124386   3.355   1.419  15.969 -0.1490 -1.8599 -0.2721
 4250SOL    HW224387   3.266   1.500  16.052 -0.6153 -1.0076 -0.2875
 4251SOL     OW24388   2.758   0.050   4.115 -0.4561  0.0470 -0.3197
 4251SOL    HW124389   2.748   0.073   4.208  2.9181 -3.2355  0.8507
 4251SOL    HW224390   2.799   0.126   4.074  0.4319  1.3042  2.9394
 4252SOL     OW24391   2.912   0.953   6.701 -0.5677  0.2662  0.0514
 4252SOL    HW124392   2.852   0.989   6.767 -0.2538  0.5355  0.1863
 4252SOL    HW224393   2.972   1.026   6.692 -1.2794  0.7042 -1.3038
 4253SOL     OW24394   0.117   0.490   7.682  0.0801 -0.1714 -0.1858
 4253SOL    HW124395   0.071   0.568   7.714  0.2909 -0.8570  1.7987
 4253SOL    HW224396   0.052   0.422   7.700  2.1109 -2.0066  0.1828
 4254SOL     OW24397   2.696   2.430   0.197 -0.5888 -0.2451 -0.2841
 4254SOL    HW124398   2.767   2.477   0.241 -0.6907 -0.1922 -0.1766
 4254SOL    HW224399   2.704   2.476   0.113  0.1566 -0.0010 -0.0862
 4255SOL     OW24400   0.325   4.533  14.951  0.0010 -0.0713  0.0477
 4255SOL    HW124401   0.396   4.527  14.886  0.1033  0.2652  0.1315
 4255SOL    HW224402   0.368   4.594  15.011 -1.5809  1.8000 -0.7539
 4256SOL     OW24403   1.235   0.907   4.707  0.1327  0.2649 -0.1707
 4256SOL    HW124404   1.203   0.960   4.779  1.7410  0.2038  0.6030
 4256SOL    HW224405   1.215   0.818   4.736 -1.5635  0.1646 -1.7005
 4257SOL     OW24406   1.866   1.359   4.229 -0.9168 -0.8262  0.3866
 4257SOL    HW124407   1.789   1.400   4.189 -2.1061 -2.0362  1.3960
 4257SOL    HW224408   1.887   1.314   4.147 -0.8449 -0.5172  0.2367
 4258SOL     OW24409   3.113   2.381   3.638  0.1516 -0.1615  0.3584
 4258SOL    HW124410   3.188   2.403   3.692 -0.1608  0.6011  0.4953
 4258SOL    HW224411   3.039   2.357   3.694 -2.0545  0.9685 -2.0187
 4259SOL     OW24412   2.239   0.748   5.561 -0.4789 -0.2247  0.0917
 4259SOL    HW124413   2.232   0.654   5.581 -2.3151  0.4550  2.6915
 4259SOL    HW224414   2.171   0.767   5.496  0.4453  1.4430 -0.3699
 4260SOL     OW24415   0.597   0.738   7.097 -0.4591  0.4454  0.8370
 4260SOL    HW124416   0.555   0.809   7.145 -4.2787 -0.4573 -1.1771
 4260SOL    HW224417   0.691   0.754   7.108 -0.3839 -0.2297  1.1376
 4261SOL     OW24418   0.021   1.058   8.952 -0.3453 -0.1129 -0.4968
 4261SOL    HW124419   0.091   0.994   8.965  0.4958  0.8254 -0.4125
 4261SOL    HW224420   4.724   1.034   8.865 -1.6486  2.2637 -0.6594
 4262SOL     OW24421   2.303   1.344   3.014  0.3341  0.2204 -0.0573
 4262SOL    HW124422   2.275   1.255   3.037 -0.4816  0.2935 -0.7820
 4262SOL    HW224423   2.246   1.401   3.065  0.4527  1.2810 -1.1256
 4263SOL     OW24424   2.064   3.239   5.458 -0.0211 -0.0510  0.4566
 4263SOL    HW124425   2.001   3.201   5.397  3.3343 -5.5650  0.4542
 4263SOL    HW224426   2.147   3.219   5.414 -1.0330  1.1565 -2.0159
 4264SOL     OW24427   4.475   3.708  14.913  0.2147  0.1499 -0.2447
 4264SOL    HW124428   4.518   3.624  14.928  1.2156  0.5151 -1.0453
 4264SOL    HW224429   4.526   3.755  14.847  0.4600 -0.9729 -0.8511
 4265SOL     OW24430   3.043   0.758   1.011  0.0175  0.6519  0.1879
 4265SOL    HW124431   3.020   0.671   0.978  1.2535 -1.2106  4.2099
 4265SOL    HW224432   3.083   0.792   0.931 -0.2302  0.8388  0.1432
 4266SOL     OW24433   4.413   1.567  10.475 -0.8269  0.2030  0.1798
 4266SOL    HW124434   4.505   1.541  10.482 -0.7147  0.4012 -0.6087
 4266SOL    HW224435   4.418   1.662  10.485  1.0242 -0.0073  1.1572
 4267SOL     OW24436   4.027   2.558   2.423  0.2478  0.2645  0.5339
 4267SOL    HW124437   3.936   2.543   2.398 -0.2167  2.5852  0.7881
 4267SOL    HW224438   4.026   2.612   2.502  0.2330 -0.0385  0.7411
 4268SOL     OW24439   4.391   1.572   8.939 -0.2018 -0.0238  0.7107
 4268SOL    HW124440   4.363   1.491   8.981 -1.0785  1.9690  4.0610
 4268SOL    HW224441   4.474   1.547   8.900  0.1141 -0.0096  1.3693
 4269SOL     OW24442   1.980   3.183   6.942  0.1719 -0.0912 -0.0266
 4269SOL    HW124443   1.968   3.097   6.902 -0.5704  0.4281 -0.9394
 4269SOL    HW224444   2.069   3.166   6.972  0.9667  2.9362 -0.6140
 4270SOL     OW24445   1.794   2.800  14.028 -0.4079  0.2400 -0.4279
 4270SOL    HW124446   1.804   2.813  14.122 -1.7484 -1.8623  0.0057
 4270SOL    HW224447   1.699   2.791  14.016 -0.7017 -0.0424  2.1286
 4271SOL     OW24448   4.291   2.926  16.862 -0.4946 -0.4173  0.5056
 4271SOL    HW124449   4.210   2.913  16.912 -1.7663  1.5270 -1.0681
 4271SOL    HW224450   4.249   2.969  16.787 -0.5083 -0.9260  0.2218
 4272SOL     OW24451   4.346   3.143   7.456  0.3864 -0.7507 -1.0295
 4272SOL    HW124452   4.404   3.067   7.457  0.2601 -0.8074  1.3003
 4272SOL    HW224453   4.398   3.208   7.503  0.4311 -1.2303 -0.4273
 4273SOL     OW24454   0.389   4.733   1.493 -0.1133  0.0488 -0.0917
 4273SOL    HW124455   0.463   4.696   1.541  1.7318  1.1843 -2.0678
 4273SOL    HW224456   0.343   4.651   1.472 -1.4198  0.3228  1.7314
 4274SOL     OW24457   0.991   0.198  15.964 -0.1727  0.4622  0.3955
 4274SOL    HW124458   0.975   0.293  15.966  0.7114  0.6424 -0.6881
 4274SOL    HW224459   1.061   0.196  15.898 -1.6189  1.7416 -1.1883
 4275SOL     OW24460   4.508   3.023   6.488 -0.0245 -0.2332 -0.4950
 4275SOL    HW124461   4.557   3.040   6.568 -0.3971 -2.1305  0.1473
 4275SOL    HW224462   4.430   3.062   6.528 -0.1184 -2.6153  1.6947
 4276SOL     OW24463   3.482   0.189  10.874 -0.1234 -0.2690  0.7833
 4276SOL    HW124464   3.443   0.238  10.946  0.4556 -0.6479  1.3526
 4276SOL    HW224465   3.523   0.265  10.831  1.7530 -1.4426  0.5007
 4277SOL     OW24466   3.878   1.969   5.811 -0.4145  0.0499 -0.0667
 4277SOL    HW124467   3.844   2.026   5.881  0.6659  1.0836 -0.3913
 4277SOL    HW224468   3.857   2.026   5.738 -0.6382 -1.2438 -1.0097
 4278SOL     OW24469   3.766   2.885  12.142 -0.2503  0.2646 -0.7901
 4278SOL    HW124470   3.702   2.934  12.194  1.0249  0.5449  0.5184
 4278SOL    HW224471   3.740   2.795  12.163  0.1967  0.1658 -0.6652
 4279SOL     OW24472   0.008   0.752  13.904  0.5379 -0.6249 -0.6328
 4279SOL    HW124473   0.009   0.656  13.906 -0.2872 -0.6276 -0.8008
 4279SOL    HW224474   0.003   0.760  13.999  1.5687 -1.2201 -0.5294
 4280SOL     OW24475   1.568   3.928   8.200  1.0247  0.1143  0.0047
 4280SOL    HW124476   1.560   4.022   8.214  0.3943 -0.1183  1.2646
 4280SOL    HW224477   1.558   3.898   8.291  0.8943  2.1658  0.6539
 4281SOL     OW24478   3.516   3.379   9.186  0.2793  0.4551 -0.1353
 4281SOL    HW124479   3.563   3.461   9.203 -0.4236  1.5224 -3.4451
 4281SOL    HW224480   3.567   3.360   9.108 -0.8064  0.5374 -0.8643
 4282SOL     OW24481   2.751   4.098   1.229  0.1199 -0.6484  0.3001
 4282SOL    HW124482   2.669   4.127   1.269  0.2516  1.0607 -0.6781
 4282SOL    HW224483   2.725   4.130   1.143  0.7037 -0.6116  0.1395
 4283SOL     OW24484   1.683   0.612   3.845  0.3914 -0.2423 -0.1222
 4283SOL    HW124485   1.693   0.658   3.762 -0.0659 -0.8154 -0.4999
 4283SOL    HW224486   1.651   0.687   3.894 -0.1492  0.1478 -1.0754
 4284SOL     OW24487   3.149   2.569   0.871 -0.4749 -0.5387 -0.4492
 4284SOL    HW124488   3.161   2.526   0.786  1.3841 -0.8400 -0.0363
 4284SOL    HW224489   3.101   2.501   0.919 -2.6592  1.6349  0.4366
 4285SOL     OW24490   4.361   0.136  10.456  0.1575 -0.1726 -0.0890
 4285SOL    HW124491   4.417   0.140  10.534  0.7471 -1.6178 -0.4305
 4285SOL    HW224492   4.365   0.228  10.430 -0.1189  0.6866  2.8756
 4286SOL     OW24493   1.099   0.789   2.180 -0.3573 -0.2840  0.3032
 4286SOL    HW124494   1.178   0.782   2.233 -1.3403 -1.3552  1.6110
 4286SOL    HW224495   1.040   0.832   2.241 -0.3367  1.2533 -0.7555
 4287SOL     OW24496   2.543   0.984  11.767 -0.3642  0.2834  0.7784
 4287SOL    HW124497   2.491   1.023  11.696  0.4611  0.4773  0.2704
 4287SOL    HW224498   2.571   1.072  11.793  2.0914 -1.1663  2.9635
 4288SOL     OW24499   0.448   0.075   9.444  0.0521 -0.4036  0.4041
 4288SOL    HW124500   0.446   4.718   9.465  0.3718  0.2523  3.3071
 4288SOL    HW224501   0.534   0.085   9.405 -0.9900  1.1176 -1.5210
 4289SOL     OW24502   3.655   0.509   5.193 -0.6927  0.2935  0.4139
 4289SOL    HW124503   3.696   0.566   5.128 -0.0514 -0.0528  0.5183
 4289SOL    HW224504   3.709   0.433   5.170  0.2013  1.7628 -2.3655
 4290SOL     OW24505   0.718   4.558   7.565  0.1031 -0.4780  0.2755
 4290SOL    HW124506   0.688   4.470   7.587 -2.4236  0.4533  0.5514
 4290SOL    HW224507   0.741   4.598   7.648 -0.5091  1.6402 -0.5867
 4291SOL     OW24508   3.900   2.262  17.529 -0.4146 -0.6026  0.7057
 4291SOL    HW124509   3.841   2.272  17.604 -0.4666 -0.0278  0.5884
 4291SOL    HW224510   3.968   2.325  17.554  1.1698 -3.1621  2.7733
 4292SOL     OW24511   0.257   0.500  17.724 -0.3624  0.1122 -0.7483
 4292SOL    HW124512   0.299   0.425   0.024 -0.5441  0.7322  0.5076
 4292SOL    HW224513   0.279   0.461  17.639  1.4109  2.4651 -1.3668
 4293SOL     OW24514   3.454   0.030   3.919  0.3821  0.2046  0.2963
 4293SOL    HW124515   3.506   4.686   3.919 -0.1662 -0.1639  2.6915
 4293SOL    HW224516   3.382   0.009   3.979 -1.9290  2.1008 -1.8311
 4294SOL     OW24517   3.456   0.213   1.089 -0.8076 -0.5830 -0.6116
 4294SOL    HW124518   3.535   0.158   1.085  0.4114  1.2755 -2.0895
 4294SOL    HW224519   3.438   0.229   0.996  0.4933 -0.7785 -0.9063
 4295SOL     OW24520   1.010   1.834   8.201  0.0573 -0.5345 -0.2082
 4295SOL    HW124521   1.029   1.898   8.132 -1.6832  0.6755  0.4291
 4295SOL    HW224522   0.917   1.852   8.217 -0.3568 -2.2973 -0.7178
 4296SOL     OW24523   1.426   0.368   8.648 -0.0025 -0.3533  0.7636
 4296SOL    HW124524   1.379   0.443   8.682  0.9697  0.2462  0.7761
 4296SOL    HW224525   1.376   0.355   8.567  0.7077  0.2906  0.2233
 4297SOL     OW24526   2.804   4.354   5.420 -0.1931 -0.1046 -0.1155
 4297SOL    HW124527   2.759   4.293   5.362  0.8432 -2.3201  1.4231
 4297SOL    HW224528   2.864   4.304   5.475 -1.3314 -0.1810  1.0546
 4298SOL     OW24529   2.296   0.148   9.343 -0.3926 -0.1707  0.1009
 4298SOL    HW124530   2.202   0.167   9.343 -0.3967 -0.1911  0.0930
 4298SOL    HW224531   2.326   0.153   9.433  0.4078 -4.1696  0.0569
 4299SOL     OW24532   2.539   0.877   7.858 -0.1633 -0.4061 -0.1660
 4299SOL    HW124533   2.514   0.890   7.767  2.5748  0.4578 -0.7836
 4299SOL    HW224534   2.532   0.967   7.889 -1.0786 -1.2935  2.2583
 4300SOL     OW24535   3.445   2.375   0.800  0.0116  0.0096 -0.0383
 4300SOL    HW124536   3.452   2.287   0.837  0.7153 -0.0861 -0.4092
 4300SOL    HW224537   3.368   2.362   0.745 -1.1936  2.2564  1.1134
 4301SOL     OW24538   3.829   2.835   4.250  0.4015 -0.3281  0.0859
 4301SOL    HW124539   3.744   2.870   4.275  0.7525  0.3176  0.3832
 4301SOL    HW224540   3.805   2.769   4.186 -0.4905 -0.7798  0.8906
 4302SOL     OW24541   3.076   0.018  12.029 -0.5132  0.3100  0.2158
 4302SOL    HW124542   3.027   4.673  12.016 -0.3713  0.5627 -1.9558
 4302SOL    HW224543   3.098   0.016  12.122 -1.0291  1.1436  0.3536
 4303SOL     OW24544   2.628   0.209   2.602  0.2139  0.4087  0.4089
 4303SOL    HW124545   2.545   0.162   2.597 -0.8051  2.3070 -0.5743
 4303SOL    HW224546   2.667   0.195   2.516  0.8276  0.1067  0.7308
 4304SOL     OW24547   0.131   3.916   6.577 -0.4152 -0.4377  0.4854
 4304SOL    HW124548   0.149   3.901   6.485  2.2900 -1.1361  1.1317
 4304SOL    HW224549   0.205   3.872   6.620 -0.2880  1.1190  1.8767
 4305SOL     OW24550   3.651   3.268   8.977  0.4927 -0.2389  0.0319
 4305SOL    HW124551   3.628   3.309   8.894 -2.6377 -1.3993  0.3081
 4305SOL    HW224552   3.736   3.230   8.955  1.3064  0.8040  1.3598
 4306SOL     OW24553   0.314   1.077   2.730 -0.2338  0.8087 -0.1977
 4306SOL    HW124554   0.263   1.027   2.666 -1.7320  3.0082 -0.7082
 4306SOL    HW224555   0.318   1.020   2.807  0.3569  0.1588 -0.7010
 4307SOL     OW24556   0.469   2.949   5.025 -0.3701 -0.3415  0.2058
 4307SOL    HW124557   0.448   2.959   4.932  0.3493  0.4762  0.1280
 4307SOL    HW224558   0.384   2.918   5.058 -0.9165  0.2789 -0.6079
 4308SOL     OW24559   1.613   4.677  11.619 -0.6825  0.0913 -0.4926
 4308SOL    HW124560   1.659   4.685  11.702 -3.1394 -0.2788  0.9043
 4308SOL    HW224561   1.576   4.593  11.646  2.2343 -1.6865 -2.0703
 4309SOL     OW24562   3.880   4.542   5.562 -1.1224  0.3496  0.5065
 4309SOL    HW124563   3.845   4.598   5.493 -1.4945 -1.6671 -0.9055
 4309SOL    HW224564   3.801   4.521   5.612 -0.8853  1.8637  1.5261
 4310SOL     OW24565   0.554   2.124   9.402 -0.0959  0.3720  0.4395
 4310SOL    HW124566   0.637   2.143   9.358  0.7990 -1.5060  1.3061
 4310SOL    HW224567   0.508   2.082   9.330  3.6754 -0.0920 -1.6851
 4311SOL     OW24568   2.950   1.233  10.327 -0.2256  0.7056 -0.5304
 4311SOL    HW124569   3.029   1.287  10.322  1.2402 -1.1172  2.6447
 4311SOL    HW224570   2.912   1.260  10.411  0.4117 -1.1065  0.3582
 4312SOL     OW24571   2.577   2.680  12.931  0.3070  0.2688 -0.0742
 4312SOL    HW124572   2.515   2.629  12.984 -0.6618 -0.5942 -2.0345
 4312SOL    HW224573   2.525   2.761  12.928  2.1402  1.4588  0.4591
 4313SOL     OW24574   4.019   2.847  10.588 -0.0148  0.1654  0.6173
 4313SOL    HW124575   4.024   2.912  10.517 -1.7233 -2.0032 -1.4861
 4313SOL    HW224576   3.997   2.902  10.663  0.6956  0.8912  0.3054
 4314SOL     OW24577   1.177   0.310   0.462 -0.2441 -0.6530 -0.1331
 4314SOL    HW124578   1.239   0.367   0.416 -0.0275 -0.9325 -0.1879
 4314SOL    HW224579   1.235   0.296   0.537  1.7025 -0.1690 -1.5315
 4315SOL     OW24580   3.299   0.574  13.367 -0.3519 -0.8400 -0.3831
 4315SOL    HW124581   3.237   0.613  13.428  0.1857 -3.0138  1.5660
 4315SOL    HW224582   3.268   0.617  13.288 -0.4998 -0.9429 -0.3794
 4316SOL     OW24583   0.902   3.820  15.762  0.4171  0.5489  0.2099
 4316SOL    HW124584   0.846   3.872  15.821 -1.3945  0.5882 -1.5519
 4316SOL    HW224585   0.987   3.864  15.756  0.9235 -0.4494  0.1409
 4317SOL     OW24586   3.498   2.349  12.993  0.4517  0.1965  0.0676
 4317SOL    HW124587   3.492   2.441  13.016  1.7036 -0.4292  2.8942
 4317SOL    HW224588   3.464   2.344  12.904  1.2026 -4.3017  0.0064
 4318SOL     OW24589   1.517   0.305   3.379 -0.2785 -0.0958  0.4735
 4318SOL    HW124590   1.605   0.269   3.378 -0.9094 -1.4958 -2.1120
 4318SOL    HW224591   1.496   0.272   3.467 -2.5643 -0.8155 -0.3373
 4319SOL     OW24592   4.676   4.412   3.007 -0.4133 -0.0527  0.4242
 4319SOL    HW124593   4.666   4.504   2.981  0.1689 -0.4940 -1.4011
 4319SOL    HW224594   4.684   4.368   2.922 -1.8324  1.1085 -0.3348
 4320SOL     OW24595   3.454   2.416   4.732 -0.1440 -0.2197  0.3076
 4320SOL    HW124596   3.501   2.363   4.795  1.4892  0.2270 -0.5354
 4320SOL    HW224597   3.414   2.488   4.780 -2.4663 -2.1350  1.2868
 4321SOL     OW24598   1.834   0.536   0.664  0.4002 -0.0916 -0.7157
 4321SOL    HW124599   1.784   0.615   0.643 -3.0605 -1.7939  1.3090
 4321SOL    HW224600   1.922   0.573   0.670  1.0895 -2.4988  3.7531
 4322SOL     OW24601   0.493   4.290  12.636  0.3364 -1.1603 -0.0900
 4322SOL    HW124602   0.469   4.313  12.725 -0.8951  2.4262 -1.3491
 4322SOL    HW224603   0.504   4.195  12.644 -0.5931 -1.2034  0.6520
 4323SOL     OW24604   2.023   3.915  15.005  0.0957 -0.3724  0.0191
 4323SOL    HW124605   1.960   3.941  14.938  2.1046  0.5108 -1.5077
 4323SOL    HW224606   2.093   3.977  14.984 -0.1928 -0.2101 -0.4698
 4324SOL     OW24607   0.721   4.371  14.090  0.4037  0.0644  0.4104
 4324SOL    HW124608   0.678   4.307  14.034  1.0188 -0.6426  0.7385
 4324SOL    HW224609   0.648   4.430  14.108  1.0839  1.0816 -0.1385
 4325SOL     OW24610   2.826   3.292   0.091 -0.0501  0.2007  0.2385
 4325SOL    HW124611   2.822   3.302  17.738 -0.8769 -0.3590  0.2151
 4325SOL    HW224612   2.803   3.199   0.093 -1.5580  0.6093  2.5639
 4326SOL     OW24613   4.234   3.069   5.097 -0.0690  0.5186  0.0683
 4326SOL    HW124614   4.308   3.031   5.145  0.6912  1.3002 -0.4671
 4326SOL    HW224615   4.222   3.157   5.134  0.2645 -0.3184  2.2102
 4327SOL     OW24616   1.931   2.188   4.471 -0.1846 -0.5190 -0.6220
 4327SOL    HW124617   1.843   2.190   4.508  0.6461  1.4217  1.1749
 4327SOL    HW224618   1.952   2.099   4.498 -1.8477 -0.4352  0.9637
 4328SOL     OW24619   4.484   0.632   2.426 -0.1703  0.1727 -0.3492
 4328SOL    HW124620   4.514   0.554   2.473  1.5213  0.1008 -1.5154
 4328SOL    HW224621   4.403   0.639   2.476 -0.3047  0.0005 -0.5448
 4329SOL     OW24622   1.723   2.790   6.559  0.1652  0.5254  0.5267
 4329SOL    HW124623   1.798   2.838   6.593 -0.0707  1.6559 -0.5504
 4329SOL    HW224624   1.716   2.829   6.472  1.7969  0.3386  0.3087
 4330SOL     OW24625   0.996   0.011  13.015 -0.5871  0.1948  0.0456
 4330SOL    HW124626   1.046   0.072  12.960  0.6443 -1.8792 -1.1341
 4330SOL    HW224627   0.942   4.713  12.944  0.4422  0.0904 -0.6793
 4331SOL     OW24628   1.791   0.288  16.951  0.7188 -0.0722  0.0667
 4331SOL    HW124629   1.732   0.213  16.940  1.0700 -0.3528  0.0922
 4331SOL    HW224630   1.731   0.355  16.982  0.0295 -0.2375 -0.9017
 4332SOL     OW24631   2.982   4.026   9.687  0.3818 -0.2759 -0.2798
 4332SOL    HW124632   2.913   3.962   9.702 -1.7498  1.2562 -3.3126
 4332SOL    HW224633   2.938   4.109   9.704  0.8507  0.3857 -2.1951
 4333SOL     OW24634   2.199   0.642   7.112  0.3896  0.6364 -0.3632
 4333SOL    HW124635   2.272   0.580   7.107 -1.5191 -1.6236 -0.4595
 4333SOL    HW224636   2.133   0.596   7.060 -0.9844  0.6433  1.3761
 4334SOL     OW24637   0.481   2.310   4.089  0.0242 -0.0465  0.1684
 4334SOL    HW124638   0.560   2.270   4.053 -0.5628 -1.6310  0.6726
 4334SOL    HW224639   0.406   2.279   4.038  0.7244 -0.7970 -0.3928
 4335SOL     OW24640   2.916   0.801   3.900  0.1259 -0.5004  0.4648
 4335SOL    HW124641   2.884   0.775   3.986  0.5632 -2.3103  0.0948
 4335SOL    HW224642   2.849   0.855   3.859  0.5088  0.1636  0.7242
 4336SOL     OW24643   2.855   1.757  12.780  0.1616  0.6749  0.4425
 4336SOL    HW124644   2.900   1.737  12.862  1.0161  0.8229  0.0061
 4336SOL    HW224645   2.803   1.836  12.796  0.1671  1.1326 -1.7411
 4337SOL     OW24646   2.208   4.688   7.239 -0.2132 -0.8010  0.0259
 4337SOL    HW124647   2.121   4.720   7.262 -0.1873 -1.0745  0.4931
 4337SOL    HW224648   2.241   4.682   7.328 -3.4406  1.0926  1.3081
 4338SOL     OW24649   1.882   3.591   3.196 -0.6388 -0.9937  0.4257
 4338SOL    HW124650   1.968   3.599   3.238 -0.0134  1.0893 -1.2963
 4338SOL    HW224651   1.901   3.632   3.112 -1.3104 -0.6062  0.4652
 4339SOL     OW24652   3.873   4.523  15.784 -0.1519 -0.3541  0.2047
 4339SOL    HW124653   3.806   4.455  15.776 -0.6027  0.4337 -2.6851
 4339SOL    HW224654   3.821   4.582  15.839  1.3521  3.8526 -2.9243
 4340SOL     OW24655   3.223   1.670   4.918 -0.2985 -0.8575 -0.5002
 4340SOL    HW124656   3.231   1.719   4.836  0.5180  2.3344  1.4948
 4340SOL    HW224657   3.205   1.580   4.894  0.1930 -1.1900  0.3595
 4341SOL     OW24658   1.379   3.539   4.794 -0.4040  0.0802 -0.3352
 4341SOL    HW124659   1.472   3.536   4.816 -0.6713  1.3315  0.9420
 4341SOL    HW224660   1.385   3.487   4.714 -0.2818  1.1718 -1.0294
 4342SOL     OW24661   1.052   3.614  12.269  0.2903  0.1370  0.5776
 4342SOL    HW124662   1.015   3.527  12.253  0.2462  0.1937  0.3607
 4342SOL    HW224663   1.037   3.644  12.179  1.1775 -2.5206 -0.4561
 4343SOL     OW24664   4.392   4.667   1.041 -0.2438 -0.3292 -0.1475
 4343SOL    HW124665   4.423   0.022   1.040 -1.9218  0.2609  1.3753
 4343SOL    HW224666   4.462   4.619   1.085 -1.9228 -0.4345  2.3668
 4344SOL     OW24667   2.312   3.410   4.353 -0.2179  0.5069 -0.6216
 4344SOL    HW124668   2.296   3.359   4.433  1.6415  1.2528  0.2276
 4344SOL    HW224669   2.403   3.427   4.378 -0.7637  2.3622  0.0923
 4345SOL     OW24670   1.127   3.211   9.457  0.0646  0.1335 -0.1152
 4345SOL    HW124671   1.037   3.208   9.488  0.7519 -2.0850  1.6222
 4345SOL    HW224672   1.117   3.125   9.416 -0.3880  0.4714 -0.7190
 4346SOL     OW24673   0.312   0.804  16.467  0.3157 -0.0950 -0.0192
 4346SOL    HW124674   0.280   0.887  16.432  1.2936  0.5611  0.6565
 4346SOL    HW224675   0.402   0.797  16.435  0.8532  1.5205  1.1430
 4347SOL     OW24676   1.010   4.069   6.547  0.5058  0.0638  0.3216
 4347SOL    HW124677   0.983   4.111   6.465  0.6064  0.3181  0.4189
 4347SOL    HW224678   1.043   3.986   6.513  0.0096 -0.1762  0.4282
 4348SOL     OW24679   4.520   3.842  17.312  0.1892  0.2630 -0.5669
 4348SOL    HW124680   4.558   3.827  17.398  0.0574 -0.2300 -0.5966
 4348SOL    HW224681   4.593   3.817  17.257 -0.0185 -2.3624  0.3787
 4349SOL     OW24682   1.499   4.723  10.530 -0.1496 -0.2823  0.3602
 4349SOL    HW124683   1.535   4.707  10.442  0.6263 -1.6170  0.9250
 4349SOL    HW224684   1.410   4.689  10.529  0.4059 -1.7552  3.1723
 4350SOL     OW24685   1.293   0.085  14.598 -0.7033 -0.1004 -0.7003
 4350SOL    HW124686   1.382   0.051  14.609 -0.4866  0.9370  0.7968
 4350SOL    HW224687   1.300   0.178  14.619  3.6098 -0.5629  0.0091
 4351SOL     OW24688   1.264   2.857   7.896 -0.4949 -0.0912  0.0314
 4351SOL    HW124689   1.355   2.840   7.872  0.1507  0.3655  2.2129
 4351SOL    HW224690   1.268   2.951   7.915  2.0295  0.0142 -1.0154
 4352SOL     OW24691   4.232   0.259   2.740  0.4490  0.1648  0.4355
 4352SOL    HW124692   4.188   0.325   2.687  2.4005  0.0413 -1.3507
 4352SOL    HW224693   4.198   0.176   2.706  0.6456  0.1309  0.3198
 4353SOL     OW24694   0.040   1.390   9.473  0.0215  0.0321  0.5136
 4353SOL    HW124695   0.077   1.314   9.517 -0.3615 -0.9222 -0.8254
 4353SOL    HW224696   4.722   1.365   9.398  1.7549  0.1674 -0.7513
 4354SOL     OW24697   2.492   3.191  13.832 -0.5390 -0.1385  0.0907
 4354SOL    HW124698   2.409   3.165  13.873 -1.1279 -0.3203 -1.1839
 4354SOL    HW224699   2.464   3.167  13.743 -0.9474 -0.8385  0.4029
 4355SOL     OW24700   3.225   0.106  16.974  0.1154 -0.5652  0.2800
 4355SOL    HW124701   3.246   0.015  16.998 -2.8518 -1.3672 -0.1874
 4355SOL    HW224702   3.134   0.112  17.003  0.6551  0.0286  1.8294
 4356SOL     OW24703   0.373   3.914   5.360  0.3298 -0.5469  0.1315
 4356SOL    HW124704   0.395   3.822   5.345  1.1032  0.0031 -2.0218
 4356SOL    HW224705   0.385   3.936   5.268  2.6515  0.7843  0.7406
 4357SOL     OW24706   2.005   2.595   1.946 -0.9555  0.2541 -0.4289
 4357SOL    HW124707   2.028   2.679   1.907  1.3105 -0.8466 -1.4953
 4357SOL    HW224708   2.043   2.608   2.033 -1.0125  0.2972 -0.4105
 4358SOL     OW24709   1.988   0.779  17.081 -0.3454  0.0778  0.3321
 4358SOL    HW124710   1.970   0.740  16.996  2.1713 -1.7995  0.6283
 4358SOL    HW224711   2.040   0.859  17.070 -2.8726  1.7482  0.5449
 4359SOL     OW24712   0.676   0.630   6.697  0.3772 -0.3870 -0.2781
 4359SOL    HW124713   0.696   0.578   6.619  1.4917  1.8245 -1.4935
 4359SOL    HW224714   0.666   0.719   6.664 -1.0166  0.0530  1.3218
 4360SOL     OW24715   4.030   2.842   2.986 -0.3582  0.3928  0.3129
 4360SOL    HW124716   4.088   2.914   3.013 -0.3937  0.5597 -0.0551
 4360SOL    HW224717   3.968   2.883   2.926  1.7797  0.1971 -2.0116
 4361SOL     OW24718   4.495   4.520   7.511  0.2785  0.6070  0.1215
 4361SOL    HW124719   4.428   4.457   7.483 -1.8845  3.0299 -0.1322
 4361SOL    HW224720   4.571   4.487   7.462  0.2989  0.4944  0.2312
 4362SOL     OW24721   0.598   4.320   5.167 -0.0495 -0.3631  0.2306
 4362SOL    HW124722   0.531   4.253   5.178  0.0714 -0.3709  0.9090
 4362SOL    HW224723   0.543   4.392   5.135  0.3500 -1.1008 -2.1672
 4363SOL     OW24724   1.358   1.632   3.783  0.3931  0.0631  0.4530
 4363SOL    HW124725   1.323   1.721   3.784 -1.0068 -0.5106  1.8608
 4363SOL    HW224726   1.290   1.578   3.822 -0.9360  1.8768  0.6059
 4364SOL     OW24727   2.010   3.286  11.072  0.0560  0.1410  0.0921
 4364SOL    HW124728   1.945   3.296  11.141  0.0716  0.2081  0.0965
 4364SOL    HW224729   1.999   3.373  11.034  1.7223 -0.0474 -0.8612
 4365SOL     OW24730   0.540   3.201   9.252  0.5186  0.4990  0.5854
 4365SOL    HW124731   0.627   3.173   9.223  1.3093  1.7805  1.7651
 4365SOL    HW224732   0.558   3.293   9.271 -0.4740  0.8146 -0.0045
 4366SOL     OW24733   3.459   0.946   2.819  0.1517  0.3223 -0.4232
 4366SOL    HW124734   3.513   0.885   2.770  0.8487  0.9401 -0.4232
 4366SOL    HW224735   3.503   0.936   2.903 -1.6377  0.3181  0.5094
 4367SOL     OW24736   2.355   1.636   6.130 -0.5733  0.9388 -0.1698
 4367SOL    HW124737   2.412   1.613   6.057  0.7229  1.5882  0.6437
 4367SOL    HW224738   2.289   1.566   6.128  1.6540 -1.1152 -1.7205
 4368SOL     OW24739   0.207   0.794   1.597 -0.2935 -0.0735  0.2362
 4368SOL    HW124740   0.301   0.782   1.602  0.1771  2.7203 -1.8823
 4368SOL    HW224741   0.174   0.729   1.659  0.4055 -0.0551  0.6197
 4369SOL     OW24742   0.428   0.000   7.727 -0.9367  0.4829 -0.4885
 4369SOL    HW124743   0.334   0.009   7.744 -1.2619 -1.0271 -1.4752
 4369SOL    HW224744   0.432   4.727   7.631 -1.3433  0.2005 -0.4789
 4370SOL     OW24745   1.220   2.606   7.651 -0.7089 -0.2270  0.0480
 4370SOL    HW124746   1.249   2.619   7.560 -1.2462 -1.0368 -0.2357
 4370SOL    HW224747   1.257   2.520   7.668  0.4466  0.1869 -0.3627
 4371SOL     OW24748   3.486   0.831   1.740  0.1770  0.3309  0.0328
 4371SOL    HW124749   3.572   0.874   1.740  0.2332  0.2182 -1.8627
 4371SOL    HW224750   3.456   0.845   1.651 -0.1489  0.8392  0.2258
 4372SOL     OW24751   3.130   0.633   5.596 -0.2286  0.4926  0.9628
 4372SOL    HW124752   3.185   0.681   5.658  0.1653  1.3424 -0.0448
 4372SOL    HW224753   3.056   0.607   5.651 -1.4407 -1.9062 -1.7607
 4373SOL     OW24754   3.779   0.352   2.777 -0.3684  0.4212  0.2333
 4373SOL    HW124755   3.769   0.436   2.822 -0.5440 -0.4952  1.9404
 4373SOL    HW224756   3.689   0.319   2.781  0.0285 -0.4550  2.2375
 4374SOL     OW24757   3.300   3.946  13.075  0.3477  0.2057  0.1263
 4374SOL    HW124758   3.357   4.017  13.102  0.1337 -0.4540  2.2629
 4374SOL    HW224759   3.213   3.986  13.076 -0.8115 -2.2893  0.0481
 4375SOL     OW24760   4.303   2.269   2.318 -0.3505  0.1421 -0.3647
 4375SOL    HW124761   4.220   2.252   2.363  0.3857 -0.1330  0.8663
 4375SOL    HW224762   4.325   2.352   2.359 -0.2712 -0.2652  0.4132
 4376SOL     OW24763   0.275   1.871   8.208  0.5641  0.4362  0.4286
 4376SOL    HW124764   0.211   1.802   8.226 -0.4148  1.9558  2.8072
 4376SOL    HW224765   0.254   1.933   8.278 -1.1606  0.8857 -0.4674
 4377SOL     OW24766   3.481   4.276   6.218  0.6170 -0.0290  0.2562
 4377SOL    HW124767   3.519   4.344   6.162  0.4755 -0.5407 -0.4464
 4377SOL    HW224768   3.541   4.202   6.207  0.7249  0.3106 -1.3204
 4378SOL     OW24769   4.001   3.269   9.557  0.0676 -0.4647  0.5131
 4378SOL    HW124770   3.964   3.181   9.543 -0.0340 -0.2821 -0.4057
 4378SOL    HW224771   3.954   3.289   9.637  1.1697  1.9895  0.5296
 4379SOL     OW24772   4.359   1.155  10.117 -0.4523  0.2783  0.6642
 4379SOL    HW124773   4.421   1.199  10.059  0.0704 -2.9437 -1.2021
 4379SOL    HW224774   4.389   1.184  10.203 -0.3992 -1.2151  1.1519
 4380SOL     OW24775   2.653   3.542   9.286 -0.6344  0.0385  0.3188
 4380SOL    HW124776   2.564   3.553   9.254 -0.4872 -1.6390 -0.7174
 4380SOL    HW224777   2.669   3.631   9.317 -0.6050 -0.1023  0.7035
 4381SOL     OW24778   1.812   4.481   9.829  0.9049  0.0697  0.3772
 4381SOL    HW124779   1.903   4.463   9.804  0.9620  2.7328 -1.4062
 4381SOL    HW224780   1.819   4.465   9.923  1.4277  0.0389  0.3344
 4382SOL     OW24781   1.841   4.503   5.915 -0.4604 -0.1510 -0.1109
 4382SOL    HW124782   1.829   4.539   5.828  1.3492  1.0491  0.1220
 4382SOL    HW224783   1.762   4.533   5.960 -0.1300  0.7627 -0.1331
 4383SOL     OW24784   4.048   2.197   5.167 -0.4708  0.0026 -0.5479
 4383SOL    HW124785   4.121   2.259   5.162 -0.1342 -0.2818  0.7051
 4383SOL    HW224786   4.086   2.109   5.173  0.2053  0.4489  1.8432
 4384SOL     OW24787   1.300   2.754   8.212  0.0665 -0.4610  0.2251
 4384SOL    HW124788   1.376   2.696   8.216 -0.5768 -1.4799 -2.4583
 4384SOL    HW224789   1.342   2.836   8.238  2.1198 -2.1530  2.2751
 4385SOL     OW24790   2.394   4.203  14.269 -0.2900  0.1957 -0.3316
 4385SOL    HW124791   2.397   4.118  14.224 -1.7592  1.8120 -3.4116
 4385SOL    HW224792   2.467   4.199  14.331 -0.4845  0.7419 -0.0705
 4386SOL     OW24793   4.632   0.612   0.599 -0.3206  0.2394  0.1367
 4386SOL    HW124794   4.653   0.519   0.607  1.2246  0.6704  0.9848
 4386SOL    HW224795   4.550   0.615   0.647 -0.0335 -0.8909  0.7108
 4387SOL     OW24796   3.387   1.141  14.723 -0.0098 -0.1230  0.7068
 4387SOL    HW124797   3.339   1.185  14.653 -1.1134 -0.4045  1.2852
 4387SOL    HW224798   3.342   1.057  14.733 -1.4138  0.3296 -1.8014
 4388SOL     OW24799   1.172   1.459   3.897 -0.2600 -0.0741  0.0191
 4388SOL    HW124800   1.197   1.367   3.897  2.9674  0.8141  1.3977
 4388SOL    HW224801   1.081   1.438   3.876 -0.6264  0.5234  0.9797
 4389SOL     OW24802   1.581   0.770  13.265  0.3105 -0.5787 -0.2314
 4389SOL    HW124803   1.582   0.702  13.333 -1.9327  0.5778  0.9803
 4389SOL    HW224804   1.519   0.835  13.299  1.6008  0.2001  0.6115
 4390SOL     OW24805   0.023   2.813   8.215  0.3197 -0.3952  0.4269
 4390SOL    HW124806   4.713   2.880   8.266  0.2780 -0.2854  0.2462
 4390SOL    HW224807   4.713   2.822   8.132 -1.8810 -0.7352  1.5873
 4391SOL     OW24808   1.760   2.406  10.259  0.4919  0.1737  0.3009
 4391SOL    HW124809   1.756   2.385  10.165  1.4667 -0.4459  0.3943
 4391SOL    HW224810   1.699   2.340  10.291  1.0966 -1.3168 -1.6176
 4392SOL     OW24811   3.834   2.693   6.868 -0.1874  0.1702  0.6563
 4392SOL    HW124812   3.768   2.632   6.834  0.5115 -1.7421  2.7427
 4392SOL    HW224813   3.863   2.644   6.945 -1.0153  0.5097  1.1892
 4393SOL     OW24814   3.235   2.863   8.031  0.4240 -0.4220 -0.4403
 4393SOL    HW124815   3.249   2.906   8.115 -0.6715 -1.4243  0.2599
 4393SOL    HW224816   3.152   2.904   8.005 -0.4097 -1.5766  0.3898
 4394SOL     OW24817   0.197   1.306   7.838  0.1025  0.1513  0.1083
 4394SOL    HW124818   0.195   1.382   7.897  1.4292 -1.2859  2.0079
 4394SOL    HW224819   0.103   1.303   7.826  0.3279 -1.3490 -1.1786
 4395SOL     OW24820   2.633   1.907   8.088  0.1452 -0.2060 -0.3360
 4395SOL    HW124821   2.588   1.836   8.134  0.5326 -0.2844 -0.0814
 4395SOL    HW224822   2.621   1.979   8.150 -0.2552 -1.2960  0.8684
 4396SOL     OW24823   4.452   3.771   0.671  0.2408  0.4749 -0.1678
 4396SOL    HW124824   4.409   3.711   0.610  2.0664 -0.9028 -0.0974
 4396SOL    HW224825   4.431   3.733   0.756 -1.0681 -0.5409 -0.9587
 4397SOL     OW24826   0.355   0.618   1.191  0.2721  0.1667 -0.0737
 4397SOL    HW124827   0.298   0.682   1.234 -0.0237 -0.7854  0.9580
 4397SOL    HW224828   0.440   0.658   1.207 -0.1703  0.7229  0.8943
 4398SOL     OW24829   3.458   2.184   2.853  0.0618 -0.1917 -0.1318
 4398SOL    HW124830   3.477   2.194   2.760  0.1984 -1.0837 -0.1979
 4398SOL    HW224831   3.377   2.135   2.840 -0.8315  1.2360  0.1297
 4399SOL     OW24832   4.408   0.956   4.774  0.0949 -0.0001  0.2981
 4399SOL    HW124833   4.343   0.919   4.715 -1.2192 -0.3743  1.9650
 4399SOL    HW224834   4.495   0.940   4.739  0.5332 -1.3441  2.0246
 4400SOL     OW24835   2.019   2.939   2.602 -0.6425 -0.2068  0.3838
 4400SOL    HW124836   1.962   3.014   2.585  0.6508  1.1250  1.8984
 4400SOL    HW224837   2.074   2.956   2.525  0.7534  0.9091  1.6071
 4401SOL     OW24838   0.491   0.578   6.877  0.0645 -0.0456  0.2735
 4401SOL    HW124839   0.572   0.578   6.826 -0.8742  0.0195 -1.2247
 4401SOL    HW224840   0.514   0.636   6.950 -0.9369  0.7096 -0.0201
 4402SOL     OW24841   4.093   3.355   3.989  0.9153  0.0062 -0.3535
 4402SOL    HW124842   4.160   3.396   4.044 -0.4637  1.4981  0.2140
 4402SOL    HW224843   4.014   3.378   4.038 -1.3246 -1.9122 -3.0910
 4403SOL     OW24844   0.450   2.922   6.384  0.3878  0.6283  0.4921
 4403SOL    HW124845   0.510   2.849   6.398  0.0339  0.3428  0.5155
 4403SOL    HW224846   0.414   2.905   6.297 -2.1927  1.0988  1.4866
 4404SOL     OW24847   3.066   1.338   8.488 -0.2445 -0.5295  0.3865
 4404SOL    HW124848   3.144   1.302   8.531  1.7796  0.5992 -2.3328
 4404SOL    HW224849   3.112   1.394   8.425 -0.6691  0.1320  0.6713
 4405SOL     OW24850   3.252   3.139   5.905  0.6044 -0.4968  0.1057
 4405SOL    HW124851   3.223   3.218   5.950  0.5561  0.2746 -1.3080
 4405SOL    HW224852   3.313   3.107   5.972  0.4733  0.9751  0.9252
 4406SOL     OW24853   2.481   1.667   7.521  0.3235 -0.8967 -0.3592
 4406SOL    HW124854   2.539   1.694   7.592 -0.5305 -0.9150  0.3459
 4406SOL    HW224855   2.401   1.664   7.575 -0.5641 -0.5226 -1.6501
 4407SOL     OW24856   0.504   1.531  16.178  0.0777 -0.1914 -0.3471
 4407SOL    HW124857   0.489   1.514  16.271 -0.3998  0.8148 -0.2320
 4407SOL    HW224858   0.449   1.610  16.171 -1.2781 -0.9169  2.4345
 4408SOL     OW24859   4.112   0.046  15.944 -0.9476  0.1617  0.0864
 4408SOL    HW124860   4.130   0.134  15.977  0.0302 -1.0695  2.8472
 4408SOL    HW224861   4.031   0.038  15.995  0.5173  0.7123  2.5153
 4409SOL     OW24862   2.726   2.751   3.094 -0.0960 -0.7084  0.6124
 4409SOL    HW124863   2.796   2.808   3.126  0.0745 -1.0534  0.8547
 4409SOL    HW224864   2.648   2.806   3.093 -0.6804 -1.5710 -1.3323
 4410SOL     OW24865   2.236   3.617  16.228  0.3776  0.0531 -0.4462
 4410SOL    HW124866   2.260   3.659  16.310  1.5178 -0.6872 -0.3946
 4410SOL    HW224867   2.294   3.670  16.172 -2.2577  1.4892 -1.8173
 4411SOL     OW24868   3.831   0.318   1.000 -0.4147  0.5719  0.2772
 4411SOL    HW124869   3.873   0.319   1.086 -1.6703  1.5308  0.8789
 4411SOL    HW224870   3.769   0.246   1.012  0.2799  0.1566  1.3496
 4412SOL     OW24871   4.284   1.165   2.992  0.0975 -0.1758  0.0072
 4412SOL    HW124872   4.266   1.171   3.086 -1.9389  2.1057 -0.5318
 4412SOL    HW224873   4.259   1.074   2.977  0.8655 -0.5609  1.0543
 4413SOL     OW24874   0.097   2.277   5.981  0.0734  0.1243 -0.0952
 4413SOL    HW124875   0.129   2.356   6.026  1.8213 -0.0023 -1.0997
 4413SOL    HW224876   0.141   2.288   5.897  1.0378  2.1777  0.6748
 4414SOL     OW24877   1.445   3.955   2.912  0.2925  0.1084 -0.3940
 4414SOL    HW124878   1.474   4.044   2.935  0.9259  0.7659 -3.8084
 4414SOL    HW224879   1.531   3.913   2.913 -0.5481 -1.5912 -0.1315
 4415SOL     OW24880   4.338   0.319  11.877 -0.1068 -0.3177 -0.3539
 4415SOL    HW124881   4.404   0.274  11.930  1.3401  0.4985 -1.4613
 4415SOL    HW224882   4.393   0.328  11.799  3.1537  1.6186  2.1617
 4416SOL     OW24883   1.918   2.773   2.973  0.5431  0.7504 -0.2072
 4416SOL    HW124884   1.841   2.734   3.014  1.5493  0.0794  1.0354
 4416SOL    HW224885   1.895   2.777   2.880  0.5325 -0.9178 -0.2714
 4417SOL     OW24886   1.528   0.181   0.846  0.4007  0.3530 -0.3427
 4417SOL    HW124887   1.562   0.118   0.783 -0.4581 -1.6521  1.2052
 4417SOL    HW224888   1.592   0.250   0.829  0.7429  0.3358  0.8639
 4418SOL     OW24889   0.263   0.957   5.359 -0.5041 -0.1864  0.4264
 4418SOL    HW124890   0.321   0.880   5.352  1.1836  1.1184  0.0809
 4418SOL    HW224891   0.205   0.926   5.290 -2.1961  3.9922 -0.0173
 4419SOL     OW24892   3.350   1.903   8.943 -0.1618 -0.4665  0.3871
 4419SOL    HW124893   3.344   1.998   8.941  0.4106 -0.4221  0.8932
 4419SOL    HW224894   3.437   1.887   8.907  0.0843  1.8746 -0.0605
 4420SOL     OW24895   3.000   0.331   6.131  0.2397  0.8348  0.3620
 4420SOL    HW124896   2.951   0.280   6.196  1.2017  3.1394  2.9238
 4420SOL    HW224897   3.058   0.264   6.096  0.3879  0.3879  1.4572
 4421SOL     OW24898   4.262   2.808   6.485 -0.1862  0.5955  0.2920
 4421SOL    HW124899   4.171   2.835   6.491 -0.6882 -0.9820 -0.1893
 4421SOL    HW224900   4.266   2.789   6.392 -2.2308  2.7631 -0.2416
 4422SOL     OW24901   0.674   2.072  13.394 -0.1313  0.1316  0.1657
 4422SOL    HW124902   0.693   1.987  13.435 -0.0866  0.7672  1.4680
 4422SOL    HW224903   0.605   2.105  13.452  0.4401  0.0882  0.8736
 4423SOL     OW24904   4.619   2.163   4.947 -0.2772 -0.4049 -0.1221
 4423SOL    HW124905   4.580   2.150   5.033  2.7591  0.2587  1.3418
 4423SOL    HW224906   4.646   2.073   4.931 -1.2647 -0.6526 -0.3657
 4424SOL     OW24907   2.050   1.749   7.325 -0.5984  0.1704  0.0737
 4424SOL    HW124908   1.998   1.789   7.255 -1.5347 -0.5905  0.3174
 4424SOL    HW224909   2.065   1.819   7.388 -1.5006 -0.9068  1.4946
 4425SOL     OW24910   2.704   1.435  15.422 -0.0184 -0.6855  0.2778
 4425SOL    HW124911   2.724   1.470  15.509 -0.0416  1.2988 -0.5210
 4425SOL    HW224912   2.638   1.371  15.449  0.7593 -1.1021  1.1963
 4426SOL     OW24913   4.564   2.354   5.674  0.1189 -0.6056 -0.0084
 4426SOL    HW124914   4.486   2.360   5.729  1.2012  0.1372  1.4731
 4426SOL    HW224915   4.577   2.439   5.632 -0.8332 -0.1640  0.5747
 4427SOL     OW24916   2.200   0.779   4.881 -0.4650 -0.4189  0.2883
 4427SOL    HW124917   2.282   0.763   4.927  0.1013 -0.4629 -0.7367
 4427SOL    HW224918   2.194   0.874   4.889 -0.3393 -0.2679 -1.4780
 4428SOL     OW24919   0.866   0.514   8.581 -0.5351 -0.0715  0.0880
 4428SOL    HW124920   0.893   0.489   8.669  2.5294 -1.9602 -1.4175
 4428SOL    HW224921   0.830   0.601   8.601 -0.7927 -0.4125  1.0898
 4429SOL     OW24922   3.543   2.320   9.955 -0.3030  0.2627 -0.2310
 4429SOL    HW124923   3.564   2.300  10.047  0.5220  0.5886 -0.3487
 4429SOL    HW224924   3.634   2.329   9.928  0.1073 -0.0330  1.0549
 4430SOL     OW24925   4.414   1.303  14.718  0.0977 -0.6236  0.2614
 4430SOL    HW124926   4.378   1.362  14.784  1.3384  0.1084  0.2957
 4430SOL    HW224927   4.339   1.291  14.661 -0.7197 -0.1428  1.2428
 4431SOL     OW24928   1.569   2.326   8.107  0.1768 -0.7928 -0.1171
 4431SOL    HW124929   1.477   2.341   8.087  0.1004 -2.2220 -0.7741
 4431SOL    HW224930   1.584   2.388   8.179  0.3622 -1.4060  0.3707
 4432SOL     OW24931   4.289   0.797   5.512 -0.0828  0.5229  0.2926
 4432SOL    HW124932   4.328   0.869   5.561  2.2592  1.3237 -2.7428
 4432SOL    HW224933   4.209   0.795   5.564 -0.4081  2.3635 -0.1604
 4433SOL     OW24934   2.471   2.653  17.422 -0.3506  0.1143  0.2251
 4433SOL    HW124935   2.561   2.625  17.440 -0.4633 -0.1550  0.3720
 4433SOL    HW224936   2.456   2.740  17.458 -1.3111 -0.3294  0.9021
 4434SOL     OW24937   3.026   3.432   7.776  0.8618 -0.1424  0.3468
 4434SOL    HW124938   3.105   3.486   7.781 -0.1541  1.3310  0.2887
 4434SOL    HW224939   3.027   3.421   7.871  1.8521 -2.1076  0.1116
 4435SOL     OW24940   4.330   2.667   5.735 -0.0233 -0.0155 -0.5995
 4435SOL    HW124941   4.342   2.637   5.825 -2.5922 -1.5939 -0.7978
 4435SOL    HW224942   4.276   2.595   5.705 -0.5944 -0.9312  2.6818
 4436SOL     OW24943   0.602   4.671   6.021 -0.3525 -0.2691  0.1387
 4436SOL    HW124944   0.537   4.701   5.958 -1.3015 -2.0937  0.2550
 4436SOL    HW224945   0.687   4.669   5.977 -1.7619  2.9369 -2.7206
 4437SOL     OW24946   4.427   0.676   6.152 -0.5964 -0.4093  0.5061
 4437SOL    HW124947   4.367   0.750   6.154  2.6640  2.3277 -1.4554
 4437SOL    HW224948   4.513   0.719   6.159  0.4618 -2.0149 -2.5373
 4438SOL     OW24949   4.614   3.497   9.338  0.1837  0.1047  0.0390
 4438SOL    HW124950   4.617   3.409   9.299 -1.0600  0.1174 -0.0733
 4438SOL    HW224951   4.558   3.536   9.272  1.2932 -0.0796 -1.0185
 4439SOL     OW24952   1.914   4.576  14.762 -0.4181 -0.1487  0.0143
 4439SOL    HW124953   1.935   4.668  14.742  1.3117 -0.5925 -0.1129
 4439SOL    HW224954   1.856   4.599  14.836 -1.1233 -2.9196  0.3045
 4440SOL     OW24955   1.652   3.399   8.409  0.9712  0.1256 -0.1271
 4440SOL    HW124956   1.724   3.348   8.371 -0.3846  0.4468 -3.0839
 4440SOL    HW224957   1.632   3.352   8.489  0.1020 -0.7977 -0.8984
 4441SOL     OW24958   3.608   0.579   6.975 -0.0612 -0.1605  0.2729
 4441SOL    HW124959   3.568   0.556   7.059  1.5075 -1.6452  0.6299
 4441SOL    HW224960   3.570   0.502   6.932  2.6243 -1.2692 -0.1362
 4442SOL     OW24961   3.909   1.930   3.613 -0.2933 -0.2451 -0.4769
 4442SOL    HW124962   3.953   1.946   3.696  0.5384 -0.1597 -0.9369
 4442SOL    HW224963   3.859   1.854   3.642  0.2209 -0.6437 -0.6297
 4443SOL     OW24964   2.014   4.274   5.582 -0.0151 -0.2372  0.2949
 4443SOL    HW124965   1.995   4.350   5.526  3.9460  0.5522  0.0516
 4443SOL    HW224966   2.073   4.228   5.523  0.5855  1.7663 -0.6592
 4444SOL     OW24967   2.862   1.802   5.029 -0.3302  0.2578 -0.5404
 4444SOL    HW124968   2.953   1.829   5.035 -0.7767  1.2731  1.6269
 4444SOL    HW224969   2.815   1.885   5.040 -0.7604  0.0599 -0.8552
 4445SOL     OW24970   2.952   2.890   3.159 -0.1868  0.6868  0.2253
 4445SOL    HW124971   3.043   2.872   3.135 -0.1606  2.6747 -1.1376
 4445SOL    HW224972   2.966   2.932   3.244 -0.6894 -0.0726  0.6883
 4446SOL     OW24973   0.231   2.310   6.564  0.0932  0.2219  0.0136
 4446SOL    HW124974   0.212   2.377   6.498  3.7169  1.2474  0.0126
 4446SOL    HW224975   0.147   2.265   6.574 -0.5057  1.1989 -0.7118
 4447SOL     OW24976   4.709   3.591   5.431 -0.3749  0.2291 -0.8022
 4447SOL    HW124977   4.666   3.527   5.489  0.3822  0.5975  0.1632
 4447SOL    HW224978   0.032   3.530   5.386  0.5404  1.5747 -1.4030
 4448SOL     OW24979   0.599   1.746   4.881  0.5404  0.2181 -0.1901
 4448SOL    HW124980   0.652   1.727   4.959 -0.6552  2.1708  1.0822
 4448SOL    HW224981   0.661   1.803   4.834  1.9900  1.3654  3.1388
 4449SOL     OW24982   2.741   0.339   0.798 -0.0251  0.1707  0.6659
 4449SOL    HW124983   2.795   0.283   0.742  0.5078  0.5317  0.8215
 4449SOL    HW224984   2.764   0.291   0.878  2.7216  2.0493  1.0167
 4450SOL     OW24985   1.782   1.957   7.326  0.3237 -0.0946  0.2066
 4450SOL    HW124986   1.697   1.951   7.369  1.9014  0.1741  3.3688
 4450SOL    HW224987   1.811   2.043   7.357  0.9402  0.0746 -0.8663
 4451SOL     OW24988   3.790   3.405   4.352  0.5790 -0.2209 -0.0072
 4451SOL    HW124989   3.847   3.329   4.363  0.9409 -0.2172 -1.8910
 4451SOL    HW224990   3.726   3.374   4.416  1.4300 -0.2115  0.8595
 4452SOL     OW24991   3.148   1.156   7.119  0.3450  0.5502  0.1898
 4452SOL    HW124992   3.227   1.207   7.137 -0.0798  0.8169  1.3031
 4452SOL    HW224993   3.095   1.179   7.195 -1.8413  1.3568 -1.5898
 4453SOL     OW24994   1.971   0.714   4.706  0.1149  0.8452  0.4361
 4453SOL    HW124995   2.033   0.660   4.656 -0.2566  2.0546 -1.3192
 4453SOL    HW224996   2.014   0.721   4.791  0.2977  4.1745  0.0709
 4454SOL     OW24997   3.962   2.447   7.007 -0.4369  0.3952 -0.7586
 4454SOL    HW124998   3.962   2.388   6.932 -0.4034 -2.1110  1.2283
 4454SOL    HW224999   3.930   2.390   7.077  0.4965 -0.6226 -1.1689
 4455SOL     OW25000   4.041   2.254   3.837 -0.1012 -0.2580 -0.1502
 4455SOL    HW125001   4.130   2.223   3.822  0.3222  0.0622  1.7711
 4455SOL    HW225002   4.050   2.349   3.825 -0.6336 -0.3830 -1.5249
 4456SOL     OW25003   1.822   1.790   8.181 -0.0942 -0.0181 -0.2970
 4456SOL    HW125004   1.782   1.712   8.220 -1.8536  1.0690  0.0773
 4456SOL    HW225005   1.749   1.852   8.186 -0.3487 -0.2269 -1.4029
 4457SOL     OW25006   1.006   3.428   3.722 -0.1324  0.3066 -0.4050
 4457SOL    HW125007   1.090   3.457   3.686  0.1275 -0.8379 -0.7171
 4457SOL    HW225008   0.955   3.463   3.649  0.3639 -1.0672 -1.4000
 4458SOL     OW25009   3.314   0.475   4.030 -0.3414 -0.2445  0.4944
 4458SOL    HW125010   3.244   0.418   4.062 -0.0636 -0.1784  1.2167
 4458SOL    HW225011   3.383   0.411   4.010 -1.5457 -1.2162 -0.5404
 4459SOL     OW25012   0.570   3.242   4.325 -0.1651 -0.5146  0.2351
 4459SOL    HW125013   0.556   3.148   4.310  0.6431 -0.2452 -2.3231
 4459SOL    HW225014   0.494   3.280   4.282  1.1543  1.1261 -0.6513
 4460SOL     OW25015   0.174   2.835  13.128  0.4193  0.2138 -0.1712
 4460SOL    HW125016   0.148   2.744  13.113  2.8515 -0.5154  0.0657
 4460SOL    HW225017   0.263   2.814  13.157  1.0848  1.6293 -1.1792
 4461SOL     OW25018   1.848   3.180  13.285  0.1377  0.0585 -0.6489
 4461SOL    HW125019   1.785   3.117  13.320 -0.2628  0.2444 -1.0337
 4461SOL    HW225020   1.921   3.122  13.267 -0.1373 -0.6592  0.5929
 4462SOL     OW25021   3.095   3.835   9.231 -0.2007 -0.4979  0.0663
 4462SOL    HW125022   3.113   3.741   9.220  3.4376  0.1562  0.5950
 4462SOL    HW225023   3.178   3.879   9.215  1.3165 -2.8756  1.4335
 4463SOL     OW25024   0.081   1.036  10.146  0.0696 -0.3180  0.1517
 4463SOL    HW125025   0.161   1.082  10.119 -0.9313  1.7094  0.6455
 4463SOL    HW225026   0.028   1.114  10.164  0.7048  0.1302  0.0868
 4464SOL     OW25027   4.600   2.982   7.406  0.3005 -0.1233 -0.5026
 4464SOL    HW125028   4.655   2.907   7.428  2.3213  1.9040  1.3264
 4464SOL    HW225029   4.559   2.954   7.323  2.2475 -1.2466 -1.0744
 4465SOL     OW25030   2.951   4.203   7.759  0.1034  0.4309  0.5606
 4465SOL    HW125031   3.006   4.136   7.717  3.3270  2.5745  1.3364
 4465SOL    HW225032   2.991   4.184   7.844 -0.6319 -0.9698  0.6052
 4466SOL     OW25033   3.413   0.735   0.414 -0.3279  0.0492  0.1301
 4466SOL    HW125034   3.322   0.740   0.441 -0.3299 -0.4543  0.2011
 4466SOL    HW225035   3.414   0.780   0.330 -0.3234 -0.9017 -0.3716
 4467SOL     OW25036   0.685   0.623   4.887 -0.2682 -0.2109 -0.2243
 4467SOL    HW125037   0.679   0.696   4.825 -0.7907 -0.8370 -0.9053
 4467SOL    HW225038   0.714   0.676   4.961 -1.2152 -1.3487  0.9548
 4468SOL     OW25039   3.330   4.590   5.899 -0.1495 -0.0865  0.2036
 4468SOL    HW125040   3.330   4.682   5.927 -0.3595 -1.0805  3.4927
 4468SOL    HW225041   3.241   4.587   5.864  0.6403 -0.5317 -1.7495
 4469SOL     OW25042   3.950   1.483   0.835  0.3596 -0.4154  0.0068
 4469SOL    HW125043   4.020   1.449   0.780  1.1656  0.6567  0.3676
 4469SOL    HW225044   3.912   1.537   0.766  0.6716  0.4687  0.5112
 4470SOL     OW25045   3.143   4.022   7.652  0.7930 -0.1834 -0.0478
 4470SOL    HW125046   3.131   3.935   7.615 -0.6330 -0.6522  1.5518
 4470SOL    HW225047   3.187   4.009   7.736 -3.0523 -0.8200  1.8457
 4471SOL     OW25048   1.059   4.057   9.222 -0.2184 -0.2296 -0.5255
 4471SOL    HW125049   0.969   4.030   9.240 -0.5485 -0.2830 -2.2407
 4471SOL    HW225050   1.054   4.152   9.233 -2.2339 -0.1495 -2.1228
 4472SOL     OW25051   4.567   2.390  16.916 -0.4410  0.1361  0.3024
 4472SOL    HW125052   4.534   2.316  16.866  1.3071 -0.6383  0.3135
 4472SOL    HW225053   4.615   2.445  16.854 -2.0243  0.9415 -0.2134
 4473SOL     OW25054   1.477   2.502   7.233 -0.0344  0.1223  0.3196
 4473SOL    HW125055   1.478   2.407   7.248 -0.0666  0.0364 -0.2149
 4473SOL    HW225056   1.565   2.522   7.202 -0.5856 -1.3172 -2.2188
 4474SOL     OW25057   0.134   3.187   6.472 -0.1553 -0.3589 -0.0753
 4474SOL    HW125058   0.060   3.243   6.495  0.5219 -0.3010  1.9619
 4474SOL    HW225059   0.161   3.162   6.560 -0.1978 -1.0688 -0.2631
 4475SOL     OW25060   0.806   3.971   9.248  0.4420 -0.0538 -0.0386
 4475SOL    HW125061   0.725   3.927   9.224 -0.7244  2.0921 -0.1050
 4475SOL    HW225062   0.766   4.001   9.330  2.0386  0.8690  0.4015
 4476SOL     OW25063   1.884   3.168   4.364  0.3218  0.0466 -0.1878
 4476SOL    HW125064   1.836   3.121   4.432  0.9795 -3.2905 -2.0589
 4476SOL    HW225065   1.936   3.096   4.328  2.5470  1.3239  0.4054
 4477SOL     OW25066   4.145   0.108  17.637 -0.1333  0.3172 -0.0579
 4477SOL    HW125067   4.134   0.122  17.731 -0.0931  0.9500 -0.1499
 4477SOL    HW225068   4.061   0.147  17.613 -0.0529  1.7298  1.9878
 4478SOL     OW25069   2.388   3.789   3.739 -0.0621 -0.6273  0.3941
 4478SOL    HW125070   2.375   3.839   3.819  0.7793  0.8173 -0.3552
 4478SOL    HW225071   2.299   3.794   3.703  0.4385  2.9854 -0.4247
 4479SOL     OW25072   3.284   2.856  13.438 -0.5917 -0.3309  0.0745
 4479SOL    HW125073   3.265   2.766  13.464 -1.6405  0.1696  1.0010
 4479SOL    HW225074   3.212   2.905  13.478 -0.9986  0.5444 -1.7172
 4480SOL     OW25075   1.570   4.002   5.760  0.0373  0.1245 -0.1405
 4480SOL    HW125076   1.629   4.041   5.695 -0.3276  2.4263  0.9177
 4480SOL    HW225077   1.536   4.081   5.802 -0.9663  0.5126 -1.6897
 4481SOL     OW25078   1.576   3.994   4.365  0.0745  0.2781 -0.1368
 4481SOL    HW125079   1.529   4.042   4.297 -1.2790 -2.0888 -0.8714
 4481SOL    HW225080   1.510   3.936   4.402 -0.3646 -0.6998 -2.5175
 4482SOL     OW25081   4.658   0.949   6.753  0.2406  0.8040 -0.3320
 4482SOL    HW125082   4.648   0.929   6.659 -2.1971 -0.4423  0.1926
 4482SOL    HW225083   4.728   1.012   6.740  0.8953  0.4255  1.3828
 4483SOL     OW25084   3.620   2.985   8.060 -0.1493  0.0574 -0.3604
 4483SOL    HW125085   3.691   2.970   8.123 -0.0452 -0.6725 -0.6463
 4483SOL    HW225086   3.671   3.031   7.993 -0.6890  1.0005 -0.1178
 4484SOL     OW25087   4.530   0.098  15.077 -0.6391 -0.2950 -0.3180
 4484SOL    HW125088   4.546   0.193  15.077  2.2160 -0.7852 -2.3781
 4484SOL    HW225089   4.617   0.063  15.056 -0.3676  0.2081 -0.0537
 4485SOL     OW25090   2.052   0.536   4.498  0.3847 -0.6171  0.0904
 4485SOL    HW125091   2.037   0.519   4.405  2.7674 -0.0244 -0.4228
 4485SOL    HW225092   1.988   0.478   4.537  0.3306  0.1659  1.1736
 4486SOL     OW25093   0.576   0.008   4.474 -0.7305 -0.0997  0.1328
 4486SOL    HW125094   0.580   0.011   4.569  2.6313 -1.4479  0.0236
 4486SOL    HW225095   0.487   4.715   4.455  0.2155 -3.0206  0.1918
 4487SOL     OW25096   0.901   2.472   5.923  0.0806 -0.0678  0.2832
 4487SOL    HW125097   0.926   2.423   5.845 -1.2554  1.2661 -0.9749
 4487SOL    HW225098   0.985   2.492   5.965  0.2599 -1.6719  0.7061
 4488SOL     OW25099   3.204   2.652   0.166 -0.4023 -0.1172 -0.3038
 4488SOL    HW125100   3.168   2.733   0.201  0.7316  1.0009 -1.7334
 4488SOL    HW225101   3.142   2.624   0.099  0.6846 -0.6222 -1.1001
 4489SOL     OW25102   3.774   2.890   0.993 -0.8713 -0.1456 -0.1562
 4489SOL    HW125103   3.835   2.891   0.920 -1.5765  0.8592 -0.7338
 4489SOL    HW225104   3.690   2.887   0.946 -0.5616 -0.7732 -0.6684
 4490SOL     OW25105   1.854   2.262   3.780 -0.4467 -0.0300  0.4679
 4490SOL    HW125106   1.917   2.238   3.849  2.3609  2.7405 -1.1019
 4490SOL    HW225107   1.854   2.183   3.726  1.9375  1.2382 -1.3981
 4491SOL     OW25108   3.940   0.363  14.799  0.1724 -0.0374  0.5351
 4491SOL    HW125109   4.019   0.417  14.801  0.2605 -0.1664  0.5409
 4491SOL    HW225110   3.910   0.374  14.890 -1.2730  1.0546 -0.0737
 4492SOL     OW25111   0.497   0.963  10.798 -0.7912  0.0416  0.4115
 4492SOL    HW125112   0.580   0.994  10.761 -0.6942 -0.9638 -0.2182
 4492SOL    HW225113   0.525   0.878  10.831 -2.4982  0.1591  2.1277
 4493SOL     OW25114   1.620   3.549  14.803  0.2172 -0.5644 -0.3542
 4493SOL    HW125115   1.698   3.603  14.815  0.2211 -0.6173 -0.1549
 4493SOL    HW225116   1.643   3.473  14.856  1.8936  0.0517 -0.2025
 4494SOL     OW25117   1.729   0.011  11.847 -0.2501  0.1656  0.4708
 4494SOL    HW125118   1.699   4.704  11.927  0.9358 -1.9280 -0.2006
 4494SOL    HW225119   1.712   0.102  11.873  1.6481  0.8536 -0.6788
 4495SOL     OW25120   2.877   0.252   7.976 -0.2075  0.9622 -0.4025
 4495SOL    HW125121   2.886   0.167   8.021  0.8468 -0.0338 -2.4792
 4495SOL    HW225122   2.963   0.282   7.948  0.8156  1.8217  3.6515
 4496SOL     OW25123   2.246   0.805   3.564  0.2681  0.5657 -0.0983
 4496SOL    HW125124   2.174   0.745   3.544  1.2164 -1.3794  2.2639
 4496SOL    HW225125   2.216   0.892   3.538  3.2912  1.3204 -1.0291
 4497SOL     OW25126   3.413   1.577   0.788  0.4003 -0.8749  0.3513
 4497SOL    HW125127   3.403   1.603   0.879  0.3992  0.6202 -0.0708
 4497SOL    HW225128   3.335   1.529   0.759  0.8984 -0.0980 -2.3199
 4498SOL     OW25129   2.660   4.538   3.156  0.7188 -0.2877 -0.6460
 4498SOL    HW125130   2.691   4.587   3.231 -0.6884  0.8038 -0.7720
 4498SOL    HW225131   2.666   4.612   3.095  0.8732 -1.4435 -2.0484
 4499SOL     OW25132   2.117   0.504   9.351 -0.0367  0.9576 -0.5257
 4499SOL    HW125133   2.202   0.492   9.309 -1.0346 -1.6561 -1.8141
 4499SOL    HW225134   2.091   0.415   9.373  3.0600 -0.1275 -1.3293
 4500SOL     OW25135   2.302   0.652  12.448 -0.1142  0.1021  0.0486
 4500SOL    HW125136   2.296   0.626  12.355  0.0414 -0.2254  0.1280
 4500SOL    HW225137   2.325   0.744  12.446 -0.1733  0.1451  1.3875
 4501SOL     OW25138   3.254   0.351   5.954 -0.1979 -0.7386  0.2807
 4501SOL    HW125139   3.319   0.313   5.894  0.1815  0.3991 -0.0350
 4501SOL    HW225140   3.191   0.391   5.894 -0.7826 -1.2879  0.5409
 4502SOL     OW25141   4.437   0.310   6.725  0.0864 -0.3416  0.3454
 4502SOL    HW125142   4.452   0.284   6.634 -2.4164  1.7441 -0.6639
 4502SOL    HW225143   4.531   0.327   6.739  0.3883 -0.4904 -1.4893
 4503SOL     OW25144   4.388   3.200   4.506  0.3590  0.1413 -0.2436
 4503SOL    HW125145   4.356   3.151   4.583  1.4370  2.0769  1.4334
 4503SOL    HW225146   4.337   3.156   4.438  1.0584 -0.7928 -0.1624
 4504SOL     OW25147   1.754   2.800   0.018  0.0304 -0.2058 -0.0414
 4504SOL    HW125148   1.831   2.769  17.713  0.0122  1.2015 -1.0070
 4504SOL    HW225149   1.745   2.892  17.734 -0.0884 -0.6322 -1.5337
 4505SOL     OW25150   3.999   4.734   2.474  0.4817 -0.4648 -0.1464
 4505SOL    HW125151   4.012   0.081   2.519  1.3025 -0.0538 -1.1464
 4505SOL    HW225152   4.009   4.675   2.549  3.3761  1.2899  0.8495
 4506SOL     OW25153   1.202   4.354   5.068 -0.4642  0.3505  0.0338
 4506SOL    HW125154   1.188   4.436   5.116 -1.4252 -0.9963  2.0400
 4506SOL    HW225155   1.284   4.377   5.024 -0.7674  1.7549  0.1903
 4507SOL     OW25156   2.315   4.215   4.316 -0.4434  0.5794 -0.5819
 4507SOL    HW125157   2.272   4.191   4.398  1.5292  0.9481  0.5680
 4507SOL    HW225158   2.317   4.129   4.275 -0.8818 -0.0598  0.7326
 4508SOL     OW25159   4.376   1.218   4.737  0.1589 -0.1947 -0.5964
 4508SOL    HW125160   4.283   1.222   4.716  0.1285 -1.0790 -0.6294
 4508SOL    HW225161   4.395   1.124   4.746  1.4175  0.0399 -0.7860
 4509SOL     OW25162   4.367   0.733   6.791  0.1946  0.4805 -0.4826
 4509SOL    HW125163   4.318   0.654   6.813 -2.1805  1.8666 -0.7559
 4509SOL    HW225164   4.445   0.693   6.752 -1.5698 -1.6725 -1.8360
 4510SOL     OW25165   2.958   2.293   2.960  0.6788  0.1979 -0.1061
 4510SOL    HW125166   2.990   2.210   2.994 -1.1870 -1.0115 -1.2983
 4510SOL    HW225167   2.892   2.326   3.021  0.5312  0.8033 -0.5925
 4511SOL     OW25168   3.088   0.740   3.691  0.1447 -0.1408 -0.4929
 4511SOL    HW125169   3.032   0.752   3.767  1.3719 -0.6989  0.4927
 4511SOL    HW225170   3.029   0.718   3.619 -2.5490  0.1147  1.6554
 4512SOL     OW25171   3.408   1.232  17.127  0.2414 -0.3224 -0.1893
 4512SOL    HW125172   3.330   1.275  17.162 -0.0725 -1.8104  0.9511
 4512SOL    HW225173   3.476   1.298  17.130  0.4697 -0.4778 -1.6730
 4513SOL     OW25174   2.757   3.729  13.278  0.6052 -0.2561 -0.2412
 4513SOL    HW125175   2.840   3.762  13.246 -0.5057  1.1222 -1.6781
 4513SOL    HW225176   2.733   3.792  13.347 -0.3326  0.4484 -1.2171
 4514SOL     OW25177   3.341   2.596   0.426 -0.6318  0.5718  0.5238
 4514SOL    HW125178   3.398   2.670   0.408  1.5753 -1.0802  0.8084
 4514SOL    HW225179   3.294   2.604   0.343  0.6782 -0.7013 -0.3333
 4515SOL     OW25180   0.788   0.480   2.677 -0.1633 -0.1162  0.3663
 4515SOL    HW125181   0.723   0.477   2.607  0.8116  0.9257 -0.5796
 4515SOL    HW225182   0.781   0.387   2.698 -0.7411 -0.4331 -1.2778
 4516SOL     OW25183   0.091   0.021   2.813  0.4061  0.0026 -0.2180
 4516SOL    HW125184   0.031   0.094   2.831  2.2245  1.1206  1.3014
 4516SOL    HW225185   0.152   0.063   2.753 -0.0863  2.6413  1.1433
 4517SOL     OW25186   1.530   2.798  15.030  0.0909 -0.6760 -0.7248
 4517SOL    HW125187   1.527   2.738  15.104  0.8976  0.8909  0.5604
 4517SOL    HW225188   1.493   2.884  15.053  2.5144 -0.1743  1.2788
 4518SOL     OW25189   1.334   3.143   5.322  0.0649 -0.6766  0.1273
 4518SOL    HW125190   1.316   3.059   5.364 -1.3789 -0.1960  0.4689
 4518SOL    HW225191   1.422   3.127   5.286  0.8181  0.4349  1.4726
 4519SOL     OW25192   2.008   1.052  17.437 -0.9330 -0.1272  0.7164
 4519SOL    HW125193   1.930   1.024  17.389 -0.7933  0.6779  0.0383
 4519SOL    HW225194   2.074   1.014  17.380  1.2088  2.3845  1.5241
 4520SOL     OW25195   2.931   1.628  17.256 -0.1766 -0.1251  0.2508
 4520SOL    HW125196   2.984   1.704  17.280  1.9348 -1.7084  0.6135
 4520SOL    HW225197   2.987   1.588  17.189  2.9785  2.4627  1.3366
 4521SOL     OW25198   3.480   1.598   2.203 -0.3680 -0.9005  0.0703
 4521SOL    HW125199   3.408   1.611   2.265  2.7279  0.6870  3.3538
 4521SOL    HW225200   3.434   1.536   2.147  1.2617 -2.3162  0.2810
 4522SOL     OW25201   1.022   0.168   3.136  0.6016 -0.5940 -0.0368
 4522SOL    HW125202   0.996   0.187   3.227  0.5662 -0.0273 -0.1609
 4522SOL    HW225203   1.117   0.161   3.142  0.6038 -1.4108 -1.2024
 4523SOL     OW25204   2.511   0.744   1.329 -0.0054 -0.1267 -0.1615
 4523SOL    HW125205   2.558   0.728   1.411  1.2156 -0.5454 -0.9516
 4523SOL    HW225206   2.513   0.651   1.306  0.2720  0.2272 -1.5465
 4524SOL     OW25207   3.144   0.870   8.601 -0.7465 -0.6263  0.1524
 4524SOL    HW125208   3.133   0.813   8.525  0.2704 -1.3124  0.5262
 4524SOL    HW225209   3.059   0.913   8.596 -0.9972 -0.7347  3.6565
 4525SOL     OW25210   1.508   1.295   7.468  0.4648  0.0008 -0.2888
 4525SOL    HW125211   1.464   1.277   7.384 -2.7990 -0.2301  1.4663
 4525SOL    HW225212   1.597   1.279   7.436  0.0534 -0.0659 -1.4271
 4526SOL     OW25213   1.547   2.360   3.607 -0.6095 -0.2825  0.0875
 4526SOL    HW125214   1.535   2.377   3.700 -0.5156 -0.3310  0.1084
 4526SOL    HW225215   1.620   2.298   3.615 -0.0515  0.2709 -0.6627
 4527SOL     OW25216   0.141   0.088   1.594 -0.5368  0.0044  0.1977
 4527SOL    HW125217   0.230   0.068   1.564  0.2201 -0.7317  2.9920
 4527SOL    HW225218   0.159   0.143   1.670 -0.8519  0.3747  0.0060
 4528SOL     OW25219   2.711   0.632   2.924 -0.3302 -0.3092 -0.2685
 4528SOL    HW125220   2.634   0.610   2.977 -0.4593  1.2612  0.1811
 4528SOL    HW225221   2.729   0.554   2.871 -0.9848 -2.2100  2.2613
 4529SOL     OW25222   4.404   0.819   4.309  0.0952 -0.0201  0.4513
 4529SOL    HW125223   4.482   0.782   4.267 -1.0549 -2.1093  0.1693
 4529SOL    HW225224   4.345   0.812   4.234  2.1242 -1.5573 -1.0130
 4530SOL     OW25225   3.695   0.687   8.353 -0.0857  0.0524  0.7836
 4530SOL    HW125226   3.680   0.665   8.261  0.4783 -0.0296  0.7105
 4530SOL    HW225227   3.619   0.664   8.406 -2.0828  2.7238 -0.8998
 4531SOL     OW25228   4.396   0.016   5.935 -0.3324  0.1235 -0.6304
 4531SOL    HW125229   4.466   4.689   5.914  0.2458  0.0031  1.6289
 4531SOL    HW225230   4.327   4.688   5.949  0.8536 -0.6687  1.6584
 4532SOL     OW25231   2.108   3.564  14.896 -0.5353  0.3307 -0.3341
 4532SOL    HW125232   2.111   3.529  14.985  0.2129 -0.5649 -0.7062
 4532SOL    HW225233   2.097   3.477  14.857 -1.3410  0.3403 -0.1289
 4533SOL     OW25234   1.543   4.547   8.863  0.8625  0.8409 -0.0772
 4533SOL    HW125235   1.632   4.543   8.898 -0.1090 -0.3833  2.2397
 4533SOL    HW225236   1.498   4.479   8.914  0.9330  0.8777  0.0324
 4534SOL     OW25237   2.938   0.588   7.734 -0.1394 -0.6197 -0.0023
 4534SOL    HW125238   2.947   0.656   7.668  1.0193  0.0591  0.8529
 4534SOL    HW225239   2.842   0.586   7.731 -0.2254 -0.8536  2.4968
 4535SOL     OW25240   1.842   0.573  10.126 -0.6052 -0.0304  0.2763
 4535SOL    HW125241   1.748   0.580  10.144 -0.6371  2.9706 -0.9232
 4535SOL    HW225242   1.860   0.530  10.209  0.8542 -0.3504 -0.2210
 4536SOL     OW25243   4.533   3.830   9.342  0.2313  0.6489  0.2916
 4536SOL    HW125244   4.544   3.843   9.247 -0.1338 -1.1483  0.0135
 4536SOL    HW225245   4.453   3.779   9.351  0.5646  0.0572 -0.1381
 4537SOL     OW25246   4.068   1.319   4.660  0.0956  0.6777 -0.3680
 4537SOL    HW125247   4.047   1.409   4.685 -0.8995  0.4158 -0.2559
 4537SOL    HW225248   4.065   1.291   4.752 -0.1100 -0.3716 -0.7017
 4538SOL     OW25249   3.793   3.127   4.178  0.0243  0.6378  0.1641
 4538SOL    HW125250   3.714   3.111   4.126 -1.6173  1.1469  2.4909
 4538SOL    HW225251   3.778   3.067   4.251 -2.9339 -0.1511 -1.0937
 4539SOL     OW25252   2.243   4.691   0.974  0.0257 -0.0931 -0.2638
 4539SOL    HW125253   2.275   4.664   0.888  0.8709 -0.2849  0.1147
 4539SOL    HW225254   2.276   0.045   0.979  1.9756 -0.8430  0.3752
 4540SOL     OW25255   0.182   1.601  10.586  0.5985  0.4286  0.1139
 4540SOL    HW125256   0.225   1.568  10.665 -1.1990 -2.2612 -0.0257
 4540SOL    HW225257   0.158   1.687  10.620  1.8856  1.2096 -0.9496
 4541SOL     OW25258   0.094   2.522   8.154 -1.0423  0.3892  0.2626
 4541SOL    HW125259   0.082   2.610   8.188 -1.0433  0.3345  0.4033
 4541SOL    HW225260   0.184   2.511   8.183 -1.6497 -1.3846  1.4337
 4542SOL     OW25261   4.039   4.628   2.237 -0.3698 -0.2340 -0.2744
 4542SOL    HW125262   4.122   4.655   2.200 -1.2424  1.5293 -0.9177
 4542SOL    HW225263   4.041   4.674   2.321  1.8264 -0.6433 -0.1070
 4543SOL     OW25264   3.358   0.488   5.077  0.2749 -0.5954  0.5602
 4543SOL    HW125265   3.374   0.410   5.024 -2.8094  0.4619 -1.9547
 4543SOL    HW225266   3.414   0.474   5.153 -0.1888 -1.9480  0.6499
 4544SOL     OW25267   1.722   1.182   2.391  0.1676 -0.3397 -0.0412
 4544SOL    HW125268   1.811   1.178   2.356  0.0069 -0.4148 -0.4429
 4544SOL    HW225269   1.711   1.276   2.400 -0.0101 -0.4358  0.7211
 4545SOL     OW25270   3.728   2.185  11.412 -0.2650 -0.0326 -0.8351
 4545SOL    HW125271   3.808   2.199  11.363  0.5617 -0.8575  0.2756
 4545SOL    HW225272   3.688   2.119  11.355  1.0194 -0.1810 -1.5536
 4546SOL     OW25273   0.586   4.514   6.989 -0.0042 -0.5509  0.2808
 4546SOL    HW125274   0.655   4.570   7.027  1.0434 -2.1568  0.7547
 4546SOL    HW225275   0.530   4.578   6.945  0.8382  1.5864  2.2583
 4547SOL     OW25276   0.966   0.582   4.617  0.6025  0.2660 -0.3192
 4547SOL    HW125277   0.928   0.496   4.604  0.9604  0.1612 -0.6535
 4547SOL    HW225278   0.999   0.602   4.529  2.0971  0.2954  0.2407
 4548SOL     OW25279   3.445   1.246   7.179 -0.0125 -0.8604 -0.2040
 4548SOL    HW125280   3.484   1.232   7.093  1.6098 -1.6743  0.6614
 4548SOL    HW225281   3.483   1.172   7.228 -0.0397  0.1531  1.3341
 4549SOL     OW25282   0.507   3.065   3.939 -0.0759 -0.0343  0.7071
 4549SOL    HW125283   0.441   3.052   4.007 -1.7986 -0.0638 -0.9644
 4549SOL    HW225284   0.589   3.093   3.980 -0.5174 -0.2766  1.7462
 4550SOL     OW25285   0.626   1.794   3.872 -0.7152  0.1109  0.2898
 4550SOL    HW125286   0.595   1.884   3.864 -1.8437 -0.0658  2.9774
 4550SOL    HW225287   0.719   1.806   3.853 -1.1617  1.0692 -1.2714
 4551SOL     OW25288   1.257   0.684  11.045  0.6225 -0.0501 -0.0051
 4551SOL    HW125289   1.318   0.630  11.096  2.4616 -0.6399 -2.8427
 4551SOL    HW225290   1.294   0.667  10.958  1.4884  0.7150  0.2143
 4552SOL     OW25291   1.111   0.544  14.067  0.6020 -0.2910 -0.5610
 4552SOL    HW125292   1.182   0.515  14.008  0.6052 -2.2006  0.3657
 4552SOL    HW225293   1.062   0.609  14.017  1.3307  0.2126 -0.6209
 4553SOL     OW25294   1.735   0.271  11.922 -0.2807 -0.3069 -0.4031
 4553SOL    HW125295   1.768   0.345  11.871 -0.2531 -0.0627 -0.0240
 4553SOL    HW225296   1.804   0.248  11.984 -0.1248 -0.9208 -0.7971
 4554SOL     OW25297   0.331   4.221   3.326  0.0342  0.5076  0.0018
 4554SOL    HW125298   0.283   4.222   3.409 -1.0908  0.9248 -0.6518
 4554SOL    HW225299   0.274   4.276   3.272 -0.0207  0.5619  0.1131
 4555SOL     OW25300   3.656   4.591  15.032  1.4203 -0.0353 -0.4922
 4555SOL    HW125301   3.632   4.586  15.124  1.5842  0.3222 -0.4287
 4555SOL    HW225302   3.585   4.650  15.006  1.8075  0.0145 -1.4453
 4556SOL     OW25303   0.086   1.684   2.046  0.2591  0.0416 -0.1919
 4556SOL    HW125304   4.729   1.707   2.048  0.6738  2.0965 -4.4136
 4556SOL    HW225305   0.116   1.661   2.134  0.3117  1.0578  0.0553
 4557SOL     OW25306   1.309   0.428   6.290  0.3860 -0.0266 -0.4150
 4557SOL    HW125307   1.395   0.437   6.331  1.8041 -1.9049 -2.9982
 4557SOL    HW225308   1.275   0.347   6.328 -0.1175  0.2913 -0.1856
 4558SOL     OW25309   1.650   0.578   1.889  0.0491  0.4264 -1.1408
 4558SOL    HW125310   1.706   0.623   1.952  0.1167  1.8503 -2.2243
 4558SOL    HW225311   1.694   0.611   1.811  0.3983 -0.1097 -1.1702
 4559SOL     OW25312   0.100   0.794  17.489 -0.3719 -0.3933 -0.4313
 4559SOL    HW125313   0.162   0.769  17.420 -0.2661 -0.0374 -0.4620
 4559SOL    HW225314   0.156   0.846  17.545 -0.0974 -0.7782 -0.3489
 4560SOL     OW25315   4.262   3.065   7.140 -0.5509 -0.1214  0.4729
 4560SOL    HW125316   4.299   3.044   7.226 -1.3902 -0.4345  0.7552
 4560SOL    HW225317   4.211   2.987   7.121 -0.6016  0.0070  0.0740
 4561SOL     OW25318   0.442   2.462   6.990 -0.0371  0.3730  0.4013
 4561SOL    HW125319   0.502   2.406   7.038 -1.7265 -0.6440  1.3166
 4561SOL    HW225320   0.433   2.406   6.913  0.3696  0.5764  0.2034
 4562SOL     OW25321   2.301   1.673   4.220  0.0894  0.6225  0.4014
 4562SOL    HW125322   2.360   1.695   4.292  0.4081  2.5503 -0.4391
 4562SOL    HW225323   2.337   1.588   4.192 -2.3365 -0.2473 -0.0849
 4563SOL     OW25324   3.476   0.399   3.582 -0.0284  0.0788  0.0587
 4563SOL    HW125325   3.385   0.427   3.589  0.3742  1.3375  0.2254
 4563SOL    HW225326   3.454   0.325   3.526  0.9429  1.1319 -1.7312
 4564SOL     OW25327   2.213   2.958   2.410  0.3078  0.3132 -0.3393
 4564SOL    HW125328   2.188   3.022   2.343 -0.0870  1.6713  1.0715
 4564SOL    HW225329   2.275   2.911   2.355  0.1675 -0.6248  0.3012
 4565SOL     OW25330   1.384   2.210   5.887  0.1884 -0.4857 -0.2846
 4565SOL    HW125331   1.310   2.169   5.931 -1.6193  0.1239 -2.7332
 4565SOL    HW225332   1.457   2.154   5.915  1.0958  0.4880 -0.6986
 4566SOL     OW25333   2.840   0.506   8.109 -0.1213 -0.2729 -0.4404
 4566SOL    HW125334   2.846   0.429   8.053  3.2190  0.8056 -1.5597
 4566SOL    HW225335   2.776   0.485   8.177  0.3049  0.6760  0.2602
 4567SOL     OW25336   2.714   0.348   4.046 -0.0372  0.2575 -0.2530
 4567SOL    HW125337   2.721   0.373   3.954  1.6433  1.3746  0.1697
 4567SOL    HW225338   2.644   0.284   4.043  0.1199  0.1578 -1.9178
 4568SOL     OW25339   4.003   1.997  12.294  0.5323  0.1645 -0.0239
 4568SOL    HW125340   4.006   1.942  12.217 -0.1879 -0.2932  0.2781
 4568SOL    HW225341   3.909   1.994  12.312  0.5868 -0.0019  0.2326
 4569SOL     OW25342   4.029   0.226   4.805 -0.2629 -0.1407  0.1446
 4569SOL    HW125343   3.948   0.200   4.761 -1.1122 -0.3064  1.8277
 4569SOL    HW225344   4.056   0.148   4.854 -2.8310 -0.8407  0.4344
 4570SOL     OW25345   1.652   3.174   0.699 -0.0217  0.2455  0.1380
 4570SOL    HW125346   1.725   3.138   0.649 -0.5260  2.9474 -2.5049
 4570SOL    HW225347   1.594   3.208   0.630  0.2503 -1.6423 -1.0180
 4571SOL     OW25348   0.877   1.989   3.029 -0.7178 -0.4207 -0.1531
 4571SOL    HW125349   0.898   1.905   2.987 -1.9688 -0.7522 -0.1328
 4571SOL    HW225350   0.831   1.951   3.104 -0.2852  1.1944  0.9077
 4572SOL     OW25351   3.837   0.532  15.351  0.2580  0.0459  0.7125
 4572SOL    HW125352   3.788   0.477  15.412 -0.8701  0.4508  0.1750
 4572SOL    HW225353   3.831   0.477  15.273  1.4839 -1.1159  1.4381
 4573SOL     OW25354   3.520   1.873   0.379 -0.3368 -0.5319  0.0848
 4573SOL    HW125355   3.530   1.959   0.420  0.8083 -1.0759  0.9427
 4573SOL    HW225356   3.468   1.823   0.442 -0.7595  0.3615  0.4398
 4574SOL     OW25357   4.250   1.272   5.434 -0.3773 -0.6159  0.3487
 4574SOL    HW125358   4.167   1.226   5.433 -0.4946 -0.4345  1.7201
 4574SOL    HW225359   4.227   1.354   5.390  0.0691  1.2077  3.5299
 4575SOL     OW25360   3.069   4.662   5.813  0.1068 -0.2843  0.0964
 4575SOL    HW125361   3.043   4.571   5.797  1.1139 -1.1674  3.5066
 4575SOL    HW225362   3.039   4.701   5.731 -0.0370 -0.2285  0.1757
 4576SOL     OW25363   0.466   1.547   0.273 -0.0051 -0.3436 -0.1483
 4576SOL    HW125364   0.534   1.527   0.336  0.9678  0.1110 -1.0596
 4576SOL    HW225365   0.413   1.609   0.325 -1.6118  0.1915 -2.4143
 4577SOL     OW25366   1.406   0.951  13.397  0.3515  0.0105 -0.5004
 4577SOL    HW125367   1.444   0.918  13.478  1.1841  0.7769 -0.5845
 4577SOL    HW225368   1.389   1.044  13.411 -1.6295 -0.8844  3.2767
 4578SOL     OW25369   2.325   1.179  10.966 -0.3683 -0.0308 -0.7625
 4578SOL    HW125370   2.299   1.092  10.935  2.2001 -1.0285 -0.1743
 4578SOL    HW225371   2.379   1.206  10.892 -0.0881 -1.0111 -0.9096
 4579SOL     OW25372   1.839   3.722   5.028 -0.4588  0.1169 -0.0233
 4579SOL    HW125373   1.850   3.816   5.046  2.5877 -0.0744 -0.8334
 4579SOL    HW225374   1.861   3.711   4.936  3.1856  1.4616  0.6619
 4580SOL     OW25375   4.334   0.517   3.225 -0.1400  0.2063 -0.2519
 4580SOL    HW125376   4.277   0.481   3.156  0.5661 -0.8392 -0.2885
 4580SOL    HW225377   4.277   0.503   3.301 -0.5980  1.1950 -0.4134
 4581SOL     OW25378   3.667   4.730   0.305 -0.3423  0.1041  0.0150
 4581SOL    HW125379   3.639   0.062   0.366  2.4708  0.4996  0.8640
 4581SOL    HW225380   3.639   4.643   0.333  1.8972 -0.0963  1.5967
 4582SOL     OW25381   0.709   2.188   3.687  0.5253 -0.2514  0.3246
 4582SOL    HW125382   0.758   2.153   3.613  0.9146 -0.0559  0.4892
 4582SOL    HW225383   0.659   2.260   3.648 -0.9997 -1.7955 -0.5130
 4583SOL     OW25384   0.774   2.759   9.240 -0.0662 -0.1636  0.2492
 4583SOL    HW125385   0.753   2.710   9.320 -1.1300 -1.3764 -0.7848
 4583SOL    HW225386   0.755   2.847   9.274 -0.0837  0.0220 -0.2483
 4584SOL     OW25387   2.266   1.343   7.851 -0.3930  0.2177  0.4582
 4584SOL    HW125388   2.318   1.412   7.892  2.2618 -0.3661 -1.9844
 4584SOL    HW225389   2.175   1.373   7.861 -1.1111 -1.3807 -1.3805
 4585SOL     OW25390   3.758   1.564  16.071 -0.0498  0.0089 -0.3334
 4585SOL    HW125391   3.843   1.528  16.045  0.6889 -0.5461  2.8367
 4585SOL    HW225392   3.704   1.485  16.070  0.8277 -0.6013 -0.4280
 4586SOL     OW25393   3.706   4.067   4.109 -0.0346  0.2357 -0.1274
 4586SOL    HW125394   3.800   4.064   4.125 -0.0954 -0.0414  0.1854
 4586SOL    HW225395   3.683   3.987   4.157  0.3439 -0.8372 -1.7242
 4587SOL     OW25396   1.236   3.716   4.243  0.4545 -0.1763  0.1804
 4587SOL    HW125397   1.313   3.692   4.295  0.3521 -1.1768 -0.1269
 4587SOL    HW225398   1.274   3.746   4.160 -0.7748 -0.1553 -0.3771
 4588SOL     OW25399   3.902   4.069   9.818  0.0870 -0.0430  0.1857
 4588SOL    HW125400   3.840   4.034   9.754  1.9398 -1.2624 -0.9114
 4588SOL    HW225401   3.875   4.161   9.817  2.0261  0.5003 -0.9304
 4589SOL     OW25402   4.594   3.849   1.380 -0.0939  0.0515  0.1890
 4589SOL    HW125403   4.521   3.903   1.352 -0.8635 -0.6035  0.9474
 4589SOL    HW225404   4.559   3.762   1.401  0.2727 -0.7881 -2.6553
 4590SOL     OW25405   1.738   0.080   4.583 -0.2291  0.3888  0.0973
 4590SOL    HW125406   1.803   0.105   4.518  0.1884  0.8822  0.7061
 4590SOL    HW225407   1.795   0.036   4.645  2.6000 -0.9358 -3.4620
 4591SOL     OW25408   4.200   2.446   2.007  0.2568 -0.1538  0.5058
 4591SOL    HW125409   4.142   2.475   2.078  2.1319  2.6455  0.8998
 4591SOL    HW225410   4.151   2.478   1.931  0.9385 -0.3732 -0.0201
 4592SOL     OW25411   2.103   0.739   7.675  0.3955 -0.1775 -0.1840
 4592SOL    HW125412   2.185   0.691   7.681  0.2121 -0.4031  0.4899
 4592SOL    HW225413   2.047   0.664   7.695  1.1415 -0.1132  2.0579
 4593SOL     OW25414   0.318   0.532  17.273 -0.0201  0.3869 -0.1478
 4593SOL    HW125415   0.353   0.535  17.184 -1.7274 -3.3644 -0.9805
 4593SOL    HW225416   0.300   0.626  17.282 -0.7746  0.3355 -1.0275
 4594SOL     OW25417   2.288   1.965  13.471 -0.6218 -0.1161 -0.6455
 4594SOL    HW125418   2.316   2.051  13.440  0.2576 -0.1474  0.0586
 4594SOL    HW225419   2.210   1.961  13.415 -1.4976  0.0883  0.5622
 4595SOL     OW25420   1.553   4.374   0.080  0.3567 -0.0411 -0.5057
 4595SOL    HW125421   1.638   4.375   0.035  0.4677 -1.0419 -0.3236
 4595SOL    HW225422   1.540   4.467   0.099  0.5912  0.0362 -0.7261
 4596SOL     OW25423   0.140   4.140   2.153  0.2673 -0.3235 -0.6771
 4596SOL    HW125424   0.069   4.157   2.090  0.1835 -1.3905 -0.8717
 4596SOL    HW225425   0.099   4.192   2.222  1.8924 -0.3607  0.3131
 4597SOL     OW25426   1.584   2.861   4.184  0.0595  0.1784  0.1587
 4597SOL    HW125427   1.520   2.853   4.114  0.8367 -1.6264 -0.3636
 4597SOL    HW225428   1.658   2.894   4.133 -0.4460  1.4256  0.2513
 4598SOL     OW25429   0.772   4.718   3.132  0.0505  0.6646  0.2569
 4598SOL    HW125430   0.853   0.029   3.110  1.0405 -0.3802  1.6483
 4598SOL    HW225431   0.727   4.704   3.049  3.7260 -0.6172 -1.5330
 4599SOL     OW25432   1.716   1.550  17.391  0.3017  0.2870 -0.7048
 4599SOL    HW125433   1.707   1.551  17.486 -0.1868 -2.0274 -0.7300
 4599SOL    HW225434   1.622   1.548  17.376 -0.0785  3.1651  1.3688
 4600SOL     OW25435   1.778   3.006   8.122  0.5191  0.0927  0.4032
 4600SOL    HW125436   1.722   3.013   8.200 -0.0022 -0.6590  0.0981
 4600SOL    HW225437   1.749   2.920   8.094  1.9993 -0.7050  1.3508
 4601SOL     OW25438   1.682   1.968   1.865  0.0448  0.4180 -0.6257
 4601SOL    HW125439   1.700   1.878   1.889 -1.4056 -0.1884 -1.8355
 4601SOL    HW225440   1.631   2.001   1.939  0.2195  1.0251 -0.7759
 4602SOL     OW25441   3.322   4.409  11.411  0.5393  0.3252 -0.2305
 4602SOL    HW125442   3.351   4.484  11.463  0.4785  0.6693 -0.6968
 4602SOL    HW225443   3.230   4.435  11.413  0.4065 -0.2816  2.2941
 4603SOL     OW25444   0.467   1.488   1.844 -0.6075  1.1999  0.1833
 4603SOL    HW125445   0.397   1.426   1.821  0.7713 -0.1620 -0.2830
 4603SOL    HW225446   0.416   1.557   1.886 -0.7854  1.2936 -0.1823
 4604SOL     OW25447   2.518   0.975   6.692 -0.4518  0.2061  0.2184
 4604SOL    HW125448   2.479   0.899   6.735  0.9943 -0.2269  0.7303
 4604SOL    HW225449   2.445   1.036   6.705 -1.5603 -0.4528 -2.6834
 4605SOL     OW25450   1.291   0.599  13.633  0.0241  0.4075  0.1515
 4605SOL    HW125451   1.227   0.590  13.562  0.5798 -1.4480 -0.1243
 4605SOL    HW225452   1.358   0.643  13.581 -0.0059  1.2609  0.8303
 4606SOL     OW25453   4.249   1.406   0.226  0.0100  0.6897  0.3525
 4606SOL    HW125454   4.202   1.479   0.265  0.6489  1.2546  0.0657
 4606SOL    HW225455   4.228   1.335   0.287  0.3631  0.8176  0.6246
 4607SOL     OW25456   0.988   2.527  14.534  0.0396 -0.1338  0.3378
 4607SOL    HW125457   1.019   2.595  14.594 -0.1742 -0.4176  0.7697
 4607SOL    HW225458   0.954   2.468  14.601 -1.4949  0.1168 -0.2217
 4608SOL     OW25459   1.456   1.104  16.912 -0.1391 -0.2433 -0.0035
 4608SOL    HW125460   1.484   1.098  17.004  0.1735  2.0695  0.0548
 4608SOL    HW225461   1.529   1.060  16.868 -0.9264 -0.2414 -1.3083
 4609SOL     OW25462   4.702   1.864  10.514  0.4254 -0.1213  0.6073
 4609SOL    HW125463   0.058   1.873  10.490  0.4298  0.0381  0.6822
 4609SOL    HW225464   4.684   1.954  10.541 -1.5558 -0.7240  1.2986
 4610SOL     OW25465   0.580   2.766   4.468 -0.2190 -0.4702 -0.0026
 4610SOL    HW125466   0.596   2.688   4.415  2.2286  1.8744 -2.7097
 4610SOL    HW225467   0.487   2.753   4.489 -0.2938 -0.9807 -0.6315
 4611SOL     OW25468   0.955   2.980   6.551 -0.4370 -0.3666 -0.3595
 4611SOL    HW125469   0.986   2.903   6.503 -0.1988 -0.5268  0.0497
 4611SOL    HW225470   0.946   3.037   6.475 -0.6489 -1.3167 -1.0445
 4612SOL     OW25471   3.042   2.541   8.609  0.1161  0.0633  0.1343
 4612SOL    HW125472   3.030   2.539   8.704  0.2689 -0.8646  0.1313
 4612SOL    HW225473   3.063   2.634   8.595 -0.4042  0.3092  1.0080
 4613SOL     OW25474   2.203   1.149  17.633  0.2063 -0.2369 -0.0854
 4613SOL    HW125475   2.244   1.194  17.559  0.1625 -2.2837 -1.3660
 4613SOL    HW225476   2.135   1.097  17.589  0.5226  0.8706 -1.9066
 4614SOL     OW25477   0.611   4.717  10.552  0.3647  0.1282  0.0816
 4614SOL    HW125478   0.623   4.639  10.606  2.1904 -0.1131 -0.6812
 4614SOL    HW225479   0.549   0.040  10.595  0.0649 -0.7378  0.8361
 4615SOL     OW25480   3.049   3.777  16.834  0.0610  0.4477 -0.1549
 4615SOL    HW125481   3.065   3.727  16.914 -0.2932  1.5758  0.6064
 4615SOL    HW225482   3.109   3.725  16.779  1.4542  0.3331  1.4897
 4616SOL     OW25483   2.582   3.954  12.957 -0.0810  0.6696  0.4340
 4616SOL    HW125484   2.517   4.009  12.914 -0.5155  1.0025  1.5253
 4616SOL    HW225485   2.537   3.908  13.028  0.4878  1.3708  1.2463
 4617SOL     OW25486   4.066   0.772   1.886  0.0018  0.3521  0.2057
 4617SOL    HW125487   4.121   0.729   1.821  0.0979 -3.0323  2.5675
 4617SOL    HW225488   4.002   0.803   1.822 -0.4178  3.2763  2.0022
 4618SOL     OW25489   1.137   0.711  16.993  0.6121  0.0490  0.3819
 4618SOL    HW125490   1.151   0.803  16.971  0.2491 -0.3125 -1.3899
 4618SOL    HW225491   1.068   0.722  17.058  0.8574  1.5984  0.3668
 4619SOL     OW25492   4.703   0.708   1.943 -0.2256 -0.2289  0.1293
 4619SOL    HW125493   0.055   0.682   1.917 -0.3005  0.9683 -1.3161
 4619SOL    HW225494   4.697   0.803   1.932 -1.3393 -0.4627 -1.2795
 4620SOL     OW25495   2.385   2.794  12.674 -0.1971  0.7194 -0.7123
 4620SOL    HW125496   2.403   2.837  12.758 -2.2155  1.3061 -0.5782
 4620SOL    HW225497   2.349   2.867  12.624 -0.2173  1.1588 -0.0654
 4621SOL     OW25498   4.603   2.016   2.431 -0.3828 -0.0610 -0.3004
 4621SOL    HW125499   4.513   2.038   2.405 -0.9293 -1.1197  0.6794
 4621SOL    HW225500   4.589   1.921   2.430 -0.9209 -0.0155  2.3356
 4622SOL     OW25501   2.910   1.106  15.335  0.3437 -0.3088 -0.4187
 4622SOL    HW125502   2.971   1.051  15.285 -0.8761 -1.8631 -0.1845
 4622SOL    HW225503   2.831   1.054  15.323  0.0435  0.3795 -1.4176
 4623SOL     OW25504   0.781   0.866  17.558  0.3811  0.3369  0.4749
 4623SOL    HW125505   0.752   0.933  17.619  1.3748  0.9755  0.2411
 4623SOL    HW225506   0.830   0.912  17.489 -1.3640  2.3558  0.5750
 4624SOL     OW25507   4.593   1.324   2.400  0.3272  0.2428 -0.4152
 4624SOL    HW125508   4.576   1.341   2.492  0.1530 -0.0274 -0.3964
 4624SOL    HW225509   4.528   1.254   2.395  0.9998 -0.2575 -2.1420
 4625SOL     OW25510   4.009   4.707   3.615 -0.1350 -0.6987  0.6232
 4625SOL    HW125511   3.952   4.645   3.659 -2.7460  0.7675 -0.7093
 4625SOL    HW225512   4.030   0.031   3.687  0.2111 -1.7901  1.4172
 4626SOL     OW25513   3.123   1.721   8.071  0.5055  0.7865 -0.1276
 4626SOL    HW125514   3.177   1.793   8.039  3.2085 -0.7897  0.9638
 4626SOL    HW225515   3.112   1.668   7.993  0.2507 -0.1113  0.5125
 4627SOL     OW25516   2.156   1.544   7.134 -0.0579  0.6375 -0.2453
 4627SOL    HW125517   2.150   1.598   7.055 -0.0419 -1.0656 -1.4006
 4627SOL    HW225518   2.118   1.608   7.194 -0.5996 -1.7719  1.9649
 4628SOL     OW25519   0.196   4.660   4.133 -0.0122 -0.2514 -0.3703
 4628SOL    HW125520   0.162   4.570   4.144 -0.0539 -0.3261 -1.0799
 4628SOL    HW225521   0.115   4.704   4.159  1.6508  0.8077  2.8292
 4629SOL     OW25522   3.716   2.694   3.990  0.6408  0.2975  0.0412
 4629SOL    HW125523   3.640   2.666   4.041  1.0534  1.6368  1.4106
 4629SOL    HW225524   3.745   2.613   3.951 -3.3262 -0.7374 -0.8006
 4630SOL     OW25525   3.973   1.087   2.989 -0.1927  0.1791 -0.0404
 4630SOL    HW125526   4.054   1.047   2.959 -1.6417 -1.0193 -2.3856
 4630SOL    HW225527   3.957   1.153   2.921  0.4938 -0.0887 -0.4643
 4631SOL     OW25528   1.106   4.576   4.401 -0.4922 -0.5029 -0.5720
 4631SOL    HW125529   1.105   4.587   4.306  3.6655 -1.5624 -0.7356
 4631SOL    HW225530   1.082   4.484   4.411  2.8881 -1.3550 -0.5849
 4632SOL     OW25531   1.436   0.546   9.014 -0.1661  0.0900 -0.2649
 4632SOL    HW125532   1.492   0.511   9.083 -1.8448 -0.1635  0.9669
 4632SOL    HW225533   1.487   0.547   8.933 -0.0789 -0.4938 -0.2166
 4633SOL     OW25534   0.916   4.447   7.890 -0.1468 -0.6769  0.8486
 4633SOL    HW125535   0.936   4.434   7.797 -1.9205 -0.5005  0.4265
 4633SOL    HW225536   0.832   4.493   7.887 -0.8271 -1.8053  2.5687
 4634SOL     OW25537   4.117   0.078  10.373  0.0912  0.0375 -0.5471
 4634SOL    HW125538   4.197   0.087  10.425 -0.0697  2.0638 -0.6682
 4634SOL    HW225539   4.145   0.052  10.285 -0.1697 -1.0071 -0.3231
 4635SOL     OW25540   1.669   2.633   3.376  0.2494 -0.2922  0.1068
 4635SOL    HW125541   1.713   2.565   3.427 -0.1947 -1.4728 -1.0790
 4635SOL    HW225542   1.633   2.684   3.449  0.5102  1.3052 -0.8855
 4636SOL     OW25543   0.124   0.730   8.848  0.1490  0.6347 -0.6935
 4636SOL    HW125544   0.030   0.715   8.859  0.4737 -0.8792  0.0440
 4636SOL    HW225545   0.150   0.702   8.935 -2.1994 -2.4419 -0.9861
 4637SOL     OW25546   2.122   3.891   9.841  0.7386 -0.2558 -0.8744
 4637SOL    HW125547   2.118   3.986   9.829  0.1146 -0.3239 -1.1612
 4637SOL    HW225548   2.163   3.860   9.760  1.6817 -1.6399  0.1280
 4638SOL     OW25549   0.523   3.538   2.884  0.5056 -0.5377  0.6450
 4638SOL    HW125550   0.571   3.511   2.962 -0.2910  0.7014  1.5631
 4638SOL    HW225551   0.484   3.462   2.840  2.2773 -1.5175  0.7467
 4639SOL     OW25552   4.687   4.426   3.995 -0.5046  0.3411  0.1804
 4639SOL    HW125553   0.029   4.421   3.939  0.4093 -1.6085  1.5942
 4639SOL    HW225554   4.618   4.439   3.931  0.6653  1.2581 -0.9010
 4640SOL     OW25555   4.338   2.869  12.426  0.2162  0.9828  0.1166
 4640SOL    HW125556   4.356   2.906  12.339  0.0868 -1.1304 -0.8049
 4640SOL    HW225557   4.243   2.860  12.431  0.3036 -0.1244 -0.1658
 4641SOL     OW25558   2.365   1.136   0.226 -0.2404  0.7283 -0.0209
 4641SOL    HW125559   2.318   1.203   0.177 -2.1772 -0.5100  0.1398
 4641SOL    HW225560   2.327   1.058   0.185 -1.5870  0.7102  1.2272
 4642SOL     OW25561   3.697   0.934   4.897 -0.4107 -1.0419 -0.0430
 4642SOL    HW125562   3.675   0.877   4.970 -2.5366  0.5430  0.5230
 4642SOL    HW225563   3.790   0.914   4.883 -0.6817 -1.5050 -1.1524
 4643SOL     OW25564   1.018   0.921  14.927 -0.0977  0.3989 -0.0519
 4643SOL    HW125565   1.104   0.934  14.966 -0.6204  0.0105  1.2277
 4643SOL    HW225566   1.047   0.936  14.837  2.2025  1.4107  0.8648
 4644SOL     OW25567   0.927   0.227   6.059 -0.2021  0.8928  0.6673
 4644SOL    HW125568   0.859   0.174   6.100  0.0363  0.6074  0.7000
 4644SOL    HW225569   0.999   0.203   6.117 -0.0736  1.9215  0.9256
 4645SOL     OW25570   2.017   1.496   2.240  0.4259  0.0104  0.3469
 4645SOL    HW125571   1.996   1.550   2.165 -1.1087 -1.9230 -0.6124
 4645SOL    HW225572   2.055   1.426   2.187  1.6540  0.9060  0.0571
 4646SOL     OW25573   1.432   3.787   4.567 -0.2418 -0.2135 -0.0831
 4646SOL    HW125574   1.461   3.727   4.499  2.1228  0.2193  0.5337
 4646SOL    HW225575   1.349   3.743   4.587 -1.0364  0.3348 -2.1656
 4647SOL     OW25576   2.895   0.925  13.094 -0.0052  0.0339 -0.2443
 4647SOL    HW125577   2.807   0.955  13.117  0.8145  2.1448  0.1285
 4647SOL    HW225578   2.941   0.987  13.150 -0.7772 -1.3760  1.9394
 4648SOL     OW25579   4.374   2.520   5.969 -0.1953  0.5618  0.0439
 4648SOL    HW125580   4.410   2.589   6.025  4.3893 -1.2432 -0.7367
 4648SOL    HW225581   4.436   2.449   5.983  0.2631  1.5057  2.8099
 4649SOL     OW25582   2.315   0.450   7.466 -0.0510 -0.1296 -0.1465
 4649SOL    HW125583   2.237   0.473   7.416  0.4247  0.5610 -0.5688
 4649SOL    HW225584   2.384   0.436   7.401 -0.4103 -0.2699 -0.4927
 4650SOL     OW25585   3.002   3.484   8.924  0.0565  0.1395 -0.1033
 4650SOL    HW125586   2.915   3.488   8.962  0.9328  0.8911  1.8039
 4650SOL    HW225587   3.056   3.470   9.002 -0.8426  0.5518  0.5899
 4651SOL     OW25588   3.836   2.471   4.462  0.0766 -0.0528  0.3324
 4651SOL    HW125589   3.821   2.504   4.550 -4.0492 -1.3218  0.0945
 4651SOL    HW225590   3.751   2.471   4.419  0.2245 -2.3672  0.0083
 4652SOL     OW25591   1.999   4.643  17.237 -0.2086  0.2640 -0.2200
 4652SOL    HW125592   1.972   4.556  17.209  2.6557 -0.4164 -0.8768
 4652SOL    HW225593   2.010   4.631  17.332 -2.6489 -2.6563 -0.3167
 4653SOL     OW25594   2.115   2.804   4.200 -0.2024 -0.1436  0.4538
 4653SOL    HW125595   2.052   2.809   4.271  1.2547 -0.0249  1.7283
 4653SOL    HW225596   2.083   2.879   4.149  2.3434 -0.9686 -2.3466
 4654SOL     OW25597   3.131   0.091  11.756 -0.0009  0.0219  0.1979
 4654SOL    HW125598   3.057   0.152  11.752 -2.7135 -3.2789 -0.1643
 4654SOL    HW225599   3.123   0.059  11.846 -1.3487 -1.2168 -0.3740
 4655SOL     OW25600   4.257   1.798   6.803 -1.1987  0.3438  0.0258
 4655SOL    HW125601   4.223   1.878   6.842 -1.8348  0.1288 -0.0962
 4655SOL    HW225602   4.195   1.793   6.731 -1.2778  0.0400  0.1154
 4656SOL     OW25603   2.221   0.340   8.187  0.6652  0.0385 -0.1450
 4656SOL    HW125604   2.192   0.384   8.267 -0.0002 -1.5524  0.4753
 4656SOL    HW225605   2.142   0.296   8.155 -0.9697  1.2521  2.2123
 4657SOL     OW25606   4.444   0.393   2.551  0.1684  1.0515  0.6655
 4657SOL    HW125607   4.467   0.328   2.617  0.3415 -1.5865 -1.9750
 4657SOL    HW225608   4.349   0.389   2.557 -0.0029  1.9102 -1.2584
 4658SOL     OW25609   2.739   3.840   2.667 -0.7215 -0.6603  0.1871
 4658SOL    HW125610   2.691   3.762   2.642 -3.7477  0.7380  1.7067
 4658SOL    HW225611   2.709   3.869   2.753 -0.8463 -0.3329  0.0376
 4659SOL     OW25612   3.367   3.504   6.881  0.3930 -0.2259  0.2948
 4659SOL    HW125613   3.302   3.568   6.853 -0.9951 -1.0033  1.8170
 4659SOL    HW225614   3.448   3.556   6.884 -2.3704  4.2004 -2.0888
 4660SOL     OW25615   3.675   4.124   7.078 -0.3642 -0.5429 -0.5244
 4660SOL    HW125616   3.761   4.162   7.056  0.0176 -1.4847 -0.6415
 4660SOL    HW225617   3.653   4.165   7.162  0.7624  1.0905 -1.0183
 4661SOL     OW25618   0.131   0.375   4.712 -0.1054  0.1046  0.0689
 4661SOL    HW125619   0.098   0.463   4.731 -0.9759 -0.2625  0.2647
 4661SOL    HW225620   0.072   0.310   4.750  0.8708 -1.7684 -1.6049
 4662SOL     OW25621   0.999   1.019   3.664  0.8881  0.0699 -0.1573
 4662SOL    HW125622   0.962   1.052   3.582  1.5972  1.9182  0.2759
 4662SOL    HW225623   1.075   0.969   3.635  0.8896 -1.5858  2.6942
 4663SOL     OW25624   3.641   3.298   1.468 -0.0678 -0.2450 -0.2807
 4663SOL    HW125625   3.708   3.341   1.415  0.0765 -2.5417 -1.9680
 4663SOL    HW225626   3.628   3.218   1.417 -1.7267  0.6564 -1.2460
 4664SOL     OW25627   0.302   2.158   6.113  0.0077 -0.1578  0.4793
 4664SOL    HW125628   0.228   2.140   6.171 -0.5119 -1.3097 -0.5531
 4664SOL    HW225629   0.263   2.208   6.041 -2.1527 -0.8903  1.1229
 4665SOL     OW25630   1.575   4.610   9.242 -0.2099  0.1650  0.5580
 4665SOL    HW125631   1.564   4.529   9.291  3.2452 -0.0614  0.9546
 4665SOL    HW225632   1.485   4.613   9.211 -0.7408 -1.6638  1.9651
 4666SOL     OW25633   3.010   3.287   5.334 -0.1690 -0.2464 -0.0215
 4666SOL    HW125634   2.993   3.323   5.247  0.8710 -0.9083 -0.4997
 4666SOL    HW225635   3.097   3.250   5.319  1.3168  3.3104  0.0474
 4667SOL     OW25636   3.556   2.766   7.703 -0.2196 -0.1172  0.1509
 4667SOL    HW125637   3.509   2.835   7.656  0.5694  1.6116  1.8795
 4667SOL    HW225638   3.513   2.758   7.788  0.7297 -2.3869  0.4126
 4668SOL     OW25639   3.969   0.543   9.681  0.3695 -0.3288  0.2120
 4668SOL    HW125640   4.047   0.592   9.708  1.8530 -1.3413 -2.2335
 4668SOL    HW225641   3.925   0.613   9.633  0.7978  0.4731  0.9777
 4669SOL     OW25642   1.640   3.007  17.151  0.2651  0.3996  0.5502
 4669SOL    HW125643   1.733   3.013  17.172  0.3811  1.3323 -0.1892
 4669SOL    HW225644   1.649   2.956  17.070  1.0141 -0.4804  1.1973
 4670SOL     OW25645   3.824   3.427   8.010  0.5377  1.0006 -0.2644
 4670SOL    HW125646   3.736   3.457   7.987  0.4347 -1.6452 -3.2565
 4670SOL    HW225647   3.875   3.418   7.930 -0.8606  0.8067 -1.1270
 4671SOL     OW25648   4.677   2.898   1.557  0.4065  0.0034  0.4651
 4671SOL    HW125649   4.646   2.822   1.607  0.5094 -0.2402  0.1579
 4671SOL    HW225650   0.002   2.931   1.623  1.5047 -1.7167  0.3246
 4672SOL     OW25651   3.575   3.278  16.304  0.2236  0.4010 -0.1191
 4672SOL    HW125652   3.540   3.366  16.288 -1.8592 -0.7302 -1.7015
 4672SOL    HW225653   3.653   3.296  16.356 -1.8885  3.3973  2.0457
 4673SOL     OW25654   0.562   2.259   6.121 -0.0977  0.3345 -0.0410
 4673SOL    HW125655   0.548   2.346   6.159  0.3173  1.1423 -1.7310
 4673SOL    HW225656   0.490   2.214   6.166 -0.8665  0.3171 -1.2586
 4674SOL     OW25657   4.256   4.690  15.735 -0.3646  0.1629 -0.0722
 4674SOL    HW125658   4.327   0.003  15.777 -0.6681 -0.2376  0.9146
 4674SOL    HW225659   4.196   4.712  15.807 -0.8691  1.3266 -0.8294
 4675SOL     OW25660   2.346   1.804   7.888  0.2420  0.5207 -0.8575
 4675SOL    HW125661   2.379   1.731   7.941  0.1734  1.8072  0.9754
 4675SOL    HW225662   2.327   1.759   7.806 -1.6291  0.1874 -0.2355
 4676SOL     OW25663   2.206   0.475   5.611  0.6535  0.6285  0.6526
 4676SOL    HW125664   2.195   0.392   5.657 -1.4690 -0.0814 -1.1366
 4676SOL    HW225665   2.145   0.449   5.542  1.0479  1.4759 -0.0213
 4677SOL     OW25666   2.705   3.585  17.018 -0.5738  0.1835 -0.4390
 4677SOL    HW125667   2.704   3.674  16.984 -1.2834  0.1621 -0.4674
 4677SOL    HW225668   2.770   3.547  16.959 -1.7767 -0.2836 -1.4455
 4678SOL     OW25669   3.226   4.516  14.939 -0.6817  0.2943 -0.2217
 4678SOL    HW125670   3.201   4.444  14.997  0.5680  0.0612  0.0153
 4678SOL    HW225671   3.145   4.566  14.923 -0.6113  1.0233  1.7340
 4679SOL     OW25672   4.186   0.931   2.923  0.3277 -0.0893  0.6321
 4679SOL    HW125673   4.189   0.869   2.850  0.5687 -0.2288  0.7602
 4679SOL    HW225674   4.190   0.877   3.002 -0.5382 -2.2297 -0.7875
 4680SOL     OW25675   2.734   1.766   3.852  0.6326  0.0153  0.0113
 4680SOL    HW125676   2.797   1.705   3.889 -1.6428 -1.5620  1.3014
 4680SOL    HW225677   2.686   1.710   3.791  1.6602 -0.1246 -0.6658
 4681SOL     OW25678   3.643   2.440   5.934  0.3975 -0.8607  0.1203
 4681SOL    HW125679   3.599   2.524   5.922 -0.6887 -1.5263 -0.6071
 4681SOL    HW225680   3.727   2.452   5.890  0.1115  0.0153 -0.1849
 4682SOL     OW25681   0.963   3.639   2.417  0.5353  0.5954 -0.0779
 4682SOL    HW125682   1.028   3.672   2.480  0.1850  1.9679 -0.4366
 4682SOL    HW225683   0.918   3.580   2.478  0.2614  0.1273 -0.7431
 4683SOL     OW25684   4.338   1.607   6.994 -0.2761 -0.3825 -0.2296
 4683SOL    HW125685   4.270   1.616   7.061 -0.2922  2.1166 -0.5850
 4683SOL    HW225686   4.310   1.673   6.931 -1.7706  0.2920  1.1255
 4684SOL     OW25687   4.665   3.881  14.776 -0.5438 -0.4385 -0.0451
 4684SOL    HW125688   4.692   3.945  14.841 -0.8293  0.3033 -0.6574
 4684SOL    HW225689   4.717   3.899  14.697  0.8901 -1.7449  0.6063
 4685SOL     OW25690   3.880   1.991   3.282  0.1825  0.4823 -0.1237
 4685SOL    HW125691   3.859   2.038   3.202 -3.1835 -2.4081 -0.9113
 4685SOL    HW225692   3.936   1.923   3.243  0.5794  1.2125 -0.8213
 4686SOL     OW25693   3.446   3.530   9.631 -0.0266  0.0233 -0.1116
 4686SOL    HW125694   3.516   3.544   9.695 -0.2710 -0.7962  0.3300
 4686SOL    HW225695   3.486   3.468   9.571 -0.0539  0.0493 -0.1565
 4687SOL     OW25696   3.967   1.623   7.329  0.0711  0.9253 -0.3740
 4687SOL    HW125697   3.933   1.581   7.250 -0.1888  0.9481 -0.2717
 4687SOL    HW225698   4.055   1.646   7.299 -0.4306 -0.9805 -3.2964
 4688SOL     OW25699   0.656   2.680   6.381  0.6549 -0.3570 -0.0498
 4688SOL    HW125700   0.599   2.623   6.432 -0.2377  0.0601 -0.5753
 4688SOL    HW225701   0.745   2.651   6.400  0.7238 -1.8056 -2.5330
 4689SOL     OW25702   0.789   1.413   8.316  0.0955 -0.5749  0.2685
 4689SOL    HW125703   0.824   1.385   8.231  1.6273 -0.1777  0.7676
 4689SOL    HW225704   0.751   1.497   8.292  1.3199 -0.4776 -1.3841
 4690SOL     OW25705   4.468   1.828   9.080  0.0203  0.5273  0.2986
 4690SOL    HW125706   4.515   1.768   9.139  0.7515  2.0432  1.2427
 4690SOL    HW225707   4.411   1.763   9.038  1.0348 -0.4080  0.3742
 4691SOL     OW25708   0.509   2.914  14.716 -0.4354  0.0694 -0.5873
 4691SOL    HW125709   0.465   2.966  14.783 -1.6059  0.1138 -1.4072
 4691SOL    HW225710   0.593   2.911  14.763 -1.0348 -3.8653  0.2416
 4692SOL     OW25711   4.188   3.060   9.954  0.3206 -0.3124  0.2419
 4692SOL    HW125712   4.193   3.070  10.049 -0.8786 -0.2521  0.2980
 4692SOL    HW225713   4.177   3.154   9.937 -0.9126 -0.5240 -0.1388
 4693SOL     OW25714   2.423   3.333   2.986 -0.3047 -1.0060 -0.0151
 4693SOL    HW125715   2.336   3.353   2.951  0.4438 -1.2229 -2.0192
 4693SOL    HW225716   2.430   3.248   2.943  2.4282 -0.4595 -0.5938
 4694SOL     OW25717   1.781   1.081   7.860  0.6179  0.6627 -0.0780
 4694SOL    HW125718   1.767   0.992   7.828 -1.2849  0.8224  0.2877
 4694SOL    HW225719   1.847   1.067   7.928  0.8488 -1.8942 -0.8502
 4695SOL     OW25720   1.967   2.993   9.293 -0.2128  0.2545  0.3781
 4695SOL    HW125721   1.929   3.036   9.370  2.9807 -0.0805  2.1470
 4695SOL    HW225722   1.917   2.912   9.294 -1.7264  1.1830 -0.9474
 4696SOL     OW25723   4.685   0.141   6.225 -0.4360  0.0206 -0.3779
 4696SOL    HW125724   4.607   0.172   6.179  0.2594 -0.6978 -2.0739
 4696SOL    HW225725   4.734   0.222   6.240 -1.1346 -0.0507  2.2834
 4697SOL     OW25726   4.225   2.966   1.727  0.3091  0.2481 -0.2328
 4697SOL    HW125727   4.248   2.873   1.716 -1.6044 -0.0673 -1.4571
 4697SOL    HW225728   4.316   2.991   1.744 -0.3051  2.1860  0.1287
 4698SOL     OW25729   0.143   2.187   2.029 -0.8118 -0.0949  0.2810
 4698SOL    HW125730   0.160   2.255   1.963 -0.7023 -1.0408 -0.6647
 4698SOL    HW225731   0.054   2.156   2.012 -0.6578  0.1482 -0.9552
 4699SOL     OW25732   3.032   1.061   2.711 -0.6268 -0.1718 -0.2239
 4699SOL    HW125733   3.077   1.130   2.662 -1.0019  0.7434  0.7346
 4699SOL    HW225734   2.942   1.094   2.708 -0.4119  0.3161 -1.7345
 4700SOL     OW25735   0.171   0.322  17.244  0.1556  0.1371  0.0197
 4700SOL    HW125736   0.217   0.406  17.234 -0.2234  0.3259 -0.1159
 4700SOL    HW225737   0.082   0.354  17.256  0.9094  2.3470 -0.3674
 4701SOL     OW25738   4.263   0.359   3.663 -0.1664 -0.3772  0.4311
 4701SOL    HW125739   4.327   0.330   3.598 -0.3078  1.3267 -0.4751
 4701SOL    HW225740   4.320   0.402   3.726 -0.7877  0.7491  0.2317
 4702SOL     OW25741   4.697   4.277   1.633 -0.1467 -0.4115 -0.5075
 4702SOL    HW125742   4.652   4.227   1.563 -0.7091  1.4325 -1.4529
 4702SOL    HW225743   4.677   4.364   1.599 -3.7348 -0.1178  2.3786
 4703SOL     OW25744   1.169   4.658   1.677 -0.3018 -0.7733 -0.0075
 4703SOL    HW125745   1.239   4.606   1.638 -1.5134 -1.5510 -1.1530
 4703SOL    HW225746   1.221   4.727   1.718  0.9707 -2.8314  1.8377
 4704SOL     OW25747   3.895   1.634   1.288  0.3797 -0.4833  0.6225
 4704SOL    HW125748   3.844   1.664   1.213  1.6703  0.1410  0.0064
 4704SOL    HW225749   3.914   1.542   1.267  0.2991  0.0008 -1.5840
 4705SOL     OW25750   0.897   0.599  11.345 -0.5428 -0.4606 -0.2887
 4705SOL    HW125751   0.922   0.521  11.395 -0.5363  0.0760  0.5538
 4705SOL    HW225752   0.937   0.670  11.395  1.4034 -1.0505 -1.0061
 4706SOL     OW25753   1.893   0.249   6.926  0.0375 -0.2272 -0.8233
 4706SOL    HW125754   1.850   0.199   6.857 -1.1963  1.0185 -0.9572
 4706SOL    HW225755   1.973   0.201   6.946  0.3680  1.7982  2.7409
 4707SOL     OW25756   1.763   3.494  16.322 -0.7228  0.6936  0.2439
 4707SOL    HW125757   1.802   3.559  16.263  0.5098 -0.0787  0.1857
 4707SOL    HW225758   1.813   3.413  16.306 -1.9473 -0.4051  2.0343
 4708SOL     OW25759   1.423   2.332   8.487  0.1163 -0.5204  0.3530
 4708SOL    HW125760   1.399   2.309   8.397 -0.2652  1.1852  0.0254
 4708SOL    HW225761   1.363   2.397   8.524  2.1001  1.2588  0.4154
 4709SOL     OW25762   0.654   0.153   0.428  0.4182 -0.0540 -0.0978
 4709SOL    HW125763   0.747   0.130   0.427  0.5386  0.4431 -0.5407
 4709SOL    HW225764   0.661   0.230   0.485 -2.3721  0.5834 -0.6382
 4710SOL     OW25765   0.415   4.320  15.148  0.0197  0.0595 -0.6845
 4710SOL    HW125766   0.455   4.234  15.161 -5.7113 -2.8867 -2.2851
 4710SOL    HW225767   0.501   4.360  15.138  0.3192 -0.0677  1.3792
 4711SOL     OW25768   2.626   0.714   7.505  0.4582  0.2150  0.1667
 4711SOL    HW125769   2.689   0.753   7.444  1.0069  0.1601  0.6996
 4711SOL    HW225770   2.565   0.787   7.515  0.3725 -0.1505  2.1841
 4712SOL     OW25771   3.402   2.349  15.888  0.3951  0.0321 -0.1969
 4712SOL    HW125772   3.380   2.349  15.981 -1.3523  0.3260 -0.6016
 4712SOL    HW225773   3.465   2.277  15.899 -0.6959 -1.2388 -2.1796
 4713SOL     OW25774   4.208   0.005   8.279  0.4309 -0.0092  0.2568
 4713SOL    HW125775   4.154   0.068   8.326  1.4569  0.7137  0.4585
 4713SOL    HW225776   4.185   4.662   8.329  0.4223  0.1913  0.5654
 4714SOL     OW25777   0.440   0.639  13.994 -0.0966  0.2530 -0.3793
 4714SOL    HW125778   0.535   0.647  13.985  0.4273 -2.4960  2.7519
 4714SOL    HW225779   0.436   0.566  14.056 -1.8063  0.3937 -0.3430
 4715SOL     OW25780   1.586   1.213  12.858 -0.1532 -0.3796  0.3100
 4715SOL    HW125781   1.619   1.128  12.829 -0.5777 -1.0605  1.7720
 4715SOL    HW225782   1.664   1.255  12.893  0.6053 -2.3828  1.0318
 4716SOL     OW25783   4.123   2.836   4.615  0.6151 -0.1497 -0.3040
 4716SOL    HW125784   4.047   2.788   4.650  1.0262 -0.2930  0.3853
 4716SOL    HW225785   4.139   2.893   4.690 -1.8967  0.6102 -0.3253
 4717SOL     OW25786   2.458   1.390  15.596  0.3889  0.0265  0.2262
 4717SOL    HW125787   2.366   1.397  15.573  0.0914 -3.9594  0.1203
 4717SOL    HW225788   2.457   1.311  15.650 -1.1759  0.5981  1.0104
 4718SOL     OW25789   4.307   1.924  11.025  0.6216 -0.1714  0.1137
 4718SOL    HW125790   4.240   1.855  11.023 -0.7700  1.2269 -1.3011
 4718SOL    HW225791   4.366   1.905  10.952 -0.7126 -0.0613 -0.9985
 4719SOL     OW25792   2.021   1.661   6.002 -0.1125  0.3848  0.1804
 4719SOL    HW125793   2.033   1.705   5.918 -1.2332 -1.3779 -0.8900
 4719SOL    HW225794   1.987   1.576   5.975 -2.9982  0.9121  2.2272
 4720SOL     OW25795   0.812   0.121   9.974  0.1267 -0.4230  0.5183
 4720SOL    HW125796   0.772   0.110  10.060  1.9961  2.5830  1.7424
 4720SOL    HW225797   0.901   0.089   9.993  0.7812  1.4555  0.5507
 4721SOL     OW25798   0.288   0.786  17.263 -0.0803  0.4334 -0.3445
 4721SOL    HW125799   0.361   0.848  17.267 -0.1281  0.5009 -0.5320
 4721SOL    HW225800   0.253   0.807  17.177  3.4759  0.4815 -1.8131
 4722SOL     OW25801   4.069   0.266   4.314 -0.3121  0.0301 -0.3098
 4722SOL    HW125802   4.115   0.272   4.397  0.7032 -1.8767 -0.7249
 4722SOL    HW225803   4.005   0.197   4.329 -0.3497 -0.2062 -1.5182
 4723SOL     OW25804   2.236   0.021  16.626 -0.1912  0.5829  0.8260
 4723SOL    HW125805   2.142   0.031  16.611 -0.0373 -0.9359 -1.2407
 4723SOL    HW225806   2.258   4.666  16.603 -0.4700  0.2386  1.9208
 4724SOL     OW25807   0.877   1.082   0.697  0.5188 -0.1363  0.6820
 4724SOL    HW125808   0.938   1.036   0.639 -0.7127 -1.8612  0.7291
 4724SOL    HW225809   0.927   1.162   0.708  1.6630 -0.9096  1.1108
 4725SOL     OW25810   3.991   3.486  14.894 -0.1624  0.1176 -0.2763
 4725SOL    HW125811   3.955   3.404  14.929  0.3096 -0.7661 -1.8783
 4725SOL    HW225812   3.937   3.517  14.822  1.9904 -0.3856 -2.1156
 4726SOL     OW25813   1.271   1.109  17.371  0.2062 -0.3128  0.1415
 4726SOL    HW125814   1.329   1.177  17.406 -1.4083  1.7062 -1.0953
 4726SOL    HW225815   1.308   1.102  17.283 -0.6579  0.7182 -0.3024
 4727SOL     OW25816   1.161   2.027  15.118  0.4004  0.1608  0.0835
 4727SOL    HW125817   1.166   1.933  15.135  1.2381 -0.2346 -2.3274
 4727SOL    HW225818   1.231   2.077  15.159 -0.6129  0.5862  1.3037
 4728SOL     OW25819   2.335   3.281   2.238  0.0534  0.1087  0.1028
 4728SOL    HW125820   2.240   3.278   2.234  0.0536 -1.5391  1.4178
 4728SOL    HW225821   2.367   3.193   2.218  2.5636  1.2099 -0.8313
 4729SOL     OW25822   1.212   0.668   7.995 -0.7705  0.1754 -0.6309
 4729SOL    HW125823   1.295   0.688   7.952 -0.6289  1.0540  0.0497
 4729SOL    HW225824   1.215   0.573   7.988 -0.4790  0.1024  0.4133
 4730SOL     OW25825   2.339   1.302  17.437 -0.2728  0.0016 -0.2232
 4730SOL    HW125826   2.381   1.384  17.414  0.4475 -0.6991 -1.4309
 4730SOL    HW225827   2.256   1.313  17.391 -0.1656  1.8123  0.0267
 4731SOL     OW25828   1.437   1.052   6.710 -0.0859 -0.1257  0.6436
 4731SOL    HW125829   1.447   1.143   6.738 -0.2228  0.0902 -0.0173
 4731SOL    HW225830   1.421   1.022   6.800 -1.5998  1.2270  0.8265
 4732SOL     OW25831   1.493   2.449   2.342 -0.6807  0.3990 -0.1209
 4732SOL    HW125832   1.427   2.507   2.303 -0.6292  1.2690  1.0982
 4732SOL    HW225833   1.467   2.443   2.434 -0.6120 -0.4217 -0.1571
 4733SOL     OW25834   3.312   4.332   7.076  0.7127 -0.3872  0.0037
 4733SOL    HW125835   3.318   4.259   7.016 -0.5725  1.5822 -2.5121
 4733SOL    HW225836   3.289   4.287   7.157 -0.0744  0.9896  0.5504
 4734SOL     OW25837   1.766   1.368   3.407  0.4401  0.4596 -0.6949
 4734SOL    HW125838   1.703   1.309   3.448 -0.7518  1.5952 -0.8804
 4734SOL    HW225839   1.828   1.368   3.480 -0.2775  1.2991 -0.0850
 4735SOL     OW25840   1.879   4.039   1.759 -0.0343 -0.1196 -0.2969
 4735SOL    HW125841   1.850   4.100   1.827  2.2813 -1.9146  2.3120
 4735SOL    HW225842   1.851   3.951   1.783  0.1815 -0.1927 -0.3168
 4736SOL     OW25843   1.352   1.640   0.616  0.6338 -0.6345 -0.2132
 4736SOL    HW125844   1.409   1.697   0.564  0.4986 -0.7313 -0.4673
 4736SOL    HW225845   1.283   1.613   0.555  0.0496  1.0373 -0.2975
 4737SOL     OW25846   2.838   2.534   4.480 -0.3254  0.2936  0.2013
 4737SOL    HW125847   2.879   2.461   4.433 -2.3552 -0.0795 -1.0030
 4737SOL    HW225848   2.815   2.506   4.569 -2.2696 -2.4374 -1.1442
 4738SOL     OW25849   1.023   2.137   3.199 -0.5550 -0.5230  0.5177
 4738SOL    HW125850   1.076   2.198   3.149  1.5425 -1.8195  1.1542
 4738SOL    HW225851   0.979   2.087   3.130 -0.0054  2.6573 -2.0846
 4739SOL     OW25852   4.045   0.892   1.328  0.2927 -0.6746 -0.4187
 4739SOL    HW125853   4.071   0.828   1.395  2.0033  0.8239  0.3674
 4739SOL    HW225854   3.999   0.840   1.262 -0.8341 -1.8267  1.2784
 4740SOL     OW25855   1.587   3.422   4.569  0.2298 -0.0874  0.1106
 4740SOL    HW125856   1.631   3.406   4.652  0.4834  0.6110  0.1053
 4740SOL    HW225857   1.586   3.333   4.534  0.2220  0.4061 -1.1422
 4741SOL     OW25858   0.026   3.795  12.949 -0.2632  0.4278  0.2356
 4741SOL    HW125859   0.061   3.853  12.882  1.0600  1.1308  1.5324
 4741SOL    HW225860   4.669   3.794  12.928  0.4039 -1.1112 -2.6130
 4742SOL     OW25861   0.848   1.770  15.150 -0.1642 -0.6154  0.1154
 4742SOL    HW125862   0.850   1.740  15.059  0.0600 -0.1446 -0.0361
 4742SOL    HW225863   0.800   1.851  15.133  0.2706 -0.3955 -0.0603
 4743SOL     OW25864   4.626   1.746   1.209 -0.7289  0.2511  0.3445
 4743SOL    HW125865   4.593   1.753   1.299 -0.4885 -2.2942  0.6215
 4743SOL    HW225866   4.717   1.717   1.212 -0.5497  0.9435  1.6032
 4744SOL     OW25867   4.323   1.595  14.039 -0.1578  0.7620  0.4915
 4744SOL    HW125868   4.386   1.527  14.064  0.4274  1.5625  1.1625
 4744SOL    HW225869   4.327   1.661  14.108  0.4106  0.2531  0.9450
 4745SOL     OW25870   0.175   4.398   4.773  0.7626 -0.3651  0.5128
 4745SOL    HW125871   0.245   4.440   4.823  1.6553 -1.9924  0.6149
 4745SOL    HW225872   0.108   4.381   4.839  1.0057 -1.1522  0.5526
 4746SOL     OW25873   4.057   3.559   2.096  0.4186 -0.4326 -0.1740
 4746SOL    HW125874   4.029   3.515   2.176 -0.3251 -1.2227 -0.8723
 4746SOL    HW225875   4.053   3.490   2.029 -0.2152 -1.5799  1.0468
 4747SOL     OW25876   0.604   3.692   6.105 -0.1159  0.1982  0.3029
 4747SOL    HW125877   0.673   3.659   6.162 -0.7304 -0.8583  0.4269
 4747SOL    HW225878   0.529   3.649   6.146  2.8344 -3.3224  1.9563
 4748SOL     OW25879   2.333   3.420   7.249  0.3602  0.0340  0.9196
 4748SOL    HW125880   2.283   3.422   7.167  1.6752  0.0564  0.1246
 4748SOL    HW225881   2.277   3.373   7.312  1.3191  0.3478  2.0066
 4749SOL     OW25882   1.270   0.570  15.026 -0.1766  0.1527  0.0721
 4749SOL    HW125883   1.237   0.497  14.974  2.4766 -0.5696 -0.5969
 4749SOL    HW225884   1.365   0.556  15.019  0.0445  0.2173  2.7846
 4750SOL     OW25885   3.116   2.964   6.933 -0.1867  0.0646  0.1976
 4750SOL    HW125886   3.030   3.005   6.920 -0.7392 -0.9891  0.5337
 4750SOL    HW225887   3.119   2.910   6.854  1.0060 -0.6222  0.7102
 4751SOL     OW25888   2.797   1.016   7.542 -0.2475 -0.1352 -0.1401
 4751SOL    HW125889   2.887   1.046   7.529 -0.7367  1.2980 -0.2274
 4751SOL    HW225890   2.804   0.977   7.630 -0.5437 -1.4668 -0.7189
 4752SOL     OW25891   3.695   1.196   3.247 -0.4067  0.5071 -0.6905
 4752SOL    HW125892   3.711   1.282   3.285  1.3941  0.1552 -0.6863
 4752SOL    HW225893   3.653   1.219   3.164  0.3472  0.3551 -1.1149
 4753SOL     OW25894   4.586   4.053   9.481  0.4058  0.2160  0.3698
 4753SOL    HW125895   4.530   4.027   9.554  0.7633 -1.3263  0.1001
 4753SOL    HW225896   4.573   3.966   9.443 -1.3175 -0.1169  1.7346
 4754SOL     OW25897   4.700   1.703   3.496 -0.4197  0.0104 -0.5142
 4754SOL    HW125898   0.030   1.728   3.431  1.7709 -2.7095  0.6828
 4754SOL    HW225899   4.704   1.769   3.565 -1.1350 -2.1073  1.5190
 4755SOL     OW25900   4.538   1.899   5.489 -0.0853  0.1932  0.5283
 4755SOL    HW125901   4.473   1.896   5.418  0.9096  1.0313 -0.4283
 4755SOL    HW225902   4.478   1.868   5.557  2.3067 -0.9341  2.1171
 4756SOL     OW25903   2.056   1.259  10.811 -0.2460 -0.6119  0.1446
 4756SOL    HW125904   2.122   1.329  10.808  0.2419 -1.0159  1.6168
 4756SOL    HW225905   2.056   1.225  10.900  1.0015 -0.7523  0.0817
 4757SOL     OW25906   1.689   1.253   6.905 -0.5507  0.0441 -0.2287
 4757SOL    HW125907   1.665   1.329   6.958  1.8886 -0.7793  2.0019
 4757SOL    HW225908   1.603   1.233   6.866 -1.4303 -1.2862  2.3883
 4758SOL     OW25909   3.572   1.950   8.800 -0.1692  0.2051  0.1388
 4758SOL    HW125910   3.616   1.910   8.725  0.1872  0.6060  0.1345
 4758SOL    HW225911   3.549   2.032   8.756 -1.4247  0.3321  1.0487
 4759SOL     OW25912   0.209   3.364   6.252  0.1142 -0.1590  0.3707
 4759SOL    HW125913   0.189   3.309   6.176  0.0957  0.6818 -0.2283
 4759SOL    HW225914   0.208   3.303   6.325  0.5989 -0.4480  0.1357
 4760SOL     OW25915   0.258   3.139   6.701  0.1985  0.2340  0.2099
 4760SOL    HW125916   0.342   3.175   6.671 -0.1175  0.4681 -0.4032
 4760SOL    HW225917   0.280   3.046   6.709  0.8384  0.3804  0.1427
 4761SOL     OW25918   0.732   3.831   1.659 -0.0699  0.9337 -0.5009
 4761SOL    HW125919   0.689   3.892   1.599 -2.1842  0.3956  0.4828
 4761SOL    HW225920   0.799   3.889   1.697  0.2041  0.1793  0.1838
 4762SOL     OW25921   3.123   4.186  12.732 -0.3007  0.2195  0.4741
 4762SOL    HW125922   3.162   4.273  12.744 -0.4517  0.3304  0.1581
 4762SOL    HW225923   3.133   4.144  12.818 -1.2711 -1.0674 -0.0349
 4763SOL     OW25924   3.852   1.459   7.816 -0.5924 -0.0151 -0.0856
 4763SOL    HW125925   3.762   1.481   7.793 -0.4858  0.8026  0.2990
 4763SOL    HW225926   3.866   1.509   7.896 -0.3364  0.9906 -0.7664
 4764SOL     OW25927   4.103   0.979   7.418  0.3228  0.1084 -0.6077
 4764SOL    HW125928   4.037   0.994   7.487 -0.3720 -0.2045 -1.2068
 4764SOL    HW225929   4.181   1.030   7.440 -0.8042  0.9712  1.4381
 4765SOL     OW25930   1.837   2.235   2.366 -0.3957 -0.0257 -0.3587
 4765SOL    HW125931   1.805   2.303   2.308 -4.1908 -1.8266 -0.3499
 4765SOL    HW225932   1.755   2.189   2.386 -1.4250  1.0755 -2.0693
 4766SOL     OW25933   0.723   2.318   7.391 -0.1146 -0.1071 -0.6128
 4766SOL    HW125934   0.653   2.293   7.450 -0.7722  1.5271 -0.7338
 4766SOL    HW225935   0.717   2.413   7.389  1.5847  0.0149 -0.3390
 4767SOL     OW25936   4.705   1.644   3.814 -0.2303 -0.3004 -0.5748
 4767SOL    HW125937   0.016   1.569   3.851 -1.1309 -0.5701  0.0220
 4767SOL    HW225938   4.644   1.592   3.761 -1.0161 -0.0790  0.1098
 4768SOL     OW25939   2.505   0.128   7.476 -0.6091  0.4122  0.3675
 4768SOL    HW125940   2.446   0.132   7.551 -2.7840 -0.9099 -1.2692
 4768SOL    HW225941   2.579   0.098   7.527 -0.0241 -0.2856 -0.8995
 4769SOL     OW25942   3.192   3.926   0.811  0.7859  0.0204 -0.1207
 4769SOL    HW125943   3.134   3.992   0.849  0.2381 -1.7757  2.1945
 4769SOL    HW225944   3.128   3.863   0.779 -1.7158  2.0419  0.9028
 4770SOL     OW25945   0.832   0.773   8.656 -0.1058  0.2754  0.6823
 4770SOL    HW125946   0.758   0.796   8.711  0.4808  1.5117  0.9348
 4770SOL    HW225947   0.900   0.789   8.722 -1.6718 -0.4055  2.4484
 4771SOL     OW25948   3.072   1.439  10.057  0.1806  0.5233 -0.1570
 4771SOL    HW125949   3.131   1.447  10.132  1.3803 -2.2215 -0.7998
 4771SOL    HW225950   2.989   1.469  10.093  0.8776 -0.2827  2.1595
 4772SOL     OW25951   3.216   2.760   2.233  0.1672  0.0566 -0.0572
 4772SOL    HW125952   3.167   2.783   2.312  0.8561 -1.1091  0.7084
 4772SOL    HW225953   3.150   2.695   2.211  1.5160 -1.3402  0.0286
 4773SOL     OW25954   0.657   4.199   9.426 -0.6569 -0.1005  0.2582
 4773SOL    HW125955   0.630   4.169   9.513  2.0788 -0.3249  1.0096
 4773SOL    HW225956   0.684   4.285   9.456  3.7142  0.3704 -4.9712
 4774SOL     OW25957   3.784   3.359   3.191 -0.1338 -0.1884 -0.3949
 4774SOL    HW125958   3.772   3.443   3.147  0.8040  2.4755  4.3978
 4774SOL    HW225959   3.841   3.387   3.263 -0.2895  0.1879 -0.4197
 4775SOL     OW25960   1.676   2.594   1.669 -0.4957  0.0570 -0.0513
 4775SOL    HW125961   1.590   2.587   1.711 -0.7527  0.8061 -0.4538
 4775SOL    HW225962   1.725   2.541   1.732  1.2052  2.4679  0.6948
 4776SOL     OW25963   0.054   1.599   6.954  0.2403  0.2992 -0.1538
 4776SOL    HW125964   0.081   1.651   7.030 -0.4536 -0.2437  0.4635
 4776SOL    HW225965   0.061   1.656   6.877  1.1720  1.8551  1.0891
 4777SOL     OW25966   0.388   3.640   9.452 -0.0373 -0.1706 -0.3502
 4777SOL    HW125967   0.372   3.733   9.436  0.1547  0.1338  1.1501
 4777SOL    HW225968   0.301   3.610   9.477  0.2313 -1.3749 -0.8465
 4778SOL     OW25969   1.830   1.530   5.003  0.2403 -0.5724  0.5321
 4778SOL    HW125970   1.768   1.464   5.034  3.6400 -3.5333  0.9646
 4778SOL    HW225971   1.826   1.516   4.908  0.7859  0.6337  0.3258
 4779SOL     OW25972   3.025   4.663   2.095 -0.5214 -0.2325 -0.2311
 4779SOL    HW125973   3.016   4.655   2.190 -0.7899  1.2791 -0.1349
 4779SOL    HW225974   3.067   0.013   2.097  1.1348 -1.0258 -0.8875
 4780SOL     OW25975   1.820   4.594   1.814  0.5798  0.2172  0.0866
 4780SOL    HW125976   1.860   4.677   1.840  1.3907  0.0539 -0.6386
 4780SOL    HW225977   1.730   4.617   1.839  0.6368  0.7581 -0.2087
 4781SOL     OW25978   1.711   2.634   1.405 -0.0018 -0.2938 -0.5645
 4781SOL    HW125979   1.720   2.729   1.404 -1.8213 -0.1093 -0.2461
 4781SOL    HW225980   1.709   2.619   1.499  1.0045 -4.5207 -1.2307
 4782SOL     OW25981   3.234   3.440  15.782 -0.6798 -0.6571 -0.2949
 4782SOL    HW125982   3.225   3.527  15.822 -1.0375 -0.5046 -0.7086
 4782SOL    HW225983   3.142   3.421  15.764 -1.2861  2.2389 -0.2492
 4783SOL     OW25984   0.566   1.970   0.126 -0.0941 -0.2159 -0.0793
 4783SOL    HW125985   0.577   1.930   0.040 -1.5536  1.0767 -0.8578
 4783SOL    HW225986   0.649   2.017   0.136  0.8635 -1.8704 -0.3488
 4784SOL     OW25987   3.492   3.114   5.619  0.0386 -0.5625  0.1629
 4784SOL    HW125988   3.518   3.112   5.711  2.4026 -1.2273 -0.5372
 4784SOL    HW225989   3.576   3.141   5.583  0.5065 -2.0046  0.1647
 4785SOL     OW25990   4.215   0.240   4.058  0.4937  0.1098 -0.2594
 4785SOL    HW125991   4.166   0.277   4.131 -1.4791 -1.7115 -0.6677
 4785SOL    HW225992   4.295   0.292   4.049  1.3005 -0.9465  0.7073
 4786SOL     OW25993   0.104   3.530  16.445  0.0448  0.0542 -0.0925
 4786SOL    HW125994   0.198   3.537  16.463 -0.3567  0.5584  1.7939
 4786SOL    HW225995   0.066   3.616  16.458  0.3906  0.2101 -0.1029
 4787SOL     OW25996   4.460   3.609   5.836 -0.3642  0.5669 -0.2062
 4787SOL    HW125997   4.494   3.564   5.913  0.3301  1.9147  0.2713
 4787SOL    HW225998   4.499   3.696   5.827  0.7084  0.0519 -0.5362
 4788SOL     OW25999   2.670   3.846   5.593 -0.1882  0.0865 -0.5504
 4788SOL    HW126000   2.751   3.810   5.628 -0.6532  0.5887  1.0470
 4788SOL    HW226001   2.611   3.779   5.627 -1.0690  0.1740 -1.8954
 4789SOL     OW26002   0.085   3.165   2.885 -0.3882 -0.1100 -0.0192
 4789SOL    HW126003   0.077   3.256   2.857  2.4795  0.5749  1.2979
 4789SOL    HW226004   0.086   3.173   2.981 -1.9401  1.3013 -0.1346
 4790SOL     OW26005   4.063   1.626  16.271 -0.2127 -0.2216 -0.3144
 4790SOL    HW126006   4.140   1.646  16.325  0.9931  0.0202 -2.1082
 4790SOL    HW226007   4.009   1.699  16.300 -2.1087 -1.6529 -0.2173
 4791SOL     OW26008   0.666   1.589  12.834 -0.0024  0.7924  0.2549
 4791SOL    HW126009   0.714   1.606  12.915  1.0113  1.8865 -0.5741
 4791SOL    HW226010   0.593   1.649  12.848 -0.0809  0.0671  2.9079
 4792SOL     OW26011   2.505   4.584   3.370 -0.1326 -0.0389 -0.0026
 4792SOL    HW126012   2.561   4.661   3.372 -1.7417  1.1073  1.3157
 4792SOL    HW226013   2.516   4.549   3.281  2.9867 -0.4533  0.5694
 4793SOL     OW26014   2.072   3.553  12.830 -0.5743 -0.0214 -0.4538
 4793SOL    HW126015   2.072   3.464  12.863  1.7551  0.0441 -0.2443
 4793SOL    HW226016   2.136   3.553  12.758  1.1484  1.1278  1.0626
 4794SOL     OW26017   3.550   3.627  15.764 -0.5591  0.4840 -0.0919
 4794SOL    HW126018   3.594   3.669  15.838  0.0090  0.3903 -0.3784
 4794SOL    HW226019   3.562   3.536  15.791  2.5270  0.4181 -1.7936
 4795SOL     OW26020   2.323   0.470   9.577  0.7259 -0.2802  0.0784
 4795SOL    HW126021   2.399   0.523   9.601  1.5272 -1.1412 -0.5851
 4795SOL    HW226022   2.315   0.499   9.486  0.5474  1.1698  0.5489
 4796SOL     OW26023   2.477   2.624   6.026 -0.1622  0.0864 -0.1425
 4796SOL    HW126024   2.427   2.652   6.103 -0.7811 -0.3209 -0.3955
 4796SOL    HW226025   2.534   2.556   6.061 -2.3664 -1.5474  0.2360
 4797SOL     OW26026   0.494   2.452   2.051 -0.8521  0.1087 -0.2536
 4797SOL    HW126027   0.452   2.506   2.119 -1.6984 -1.2476  0.3023
 4797SOL    HW226028   0.588   2.463   2.066 -0.9139 -0.5034  0.6290
 4798SOL     OW26029   0.326   4.704   3.757 -0.0952 -0.4870 -0.1524
 4798SOL    HW126030   0.383   0.006   3.691  0.5210 -0.2027  0.5455
 4798SOL    HW226031   0.374   4.621   3.761 -0.0514 -0.5005 -0.9507
 4799SOL     OW26032   3.509   4.303   2.204  0.1269  0.0279 -0.1787
 4799SOL    HW126033   3.493   4.236   2.271  1.2037 -0.5267 -0.4823
 4799SOL    HW226034   3.425   4.340   2.180 -0.5721 -0.6818  1.1606
 4800SOL     OW26035   3.201   0.678   5.187 -0.4401  0.1035 -0.5073
 4800SOL    HW126036   3.240   0.591   5.175 -0.5620  0.2145 -1.7054
 4800SOL    HW226037   3.256   0.720   5.121 -0.6017 -0.8609 -1.2438
 4801SOL     OW26038   3.031   1.055   5.487  0.3403 -0.1857 -0.2190
 4801SOL    HW126039   2.993   1.004   5.558 -0.0034  0.4999  0.0838
 4801SOL    HW226040   3.093   0.988   5.458  0.4561  0.2374 -0.9527
 4802SOL     OW26041   0.590   4.159   5.996 -0.1499 -0.2610  0.1252
 4802SOL    HW126042   0.647   4.211   5.940 -0.1495 -0.3910  0.0019
 4802SOL    HW226043   0.565   4.223   6.062  0.2176  0.9590 -0.9088
 4803SOL     OW26044   3.014   2.890  15.916 -0.1526  0.0693  0.2452
 4803SOL    HW126045   2.982   2.922  15.831 -2.8425 -2.0496  0.4500
 4803SOL    HW226046   2.930   2.881  15.962 -0.9322  2.6286 -0.7008
 4804SOL     OW26047   4.427   2.757   4.771 -0.2985  0.3486  0.8754
 4804SOL    HW126048   4.403   2.691   4.706  0.2697  1.8981 -0.9209
 4804SOL    HW226049   4.461   2.824   4.711 -2.0817  0.9963  0.6038
 4805SOL     OW26050   4.540   2.304   5.967  0.3890  0.1069 -0.0184
 4805SOL    HW126051   4.605   2.267   5.907  0.8899 -0.1131  0.6598
 4805SOL    HW226052   4.466   2.255   5.933  0.6859 -1.9662  2.3254
 4806SOL     OW26053   0.136   3.631   4.156 -0.3859 -0.4703  0.0298
 4806SOL    HW126054   0.201   3.701   4.167  2.0960 -2.7174 -0.2605
 4806SOL    HW226055   0.174   3.588   4.078  0.2791  0.6260 -0.2484
 4807SOL     OW26056   0.724   3.276   4.052 -0.1144 -0.3153  0.5995
 4807SOL    HW126057   0.805   3.287   4.102 -0.8156  2.9895  1.0318
 4807SOL    HW226058   0.682   3.359   4.078  2.4947  1.4754 -0.8473
 4808SOL     OW26059   2.058   4.160   2.170  0.0661 -0.0472 -0.6475
 4808SOL    HW126060   2.141   4.207   2.157  0.6732 -0.2405  2.4056
 4808SOL    HW226061   2.094   4.074   2.192  0.8817  0.6905  0.9033
 4809SOL     OW26062   1.766   0.893   1.117  0.2155  0.3141 -0.2239
 4809SOL    HW126063   1.804   0.980   1.105 -0.6661  0.6312 -0.7050
 4809SOL    HW226064   1.816   0.858   1.191  2.2634  2.4998 -0.6031
 4810SOL     OW26065   1.399   2.295   2.037 -0.5448  0.2428 -0.1726
 4810SOL    HW126066   1.319   2.343   2.054 -0.7935 -0.2033 -0.0909
 4810SOL    HW226067   1.382   2.211   2.080 -0.8617  0.0184 -0.7363
 4811SOL     OW26068   3.255   2.945  15.666  0.3510  0.0100  0.6909
 4811SOL    HW126069   3.274   3.038  15.677 -1.8808  0.5132  0.2630
 4811SOL    HW226070   3.162   2.954  15.685  0.3203 -1.5058  1.2820
 4812SOL     OW26071   3.377   0.778   5.004 -0.1433  0.3232  0.1449
 4812SOL    HW126072   3.452   0.818   5.048  0.5494  0.2546 -0.9837
 4812SOL    HW226073   3.418   0.703   4.960 -1.8625 -0.5617  0.0597
 4813SOL     OW26074   2.430   4.177   1.790 -0.2270 -0.6320 -0.3159
 4813SOL    HW126075   2.359   4.197   1.730 -1.5060 -1.0322  1.0625
 4813SOL    HW226076   2.395   4.099   1.833  1.3369 -0.1207  1.9181
 4814SOL     OW26077   4.636   0.804   4.963 -0.4613  0.4724 -0.5465
 4814SOL    HW126078   4.548   0.774   4.986 -0.4452  1.1366  0.3385
 4814SOL    HW226079   4.678   0.720   4.942  1.0785  1.7309 -2.5289
 4815SOL     OW26080   1.294   3.655  16.876 -0.0677  0.4302  0.6634
 4815SOL    HW126081   1.371   3.654  16.819 -0.5788 -1.8673  0.0173
 4815SOL    HW226082   1.295   3.751  16.878  1.5263  0.4540 -0.6888
 4816SOL     OW26083   2.979   1.312   8.114 -0.5736 -0.4760 -0.0185
 4816SOL    HW126084   3.017   1.224   8.109 -2.7616 -1.4504  0.4178
 4816SOL    HW226085   3.047   1.371   8.082 -1.8427  1.2893  0.5423
 4817SOL     OW26086   0.134   2.851   4.658 -0.3384 -0.1602 -0.6616
 4817SOL    HW126087   0.110   2.795   4.731 -0.6690  1.5938  0.5924
 4817SOL    HW226088   0.053   2.881   4.617 -1.0396  0.6705  1.3295
 4818SOL     OW26089   4.397   2.015   1.694  0.6015  0.3713  0.2742
 4818SOL    HW126090   4.446   1.938   1.723 -1.3521 -1.1084 -0.3261
 4818SOL    HW226091   4.353   2.052   1.770 -0.1388 -1.3280  0.6735
 4819SOL     OW26092   0.722   3.415  15.611  0.4016  0.7413  0.0540
 4819SOL    HW126093   0.724   3.454  15.699  1.9204  1.1582 -0.1605
 4819SOL    HW226094   0.730   3.320  15.621 -0.2039  0.6266 -0.5895
 4820SOL     OW26095   0.793   3.518   5.900  0.0182 -0.0904 -0.0836
 4820SOL    HW126096   0.759   3.432   5.876 -1.0500  0.2616  0.1835
 4820SOL    HW226097   0.872   3.523   5.846  0.1402  0.3193  0.1347
 4821SOL     OW26098   3.033   0.978   8.094  1.0492  0.1501 -0.2620
 4821SOL    HW126099   2.983   0.898   8.113  2.2445 -0.9895 -1.8427
 4821SOL    HW226100   3.041   1.011   8.184 -1.0150 -1.5008  0.5265
 4822SOL     OW26101   1.871   1.208  16.945 -0.0296  0.2752 -0.5098
 4822SOL    HW126102   1.821   1.144  16.893  0.3179 -1.2766  1.0555
 4822SOL    HW226103   1.800   1.272  16.948 -1.3823 -1.2523  0.1596
 4823SOL     OW26104   1.345   2.566   3.167  0.3380  0.0052  0.4568
 4823SOL    HW126105   1.344   2.480   3.210 -0.5746  0.3379  1.0958
 4823SOL    HW226106   1.377   2.542   3.080 -0.6154  1.9297 -0.4289
 4824SOL     OW26107   0.477   1.277   5.128 -0.4797  0.2670  0.3708
 4824SOL    HW126108   0.389   1.306   5.150 -0.4365  3.3592 -3.4555
 4824SOL    HW226109   0.517   1.266   5.215 -2.6659  0.4141  1.3970
 4825SOL     OW26110   3.415   4.059   3.456 -0.2323  0.0550  0.0191
 4825SOL    HW126111   3.411   3.979   3.403 -0.0496  0.5167 -0.6923
 4825SOL    HW226112   3.488   4.047   3.516  1.2022  0.8037 -1.5727
 4826SOL     OW26113   0.347   1.222   0.499  0.3393  0.4220 -0.1804
 4826SOL    HW126114   0.311   1.200   0.413 -2.7721 -0.2285  1.3119
 4826SOL    HW226115   0.380   1.137   0.527 -2.2276 -0.5184  0.0214
 4827SOL     OW26116   1.346   1.058   0.600  0.2018 -0.3602 -0.0880
 4827SOL    HW126117   1.381   1.137   0.640 -1.6929  0.0648  0.7194
 4827SOL    HW226118   1.412   0.995   0.631  0.2912 -0.0190  0.4113
 4828SOL     OW26119   1.316   0.223  11.751 -0.6191 -0.1947  0.2357
 4828SOL    HW126120   1.298   0.130  11.760 -1.0089  0.2090  3.9013
 4828SOL    HW226121   1.364   0.245  11.831  0.7012  4.2388 -1.8010
 4829SOL     OW26122   4.490   2.769   7.863  0.2726 -0.5803  0.6079
 4829SOL    HW126123   4.554   2.697   7.867  0.2480 -0.7574 -2.3349
 4829SOL    HW226124   4.547   2.843   7.844 -1.9281  1.0365  0.3445
 4830SOL     OW26125   1.979   3.560  16.155  0.2876 -0.1096 -0.0241
 4830SOL    HW126126   1.977   3.619  16.080  0.9358 -1.9856 -1.5171
 4830SOL    HW226127   2.066   3.578  16.190  0.8265  2.1725 -2.5332
 4831SOL     OW26128   4.408   4.529   2.776  0.3879  0.2919 -0.6236
 4831SOL    HW126129   4.449   4.594   2.834 -2.6870  0.6426  1.2010
 4831SOL    HW226130   4.401   4.455   2.837 -1.0436 -0.8893 -2.2214
 4832SOL     OW26131   1.208   1.893  17.080  0.0659  0.5645  0.4594
 4832SOL    HW126132   1.196   1.941  16.998  0.6624 -0.0108  0.0403
 4832SOL    HW226133   1.283   1.843  17.048 -0.0803  1.5360 -1.3744
 4833SOL     OW26134   3.621   2.787  14.194  0.1939  0.1597 -0.0735
 4833SOL    HW126135   3.670   2.735  14.131  0.5762  0.1985  0.1947
 4833SOL    HW226136   3.558   2.722  14.225 -1.1499  0.7704 -1.5156
 4834SOL     OW26137   0.849   2.421   1.671  0.2837 -0.0408  0.0501
 4834SOL    HW126138   0.879   2.347   1.619 -0.9014  1.0437 -2.2070
 4834SOL    HW226139   0.906   2.495   1.650 -0.3817  0.6421  0.6424
 4835SOL     OW26140   0.563   1.657   6.587  0.0292  0.4634 -0.1587
 4835SOL    HW126141   0.564   1.750   6.606 -0.4902  0.5508 -0.5942
 4835SOL    HW226142   0.475   1.644   6.552 -0.8306 -0.1060  2.1623
 4836SOL     OW26143   4.487   3.419   7.879 -0.4662  0.5523 -0.2360
 4836SOL    HW126144   4.572   3.463   7.872  1.3402 -2.7808  0.5061
 4836SOL    HW226145   4.430   3.489   7.847  0.4954  1.4772  0.0641
 4837SOL     OW26146   0.957   2.763   5.609  0.0832  0.1495  0.1267
 4837SOL    HW126147   0.964   2.686   5.552 -0.7993  1.6069 -1.9487
 4837SOL    HW226148   1.009   2.827   5.560 -0.5172  1.3644  1.1031
 4838SOL     OW26149   2.796   0.103   4.777  0.3134 -0.2118  0.1056
 4838SOL    HW126150   2.781   0.193   4.805 -2.5834 -1.1016  1.4905
 4838SOL    HW226151   2.703   0.078   4.776  0.2790 -0.1317  1.5312
 4839SOL     OW26152   0.328   1.664  11.758  0.1056 -0.1198 -0.0010
 4839SOL    HW126153   0.324   1.637  11.666  0.2875 -1.8474  0.5009
 4839SOL    HW226154   0.422   1.685  11.762  0.1301 -0.3587  0.5957
 4840SOL     OW26155   2.323   0.683   0.182 -0.0412  0.4008  0.7434
 4840SOL    HW126156   2.320   0.761   0.238 -0.7515  0.3120  0.8247
 4840SOL    HW226157   2.265   0.700   0.107 -2.1823 -1.9009  1.8816
 4841SOL     OW26158   4.413   2.406   7.270  0.2469 -0.0195  0.2981
 4841SOL    HW126159   4.329   2.446   7.291 -0.3069 -0.8210 -0.3836
 4841SOL    HW226160   4.473   2.472   7.306  1.2708 -0.0501 -1.3093
 4842SOL     OW26161   1.292   4.353   2.436 -0.1147  0.1276 -0.4611
 4842SOL    HW126162   1.311   4.381   2.526  0.2890 -0.9892 -0.1928
 4842SOL    HW226163   1.297   4.435   2.386 -1.4244  0.1078 -0.6147
 4843SOL     OW26164   2.021   1.918   3.578  0.0090 -0.5618  0.5565
 4843SOL    HW126165   1.944   1.926   3.634  0.7162  2.4761  1.0978
 4843SOL    HW226166   2.058   2.006   3.564  0.1271 -0.7346 -0.2141
 4844SOL     OW26167   2.878   2.650   6.669  0.1782 -0.3130  0.3657
 4844SOL    HW126168   2.868   2.657   6.574 -1.2850  0.9617  0.6187
 4844SOL    HW226169   2.944   2.716   6.689  0.2449  0.2392 -1.6919
 4845SOL     OW26170   4.091   0.813  11.284 -0.1787 -0.1007 -0.1987
 4845SOL    HW126171   4.034   0.831  11.360 -0.5492 -1.0268 -0.2581
 4845SOL    HW226172   4.180   0.811  11.319  0.3293 -2.5501 -1.6638
 4846SOL     OW26173   4.557   1.775   7.547 -0.2471 -0.1252 -0.3898
 4846SOL    HW126174   4.607   1.765   7.465  0.2987 -5.5429  0.5935
 4846SOL    HW226175   4.625   1.744   7.607 -1.7214 -1.5891  0.5244
 4847SOL     OW26176   2.097   0.087  10.149  0.4833  0.5262  0.1939
 4847SOL    HW126177   2.045   0.076  10.229 -0.8619  0.0569 -0.7574
 4847SOL    HW226178   2.095   0.180  10.126 -0.5203  0.2613 -0.7445
 4848SOL     OW26179   3.303   1.619  14.213 -0.5099  0.1510 -0.4622
 4848SOL    HW126180   3.353   1.548  14.253  1.2600  2.0984  0.8285
 4848SOL    HW226181   3.373   1.686  14.217 -0.0245 -0.4556  1.0108
 4849SOL     OW26182   1.310   0.763  17.441 -0.3636  0.0933  0.1627
 4849SOL    HW126183   1.341   0.848  17.474 -0.2013 -0.5764  1.7265
 4849SOL    HW226184   1.344   0.763  17.351  0.9494  0.0950  0.6550
 4850SOL     OW26185   2.370   2.021   2.328  0.2616  0.1982 -0.4333
 4850SOL    HW126186   2.350   2.015   2.421 -0.7790  1.3027 -0.5794
 4850SOL    HW226187   2.311   2.089   2.294 -0.7891 -1.2830 -1.6122
 4851SOL     OW26188   2.033   4.293  16.291 -0.0800 -0.0083 -0.4885
 4851SOL    HW126189   2.024   4.259  16.380  0.2448 -0.7330 -0.7360
 4851SOL    HW226190   2.120   4.261  16.267  0.0316 -0.1473  0.1050
 4852SOL     OW26191   2.194   1.317  11.130  0.2755  0.1891  0.2210
 4852SOL    HW126192   2.248   1.271  11.066 -0.2452 -0.0299 -0.0562
 4852SOL    HW226193   2.106   1.282  11.114  0.0394  0.9316 -0.0750
 4853SOL     OW26194   4.601   4.046  17.008  0.1282 -0.4441  0.5394
 4853SOL    HW126195   4.621   4.084  17.093 -0.5030  0.7131  0.1679
 4853SOL    HW226196   4.519   4.090  16.988  1.3456  0.7334 -1.9004
 4854SOL     OW26197   0.269   1.259  10.164  0.3347 -0.3115  0.3929
 4854SOL    HW126198   0.351   1.270  10.117  0.5045  2.5219  1.4004
 4854SOL    HW226199   0.254   1.344  10.206 -1.5703 -1.2703  1.6791
 4855SOL     OW26200   2.035   4.169   8.997  0.3407  0.2809 -0.2290
 4855SOL    HW126201   2.064   4.184   8.907  0.2802  1.0788 -0.1132
 4855SOL    HW226202   2.017   4.257   9.031 -1.5393 -0.0691 -0.3654
 4856SOL     OW26203   2.668   0.668   6.920  0.3257  0.0205 -0.1089
 4856SOL    HW126204   2.607   0.614   6.870  1.8752 -1.1654 -0.7279
 4856SOL    HW226205   2.708   0.607   6.982  0.1251 -0.6387 -0.6276
 4857SOL     OW26206   3.153   1.695   4.023  0.2176  0.2715  0.0484
 4857SOL    HW126207   3.214   1.696   3.949  1.8147 -2.0679  1.3513
 4857SOL    HW226208   3.199   1.745   4.090 -0.8443  0.7356  0.4446
 4858SOL     OW26209   1.264   3.206   4.655 -0.0083  0.2191  0.3730
 4858SOL    HW126210   1.264   3.246   4.568  1.5268  0.1370  0.3368
 4858SOL    HW226211   1.177   3.226   4.689 -0.6799 -0.9801 -0.6183
 4859SOL     OW26212   0.439   2.570   4.791 -0.4244  0.3364  0.3092
 4859SOL    HW126213   0.530   2.598   4.803 -0.2458  0.5369 -1.4550
 4859SOL    HW226214   0.407   2.622   4.717 -0.9722  0.6753  0.7894
 4860SOL     OW26215   4.698   3.794  17.108  0.3173  0.5508 -0.2905
 4860SOL    HW126216   0.031   3.791  17.041 -0.0769 -1.5274 -0.5864
 4860SOL    HW226217   4.657   3.878  17.087  0.0453  0.2900 -0.7869
 4861SOL     OW26218   0.262   0.035  17.665 -0.2898 -0.4538  0.3490
 4861SOL    HW126219   0.256   0.075  17.579 -1.9818 -0.1693  0.5843
 4861SOL    HW226220   0.221   4.684  17.659 -1.2608  0.1259 -1.3638
 4862SOL     OW26221   1.201   1.009   3.028  0.6741  0.0544  0.2626
 4862SOL    HW126222   1.122   0.981   2.981  0.9022  0.7978 -0.5825
 4862SOL    HW226223   1.245   0.935   3.068  0.5542 -0.6060 -0.8238
 4863SOL     OW26224   0.684   2.137  14.215 -0.0068 -0.1856  0.2259
 4863SOL    HW126225   0.738   2.215  14.231 -1.1359  0.0680  2.7405
 4863SOL    HW226226   0.710   2.075  14.283 -1.5914 -3.1105 -1.8238
 4864SOL     OW26227   2.510   0.339   5.742 -0.2659  0.5591  0.0574
 4864SOL    HW126228   2.522   0.351   5.648  1.7848 -0.5840  0.1725
 4864SOL    HW226229   2.415   0.332   5.749 -0.1693 -0.0889  0.7962
 4865SOL     OW26230   3.850   2.106   3.041  0.1835 -0.5569 -0.6910
 4865SOL    HW126231   3.836   2.200   3.033 -0.3917 -0.7731 -2.2428
 4865SOL    HW226232   3.801   2.074   2.965 -0.4186 -1.2658 -0.0110
 4866SOL     OW26233   4.085   4.442   5.013  0.6143  0.2066  0.0294
 4866SOL    HW126234   4.163   4.395   5.045 -0.8219 -2.7609 -0.8271
 4866SOL    HW226235   4.013   4.390   5.047  0.3864  0.3475 -0.2363
 4867SOL     OW26236   3.964   2.262   6.799 -0.0676  0.4246 -0.1475
 4867SOL    HW126237   4.041   2.212   6.770  0.0650  0.6548 -0.1902
 4867SOL    HW226238   3.947   2.323   6.728 -2.2239  1.0123  0.8643
 4868SOL     OW26239   1.874   0.958   8.652  0.1395 -0.3851  0.4208
 4868SOL    HW126240   1.852   1.049   8.669  0.1864  0.0360 -1.7963
 4868SOL    HW226241   1.786   0.928   8.633 -0.1095  0.3857  0.3924
 4869SOL     OW26242   3.753   0.387   6.551 -0.0593 -0.1745  0.6707
 4869SOL    HW126243   3.837   0.387   6.505 -1.3242 -0.9251 -1.6164
 4869SOL    HW226244   3.728   0.477   6.530  0.9165 -0.5528 -2.1027
 4870SOL     OW26245   1.107   1.661  14.620 -0.1293  0.0991  0.0109
 4870SOL    HW126246   1.156   1.742  14.638 -0.8772  0.7810 -1.0781
 4870SOL    HW226247   1.095   1.628  14.710  1.0524  1.5312  0.7018
 4871SOL     OW26248   3.050   1.437  12.265  0.1781  0.2302  0.2014
 4871SOL    HW126249   3.039   1.515  12.319  0.6569  1.3962 -1.4194
 4871SOL    HW226250   2.957   1.418  12.256  0.5069 -1.4262  0.2676
 4872SOL     OW26251   0.029   4.503   4.299  0.6038 -0.3931  0.3926
 4872SOL    HW126252   4.674   4.528   4.283  0.9517  1.2974  1.0970
 4872SOL    HW226253   0.050   4.559   4.373  0.7260  2.3365 -1.6981
 4873SOL     OW26254   1.779   3.524   4.389  1.0569 -0.8251 -0.0248
 4873SOL    HW126255   1.703   3.480   4.426  0.4511  0.4839  0.2616
 4873SOL    HW226256   1.769   3.508   4.295 -0.0730  0.8555 -0.1851
 4874SOL     OW26257   1.911   2.896  14.299 -0.2960  0.1267  0.1304
 4874SOL    HW126258   1.970   2.971  14.299  0.0152 -0.1138 -0.5071
 4874SOL    HW226259   1.912   2.869  14.391 -2.6579 -0.0825  0.1000
 4875SOL     OW26260   0.989   1.412  12.544  0.0160 -0.9753  0.0130
 4875SOL    HW126261   0.956   1.386  12.630  0.9994 -0.8227  0.4410
 4875SOL    HW226262   1.055   1.350  12.514  1.0690 -0.7367  1.8368
 4876SOL     OW26263   0.523   3.582  14.143  0.4985 -0.1645 -0.0994
 4876SOL    HW126264   0.503   3.663  14.190  1.1209 -0.6960  1.0889
 4876SOL    HW226265   0.547   3.527  14.218  2.9101 -1.3054 -1.6994
 4877SOL     OW26266   0.198   1.054   7.185 -0.2180  0.2683 -0.1293
 4877SOL    HW126267   0.235   1.071   7.272  0.3179 -1.5223 -0.0036
 4877SOL    HW226268   0.105   1.036   7.199 -0.7490  1.6349 -1.9127
 4878SOL     OW26269   1.501   2.685   0.077  0.0675 -0.1279  0.3225
 4878SOL    HW126270   1.533   2.654   0.162 -0.2971  2.3992  1.3922
 4878SOL    HW226271   1.579   2.729   0.044  0.6987 -0.6081  1.1914
 4879SOL     OW26272   0.582   3.064   3.474  0.1322  0.9708  0.0586
 4879SOL    HW126273   0.580   2.980   3.427 -0.0268  1.1293 -0.2185
 4879SOL    HW226274   0.499   3.052   3.520  0.9115  2.3723  1.8094
 4880SOL     OW26275   4.058   0.325  10.460  0.1279 -0.6772 -0.3819
 4880SOL    HW126276   4.104   0.243  10.443 -0.5261 -1.1467  0.0756
 4880SOL    HW226277   3.979   0.317  10.407 -0.9437  0.3799  1.0391
 4881SOL     OW26278   0.194   1.890   6.474 -0.2617  0.1740 -0.2375
 4881SOL    HW126279   0.252   1.892   6.550  0.3071 -0.8330 -0.6493
 4881SOL    HW226280   0.128   1.956   6.495  1.4494  1.5501  0.8722
 4882SOL     OW26281   0.533   4.320  16.870  0.7748  0.1053 -0.6510
 4882SOL    HW126282   0.610   4.298  16.818 -0.3421 -3.2278 -0.8868
 4882SOL    HW226283   0.492   4.398  16.833  1.7859  0.9810  0.0913
 4883SOL     OW26284   3.684   0.169   7.964 -0.1601  0.1642 -0.0372
 4883SOL    HW126285   3.643   0.184   7.879 -0.3161  0.0575  0.0189
 4883SOL    HW226286   3.756   0.106   7.954 -0.2041 -0.0848  1.2344
 4884SOL     OW26287   2.343   1.083   0.813 -0.0498 -0.2230 -0.3359
 4884SOL    HW126288   2.253   1.100   0.842 -0.7552 -0.9018 -2.1190
 4884SOL    HW226289   2.334   1.120   0.726 -1.0294 -0.3312 -0.2795
 4885SOL     OW26290   3.746   1.215   3.965  0.4669 -0.0581  0.0070
 4885SOL    HW126291   3.800   1.142   3.996  2.8914  0.0982 -3.8753
 4885SOL    HW226292   3.767   1.267   4.042  1.8007  0.4270 -0.6951
 4886SOL     OW26293   1.033   2.217   4.282 -0.0343  0.0359  0.0146
 4886SOL    HW126294   1.127   2.200   4.276 -0.1153  0.5962 -2.6835
 4886SOL    HW226295   1.007   2.249   4.196 -0.2905 -0.2962 -0.0300
 4887SOL     OW26296   4.395   0.982   6.872 -0.3455  0.1099  0.2722
 4887SOL    HW126297   4.469   0.994   6.813 -1.3959  1.4669 -0.7544
 4887SOL    HW226298   4.387   0.887   6.866 -1.3005  0.2933 -1.2075
 4888SOL     OW26299   0.827   4.047   2.322 -0.0205  0.6872  0.1491
 4888SOL    HW126300   0.742   4.004   2.327 -0.5231  1.4130 -2.2848
 4888SOL    HW226301   0.827   4.086   2.409  0.4609  1.2078 -0.0831
 4889SOL     OW26302   2.673   0.359   8.269  0.0026  0.4619 -0.0447
 4889SOL    HW126303   2.757   0.330   8.306  0.8753  2.2574 -0.5766
 4889SOL    HW226304   2.615   0.293   8.307 -0.7762  0.2345 -1.6656
 4890SOL     OW26305   0.015   0.701   4.601 -0.0829 -0.0584  0.0354
 4890SOL    HW126306   4.704   0.780   4.626 -1.4840 -0.6485 -0.7421
 4890SOL    HW226307   4.686   0.641   4.562  0.5712  0.2214 -1.4985
 4891SOL     OW26308   4.169   2.178   6.631 -0.0799 -0.4705 -0.3469
 4891SOL    HW126309   4.196   2.261   6.593 -0.2960 -0.8808 -1.3759
 4891SOL    HW226310   4.254   2.135   6.643 -0.1893 -0.4874  0.3951
 4892SOL     OW26311   3.986   4.053   3.300  0.1018  0.0664  0.4657
 4892SOL    HW126312   3.990   4.052   3.204  0.3989  1.0100  0.4655
 4892SOL    HW226313   4.013   4.144   3.312  0.3792  0.1865 -1.0319
 4893SOL     OW26314   2.121   4.350   8.087 -0.4206 -0.1405  0.0669
 4893SOL    HW126315   2.200   4.401   8.071  0.8477 -1.7520  1.1712
 4893SOL    HW226316   2.075   4.421   8.132  2.3208  4.1816 -4.0492
 4894SOL     OW26317   3.465   3.850   6.383 -0.0825  0.0900  0.4283
 4894SOL    HW126318   3.515   3.825   6.461  0.5439  0.3639  0.1120
 4894SOL    HW226319   3.479   3.772   6.329  0.0226 -0.2646  0.9683
 4895SOL     OW26320   4.176   2.113   5.573  0.9919 -0.1052  0.0470
 4895SOL    HW126321   4.230   2.180   5.531 -0.8140  0.0984 -1.9403
 4895SOL    HW226322   4.188   2.043   5.509 -1.1362  0.4556 -0.9799
 4896SOL     OW26323   3.747   2.891  17.673  0.2292  0.2049 -0.4416
 4896SOL    HW126324   3.839   2.918  17.667  0.1712  0.2159 -1.3314
 4896SOL    HW226325   3.763   2.796  17.667 -0.2420  0.0430  0.9563
 4897SOL     OW26326   2.746   0.544   5.138  0.4130 -0.2252  0.1736
 4897SOL    HW126327   2.803   0.586   5.202 -0.6793 -0.3944  1.2487
 4897SOL    HW226328   2.714   0.465   5.182 -0.5927 -0.6955 -1.4027
 4898SOL     OW26329   0.291   3.523  13.919 -0.2496  0.6898 -0.2349
 4898SOL    HW126330   0.378   3.557  13.943  0.0743  0.6286 -1.3245
 4898SOL    HW226331   0.234   3.553  13.990 -0.4158  0.1216 -0.1243
 4899SOL     OW26332   2.406   1.397   3.427  0.3442  0.3637  0.3157
 4899SOL    HW126333   2.470   1.436   3.486  1.5667  1.3726 -1.7056
 4899SOL    HW226334   2.453   1.340   3.367 -0.2176 -0.3355  0.5382
 4900SOL     OW26335   0.751   4.724   7.085  0.6599 -0.2324 -0.0567
 4900SOL    HW126336   0.720   4.703   7.173  1.1311 -1.5985 -0.2074
 4900SOL    HW226337   0.683   0.041   7.044  1.4173  0.8430  0.0848
 4901SOL     OW26338   1.223   4.036   8.379  0.8381 -0.1013 -0.2186
 4901SOL    HW126339   1.288   4.097   8.344  1.4150 -0.7718 -0.3137
 4901SOL    HW226340   1.141   4.080   8.357 -1.0421 -4.0409 -1.1684
 4902SOL     OW26341   0.820   2.065   3.457  0.0206  0.5503  1.1706
 4902SOL    HW126342   0.765   1.988   3.442  1.6675 -0.4684  0.3815
 4902SOL    HW226343   0.866   2.078   3.374 -2.3931  0.3023 -0.1856
 4903SOL     OW26344   2.727   0.863   5.600 -0.2413  0.0807 -0.0193
 4903SOL    HW126345   2.691   0.810   5.672 -0.5319  0.8910  0.4265
 4903SOL    HW226346   2.815   0.876   5.637  0.4652 -0.8764 -1.3637
 4904SOL     OW26347   1.459   0.854   6.531  0.2528  0.2209 -0.2648
 4904SOL    HW126348   1.481   0.904   6.452 -0.9037  0.2264 -0.5825
 4904SOL    HW226349   1.471   0.927   6.593  1.9203 -1.1394  1.0090
 4905SOL     OW26350   2.370   0.028  16.193 -0.5461 -0.6489  0.2407
 4905SOL    HW126351   2.302   0.094  16.209 -0.4663 -0.7293  0.9085
 4905SOL    HW226352   2.441   0.044  16.255  0.1803 -1.1545 -0.4605
 4906SOL     OW26353   2.574   3.350   7.068 -0.0789  0.3792  0.3070
 4906SOL    HW126354   2.520   3.413   7.116 -1.5478  0.3108 -1.2654
 4906SOL    HW226355   2.563   3.271   7.120  1.1711 -1.2149 -1.8739
 4907SOL     OW26356   0.468   2.699   6.597  0.5078 -0.2176  0.0952
 4907SOL    HW126357   0.426   2.785   6.586  2.3483  0.7796  0.7484
 4907SOL    HW226358   0.403   2.653   6.651  1.2066 -2.7513 -1.2439
 4908SOL     OW26359   1.572   4.130   1.984 -0.0883 -0.3695 -0.3593
 4908SOL    HW126360   1.633   4.058   2.000  1.0070  1.0671  1.8980
 4908SOL    HW226361   1.574   4.153   2.077 -0.5417  2.4537 -1.0334
 4909SOL     OW26362   0.004   0.585   2.775 -0.0550 -0.2188  0.0517
 4909SOL    HW126363   0.049   0.652   2.825 -1.1088  0.4740  0.0750
 4909SOL    HW226364   4.655   0.628   2.785  0.4038  0.6589  0.1602
 4910SOL     OW26365   2.477   3.144   3.695  0.0924  0.3279 -0.2833
 4910SOL    HW126366   2.399   3.197   3.711 -0.9885 -2.1431  2.6297
 4910SOL    HW226367   2.499   3.182   3.609  0.0413 -0.5432 -0.6842
 4911SOL     OW26368   0.752   2.208  14.515  0.0561 -0.0889 -0.4804
 4911SOL    HW126369   0.846   2.188  14.523  0.1728  1.0088  0.9409
 4911SOL    HW226370   0.750   2.263  14.436 -0.0102 -1.4191 -1.4092
 4912SOL     OW26371   2.851   1.989   7.343 -0.7265 -0.0227  0.4985
 4912SOL    HW126372   2.886   1.902   7.326 -0.1868 -0.1514  2.2397
 4912SOL    HW226373   2.899   2.043   7.280 -0.3155 -0.7814  0.1667
 4913SOL     OW26374   1.609   0.353   0.575  0.4994  0.2779  0.3187
 4913SOL    HW126375   1.521   0.354   0.613  0.6812 -0.2999  0.7573
 4913SOL    HW226376   1.641   0.443   0.581  0.1817  0.1926  3.0864
 4914SOL     OW26377   4.053   0.384   8.234  0.3260  1.0382  0.3890
 4914SOL    HW126378   4.121   0.372   8.168 -0.5022 -1.3876 -0.0269
 4914SOL    HW226379   4.071   0.317   8.299  0.0866  1.6266  1.0636
 4915SOL     OW26380   3.096   2.660   1.729 -0.3715  0.0337 -0.4825
 4915SOL    HW126381   3.181   2.618   1.733 -1.0636 -1.0741  2.5581
 4915SOL    HW226382   3.062   2.625   1.646  0.0438  0.7431 -0.9587
 4916SOL     OW26383   2.909   0.180   0.596 -0.3035  0.4700 -0.4814
 4916SOL    HW126384   2.867   0.150   0.516 -0.6862 -1.1566  0.3200
 4916SOL    HW226385   2.957   0.100   0.617  0.0569  0.9777  0.6875
 4917SOL     OW26386   1.349   2.351   5.305  0.1347 -0.2919  0.4355
 4917SOL    HW126387   1.278   2.294   5.276  0.8681 -0.0345 -1.8903
 4917SOL    HW226388   1.365   2.311   5.390  0.4277  1.5988  1.2670
 4918SOL     OW26389   1.817   0.182   0.541  0.0250 -0.3131 -0.3601
 4918SOL    HW126390   1.756   0.253   0.561  0.6638  0.7414 -2.2616
 4918SOL    HW226391   1.806   0.144   0.629 -0.3638 -1.1482 -0.7679
 4919SOL     OW26392   2.755   4.296   5.740 -0.1988  0.2204  0.1209
 4919SOL    HW126393   2.739   4.236   5.813 -1.6798 -0.6469 -0.9311
 4919SOL    HW226394   2.760   4.229   5.672 -0.7131  1.0685 -0.7568
 4920SOL     OW26395   0.181   3.448   2.938  0.3224  0.1518  0.0242
 4920SOL    HW126396   0.168   3.521   2.998 -0.0058 -0.6800  0.9573
 4920SOL    HW226397   0.243   3.384   2.973  0.1173 -1.3871 -2.4517
 4921SOL     OW26398   0.741   2.368   6.426  0.7671 -0.4614  0.1488
 4921SOL    HW126399   0.798   2.420   6.369  0.7012 -0.3949  0.1431
 4921SOL    HW226400   0.808   2.315   6.468  0.8978 -1.9241 -1.8873
 4922SOL     OW26401   1.407   0.527   9.374  0.0477  0.5359 -0.2059
 4922SOL    HW126402   1.421   0.600   9.435 -0.1672 -0.5598  1.1631
 4922SOL    HW226403   1.361   0.565   9.300  0.1121 -0.9346 -1.0099
 4923SOL     OW26404   3.345   1.204   6.314  1.0411 -0.3230  0.9220
 4923SOL    HW126405   3.296   1.124   6.293 -1.4210  0.7928  2.4902
 4923SOL    HW226406   3.353   1.244   6.228  1.4035  0.9749  1.5667
 4924SOL     OW26407   0.401   0.087   4.078  0.3183  0.6558 -0.3243
 4924SOL    HW126408   0.480   0.043   4.045 -0.0987 -0.1476 -0.2426
 4924SOL    HW226409   0.332   0.022   4.066 -0.3437  1.1068  1.0491
 4925SOL     OW26410   1.940   2.263   1.185 -0.1320  0.7037  0.6003
 4925SOL    HW126411   1.948   2.309   1.269 -1.7130  1.2702  0.4270
 4925SOL    HW226412   1.909   2.336   1.132  0.7534 -1.2861 -2.6267
 4926SOL     OW26413   0.258   3.679   7.750  0.3158  0.4436  0.2595
 4926SOL    HW126414   0.179   3.714   7.710  0.2380  1.4165  1.2795
 4926SOL    HW226415   0.301   3.650   7.670 -4.2331 -1.6316 -1.4383
 4927SOL     OW26416   0.038   4.285   2.778 -0.1576  0.1341 -0.2831
 4927SOL    HW126417   0.073   4.335   2.703  1.3085  0.6686  0.7646
 4927SOL    HW226418   0.068   4.201   2.743 -0.4642  0.5831 -1.6379
 4928SOL     OW26419   2.846   2.593   8.016 -0.3970  0.3065 -0.4603
 4928SOL    HW126420   2.929   2.545   8.016 -1.4876 -1.5971 -0.7367
 4928SOL    HW226421   2.854   2.653   8.090  1.4932 -1.2256  0.5900
 4929SOL     OW26422   1.882   4.037   7.472 -0.0471 -0.5180  0.8807
 4929SOL    HW126423   1.832   3.988   7.406 -0.3690  0.3213  0.5011
 4929SOL    HW226424   1.893   3.971   7.541  0.8244  0.9994  2.1874
 4930SOL     OW26425   2.182   0.060   2.662 -0.0602  0.1582  0.2921
 4930SOL    HW126426   2.112   0.106   2.710 -0.1102 -1.2885  1.6094
 4930SOL    HW226427   2.236   0.043   2.740  0.9182  0.6982 -0.2742
 4931SOL     OW26428   1.953   3.391   7.886  0.3342 -0.1893 -0.3893
 4931SOL    HW126429   1.962   3.459   7.952  0.7335  1.3727 -2.0462
 4931SOL    HW226430   2.015   3.433   7.826 -1.6870 -0.3876 -2.6636
 4932SOL     OW26431   1.991   4.020   3.712  0.4106  0.1008 -0.0693
 4932SOL    HW126432   1.962   4.093   3.656  0.4092  1.6270  1.9186
 4932SOL    HW226433   2.031   4.062   3.788  1.3332 -0.7532 -0.0873
 4933SOL     OW26434   0.938   3.075   8.438  0.4693 -0.2255  0.5888
 4933SOL    HW126435   0.992   3.012   8.390 -2.5466 -2.0115 -0.4738
 4933SOL    HW226436   0.965   3.152   8.388  0.9122 -0.2661  0.7685
 4934SOL     OW26437   1.862   1.053   2.657  0.5187 -0.1480 -0.2055
 4934SOL    HW126438   1.836   1.029   2.746  3.4594 -1.8108  0.2334
 4934SOL    HW226439   1.803   1.122   2.627 -0.7254 -0.4243  1.6178
 4935SOL     OW26440   0.392   3.718   8.548 -0.4350 -0.1230  0.1672
 4935SOL    HW126441   0.413   3.801   8.507  0.2812 -0.7137 -0.6721
 4935SOL    HW226442   0.393   3.656   8.475 -1.7901 -0.1140  0.1487
 4936SOL     OW26443   2.012   1.920   4.343  0.4744  0.1982  0.1254
 4936SOL    HW126444   1.917   1.926   4.352  0.2468  0.0852 -2.1322
 4936SOL    HW226445   2.024   1.830   4.314  0.9246 -0.3221  1.9450
 4937SOL     OW26446   3.200   1.079  16.995  0.2558  0.3660  0.2654
 4937SOL    HW126447   3.117   1.127  16.990 -0.8464 -1.6254 -0.7779
 4937SOL    HW226448   3.247   1.138  17.053  1.7905  2.1380 -2.7677
 4938SOL     OW26449   1.342   2.843   7.199 -0.4027  0.0234  0.3474
 4938SOL    HW126450   1.295   2.805   7.125  1.1202 -1.3233  0.0624
 4938SOL    HW226451   1.408   2.900   7.159 -1.7593  0.2600 -1.5782
 4939SOL     OW26452   2.637   2.423   7.945 -0.1266  0.4222 -0.4362
 4939SOL    HW126453   2.713   2.482   7.945 -0.7112  1.1736  0.9664
 4939SOL    HW226454   2.676   2.336   7.933 -0.1922  0.3905 -0.4217
 4940SOL     OW26455   2.532   0.265  10.048 -0.1104 -0.7245  0.6904
 4940SOL    HW126456   2.562   0.283   9.959 -0.5612 -0.9726  0.4892
 4940SOL    HW226457   2.552   0.350  10.087 -1.8624  0.7708 -1.6748
 4941SOL     OW26458   1.410   3.681   6.105  0.0721 -0.1838  0.1693
 4941SOL    HW126459   1.488   3.658   6.155  0.7116  1.5690 -0.0147
 4941SOL    HW226460   1.350   3.727   6.164  0.3625  0.3607  0.0431
 4942SOL     OW26461   2.459   4.575   0.081 -0.0625 -0.1142  0.4777
 4942SOL    HW126462   2.526   4.604   0.142  0.1078  2.0634 -0.7505
 4942SOL    HW226463   2.402   4.526   0.141  2.0972 -1.1614  1.6717
 4943SOL     OW26464   1.897   3.589  14.399  0.6726  0.1973 -0.2225
 4943SOL    HW126465   1.858   3.673  14.419 -0.8264 -0.0134 -2.2311
 4943SOL    HW226466   1.951   3.616  14.325  1.3591 -0.0309  0.1893
 4944SOL     OW26467   2.920   2.441   7.697 -0.0492  0.2656  0.7358
 4944SOL    HW126468   2.967   2.397   7.769 -2.6940 -1.3318  1.5093
 4944SOL    HW226469   2.890   2.374   7.635  1.2595  1.0615 -0.7539
 4945SOL     OW26470   1.263   0.451   1.742 -0.2393  0.1864  0.2637
 4945SOL    HW126471   1.313   0.514   1.691 -2.7547  1.6493 -0.3880
 4945SOL    HW226472   1.259   0.497   1.826 -0.2191 -0.1376  0.4405
 4946SOL     OW26473   1.937   0.724   6.712 -0.4606 -0.2628 -0.3301
 4946SOL    HW126474   1.950   0.630   6.704 -1.1883 -0.3523 -0.4159
 4946SOL    HW226475   1.846   0.734   6.739 -0.2374  0.2590  0.2338
 4947SOL     OW26476   1.626   4.023   9.216  0.0002  0.2735 -0.6747
 4947SOL    HW126477   1.630   4.114   9.185 -0.6438 -0.1149 -1.8473
 4947SOL    HW226478   1.633   4.032   9.311  0.8712  0.2710 -0.7379
 4948SOL     OW26479   0.549   3.283  16.654 -0.0307  0.3120 -0.7221
 4948SOL    HW126480   0.542   3.249  16.744 -0.7899 -0.5850 -1.1159
 4948SOL    HW226481   0.640   3.256  16.641  0.1809  0.6906 -0.0402
 4949SOL     OW26482   2.761   3.265   2.955  0.0510 -0.7590 -0.6688
 4949SOL    HW126483   2.832   3.327   2.971 -0.5899 -0.3987  0.7909
 4949SOL    HW226484   2.703   3.318   2.901 -0.3137  0.5889  1.0525
 4950SOL     OW26485   0.579   4.652   2.611  0.1571  0.3990 -0.1737
 4950SOL    HW126486   0.509   4.675   2.550  0.4973 -0.0404 -0.7291
 4950SOL    HW226487   0.648   4.619   2.554  1.0087 -0.5095  1.3741
 4951SOL     OW26488   4.418   4.613   7.155 -0.3015  0.2156  0.2605
 4951SOL    HW126489   4.368   4.690   7.183 -0.2541 -0.4246  2.0698
 4951SOL    HW226490   4.463   4.591   7.236 -2.3462  0.7591  1.5515
 4952SOL     OW26491   1.327   4.150   2.274  0.6634 -0.4285  0.1055
 4952SOL    HW126492   1.354   4.206   2.201  2.5367  1.6682  2.4115
 4952SOL    HW226493   1.323   4.214   2.345 -0.4190  0.7703 -1.0514
 4953SOL     OW26494   0.092   4.572  14.809 -0.2033 -0.1720 -0.2055
 4953SOL    HW126495   0.162   4.550  14.870 -0.2466  3.1344  1.0084
 4953SOL    HW226496   0.062   4.655  14.846  1.7604  0.3376  0.2523
 4954SOL     OW26497   2.062   0.691   1.062  0.2359  0.7142 -0.3344
 4954SOL    HW126498   2.136   0.735   1.103  2.7402 -2.2412 -1.6562
 4954SOL    HW226499   2.057   0.741   0.981 -1.1655 -1.4562 -1.5890
 4955SOL     OW26500   4.266   1.648   7.743 -0.6683 -0.0444  0.3552
 4955SOL    HW126501   4.221   1.733   7.747 -2.8228 -1.0643 -2.1363
 4955SOL    HW226502   4.357   1.677   7.736  0.3709 -3.0498  1.4800
 4956SOL     OW26503   2.192   4.385  12.598 -0.4248 -0.2197 -0.2001
 4956SOL    HW126504   2.259   4.418  12.658  1.1542  0.5747 -2.4161
 4956SOL    HW226505   2.245   4.344  12.531 -1.0630 -1.0769 -0.1823
 4957SOL     OW26506   0.832   2.564   1.383  0.1108 -0.0940  0.4943
 4957SOL    HW126507   0.754   2.510   1.373 -0.3798  0.2515  2.4972
 4957SOL    HW226508   0.798   2.652   1.397  1.1926  0.2101  1.2316
 4958SOL     OW26509   1.015   0.546   7.497 -0.1939 -0.0326 -0.1905
 4958SOL    HW126510   1.085   0.484   7.474 -0.0595 -0.1738  0.5934
 4958SOL    HW226511   1.040   0.593   7.577  1.9876  1.2427 -1.6351
 4959SOL     OW26512   4.317   2.924   5.827 -0.0351 -0.1808 -0.2390
 4959SOL    HW126513   4.377   2.978   5.775  0.2148 -0.6110 -0.3974
 4959SOL    HW226514   4.318   2.834   5.795  1.6757 -0.9815  2.1280
 4960SOL     OW26515   2.877   3.910   1.364  0.4904  0.1865 -0.2504
 4960SOL    HW126516   2.889   3.974   1.434 -2.0390  0.8731 -0.4342
 4960SOL    HW226517   2.838   3.973   1.303 -0.2071  0.5361  0.5480
 4961SOL     OW26518   3.673   0.411   3.207 -0.2199 -0.1757  0.2751
 4961SOL    HW126519   3.581   0.401   3.231 -0.3020 -0.3315 -0.1061
 4961SOL    HW226520   3.697   0.504   3.206 -0.1020 -0.1994  0.6402
 4962SOL     OW26521   1.728   3.808   0.338 -0.5211  0.6001  0.5684
 4962SOL    HW126522   1.800   3.871   0.341 -1.3594  1.5701  0.2387
 4962SOL    HW226523   1.725   3.785   0.245 -0.2041  1.9279  0.2331
 4963SOL     OW26524   1.018   0.922  16.270  0.7009  0.1196  0.3433
 4963SOL    HW126525   1.072   0.883  16.338  1.6717 -2.2188 -1.7791
 4963SOL    HW226526   1.070   0.998  16.247  1.4122  0.2934  2.5713
 4964SOL     OW26527   1.522   3.395   5.156 -0.4585  0.1751  0.6000
 4964SOL    HW126528   1.473   3.447   5.220 -0.2706 -0.9382  1.6310
 4964SOL    HW226529   1.605   3.442   5.161 -1.6397  2.2496  0.6685
 4965SOL     OW26530   4.092   2.151   4.087  0.1197  0.3069  0.3005
 4965SOL    HW126531   4.077   2.175   3.996  2.5210  0.0387 -0.1734
 4965SOL    HW226532   4.184   2.124   4.092  0.0873 -0.2560 -2.1604
 4966SOL     OW26533   4.133   0.053   6.138  0.0410  0.6857  0.1977
 4966SOL    HW126534   4.147   0.124   6.075 -1.3658 -1.1284 -2.1540
 4966SOL    HW226535   4.154   4.715   6.082  0.8670  0.1614  1.2032
 4967SOL     OW26536   2.442   0.509  16.763 -0.0505 -0.0450  0.0764
 4967SOL    HW126537   2.375   0.536  16.700 -0.1495 -0.7710 -0.1292
 4967SOL    HW226538   2.450   0.415  16.743 -0.9610 -0.8357  3.3448
 4968SOL     OW26539   2.014   0.943   7.505  0.0753 -0.2821 -0.3439
 4968SOL    HW126540   2.051   0.867   7.549 -1.4910 -0.2066  1.0730
 4968SOL    HW226541   2.036   0.921   7.414  1.9043 -0.3772  0.1145
 4969SOL     OW26542   4.609   2.454   8.966  0.1985 -0.2705 -0.4062
 4969SOL    HW126543   4.598   2.412   9.051 -1.0679  2.7698  0.9315
 4969SOL    HW226544   4.608   2.378   8.907 -2.0167 -0.0369 -0.6749
 4970SOL     OW26545   2.598   3.955   6.935 -0.5386 -0.1666  0.0442
 4970SOL    HW126546   2.678   4.005   6.918 -1.5623  1.1289 -1.0611
 4970SOL    HW226547   2.534   4.023   6.956  1.4343  1.8186 -0.3036
 4971SOL     OW26548   2.385   0.439   1.841 -0.2282 -0.5460  0.1774
 4971SOL    HW126549   2.460   0.477   1.795 -0.9227  1.5283  0.7793
 4971SOL    HW226550   2.419   0.436   1.931  2.9440 -1.1049 -1.0381
 4972SOL     OW26551   0.403   1.539  10.011  0.0341  0.0452  0.3328
 4972SOL    HW126552   0.452   1.561   9.932 -0.4361  0.7685  0.2403
 4972SOL    HW226553   0.469   1.500  10.069 -0.7495 -0.0381  1.1760
 4973SOL     OW26554   4.688   1.076   4.972 -0.1774 -0.4151  0.0203
 4973SOL    HW126555   4.649   0.988   4.977  0.7078 -0.7596  0.8930
 4973SOL    HW226556   4.647   1.108   4.891  0.1585 -3.1101 -1.2254
 4974SOL     OW26557   0.611   1.923   0.929 -0.2310  0.5478 -0.7375
 4974SOL    HW126558   0.562   1.989   0.880 -1.9150  1.3199  2.0011
 4974SOL    HW226559   0.657   1.880   0.856  1.0772 -0.1584  0.5020
 4975SOL     OW26560   4.131   4.289   5.935  0.1116 -0.2245  0.7018
 4975SOL    HW126561   4.201   4.262   5.995  1.1994 -1.2751 -1.0153
 4975SOL    HW226562   4.091   4.209   5.903  1.5745 -0.7675  0.1931
 4976SOL     OW26563   2.721   0.090  11.836 -0.1058 -0.3098  0.2483
 4976SOL    HW126564   2.785   0.161  11.830  0.2571 -0.6103  0.5281
 4976SOL    HW226565   2.759   0.031  11.901  2.2614  0.2280 -0.6486
 4977SOL     OW26566   3.800   1.730   6.475 -0.0097  0.0219  0.0560
 4977SOL    HW126567   3.794   1.798   6.408  0.9580 -0.3830 -0.4567
 4977SOL    HW226568   3.766   1.660   6.419 -1.4120 -0.0459  1.0066
 4978SOL     OW26569   4.552   3.235  11.824  0.3277 -0.7053  0.2100
 4978SOL    HW126570   4.486   3.174  11.856  0.3671 -1.5512 -1.3124
 4978SOL    HW226571   4.619   3.186  11.776  1.0009 -0.1329  0.5635
 4979SOL     OW26572   2.129   3.786   3.708  0.0808  0.2576 -0.4987
 4979SOL    HW126573   2.081   3.869   3.703 -1.6681 -0.7385 -0.1171
 4979SOL    HW226574   2.083   3.741   3.778 -0.5798  0.2973 -0.9082
 4980SOL     OW26575   3.055   2.181  13.127  0.0120 -0.2982  0.3881
 4980SOL    HW126576   3.147   2.167  13.103  0.0638 -0.5104  0.7009
 4980SOL    HW226577   3.013   2.109  13.081  0.8442 -0.4244 -0.1731
 4981SOL     OW26578   3.526   0.074   2.594 -0.3413 -0.7701  0.1082
 4981SOL    HW126579   3.620   0.071   2.573 -0.3252  1.1050 -0.0590
 4981SOL    HW226580   3.508   4.716   2.590  1.1593 -1.0142 -1.2763
 4982SOL     OW26581   0.965   4.206  11.002 -0.1506 -0.1212 -0.2194
 4982SOL    HW126582   0.878   4.208  11.044 -0.6815  0.7695 -1.3756
 4982SOL    HW226583   1.020   4.181  11.076 -1.9901 -0.7149  0.9754
 4983SOL     OW26584   3.719   0.615   1.911  0.4965  0.5759 -0.1631
 4983SOL    HW126585   3.755   0.531   1.940 -0.7858 -0.1480 -0.6892
 4983SOL    HW226586   3.703   0.590   1.820  0.0525  2.2397 -0.5274
 4984SOL     OW26587   1.228   0.315  12.063 -0.1552 -0.5348 -0.0916
 4984SOL    HW126588   1.244   0.407  12.085 -0.8360 -1.3285  3.7593
 4984SOL    HW226589   1.315   0.282  12.043  0.3270  1.4715 -1.2358
 4985SOL     OW26590   0.250   2.792   1.862 -0.5758  0.2213  0.0180
 4985SOL    HW126591   0.286   2.708   1.835 -0.1128  0.1492  0.8664
 4985SOL    HW226592   0.254   2.789   1.958  2.4340  0.2819 -0.1076
 4986SOL     OW26593   3.583   1.614   8.524 -0.3709  0.1817  0.4774
 4986SOL    HW126594   3.544   1.638   8.440  0.2816  3.9652  1.2636
 4986SOL    HW226595   3.623   1.695   8.555 -2.2887  1.1181  0.5174
 4987SOL     OW26596   2.756   1.158   2.335 -0.5344  0.5965 -0.0463
 4987SOL    HW126597   2.772   1.076   2.383 -1.0016  1.0545  0.8903
 4987SOL    HW226598   2.801   1.213   2.399 -1.7296  2.4011 -0.7716
 4988SOL     OW26599   3.561   1.527   2.978  0.2061  0.3410 -0.1853
 4988SOL    HW126600   3.465   1.536   2.977  0.3493  1.8168 -0.3545
 4988SOL    HW226601   3.580   1.609   3.023 -3.2514  0.5464  0.9397
 4989SOL     OW26602   2.043   1.098  16.688  0.0223 -0.0066  0.1315
 4989SOL    HW126603   2.068   1.012  16.653  0.6373  0.8040 -1.4214
 4989SOL    HW226604   1.979   1.129  16.623 -0.8631 -1.8888  0.0904
 4990SOL     OW26605   2.825   1.662   1.031 -0.2500 -0.7588 -0.3123
 4990SOL    HW126606   2.775   1.652   1.112 -0.1174  0.3216 -0.0986
 4990SOL    HW226607   2.917   1.664   1.054 -1.0754 -1.0747  2.9646
 4991SOL     OW26608   1.977   0.934   1.452 -0.1907 -0.0601  0.0534
 4991SOL    HW126609   2.034   0.858   1.447 -0.6803 -0.3501 -1.1321
 4991SOL    HW226610   2.018   0.981   1.525 -2.2630  1.2854  0.3581
 4992SOL     OW26611   3.847   2.554  16.790 -0.0045  0.6662  0.2761
 4992SOL    HW126612   3.902   2.600  16.727  1.8362  0.6258  1.8569
 4992SOL    HW226613   3.767   2.550  16.738  0.1673  0.3226  0.0430
 4993SOL     OW26614   3.807   1.565   2.834 -0.0683  0.2086 -0.1776
 4993SOL    HW126615   3.773   1.645   2.794 -0.3651  1.0518  1.7546
 4993SOL    HW226616   3.739   1.541   2.896 -0.6542  0.3480 -0.7720
 4994SOL     OW26617   4.228   2.701   0.775 -0.0584 -0.2820  0.0058
 4994SOL    HW126618   4.278   2.633   0.820 -1.1897 -1.3054 -0.2906
 4994SOL    HW226619   4.289   2.731   0.707 -0.5023  0.8380  0.1112
 4995SOL     OW26620   3.045   3.823  12.733  0.2889  0.1817  0.0572
 4995SOL    HW126621   2.955   3.842  12.760  0.0832 -1.4360  0.5175
 4995SOL    HW226622   3.063   3.881  12.660  1.5199 -1.2428 -0.7659
 4996SOL     OW26623   1.779   3.479   5.126  0.6203  0.0790 -0.1939
 4996SOL    HW126624   1.818   3.566   5.114 -0.0151  0.2184 -1.2985
 4996SOL    HW226625   1.823   3.427   5.058  1.5253 -0.1063  0.5376
 4997SOL     OW26626   4.534   0.272   4.264 -0.3310  0.0200  0.0822
 4997SOL    HW126627   4.558   0.309   4.349  0.7285  0.7276 -0.5177
 4997SOL    HW226628   4.469   0.205   4.281 -0.5744  0.2099 -0.0936
 4998SOL     OW26629   1.296   1.967   3.320  0.4167 -0.1692  0.1362
 4998SOL    HW126630   1.362   1.967   3.389  0.8473  0.7793 -0.2753
 4998SOL    HW226631   1.237   2.035   3.353  0.3129 -0.9085  1.4725
 4999SOL     OW26632   1.246   4.098   5.559  0.0208 -0.1042  0.4195
 4999SOL    HW126633   1.168   4.144   5.592  1.0685  0.7553  1.6557
 4999SOL    HW226634   1.300   4.112   5.636 -1.8938 -1.5199  2.0011
 5000SOL     OW26635   3.580   2.946   4.278 -0.2078 -0.1112  0.1933
 5000SOL    HW126636   3.566   2.907   4.192 -1.8137 -0.7039  0.7301
 5000SOL    HW226637   3.515   3.016   4.284  2.0489  1.7758  2.9915
 5001SOL     OW26638   3.715   3.612   5.514 -0.5904 -0.1525  0.4596
 5001SOL    HW126639   3.622   3.626   5.527 -0.3605  0.8649  1.0283
 5001SOL    HW226640   3.749   3.669   5.583 -2.7520  0.7575  0.7755
 5002SOL     OW26641   1.411   2.893   5.521 -0.1922 -0.0391 -0.6475
 5002SOL    HW126642   1.408   2.857   5.609  0.8013  2.7615  0.5452
 5002SOL    HW226643   1.423   2.807   5.479 -1.5453  0.4242 -1.9663
 5003SOL     OW26644   1.373   4.415   3.228  0.1695 -0.1719 -0.0116
 5003SOL    HW126645   1.411   4.479   3.168  2.0057 -1.5574 -0.3423
 5003SOL    HW226646   1.293   4.455   3.263  1.0750  2.1419 -0.5938
 5004SOL     OW26647   0.629   0.974   2.664  0.4905  0.3957 -0.4992
 5004SOL    HW126648   0.571   1.048   2.683 -0.0168 -0.3496  0.9113
 5004SOL    HW226649   0.594   0.930   2.587 -2.7394 -2.9657  2.8069
 5005SOL     OW26650   0.374   0.102   5.185 -0.4888 -0.1609 -0.3200
 5005SOL    HW126651   0.289   0.133   5.156  0.3281 -1.0769 -3.6951
 5005SOL    HW226652   0.416   0.187   5.200 -0.5329 -0.2138  0.0953
 5006SOL     OW26653   4.195   0.594   1.357 -0.1189  0.2398  0.2893
 5006SOL    HW126654   4.258   0.551   1.415 -0.3772 -1.6191 -0.8024
 5006SOL    HW226655   4.237   0.594   1.271 -0.0127  1.5554  0.3414
 5007SOL     OW26656   0.387   3.458   6.616  0.2531 -0.4496  0.3766
 5007SOL    HW126657   0.464   3.402   6.609  0.9339  0.7697 -1.7858
 5007SOL    HW226658   0.393   3.490   6.707  2.6859  1.5017 -0.4462
 5008SOL     OW26659   0.529   4.345   3.184 -0.5739 -0.5172  0.8481
 5008SOL    HW126660   0.460   4.315   3.243  1.8253 -3.3496  2.2136
 5008SOL    HW226661   0.568   4.261   3.159  0.4969  0.8553 -2.0914
 5009SOL     OW26662   1.651   1.173  17.429  0.3324  0.8680 -0.1983
 5009SOL    HW126663   1.711   1.241  17.400  0.5941  0.2060 -1.1777
 5009SOL    HW226664   1.642   1.200  17.521  0.2095  1.7625 -0.4747
 5010SOL     OW26665   1.594   2.700   3.928 -0.1160 -0.7846  0.2614
 5010SOL    HW126666   1.607   2.606   3.938 -0.2930 -0.8683 -0.3168
 5010SOL    HW226667   1.687   2.721   3.939 -0.0765  0.1361 -1.8856
 5011SOL     OW26668   1.786   1.158   2.994  0.6364 -0.2470  0.1634
 5011SOL    HW126669   1.831   1.242   3.007  0.0707 -0.0703  0.9109
 5011SOL    HW226670   1.759   1.176   2.904  0.8821  0.1195  0.1634
 5012SOL     OW26671   0.516   2.007  15.273 -0.5043  0.1939  0.2251
 5012SOL    HW126672   0.420   2.010  15.266 -0.5724  0.8808  1.2993
 5012SOL    HW226673   0.539   1.992  15.182  0.1529  2.3091  0.0439
 5013SOL     OW26674   3.717   4.422   4.160  0.7167  0.2876 -0.0129
 5013SOL    HW126675   3.678   4.463   4.083 -1.6967  0.7795  1.4681
 5013SOL    HW226676   3.778   4.364   4.115 -0.1259  0.8167 -1.8053
 5014SOL     OW26677   3.136   0.588   2.423  0.0078  0.2741 -0.0420
 5014SOL    HW126678   3.090   0.566   2.503  0.2512 -1.9361 -0.5231
 5014SOL    HW226679   3.102   0.675   2.400  1.2262  0.4140 -1.4004
 5015SOL     OW26680   4.200   3.023   6.046  0.7528 -0.2282 -0.6386
 5015SOL    HW126681   4.209   3.111   6.010 -0.3220 -0.5514 -1.6693
 5015SOL    HW226682   4.236   2.974   5.973  2.9724 -0.4242  0.5809
 5016SOL     OW26683   0.876   3.522  16.375  0.0994  0.6125  0.0181
 5016SOL    HW126684   0.785   3.550  16.364 -0.3115 -0.3017  1.1145
 5016SOL    HW226685   0.930   3.598  16.354  1.3092 -0.6547 -1.4584
 5017SOL     OW26686   0.260   2.592  12.434 -0.6399 -0.7868  0.2042
 5017SOL    HW126687   0.251   2.560  12.344  2.8287 -0.9918 -0.0636
 5017SOL    HW226688   0.310   2.672  12.418 -1.5840 -0.4107 -0.9441
 5018SOL     OW26689   0.654   0.998  17.138 -0.3186  0.5323 -0.1094
 5018SOL    HW126690   0.631   1.052  17.063  0.6548 -1.9735 -2.2142
 5018SOL    HW226691   0.747   1.021  17.143 -0.2754  0.0223  1.5770
 5019SOL     OW26692   4.122   0.375   5.107  0.3347  0.1799 -0.4130
 5019SOL    HW126693   4.080   0.310   5.163  0.8169  0.5090  0.3273
 5019SOL    HW226694   4.109   0.462   5.145  0.5616  0.3114 -0.6362
 5020SOL     OW26695   1.612   1.508   0.135  0.2539 -0.2316  0.8433
 5020SOL    HW126696   1.697   1.470   0.159  0.4918 -1.6892 -2.3556
 5020SOL    HW226697   1.587   1.542   0.221 -1.4291 -0.7631  0.5682
 5021SOL     OW26698   0.728   1.583   0.574  0.2616  0.3208 -0.4827
 5021SOL    HW126699   0.685   1.668   0.585 -2.2176 -1.0605  0.6268
 5021SOL    HW226700   0.661   1.532   0.620  0.2610  0.8407  0.0986
 5022SOL     OW26701   1.561   0.810   4.183 -0.1085 -0.1741 -0.3756
 5022SOL    HW126702   1.626   0.876   4.207 -0.3844 -0.1655  0.3537
 5022SOL    HW226703   1.575   0.805   4.088 -1.2847 -3.6913 -0.3946
 5023SOL     OW26704   0.928   2.987  11.185 -0.5055 -0.2803 -0.6289
 5023SOL    HW126705   0.895   2.955  11.269  1.0146 -1.4140 -0.4646
 5023SOL    HW226706   0.877   3.066  11.170  0.4687  0.1559 -1.6332
 5024SOL     OW26707   0.803   3.712  15.551  0.4686  0.4686 -0.0125
 5024SOL    HW126708   0.733   3.660  15.589  1.2440  0.9719  2.1063
 5024SOL    HW226709   0.835   3.760  15.627 -1.7415  0.2754  1.0208
 5025SOL     OW26710   3.344   4.099   8.950 -0.3218  0.0388 -0.4889
 5025SOL    HW126711   3.291   4.021   8.937 -0.6509  0.3118 -0.7633
 5025SOL    HW226712   3.342   4.112   9.045  2.9870  2.1981 -0.6918
 5026SOL     OW26713   2.448   1.485   4.056 -0.3423  0.6437  0.4073
 5026SOL    HW126714   2.524   1.517   4.105  0.6361  0.9683 -1.3431
 5026SOL    HW226715   2.452   1.393   4.085  0.8177  0.5183 -0.1535
 5027SOL     OW26716   0.224   4.353  10.577  0.4534 -0.1975 -0.5198
 5027SOL    HW126717   0.157   4.287  10.560 -0.0648  0.0959  0.3558
 5027SOL    HW226718   0.302   4.328  10.528  0.6755  0.0519 -0.2955
 5028SOL     OW26719   1.133   4.477   6.663  0.2354 -0.2835  0.3313
 5028SOL    HW126720   1.158   4.386   6.680  0.3971 -1.0950 -4.2691
 5028SOL    HW226721   1.038   4.475   6.654  0.3523 -1.5667 -0.5931
 5029SOL     OW26722   3.296   2.126  13.020 -0.1930 -0.0005 -0.1182
 5029SOL    HW126723   3.280   2.125  12.926  1.8979 -0.8719 -0.4601
 5029SOL    HW226724   3.369   2.189  13.019  0.4093 -0.6652  2.7348
 5030SOL     OW26725   2.586   4.211   2.868 -0.1726 -0.1186 -0.4011
 5030SOL    HW126726   2.574   4.256   2.951  0.9609 -1.0630  0.2831
 5030SOL    HW226727   2.641   4.136   2.890 -0.8896 -0.5842 -0.1951
 5031SOL     OW26728   2.096   4.505  10.359 -0.2335 -0.2609 -0.3423
 5031SOL    HW126729   2.009   4.466  10.345 -1.8345  2.5847  1.8222
 5031SOL    HW226730   2.076   4.589  10.399 -2.0465 -0.0679 -1.6116
 5032SOL     OW26731   3.857   4.341   9.701  0.7741  0.4996 -0.1815
 5032SOL    HW126732   3.919   4.372   9.767  1.8374  0.0809 -0.9958
 5032SOL    HW226733   3.831   4.422   9.658 -1.0271  1.8712  3.5254
 5033SOL     OW26734   0.901   4.675  16.723 -0.1919  0.1925 -0.0715
 5033SOL    HW126735   0.834   4.720  16.671 -1.8645 -1.0558  1.0460
 5033SOL    HW226736   0.851   4.657  16.802  1.3064  0.9930  1.0548
 5034SOL     OW26737   4.349   3.600   2.304  0.3836  0.0291 -0.1898
 5034SOL    HW126738   4.333   3.606   2.210 -1.0387  1.7970  0.1491
 5034SOL    HW226739   4.421   3.663   2.308  1.9648 -1.6765 -2.0226
 5035SOL     OW26740   3.494   1.312   3.906  0.0512  0.5668  0.0850
 5035SOL    HW126741   3.538   1.364   3.838  0.3821  0.3022  0.1006
 5035SOL    HW226742   3.549   1.324   3.983 -2.4905  0.6086  1.8859
 5036SOL     OW26743   1.894   1.533   6.992 -0.4712  0.1660 -0.1648
 5036SOL    HW126744   1.900   1.488   6.907  1.0753 -1.7156  0.9287
 5036SOL    HW226745   1.809   1.577   6.988  0.6450  2.2290 -1.1386
 5037SOL     OW26746   4.572   2.008   5.897  0.2664  0.6882 -0.2891
 5037SOL    HW126747   4.650   2.030   5.848 -0.0622  0.3693 -0.9543
 5037SOL    HW226748   4.584   1.913   5.902  0.0629  0.6044 -1.3298
 5038SOL     OW26749   4.719   3.691   9.490  0.5812  0.6428  0.0207
 5038SOL    HW126750   4.675   3.616   9.451 -0.7225  1.2240  0.3712
 5038SOL    HW226751   4.649   3.753   9.468 -1.2878 -1.1596  0.9401
 5039SOL     OW26752   4.656   1.832   4.339 -0.2310  0.3504  0.1213
 5039SOL    HW126753   0.005   1.836   4.296  0.3189 -0.0654  1.1613
 5039SOL    HW226754   4.617   1.918   4.322 -0.2990 -0.0586 -1.7246
 5040SOL     OW26755   0.663   4.230   2.493 -0.3160  0.2352  0.0651
 5040SOL    HW126756   0.698   4.308   2.536  2.3736  0.5630 -2.6990
 5040SOL    HW226757   0.600   4.252   2.424 -0.3240  0.5225  0.1637
 5041SOL     OW26758   4.631   3.965   4.198 -0.0735  0.2594 -0.1774
 5041SOL    HW126759   4.621   3.992   4.107 -0.8561  0.5043 -0.0211
 5041SOL    HW226760   4.615   4.046   4.246  0.0481  0.8448 -1.1124
 5042SOL     OW26761   0.955   3.853   0.779  0.2323  0.2785 -0.4330
 5042SOL    HW126762   0.909   3.818   0.855 -0.7767 -1.1902 -1.7035
 5042SOL    HW226763   1.044   3.850   0.814 -0.9434 -0.5678  2.4530
 5043SOL     OW26764   3.005   4.702   4.422  0.0815 -0.8403 -0.5344
 5043SOL    HW126765   2.966   4.631   4.371 -2.2172  0.1868 -0.1712
 5043SOL    HW226766   2.990   4.679   4.513  0.7906 -0.0377 -0.2146
 5044SOL     OW26767   1.610   1.750   8.500  0.1579 -0.2051 -0.2310
 5044SOL    HW126768   1.630   1.694   8.425 -0.8235 -0.7465 -0.0958
 5044SOL    HW226769   1.701   1.756   8.526  0.0781  1.8740 -0.4556
 5045SOL     OW26770   2.202   0.865   4.559 -0.2375 -0.5285  0.3394
 5045SOL    HW126771   2.149   0.832   4.631 -1.2463  1.1947  0.3847
 5045SOL    HW226772   2.212   0.954   4.591 -0.9545 -0.7375  1.1328
 5046SOL     OW26773   3.682   0.887   1.402 -0.2513  0.1772 -0.2532
 5046SOL    HW126774   3.683   0.933   1.486  1.1336  1.1062 -0.7829
 5046SOL    HW226775   3.587   0.875   1.395 -0.3198  0.3208  0.3886
 5047SOL     OW26776   2.033   4.584   6.966 -0.0936  0.3165  0.4006
 5047SOL    HW126777   2.118   4.601   7.007 -0.4361 -0.2424  1.3393
 5047SOL    HW226778   1.964   4.623   7.020  1.1859  1.1040  1.4689
 5048SOL     OW26779   4.107   4.506   6.683  0.3959  0.8834 -0.0436
 5048SOL    HW126780   4.069   4.554   6.756 -0.3641 -1.6167  1.1940
 5048SOL    HW226781   4.119   4.586   6.632  1.2731  2.0033  1.9266
 5049SOL     OW26782   0.457   0.397   3.269  0.4915  0.3269 -0.1217
 5049SOL    HW126783   0.510   0.318   3.272 -0.7371 -0.4993 -0.1838
 5049SOL    HW226784   0.390   0.367   3.207  0.4432 -0.6350  0.4039
 5050SOL     OW26785   1.776   0.517   5.705  0.6058 -0.4226  0.1894
 5050SOL    HW126786   1.737   0.588   5.756 -2.7846 -1.5018 -0.9025
 5050SOL    HW226787   1.843   0.490   5.767 -0.9044  0.2945  2.1382
 5051SOL     OW26788   0.179   3.690  14.129 -0.0419 -0.8140 -0.1215
 5051SOL    HW126789   0.086   3.676  14.144 -0.7285  0.9559 -2.7135
 5051SOL    HW226790   0.199   3.749  14.201  0.2563 -0.6419 -0.3438
 5052SOL     OW26791   2.245   4.034   4.894 -0.7095 -0.6064  0.2690
 5052SOL    HW126792   2.225   3.975   4.967 -0.1764 -1.3336 -0.1778
 5052SOL    HW226793   2.268   3.980   4.818  1.1109  0.4131  0.0946
 5053SOL     OW26794   4.181   1.946   8.535  0.0356 -0.2023 -0.2380
 5053SOL    HW126795   4.205   1.880   8.600 -2.1447  0.8995  1.6567
 5053SOL    HW226796   4.194   2.024   8.589  1.7085 -2.8654  3.2029
 5054SOL     OW26797   4.246   4.075   5.365 -0.0659 -0.1769  0.7810
 5054SOL    HW126798   4.224   3.985   5.340 -3.9854  1.1620 -0.5215
 5054SOL    HW226799   4.171   4.100   5.420 -1.1891 -0.7286 -0.5139
 5055SOL     OW26800   3.222   3.354   1.796  0.2789  0.1075  0.5794
 5055SOL    HW126801   3.310   3.349   1.758 -0.7246 -1.1762 -1.5684
 5055SOL    HW226802   3.176   3.314   1.722  1.9104  3.0400 -2.0148
 5056SOL     OW26803   2.053   3.431   6.849 -0.2117  0.6492  0.3855
 5056SOL    HW126804   2.060   3.421   6.944  2.0769  0.4191  0.1795
 5056SOL    HW226805   2.023   3.342   6.832 -1.3397  1.7635 -3.3115
 5057SOL     OW26806   1.970   0.379  12.033  0.0145  0.0158 -0.0755
 5057SOL    HW126807   2.047   0.431  12.058  0.3979 -0.3349 -0.5205
 5057SOL    HW226808   1.997   0.292  12.061  0.1614  0.4214  1.0588
 5058SOL     OW26809   2.093   3.014   4.656  0.6268  0.0257  0.1916
 5058SOL    HW126810   2.002   3.009   4.684  0.7798  1.2002  0.9059
 5058SOL    HW226811   2.132   3.011   4.744  0.7613 -1.9075  0.0692
 5059SOL     OW26812   2.472   0.873   9.056  0.0450 -0.0194 -0.3342
 5059SOL    HW126813   2.444   0.782   9.048 -0.4243  0.1356 -0.4418
 5059SOL    HW226814   2.466   0.900   8.965 -0.6873  0.6438 -0.0916
 5060SOL     OW26815   3.069   3.395   3.553  0.2060  0.1980 -0.0773
 5060SOL    HW126816   3.153   3.440   3.546 -0.6519  1.8162  0.0552
 5060SOL    HW226817   3.024   3.421   3.472  1.2527  0.3317 -0.6136
 5061SOL     OW26818   0.102   3.600   5.973 -0.2244  0.7686 -0.7587
 5061SOL    HW126819   0.018   3.604   5.926 -0.1929  1.3153 -0.7632
 5061SOL    HW226820   0.165   3.637   5.912  1.5132  1.6050  1.5484
 5062SOL     OW26821   2.874   1.287   5.439  0.2464 -0.3654 -0.1548
 5062SOL    HW126822   2.937   1.216   5.428  0.2644 -0.3350 -0.2514
 5062SOL    HW226823   2.910   1.331   5.516 -0.0507 -0.8364  0.2553
 5063SOL     OW26824   1.182   0.409   7.947  0.2627 -0.1499  0.2141
 5063SOL    HW126825   1.175   0.323   7.990 -1.5076  0.2308  0.6684
 5063SOL    HW226826   1.166   0.380   7.858  2.7189 -1.8099  0.2822
 5064SOL     OW26827   4.594   1.532   6.347  0.8764  0.6932  0.0605
 5064SOL    HW126828   4.683   1.522   6.313  0.2674 -0.8153 -1.0527
 5064SOL    HW226829   4.540   1.539   6.268  2.2418 -1.7523 -1.0808
 5065SOL     OW26830   1.152   3.725   7.635 -0.0003 -0.4760  0.2358
 5065SOL    HW126831   1.180   3.816   7.622 -2.6234  0.3453  0.3939
 5065SOL    HW226832   1.229   3.676   7.608  0.1942  0.6771 -1.3493
 5066SOL     OW26833   4.535   2.266   4.604 -0.2291  0.3348 -0.3381
 5066SOL    HW126834   4.504   2.316   4.679 -0.2495  0.5992 -0.5244
 5066SOL    HW226835   4.552   2.184   4.651 -2.0585 -0.9448 -1.9556
 5067SOL     OW26836   3.514   1.316   8.822  0.1242 -0.6525 -0.3976
 5067SOL    HW126837   3.552   1.328   8.909  0.8189  0.4972 -0.8633
 5067SOL    HW226838   3.461   1.394   8.806  0.6077 -0.2090  0.1881
 5068SOL     OW26839   3.052   3.597  14.914  0.2509 -0.0318 -0.1328
 5068SOL    HW126840   3.069   3.650  14.836 -1.4194  0.8664  0.1257
 5068SOL    HW226841   3.023   3.666  14.973  1.4123  1.7088 -1.6099
 5069SOL     OW26842   2.155   1.660  15.188  0.7997 -0.7005  0.3836
 5069SOL    HW126843   2.126   1.600  15.257  0.9972 -2.0362 -0.6945
 5069SOL    HW226844   2.073   1.709  15.183  0.7157 -1.0298 -1.4404
 5070SOL     OW26845   1.004   2.549   4.676 -0.0218 -0.0103 -0.0438
 5070SOL    HW126846   1.047   2.543   4.591 -0.4020  1.2714 -0.3349
 5070SOL    HW226847   0.956   2.631   4.664 -1.7975 -0.6656  2.6316
 5071SOL     OW26848   1.081   0.040   9.703 -0.6368  0.4356  0.0543
 5071SOL    HW126849   1.092   0.002   9.790 -0.4688 -0.5391 -0.3948
 5071SOL    HW226850   1.062   0.131   9.726 -0.1328  0.7783 -0.8645
 5072SOL     OW26851   4.349   1.608   5.450  0.0464  0.7868  0.8280
 5072SOL    HW126852   4.428   1.627   5.400 -1.2748  0.3214 -1.4664
 5072SOL    HW226853   4.386   1.575   5.532  0.6801  1.3149  0.7495
 5073SOL     OW26854   0.057   4.418  12.964  0.0910 -0.5508  0.4401
 5073SOL    HW126855   0.099   4.442  12.881 -4.4282  2.0620 -1.0931
 5073SOL    HW226856   0.126   4.368  13.008  0.4187 -1.1389 -0.7428
 5074SOL     OW26857   3.867   1.738   8.269 -0.0675 -0.2899  0.1645
 5074SOL    HW126858   3.864   1.818   8.322  1.5792  0.5411 -0.9911
 5074SOL    HW226859   3.874   1.672   8.338 -1.0760 -1.6150 -0.9905
 5075SOL     OW26860   3.234   3.812  17.074 -0.0106 -0.0170 -0.3904
 5075SOL    HW126861   3.247   3.724  17.111  0.2149 -0.4523 -1.4949
 5075SOL    HW226862   3.230   3.864  17.154 -0.3792  0.1269 -0.5051
 5076SOL     OW26863   0.177   1.521  10.294  0.2838  0.7167  0.8069
 5076SOL    HW126864   0.211   1.511  10.383 -1.5946 -0.5472  1.3991
 5076SOL    HW226865   0.239   1.583  10.257  2.3937 -1.6189  0.4674
 5077SOL     OW26866   3.653   1.877   8.526 -0.4438 -0.2538  0.0758
 5077SOL    HW126867   3.745   1.903   8.516 -0.8579  0.6647 -1.3869
 5077SOL    HW226868   3.611   1.925   8.455 -1.1382  0.4555  0.9703
 5078SOL     OW26869   3.379   4.125   2.388 -0.2114  0.0693  0.3428
 5078SOL    HW126870   3.361   4.031   2.377  3.3910 -0.2077 -2.9571
 5078SOL    HW226871   3.290   4.155   2.405 -0.2935 -0.8338  1.5325
 5079SOL     OW26872   2.055   2.563   5.072 -0.2325  0.2982 -0.0847
 5079SOL    HW126873   2.088   2.611   5.148  3.0143 -1.3521 -0.4664
 5079SOL    HW226874   2.092   2.479   5.098 -1.8801 -0.3804  0.0728
 5080SOL     OW26875   0.470   3.784   7.086  0.1359 -0.5870  0.1895
 5080SOL    HW126876   0.457   3.829   7.169  0.9637  0.5157 -0.2843
 5080SOL    HW226877   0.525   3.838   7.029  0.7884  0.6858  2.0452
 5081SOL     OW26878   0.655   3.662   4.398  0.1516 -0.0644  0.2266
 5081SOL    HW126879   0.697   3.623   4.474  0.3854  0.0207  0.1422
 5081SOL    HW226880   0.622   3.742   4.439 -0.3479  0.6804 -1.6379
 5082SOL     OW26881   1.951   0.766   6.019 -0.1683  0.2074 -0.2027
 5082SOL    HW126882   1.980   0.694   5.963 -0.5195  1.5539 -2.1250
 5082SOL    HW226883   1.879   0.720   6.064  0.4563 -0.5922 -0.0213
 5083SOL     OW26884   0.852   1.653   3.575 -0.3253 -0.2635 -0.2367
 5083SOL    HW126885   0.773   1.615   3.536  1.0074 -0.9602 -2.2480
 5083SOL    HW226886   0.906   1.675   3.499 -0.0802  1.4052  0.4105
 5084SOL     OW26887   2.650   2.035   7.529 -0.6707  0.2525 -0.0125
 5084SOL    HW126888   2.726   2.003   7.480 -0.5394 -2.5419  2.0324
 5084SOL    HW226889   2.695   2.093   7.591 -1.1897  0.0839  0.5238
 5085SOL     OW26890   1.767   4.413   3.794 -0.2845  0.2005  0.4132
 5085SOL    HW126891   1.767   4.335   3.739 -1.4287  0.5466 -0.0607
 5085SOL    HW226892   1.804   4.381   3.876  0.8991  2.6007  0.8036
 5086SOL     OW26893   3.847   4.449   2.341 -0.1591  0.6471  0.3543
 5086SOL    HW126894   3.778   4.460   2.275 -0.1950  1.0551  0.4570
 5086SOL    HW226895   3.927   4.484   2.301  0.8521 -1.2159  0.7637
 5087SOL     OW26896   2.802   1.884   3.392 -0.0928  0.6415 -0.3498
 5087SOL    HW126897   2.895   1.860   3.400 -0.1506  0.6350  0.2733
 5087SOL    HW226898   2.768   1.803   3.355  0.4071 -0.0107  0.6437
 5088SOL     OW26899   4.652   2.164  14.975  0.0484  0.1805  0.4080
 5088SOL    HW126900   4.603   2.126  15.048  0.7939 -0.2962  0.6660
 5088SOL    HW226901   4.591   2.160  14.902  0.0912 -2.6917  0.5527
 5089SOL     OW26902   4.283   1.257  14.465  0.3930 -0.1364 -0.0725
 5089SOL    HW126903   4.193   1.228  14.452  0.0912  1.1140 -0.7689
 5089SOL    HW226904   4.336   1.197  14.413  1.0168 -1.7048  2.4066
 5090SOL     OW26905   4.234   0.063   7.224  0.2549  0.3048  0.3198
 5090SOL    HW126906   4.144   0.092   7.216 -0.4516 -1.9163  0.2104
 5090SOL    HW226907   4.243   0.036   7.316 -0.7287 -3.3480 -0.6342
 5091SOL     OW26908   2.151   1.025   2.116  0.9290 -0.5645  0.6035
 5091SOL    HW126909   2.245   1.009   2.129  1.1307 -0.0344 -0.2735
 5091SOL    HW226910   2.119   0.940   2.147 -2.6469  0.2320 -0.9150
 5092SOL     OW26911   2.518   1.273  14.826  0.1270  0.2033  0.0523
 5092SOL    HW126912   2.541   1.309  14.741 -0.5282 -2.3759 -1.2017
 5092SOL    HW226913   2.513   1.180  14.804  0.3776  0.6153 -1.7515
 5093SOL     OW26914   1.989   1.078  12.979 -0.2826 -0.0578 -0.4070
 5093SOL    HW126915   1.995   1.091  13.074  0.8297  2.8136 -0.8788
 5093SOL    HW226916   1.932   1.152  12.959 -0.3060  0.4706  1.5990
 5094SOL     OW26917   2.258   0.358   2.203  0.6098  0.4569  0.5023
 5094SOL    HW126918   2.302   0.273   2.209  1.0525  0.6476 -0.0587
 5094SOL    HW226919   2.186   0.337   2.262  0.4222 -0.0372  0.1007
 5095SOL     OW26920   3.136   0.953  14.372 -0.2188 -0.0334  0.4495
 5095SOL    HW126921   3.215   0.903  14.352 -0.5273 -0.6240  0.7034
 5095SOL    HW226922   3.137   0.957  14.467 -0.8063  0.9756  0.4129
 5096SOL     OW26923   1.047   4.242  11.902  0.2510  0.3526 -0.5739
 5096SOL    HW126924   1.093   4.268  11.822  0.9925 -2.5586 -1.0934
 5096SOL    HW226925   0.966   4.207  11.865  0.5117  0.6007 -1.3818
 5097SOL     OW26926   2.989   3.770   2.589 -0.2452  0.3436  1.3213
 5097SOL    HW126927   2.987   3.767   2.493  1.9719  0.4065  1.2784
 5097SOL    HW226928   2.897   3.779   2.614 -0.2414  0.7650  1.1831
 5098SOL     OW26929   0.996   4.445   4.075 -0.3246 -0.3735 -1.0835
 5098SOL    HW126930   0.969   4.463   3.985 -2.6213 -0.9287 -0.5202
 5098SOL    HW226931   0.936   4.370   4.082  0.7279 -1.1360 -0.3182
 5099SOL     OW26932   1.219   0.436  17.011 -0.1705  0.4255  0.5842
 5099SOL    HW126933   1.168   0.410  17.088 -1.4938  1.2946  0.0070
 5099SOL    HW226934   1.191   0.526  16.994 -3.0444 -0.2762  1.5111
 5100SOL     OW26935   4.341   4.425   6.801 -0.1488 -0.5067 -0.0598
 5100SOL    HW126936   4.414   4.461   6.751 -0.4344  1.2541  0.8146
 5100SOL    HW226937   4.259   4.440   6.753 -1.3407 -0.0532  2.1554
 5101SOL     OW26938   4.412   4.296   5.351  0.2041  0.1997 -0.0571
 5101SOL    HW126939   4.493   4.262   5.391  0.6900 -0.8907 -1.9680
 5101SOL    HW226940   4.358   4.218   5.337 -1.0999  0.9276  0.9218
 5102SOL     OW26941   2.866   0.344   4.961  0.6644 -0.0159 -0.5168
 5102SOL    HW126942   2.932   0.401   4.921  0.1129  1.1178  0.1553
 5102SOL    HW226943   2.816   0.418   4.997  0.3139 -0.2341 -0.5556
 5103SOL     OW26944   4.469   1.814   6.331 -0.3238  1.0935  0.6695
 5103SOL    HW126945   4.404   1.776   6.390 -0.5604 -1.5009 -1.2562
 5103SOL    HW226946   4.522   1.734   6.327 -0.9323  0.6182  2.2083
 5104SOL     OW26947   4.626   1.651  11.452 -0.0233  0.1650  0.2665
 5104SOL    HW126948   4.583   1.674  11.369  0.0797 -1.6832 -0.2952
 5104SOL    HW226949   4.552   1.630  11.508 -0.1774 -2.2412 -0.8227
 5105SOL     OW26950   3.569   2.165   9.595  1.1058  0.1902 -0.3710
 5105SOL    HW126951   3.538   2.127   9.677 -3.6464  0.8601 -1.8089
 5105SOL    HW226952   3.664   2.173   9.599  1.1809 -0.4851 -0.8599
 5106SOL     OW26953   0.315   4.464   5.883 -0.4337  0.1003 -0.0793
 5106SOL    HW126954   0.362   4.402   5.828 -0.9940 -0.9398  0.6074
 5106SOL    HW226955   0.301   4.411   5.961  1.5904  0.8682  0.8128
 5107SOL     OW26956   4.148   0.560   1.030  0.2369  0.0530 -0.0855
 5107SOL    HW126957   4.125   0.492   0.967 -2.7610  1.8648 -0.9142
 5107SOL    HW226958   4.076   0.622   1.031 -0.5978 -0.9153  0.1989
 5108SOL     OW26959   0.743   1.452   6.572  0.3663  0.6325 -0.1356
 5108SOL    HW126960   0.665   1.507   6.567  1.2016  1.9630  1.4048
 5108SOL    HW226961   0.776   1.510   6.641 -0.6995  1.0536  0.0173
 5109SOL     OW26962   3.268   2.579   7.087  1.0152  0.1105 -0.0913
 5109SOL    HW126963   3.175   2.595   7.070  1.1660 -1.1366 -2.0880
 5109SOL    HW226964   3.291   2.525   7.012  2.2645  1.0820 -0.4115
 5110SOL     OW26965   1.181   3.189   6.881  0.3547 -0.6199 -0.5654
 5110SOL    HW126966   1.239   3.114   6.884  1.3423  0.1915  0.5696
 5110SOL    HW226967   1.168   3.213   6.973 -2.8321 -1.0918 -0.8761
 5111SOL     OW26968   1.121   3.354   8.566 -0.2134 -0.0805 -0.0033
 5111SOL    HW126969   1.176   3.424   8.532 -0.8817  1.1806  1.5124
 5111SOL    HW226970   1.131   3.282   8.504 -0.3206  0.0641 -0.1882
 5112SOL     OW26971   1.599   3.682   6.599  0.3974 -0.0341 -0.4583
 5112SOL    HW126972   1.688   3.649   6.613 -0.0565 -0.5564  1.2333
 5112SOL    HW226973   1.560   3.595   6.605  1.8084 -0.6307  0.1867
 5113SOL     OW26974   3.109   3.195  14.001  0.2503 -0.3069 -0.3027
 5113SOL    HW126975   3.128   3.288  13.987  1.5035 -0.5413 -0.2177
 5113SOL    HW226976   3.016   3.198  14.021 -0.0956 -0.0309 -1.9107
 5114SOL     OW26977   2.217   1.712   2.307  0.4378  0.0059 -1.0508
 5114SOL    HW126978   2.183   1.799   2.286  1.0749  1.1128  2.5855
 5114SOL    HW226979   2.147   1.663   2.263  0.1861 -0.1700 -0.4590
 5115SOL     OW26980   3.666   0.107  15.209  0.5619 -0.0626  0.4080
 5115SOL    HW126981   3.754   0.074  15.228 -0.1294 -1.2945  1.4794
 5115SOL    HW226982   3.608   0.036  15.237  1.3419 -0.5210  0.8510
 5116SOL     OW26983   2.404   1.738   6.511  0.3801 -0.2806  0.4561
 5116SOL    HW126984   2.423   1.737   6.605 -1.3480 -0.3264  0.7953
 5116SOL    HW226985   2.311   1.718   6.502  0.4994  0.0501 -1.5978
 5117SOL     OW26986   3.397   1.371   2.070 -0.1360 -0.5199  0.0288
 5117SOL    HW126987   3.312   1.334   2.093 -0.2071  0.4991  1.4365
 5117SOL    HW226988   3.455   1.298   2.047 -1.3255 -1.1509 -0.9309
 5118SOL     OW26989   1.337   3.978   0.025  0.1615 -0.1238  0.0909
 5118SOL    HW126990   1.375   3.940   0.104  1.7863  1.2059 -0.0422
 5118SOL    HW226991   1.359   3.919  17.695  1.3451  0.9833 -0.4528
 5119SOL     OW26992   1.645   4.488   7.003 -0.4151 -0.1118 -0.5118
 5119SOL    HW126993   1.641   4.412   7.061 -0.5243 -0.3666 -0.8514
 5119SOL    HW226994   1.670   4.450   6.919 -0.9657  1.4876 -1.4024
 5120SOL     OW26995   2.267   1.303   7.072 -0.1175  0.1478 -0.2023
 5120SOL    HW126996   2.204   1.372   7.093 -1.2020 -0.7357 -0.5545
 5120SOL    HW226997   2.322   1.354   7.012 -0.8064  2.6128  1.2455
 5121SOL     OW26998   0.070   2.789   2.593  0.0879 -0.1689  0.8719
 5121SOL    HW126999   4.735   2.767   2.654 -0.6256 -1.2778 -0.3363
 5121SOL    HW227000   0.039   2.737   2.519 -0.6978 -0.3458  1.3258
 5122SOL     OW27001   3.464   0.871   8.176  0.5210  0.3996  0.0030
 5122SOL    HW127002   3.528   0.940   8.160  1.9347 -1.2340 -1.5054
 5122SOL    HW227003   3.430   0.849   8.089 -2.1895  2.6327  0.5265
 5123SOL     OW27004   2.285   0.541  10.102  0.0347  0.0187  0.1494
 5123SOL    HW127005   2.250   0.497  10.025 -1.2487  0.1681  0.6528
 5123SOL    HW227006   2.367   0.576  10.066  0.5428 -1.5217 -0.2239
 5124SOL     OW27007   0.486   1.353   3.933 -0.6305  0.0160 -0.6586
 5124SOL    HW127008   0.565   1.381   3.886 -0.4673 -2.0029 -1.5780
 5124SOL    HW227009   0.515   1.373   4.022  1.7147 -0.5932 -1.2713
 5125SOL     OW27010   1.730   0.761   4.564  0.6450 -0.7740 -0.1824
 5125SOL    HW127011   1.687   0.676   4.552  1.1844 -1.1160  0.3196
 5125SOL    HW227012   1.793   0.746   4.635 -1.5004 -1.4772  1.5862
 5126SOL     OW27013   2.751   4.448   3.572  0.2108 -0.6712 -0.2305
 5126SOL    HW127014   2.711   4.410   3.493 -0.6929 -0.6277  0.2039
 5126SOL    HW227015   2.677   4.454   3.632  0.0503 -0.1716 -0.4692
 5127SOL     OW27016   3.139   0.499   0.883 -0.6166 -0.3629  0.1946
 5127SOL    HW127017   3.068   0.545   0.837 -0.1771 -0.6802 -0.8133
 5127SOL    HW227018   3.124   0.416   0.838 -1.4012  0.0252 -0.2701
 5128SOL     OW27019   1.353   0.217   2.441 -0.0853  0.0898 -0.4396
 5128SOL    HW127020   1.360   0.284   2.373  0.8348  1.1690  0.6950
 5128SOL    HW227021   1.331   0.271   2.517 -2.7062 -0.0282 -1.1427
 5129SOL     OW27022   1.446   4.674   3.990 -0.3053 -0.1733 -0.2643
 5129SOL    HW127023   1.363   4.720   3.999 -0.2668  0.6073 -3.7211
 5129SOL    HW227024   1.490   4.716   4.064  0.4249 -0.5045 -0.5105
 5130SOL     OW27025   2.026   2.938  14.026 -0.0870 -0.7242  0.1447
 5130SOL    HW127026   1.956   2.874  14.019 -0.5738 -0.1427 -0.3259
 5130SOL    HW227027   2.040   2.935  14.121  1.4207  1.1127  0.0020
 5131SOL     OW27028   0.655   1.418   4.983 -0.4417 -0.0107  0.1142
 5131SOL    HW127029   0.681   1.336   4.941 -1.3785 -0.2606  0.0224
 5131SOL    HW227030   0.588   1.379   5.038 -0.7164  0.2439 -0.0411
 5132SOL     OW27031   1.639   3.497   2.256  0.1464  0.0304 -0.1206
 5132SOL    HW127032   1.665   3.528   2.342 -1.1006  0.7738 -0.0001
 5132SOL    HW227033   1.623   3.580   2.210  0.9288  1.0662  1.5069
 5133SOL     OW27034   4.616   1.340   7.830  0.2382  0.4918 -0.0009
 5133SOL    HW127035   4.559   1.334   7.754 -1.4737  2.2430  1.1445
 5133SOL    HW227036   4.612   1.245   7.846  2.8241  0.0308 -2.1364
 5134SOL     OW27037   0.743   2.858   8.582  0.2614  0.5781  0.2439
 5134SOL    HW127038   0.697   2.820   8.657  0.2161  1.1260  0.4936
 5134SOL    HW227039   0.779   2.934   8.625  0.1538  0.6682  0.1753
 5135SOL     OW27040   1.675   3.002   8.448  0.1084  0.0988 -0.7355
 5135SOL    HW127041   1.770   3.004   8.444 -0.0010  1.6339 -2.6610
 5135SOL    HW227042   1.660   3.054   8.527  1.2792 -2.4661  1.1763
 5136SOL     OW27043   4.625   3.243   9.173  0.1030 -0.4838 -0.1565
 5136SOL    HW127044   4.579   3.189   9.109 -0.4174  1.0261 -1.0712
 5136SOL    HW227045   4.706   3.271   9.130  0.5217  0.2804  1.1199
 5137SOL     OW27046   0.501   4.008  15.089  0.3848 -0.1498  0.4743
 5137SOL    HW127047   0.520   3.951  15.014 -0.0535 -0.7527  0.8197
 5137SOL    HW227048   0.588   4.030  15.121  0.3078  0.2217  0.4271
 5138SOL     OW27049   0.479   0.473  14.211 -0.3354 -0.0977 -0.1387
 5138SOL    HW127050   0.436   0.395  14.244 -0.2933  0.2395  0.7249
 5138SOL    HW227051   0.533   0.498  14.286  1.3530 -2.1498 -0.6832
 5139SOL     OW27052   0.410   4.218   6.351  0.3574  0.6749 -0.2814
 5139SOL    HW127053   0.417   4.240   6.444 -0.5873 -0.9713  0.1833
 5139SOL    HW227054   0.318   4.189   6.350  0.1597  1.3135 -0.3190
 5140SOL     OW27055   4.513   1.487  12.143  0.4171  0.2141 -0.6541
 5140SOL    HW127056   4.498   1.474  12.050  0.7034  1.7900 -0.9071
 5140SOL    HW227057   4.549   1.575  12.149 -1.6636  1.0077 -0.0552
 5141SOL     OW27058   2.746   2.640   8.757  0.2931  0.1783 -0.1529
 5141SOL    HW127059   2.766   2.612   8.668 -1.5261  0.1953 -0.5714
 5141SOL    HW227060   2.815   2.609   8.815  0.2133  2.4397  1.1508
 5142SOL     OW27061   1.145   2.312   8.306 -0.3227  0.0059 -0.0258
 5142SOL    HW127062   1.156   2.240   8.244  0.1884  1.2934 -1.4254
 5142SOL    HW227063   1.081   2.277   8.367 -1.3932  0.2217 -1.0397
 5143SOL     OW27064   0.794   1.842   6.977 -0.2832  0.2432 -0.1719
 5143SOL    HW127065   0.749   1.925   6.993  0.0924  0.3123  0.4760
 5143SOL    HW227066   0.722   1.779   6.975  0.5625 -0.6856 -1.5142
 5144SOL     OW27067   1.930   2.687  15.132 -0.8401 -0.6754  0.0238
 5144SOL    HW127068   1.886   2.714  15.052 -1.4445 -3.3325 -0.5432
 5144SOL    HW227069   1.892   2.600  15.124 -1.9148 -0.2760  0.7733
 5145SOL     OW27070   2.443   1.269   2.784  0.5851  0.4535 -0.1495
 5145SOL    HW127071   2.369   1.301   2.733  0.0302 -0.1559  0.2715
 5145SOL    HW227072   2.407   1.295   2.869  1.5866 -1.2573  0.7967
 5146SOL     OW27073   1.421   0.712   8.473 -0.2036 -0.1036  0.4415
 5146SOL    HW127074   1.344   0.705   8.416  0.8249  4.1510 -1.4674
 5146SOL    HW227075   1.373   0.744   8.550  0.5396 -0.1753  0.9371
 5147SOL     OW27076   4.321   3.311  13.525  0.6487  0.2704 -0.2840
 5147SOL    HW127077   4.285   3.293  13.438 -1.7239  2.2575  0.2851
 5147SOL    HW227078   4.306   3.229  13.572  1.1631 -0.5923 -1.6322
 5148SOL     OW27079   2.210   4.480   5.223 -0.1472  0.4667 -0.2786
 5148SOL    HW127080   2.285   4.474   5.163 -1.7993  4.0460 -2.6927
 5148SOL    HW227081   2.209   4.388   5.249  1.3937 -0.0123 -1.9161
 5149SOL     OW27082   4.055   3.091   3.596 -0.2498  0.3847 -0.3253
 5149SOL    HW127083   4.115   3.140   3.653 -0.6120 -1.0689  1.3151
 5149SOL    HW227084   3.983   3.153   3.589 -0.9374 -0.3779  0.0266
 5150SOL     OW27085   0.620   1.925   4.222 -0.0729 -0.2388 -0.3743
 5150SOL    HW127086   0.583   1.861   4.161 -1.7686  2.0559 -1.7777
 5150SOL    HW227087   0.702   1.879   4.237  1.6761  3.0296  0.1118
 5151SOL     OW27088   2.031   3.073   2.843  0.7049  0.1754 -0.2401
 5151SOL    HW127089   2.053   3.007   2.777 -0.7691 -0.1159 -0.4418
 5151SOL    HW227090   1.952   3.034   2.879  0.3278 -1.3228 -2.6855
 5152SOL     OW27091   2.007   2.830  11.153  0.6950  0.2083 -0.1536
 5152SOL    HW127092   1.959   2.765  11.204 -1.8859  0.1834 -2.5411
 5152SOL    HW227093   1.991   2.909  11.206  0.9586  0.9290 -1.1405
 5153SOL     OW27094   3.415   2.695   3.583  0.1370 -0.0744 -0.0706
 5153SOL    HW127095   3.486   2.650   3.537  1.3926 -1.3325  3.0507
 5153SOL    HW227096   3.339   2.664   3.534  0.5920 -1.7064  0.2514
 5154SOL     OW27097   3.643   2.116   1.842  0.5189 -0.1333  0.0603
 5154SOL    HW127098   3.597   2.102   1.924 -0.7839  0.0424 -0.6447
 5154SOL    HW227099   3.689   2.032   1.844 -0.1124 -0.3818  3.9050
 5155SOL     OW27100   0.399   3.664   5.301  0.7867  0.3504 -1.2745
 5155SOL    HW127101   0.412   3.616   5.220  0.6309 -1.2299 -0.3632
 5155SOL    HW227102   0.417   3.595   5.365  2.2085  1.6953 -0.2341
 5156SOL     OW27103   2.929   3.056   2.594 -0.1601 -0.0808  0.4116
 5156SOL    HW127104   2.980   3.135   2.610 -1.3462  0.4632  1.5495
 5156SOL    HW227105   2.996   2.990   2.608 -2.9374 -2.5209  2.2024
 5157SOL     OW27106   0.885   3.900   0.516  0.3174 -0.6784  0.3602
 5157SOL    HW127107   0.923   3.871   0.599 -1.1122 -1.2387  0.8199
 5157SOL    HW227108   0.884   3.993   0.536  2.2282 -0.2755 -1.3829
 5158SOL     OW27109   0.956   2.432   3.304  0.3123  0.6749  1.0259
 5158SOL    HW127110   0.867   2.421   3.269  0.9927 -1.4658 -0.0295
 5158SOL    HW227111   0.997   2.350   3.278  0.9566  1.3068  0.0401
 5159SOL     OW27112   1.747   1.753  13.160 -0.2253  0.0216 -0.1039
 5159SOL    HW127113   1.704   1.776  13.243 -1.1231  1.2074 -0.9058
 5159SOL    HW227114   1.834   1.732  13.191  0.1000 -0.0432 -1.0609
 5160SOL     OW27115   0.601   2.005   5.980  0.5996 -0.1169  0.4901
 5160SOL    HW127116   0.587   2.081   6.036 -3.6915 -0.7847  0.3505
 5160SOL    HW227117   0.607   2.047   5.895 -0.4145  0.5642  0.7598
 5161SOL     OW27118   4.485   3.805  12.946 -0.3220  0.4666 -0.0339
 5161SOL    HW127119   4.447   3.849  12.870  0.7901  0.3273 -0.6749
 5161SOL    HW227120   4.437   3.836  13.022 -2.1756 -0.9458 -0.6344
 5162SOL     OW27121   4.633   3.306   4.462 -0.1176  0.3532 -0.1212
 5162SOL    HW127122   4.551   3.257   4.463  0.3194 -0.3679  2.1342
 5162SOL    HW227123   4.600   3.380   4.512  0.1042  1.7646 -2.0738
 5163SOL     OW27124   0.799   0.534   6.475  0.0917  0.2488  0.2357
 5163SOL    HW127125   0.863   0.463   6.482 -0.8808 -0.9165 -2.8856
 5163SOL    HW227126   0.742   0.509   6.402 -0.6912  0.1044  0.9027
 5164SOL     OW27127   2.110   4.121   2.988  0.3283 -0.2404  0.9786
 5164SOL    HW127128   2.031   4.070   2.971  0.4110  0.2031 -0.6556
 5164SOL    HW227129   2.091   4.196   2.932  1.8748 -0.5094  0.0941
 5165SOL     OW27130   1.622   3.251   6.516  0.2196  0.3932  0.5896
 5165SOL    HW127131   1.539   3.260   6.563  0.2191 -0.2856  0.7192
 5165SOL    HW227132   1.681   3.279   6.586  0.0657  0.9709  0.4823
 5166SOL     OW27133   3.869   2.983   1.747 -0.5461  0.0080  0.1468
 5166SOL    HW127134   3.947   2.935   1.775 -1.2607 -1.0285  0.3581
 5166SOL    HW227135   3.802   2.915   1.745 -0.4832 -0.0973  1.3797
 5167SOL     OW27136   4.567   0.030   3.188  0.2528 -0.7541 -0.8183
 5167SOL    HW127137   4.533   4.685   3.228  0.0114 -0.4100 -0.3281
 5167SOL    HW227138   4.504   0.095   3.219  1.6016 -0.3933  1.1916
 5168SOL     OW27139   1.218   2.249   3.526 -0.0183 -1.2762  0.4386
 5168SOL    HW127140   1.178   2.336   3.523 -0.0145 -1.2676  0.6591
 5168SOL    HW227141   1.159   2.205   3.587 -0.8846 -1.1589 -0.3268
 5169SOL     OW27142   3.297   1.820   4.215  0.3299 -0.0224  0.2011
 5169SOL    HW127143   3.252   1.904   4.225  1.6973  0.5312  1.6781
 5169SOL    HW227144   3.390   1.842   4.213  0.6933 -1.7223 -1.1445
 5170SOL     OW27145   2.931   2.534  11.426  0.1084  0.1821 -0.0654
 5170SOL    HW127146   2.995   2.550  11.357 -1.3026 -0.0595 -1.4432
 5170SOL    HW227147   2.867   2.606  11.422 -0.4944 -0.3111  0.7358
 5171SOL     OW27148   3.796   0.867  12.916  0.1218 -0.4852  0.3449
 5171SOL    HW127149   3.882   0.908  12.909 -0.3822  0.1055 -2.2781
 5171SOL    HW227150   3.778   0.839  12.826  1.8413  0.1401 -0.1858
 5172SOL     OW27151   3.815   3.854   3.250  0.0171 -0.2018  0.7367
 5172SOL    HW127152   3.770   3.841   3.334 -1.6954  0.8726 -0.0204
 5172SOL    HW227153   3.898   3.892   3.279  0.9653 -1.8538  0.1715
 5173SOL     OW27154   2.344   4.470   0.316 -0.2198  0.4655  0.0288
 5173SOL    HW127155   2.277   4.478   0.384 -0.8946 -2.7255 -0.2627
 5173SOL    HW227156   2.382   4.384   0.333  0.5679  0.5143 -1.5195
 5174SOL     OW27157   0.358   2.235   0.008  0.2736 -0.2187 -0.2886
 5174SOL    HW127158   0.437   2.209   0.057  0.5034 -1.1827 -1.1789
 5174SOL    HW227159   0.363   2.330   0.019  1.2632 -0.6449  3.0674
 5175SOL     OW27160   1.234   1.053   3.397  0.0507 -0.2238  0.0318
 5175SOL    HW127161   1.147   1.024   3.369  1.0259 -2.4494 -0.6564
 5175SOL    HW227162   1.236   1.144   3.366  1.6767  0.2049  1.3969
 5176SOL     OW27163   2.898   2.651   9.792 -1.0386  0.4277  0.2005
 5176SOL    HW127164   2.916   2.743   9.812  3.6974 -1.0270  2.6030
 5176SOL    HW227165   2.816   2.639   9.840 -1.7832  0.8851 -0.9398
 5177SOL     OW27166   0.333   3.115   3.310 -0.3964 -0.1496  0.0119
 5177SOL    HW127167   0.260   3.131   3.370 -1.0623  1.7480 -1.3137
 5177SOL    HW227168   0.397   3.174   3.348  0.2436 -0.0139 -1.2817
 5178SOL     OW27169   4.583   4.520   5.087 -0.1544  0.0376 -0.4644
 5178SOL    HW127170   4.577   4.615   5.092 -2.0328 -0.1297  0.1973
 5178SOL    HW227171   4.634   4.499   5.165 -1.2712 -1.2106 -0.0762
 5179SOL     OW27172   0.726   2.575   7.365 -0.0845 -0.2248  0.2761
 5179SOL    HW127173   0.700   2.643   7.303 -1.9573 -0.5213  0.7293
 5179SOL    HW227174   0.814   2.604   7.387  1.3284 -3.2467 -1.4155
 5180SOL     OW27175   3.717   0.738   5.356 -0.5982 -0.0975  0.3553
 5180SOL    HW127176   3.657   0.704   5.422 -1.6796  1.3579  0.1170
 5180SOL    HW227177   3.730   0.655   5.310  2.6292 -0.3391  1.6613
 5181SOL     OW27178   0.645   1.112   8.456  0.3002 -0.1621  0.0943
 5181SOL    HW127179   0.715   1.172   8.429  1.5535 -1.8692 -0.4731
 5181SOL    HW227180   0.694   1.031   8.469  2.8585  1.6142  1.3315
 5182SOL     OW27181   0.632   3.494   9.099  0.7427 -0.0708 -0.3353
 5182SOL    HW127182   0.663   3.420   9.047 -1.4126 -1.9731  1.0991
 5182SOL    HW227183   0.672   3.564   9.048 -1.1228 -0.1213 -1.8447
 5183SOL     OW27184   4.305   3.865   5.098 -0.3031 -0.7314  0.1688
 5183SOL    HW127185   4.380   3.809   5.117  1.1918  0.9596 -0.6897
 5183SOL    HW227186   4.252   3.861   5.178  0.2626 -1.1495  0.5196
 5184SOL     OW27187   1.252   3.937   7.085 -0.5129  0.1148 -0.3124
 5184SOL    HW127188   1.242   4.009   7.147 -1.7337 -0.0499 -0.3253
 5184SOL    HW227189   1.208   3.860   7.121 -0.9527 -0.5276 -2.2132
 5185SOL     OW27190   4.087   2.218   7.981 -0.1579  0.0332 -0.4201
 5185SOL    HW127191   4.025   2.189   7.914  0.2297 -0.8238 -0.4122
 5185SOL    HW227192   4.161   2.211   7.921 -0.8209  0.2010 -1.2536
 5186SOL     OW27193   1.847   1.025   0.091  0.2925  0.2759  0.0727
 5186SOL    HW127194   1.798   1.027   0.174  1.2308 -1.4813  0.6493
 5186SOL    HW227195   1.835   0.935   0.061 -0.0032  0.9743 -1.9290
 5187SOL     OW27196   2.749   0.171   1.773 -0.3854 -0.3631  0.2126
 5187SOL    HW127197   2.759   0.266   1.781  2.3272 -0.6428 -0.0204
 5187SOL    HW227198   2.762   0.162   1.678  2.1555  3.7639  0.1652
 5188SOL     OW27199   2.865   0.430   6.911 -0.1804  0.1147  0.0345
 5188SOL    HW127200   2.935   0.366   6.901  1.2239  1.5858  0.3271
 5188SOL    HW227201   2.899   0.502   6.858  0.9636 -1.9651 -2.0117
 5189SOL     OW27202   2.138   1.763   6.957  0.2033 -0.3428  0.6200
 5189SOL    HW127203   2.062   1.802   7.001 -0.4713 -0.2702 -0.6112
 5189SOL    HW227204   2.137   1.814   6.876 -0.0403  1.4176  1.7262
 5190SOL     OW27205   3.449   2.145   3.792 -0.0925 -0.1108 -0.7585
 5190SOL    HW127206   3.541   2.171   3.780 -0.1179 -0.0649 -0.8475
 5190SOL    HW227207   3.417   2.235   3.780  0.3069 -0.1355 -2.0044
 5191SOL     OW27208   2.354   0.201   4.590 -0.2857 -0.3385  0.0296
 5191SOL    HW127209   2.368   0.121   4.641  0.6685  0.3849  0.8878
 5191SOL    HW227210   2.446   0.227   4.585 -0.3401 -0.7053 -2.7136
 5192SOL     OW27211   0.810   4.235   3.638 -0.2015 -0.1964 -0.3001
 5192SOL    HW127212   0.761   4.159   3.670  0.4582 -1.2276 -1.7501
 5192SOL    HW227213   0.892   4.227   3.687 -0.3498 -1.4455 -0.2617
 5193SOL     OW27214   3.004   3.871  13.240 -0.1998  0.0605 -0.1239
 5193SOL    HW127215   3.014   3.930  13.315 -0.8746 -2.2008  1.7305
 5193SOL    HW227216   2.934   3.915  13.191  0.5608  1.5215  0.1029
 5194SOL     OW27217   3.338   1.669  11.959 -0.3386  0.9145 -0.4442
 5194SOL    HW127218   3.430   1.662  11.981 -0.1231  2.6425 -0.7374
 5194SOL    HW227219   3.291   1.594  11.996 -0.4053  0.7402 -0.8811
 5195SOL     OW27220   4.577   0.690   5.495  0.2433  0.6266  0.0707
 5195SOL    HW127221   4.655   0.737   5.525  0.8957  0.6009 -1.6152
 5195SOL    HW227222   4.511   0.757   5.512  0.8277  1.2270 -0.0464
 5196SOL     OW27223   1.888   2.942   6.689 -0.3065  0.0176 -0.4740
 5196SOL    HW127224   1.887   2.902   6.776  0.0024 -3.5013 -2.1193
 5196SOL    HW227225   1.965   2.998   6.694 -0.1567 -0.1328 -1.1659
 5197SOL     OW27226   2.412   2.899   3.105 -0.0198  0.4043  0.6245
 5197SOL    HW127227   2.419   2.959   3.030  0.7428  1.0004  1.1782
 5197SOL    HW227228   2.320   2.873   3.103  0.4710 -1.2398 -0.8895
 5198SOL     OW27229   0.241   1.395   5.159  0.0266  0.4219 -0.0480
 5198SOL    HW127230   0.245   1.488   5.137  3.0291  0.3614  0.2303
 5198SOL    HW227231   0.178   1.399   5.231 -0.8358 -1.8507 -0.6664
 5199SOL     OW27232   3.765   3.948   1.645 -0.2652  0.6972  0.1458
 5199SOL    HW127233   3.858   3.957   1.627 -0.9196  1.6054 -2.7183
 5199SOL    HW227234   3.774   3.942   1.740  1.0003  1.3460  0.0628
 5200SOL     OW27235   4.263   4.507   3.133  0.4610 -0.1820 -0.2377
 5200SOL    HW127236   4.230   4.514   3.222  1.0627  2.0934 -0.1873
 5200SOL    HW227237   4.230   4.588   3.093 -1.7520 -0.0157  1.9060
 5201SOL     OW27238   4.440   3.621   1.694 -0.4900 -0.2480 -0.4330
 5201SOL    HW127239   4.372   3.555   1.681 -1.0374 -0.3547  3.1028
 5201SOL    HW227240   4.492   3.622   1.614  0.7811 -0.8416  0.3898
 5202SOL     OW27241   0.715   3.413  10.741 -0.2928  0.4982  0.0021
 5202SOL    HW127242   0.805   3.411  10.774 -0.1868  1.8509 -0.2031
 5202SOL    HW227243   0.669   3.406  10.825  2.3838  1.4286  1.5372
 5203SOL     OW27244   3.460   2.546   6.479  0.8257  0.4630 -0.4900
 5203SOL    HW127245   3.550   2.518   6.462  0.1464 -1.1765 -1.4393
 5203SOL    HW227246   3.415   2.504   6.405  2.3862 -2.1209  0.0127
 5204SOL     OW27247   4.553   0.890   3.971  0.1620 -0.2681 -0.2786
 5204SOL    HW127248   4.467   0.931   3.958  0.3910  0.3936  0.3229
 5204SOL    HW227249   4.598   0.972   3.957 -0.1554 -0.3920 -2.0945
 5205SOL     OW27250   4.267   3.259   9.319  0.1316  0.3794  0.2409
 5205SOL    HW127251   4.332   3.200   9.358 -1.9306  0.2168  3.3602
 5205SOL    HW227252   4.296   3.254   9.228 -1.3939 -1.9145 -0.1093
 5206SOL     OW27253   2.671   3.323  12.731 -0.0670  0.2119  0.3355
 5206SOL    HW127254   2.725   3.349  12.805 -1.1223 -2.5675  2.0745
 5206SOL    HW227255   2.743   3.294  12.674 -0.3223 -1.0193  0.6409
 5207SOL     OW27256   3.723   2.016   2.823  0.1005  0.2563  0.3980
 5207SOL    HW127257   3.693   2.054   2.741 -2.1933 -0.5027  0.8563
 5207SOL    HW227258   3.702   1.926   2.800 -0.0208  0.2104  0.6879
 5208SOL     OW27259   0.079   3.402   5.268 -0.2039  0.1061 -0.3074
 5208SOL    HW127260   0.028   3.322   5.253 -1.2430  0.2527  2.3941
 5208SOL    HW227261   0.155   3.376   5.215 -0.1521  1.0732 -0.7056
 5209SOL     OW27262   2.870   4.580   8.383  0.2111  0.2159  0.6959
 5209SOL    HW127263   2.919   4.498   8.392 -0.9528 -0.5736 -0.1380
 5209SOL    HW227264   2.803   4.560   8.447  1.0874  0.4538  1.6794
 5210SOL     OW27265   4.375   1.084  14.279  0.6337  0.3602 -0.5931
 5210SOL    HW127266   4.361   1.092  14.185  1.1866 -1.1869 -0.7964
 5210SOL    HW227267   4.451   1.026  14.271  1.4444  0.9387  3.0412
 5211SOL     OW27268   0.450   1.438   8.152  0.6621 -0.1572  0.2081
 5211SOL    HW127269   0.469   1.523   8.113  0.3543  0.4522  1.3880
 5211SOL    HW227270   0.361   1.428   8.120  1.2218 -1.5481 -0.9444
 5212SOL     OW27271   0.399   0.803   9.693 -0.1951  0.2415  0.2529
 5212SOL    HW127272   0.375   0.711   9.696  0.6840  0.0137  0.1434
 5212SOL    HW227273   0.345   0.845   9.760 -2.6948 -1.8615 -0.4449
 5213SOL     OW27274   3.156   0.895   0.816  0.4479 -0.3140  0.1644
 5213SOL    HW127275   3.246   0.920   0.795  0.8976 -1.0097  1.2970
 5213SOL    HW227276   3.123   0.976   0.856 -1.0082 -0.7219 -0.2162
 5214SOL     OW27277   0.114   3.539   3.666 -0.4424  0.4963  0.3217
 5214SOL    HW127278   0.092   3.465   3.723  0.4188 -1.0426 -1.3298
 5214SOL    HW227279   0.041   3.539   3.605 -0.5665 -1.4547  0.4676
 5215SOL     OW27280   2.073   0.922   2.882  0.4278  0.0362 -0.1413
 5215SOL    HW127281   2.101   0.909   2.791  0.2831 -0.4681 -0.1186
 5215SOL    HW227282   2.009   0.850   2.884  0.9168 -0.3909 -0.0446
 5216SOL     OW27283   4.057   0.791   5.644  0.3210 -0.6059  0.2432
 5216SOL    HW127284   3.980   0.822   5.596  1.9819  0.1012 -1.9505
 5216SOL    HW227285   4.024   0.786   5.734 -0.3939 -3.5634 -0.1815
 5217SOL     OW27286   1.425   1.619   2.234 -0.1830  0.2272 -0.3519
 5217SOL    HW127287   1.434   1.703   2.279  0.9278 -0.3199  0.4184
 5217SOL    HW227288   1.386   1.649   2.151  1.1967  1.2608 -0.6264
 5218SOL     OW27289   0.486   2.986   1.898  0.1731 -0.2793  0.2166
 5218SOL    HW127290   0.447   2.899   1.900 -0.5184  0.0088 -0.4667
 5218SOL    HW227291   0.409   3.040   1.879  0.6112  0.8467  1.5552
 5219SOL     OW27292   3.219   1.822  15.802 -0.2209 -0.3029  0.7763
 5219SOL    HW127293   3.170   1.844  15.723  0.3022  0.8209  0.7713
 5219SOL    HW227294   3.235   1.910  15.836 -1.1773 -0.5549  1.9130
 5220SOL     OW27295   3.341   0.078  12.756 -0.0922 -0.0898  0.2982
 5220SOL    HW127296   3.368   0.058  12.845  1.0292 -1.3608 -0.3161
 5220SOL    HW227297   3.245   0.074  12.765 -0.2352 -1.9089 -1.9157
 5221SOL     OW27298   4.571   3.682   7.097  0.1246 -0.4440 -0.0086
 5221SOL    HW127299   4.539   3.703   7.185  0.7974 -1.2262  0.4243
 5221SOL    HW227300   4.581   3.770   7.060 -1.8795 -0.1673  0.1298
 5222SOL     OW27301   1.408   3.217   2.437 -0.0769 -0.2501  0.2541
 5222SOL    HW127302   1.428   3.131   2.400  2.0648  1.6216 -3.0133
 5222SOL    HW227303   1.401   3.272   2.359  0.5877  1.3137  1.3000
 5223SOL     OW27304   2.330   0.387   2.801 -0.2780  0.0157  0.3209
 5223SOL    HW127305   2.426   0.387   2.804 -0.1788 -5.0457 -2.7162
 5223SOL    HW227306   2.311   0.340   2.882  1.3164 -0.8251  0.2148
 5224SOL     OW27307   1.473   2.275  10.545 -0.2047 -0.3371 -0.2663
 5224SOL    HW127308   1.486   2.184  10.518  0.0316 -0.5500  0.5581
 5224SOL    HW227309   1.480   2.273  10.640  0.1906  0.9424 -0.2774
 5225SOL     OW27310   4.389   2.040   2.229  0.0600 -0.0765 -0.4471
 5225SOL    HW127311   4.304   2.013   2.194  2.1530 -2.3982 -3.7026
 5225SOL    HW227312   4.351   2.122   2.260 -1.2088 -0.8018 -0.0539
 5226SOL     OW27313   4.435   2.778   0.548  0.1548  0.3084  0.3020
 5226SOL    HW127314   4.500   2.827   0.598  2.5481 -0.8949 -1.5829
 5226SOL    HW227315   4.477   2.692   0.544 -0.8030 -0.0952 -1.3461
 5227SOL     OW27316   2.283   2.999   7.530  0.3588 -0.1615 -0.1517
 5227SOL    HW127317   2.341   2.923   7.533  1.3109  0.5498 -0.8812
 5227SOL    HW227318   2.229   2.962   7.600 -1.5806 -1.3973 -2.3447
 5228SOL     OW27319   2.838   0.772   4.207  0.1422 -0.2136  0.0462
 5228SOL    HW127320   2.867   0.819   4.286 -1.0890 -1.2315  1.0944
 5228SOL    HW227321   2.904   0.706   4.188  2.5794  1.3425  3.0411
 5229SOL     OW27322   0.924   2.308   1.978  0.3456  0.1156  0.0139
 5229SOL    HW127323   0.931   2.224   2.022  0.9006  0.1631  0.0160
 5229SOL    HW227324   0.871   2.289   1.900  0.0915  0.7261  0.0397
 5230SOL     OW27325   4.205   3.693   8.885 -0.0646 -0.1808  0.1191
 5230SOL    HW127326   4.114   3.722   8.890 -0.1644 -0.3767 -0.4485
 5230SOL    HW227327   4.208   3.681   8.790 -1.3552  0.3477  0.0001
 5231SOL     OW27328   2.775   1.091   6.885 -0.3002 -0.0796  0.4478
 5231SOL    HW127329   2.816   1.147   6.951  1.0880 -1.0817  0.4421
 5231SOL    HW227330   2.741   1.022   6.942  0.8351 -0.4524  0.6907
 5232SOL     OW27331   0.269   3.484   4.604  0.3219  0.5523 -0.2094
 5232SOL    HW127332   0.336   3.518   4.663  0.4628 -0.2311  0.0842
 5232SOL    HW227333   0.299   3.517   4.520 -3.5208  2.5202 -0.8124
 5233SOL     OW27334   2.813   0.944   7.811  0.3287  0.6774  0.0017
 5233SOL    HW127335   2.720   0.927   7.826  0.7149 -0.2999  1.2799
 5233SOL    HW227336   2.847   0.889   7.881 -1.0580  1.3054  1.1456
 5234SOL     OW27337   4.439   4.199   2.418  0.2167 -0.2917 -0.0110
 5234SOL    HW127338   4.376   4.254   2.371 -0.9683 -1.3471  0.3363
 5234SOL    HW227339   4.508   4.265   2.417 -0.7398  0.6996 -1.5979
 5235SOL     OW27340   3.615   2.788   9.950  0.2823 -0.3341  0.0604
 5235SOL    HW127341   3.564   2.807  10.029  0.5516  0.4229  0.0583
 5235SOL    HW227342   3.569   2.729   9.890  0.1722  0.0964 -0.2763
 5236SOL     OW27343   3.910   3.960   3.924  0.3920  0.5873  0.4791
 5236SOL    HW127344   3.959   3.889   3.966 -0.5582 -0.4056 -0.1085
 5236SOL    HW227345   3.962   4.036   3.950  0.1905  0.9464 -0.1548
 5237SOL     OW27346   4.144   4.443   8.125  0.0367 -0.1573  0.3282
 5237SOL    HW127347   4.048   4.450   8.127  0.1265  0.8310  0.8388
 5237SOL    HW227348   4.163   4.368   8.181 -2.5689 -1.7707 -0.9361
 5238SOL     OW27349   0.151   4.051   5.143  0.5900  0.2950  0.0453
 5238SOL    HW127350   0.145   3.956   5.134  1.4658  0.2030  0.4888
 5238SOL    HW227351   0.191   4.075   5.059  1.8787  0.2464  0.6614
 5239SOL     OW27352   4.051   1.523   6.487  0.1930  0.4539 -0.2817
 5239SOL    HW127353   3.990   1.589   6.521 -3.5318 -3.9634  1.5967
 5239SOL    HW227354   4.005   1.440   6.480  0.7126  0.2175 -0.8299
 5240SOL     OW27355   1.199   2.565   7.043 -0.1955  0.0541  0.5101
 5240SOL    HW127356   1.263   2.524   7.101 -0.5193 -1.5324 -0.2645
 5240SOL    HW227357   1.245   2.546   6.961  3.2849  0.3800  2.3618
 5241SOL     OW27358   1.278   3.038  12.223  0.3661 -0.3877  0.7645
 5241SOL    HW127359   1.233   3.112  12.181 -1.2611 -2.3764 -0.9909
 5241SOL    HW227360   1.252   2.964  12.169 -1.4111 -1.5357  3.2082
 5242SOL     OW27361   4.649   0.762   4.185  0.1333 -0.7315 -0.2246
 5242SOL    HW127362   4.676   0.674   4.160 -4.8893 -2.8914  2.1115
 5242SOL    HW227363   4.617   0.798   4.102  1.6695  2.0553  0.3910
 5243SOL     OW27364   0.260   2.993   0.999 -0.6823  0.3111 -0.0153
 5243SOL    HW127365   0.167   2.991   1.024 -0.1929  2.2825  1.9226
 5243SOL    HW227366   0.282   3.086   0.998  0.2448  0.0923  0.0005
 5244SOL     OW27367   1.754   2.866   5.551  0.0189  0.3958 -0.0885
 5244SOL    HW127368   1.815   2.830   5.487  1.4313 -0.7872  1.9368
 5244SOL    HW227369   1.710   2.935   5.502 -0.7499  0.2667  0.4178
 5245SOL     OW27370   2.708   1.938   0.200 -0.0809 -0.3981 -0.4077
 5245SOL    HW127371   2.698   1.904   0.111 -0.1264 -0.0706 -0.5281
 5245SOL    HW227372   2.800   1.922   0.219 -0.0389 -0.8865 -1.0121
 5246SOL     OW27373   2.565   0.881   2.837 -0.1786  0.4144  0.7506
 5246SOL    HW127374   2.536   0.856   2.749 -1.2566  0.5129  1.0729
 5246SOL    HW227375   2.591   0.795   2.870 -1.5855 -0.8069 -1.3299
 5247SOL     OW27376   1.663   2.573   6.699  0.7118 -0.3461 -0.5011
 5247SOL    HW127377   1.673   2.654   6.649  0.2991 -0.5113 -0.8474
 5247SOL    HW227378   1.700   2.611   6.779  1.0079 -2.5933  0.4227
 5248SOL     OW27379   2.556   0.210   6.051  0.5056 -0.0918 -0.2793
 5248SOL    HW127380   2.487   0.275   6.035  0.9073  0.6306  0.9229
 5248SOL    HW227381   2.519   0.140   5.998  2.1625 -0.4631 -0.9141
 5249SOL     OW27382   3.778   2.414   9.472 -0.4783 -0.2211 -0.2185
 5249SOL    HW127383   3.796   2.336   9.524 -2.3554 -0.8743 -0.5645
 5249SOL    HW227384   3.828   2.483   9.516  0.2731 -1.0845  0.2929
 5250SOL     OW27385   2.059   0.687   0.706  0.6905  0.2162  0.1589
 5250SOL    HW127386   2.119   0.728   0.768  0.5305  0.6709  0.0165
 5250SOL    HW227387   2.012   0.767   0.680  0.1793 -0.9296 -2.4331
 5251SOL     OW27388   2.267   3.401   8.574  0.6572 -0.1596 -0.0527
 5251SOL    HW127389   2.318   3.464   8.624  0.9336 -0.1228 -0.3890
 5251SOL    HW227390   2.228   3.461   8.511 -0.3714  0.0392  0.7563
 5252SOL     OW27391   2.446   4.658  10.376  0.0561 -0.2825  0.3279
 5252SOL    HW127392   2.530   4.692  10.344 -1.0284 -0.4644 -2.7114
 5252SOL    HW227393   2.399   4.669  10.294 -2.4430 -2.0367  1.5557
 5253SOL     OW27394   3.858   0.837  12.441  0.0268 -0.2090 -0.3303
 5253SOL    HW127395   3.923   0.905  12.455 -0.5434  0.6448 -1.8771
 5253SOL    HW227396   3.892   0.796  12.362  1.2895  0.4996 -0.1472
 5254SOL     OW27397   0.150   4.347   6.816  0.1420 -0.1721 -0.1182
 5254SOL    HW127398   0.055   4.343   6.828 -0.0211  1.5776 -0.9033
 5254SOL    HW227399   0.148   4.386   6.729  1.5090 -0.0580 -0.1076
 5255SOL     OW27400   3.195   4.672   8.565  0.4183 -0.2606  0.1331
 5255SOL    HW127401   3.121   4.694   8.508  1.6429 -1.9407 -2.1417
 5255SOL    HW227402   3.272   4.690   8.511  0.8629 -0.7380  0.6064
 5256SOL     OW27403   4.139   2.389   6.377  0.1156  0.2239 -0.7877
 5256SOL    HW127404   4.117   2.335   6.301 -3.7524 -0.0144  0.5079
 5256SOL    HW227405   4.233   2.372   6.389  0.2023 -0.0738 -1.8542
 5257SOL     OW27406   1.740   1.909   4.352 -0.3497  0.0933 -0.5501
 5257SOL    HW127407   1.692   1.992   4.341  1.1269  0.9063 -0.8784
 5257SOL    HW227408   1.685   1.849   4.402 -2.4751  2.0055 -0.5791
 5258SOL     OW27409   0.661   1.053   6.596  0.0866  0.1285 -0.2527
 5258SOL    HW127410   0.691   1.013   6.677 -0.3203 -1.0174 -0.6730
 5258SOL    HW227411   0.674   0.972   6.547  2.2161 -0.6161  1.5548
 5259SOL     OW27412   1.901   1.176   7.624 -0.2267 -0.9208  0.5167
 5259SOL    HW127413   1.941   1.093   7.596  2.2499 -0.1138  1.6775
 5259SOL    HW227414   1.849   1.158   7.702  3.5337  1.0445  3.4767
 5260SOL     OW27415   2.093   3.721  15.668  0.8477 -0.3071 -0.2447
 5260SOL    HW127416   2.179   3.692  15.698  0.9824  0.9066  0.5141
 5260SOL    HW227417   2.098   3.692  15.577  0.4595  0.7744 -0.6114
 5261SOL     OW27418   2.598   2.422   4.859 -0.4029 -0.8568 -0.0884
 5261SOL    HW127419   2.555   2.497   4.900 -0.8325 -0.5481 -1.0920
 5261SOL    HW227420   2.628   2.375   4.937  0.5778 -0.8719 -0.4674
 5262SOL     OW27421   1.075   3.388   3.062 -0.3227 -0.2647  0.4617
 5262SOL    HW127422   1.149   3.439   3.029 -0.7245 -0.0812 -0.1709
 5262SOL    HW227423   1.017   3.431   2.999  0.2106  0.5289  0.5125
 5263SOL     OW27424   2.019   3.427  13.720 -0.1711 -0.3144  0.3408
 5263SOL    HW127425   2.055   3.376  13.792  0.4274  0.5698  0.6776
 5263SOL    HW227426   1.941   3.373  13.705 -0.4052 -0.1931  1.1514
 5264SOL     OW27427   2.199   3.775   8.359  0.2122  0.7757 -0.2298
 5264SOL    HW127428   2.206   3.868   8.380  1.8272  0.7742 -0.7767
 5264SOL    HW227429   2.289   3.750   8.377 -0.5300 -1.8380 -0.0641
 5265SOL     OW27430   3.631   4.262   9.533 -0.1456 -0.0939  0.4814
 5265SOL    HW127431   3.697   4.302   9.476  1.6889  1.2538  3.5084
 5265SOL    HW227432   3.684   4.267   9.613 -0.0437  1.4083  0.3329
 5266SOL     OW27433   2.039   0.037   3.200 -0.0166  0.2499 -0.0782
 5266SOL    HW127434   2.058   0.083   3.282  0.2718 -1.5455  0.8802
 5266SOL    HW227435   1.994   4.694   3.230 -0.0909  0.2499 -0.1911
 5267SOL     OW27436   0.884   2.567   6.283  0.0183 -0.4121  0.2734
 5267SOL    HW127437   0.915   2.656   6.265 -0.0879 -0.7868 -1.8177
 5267SOL    HW227438   0.965   2.517   6.294  0.1965 -0.1730  0.0329
 5268SOL     OW27439   1.587   0.844   8.973 -0.0638 -0.0249  0.3388
 5268SOL    HW127440   1.517   0.833   9.037  1.8601  0.1304  2.4382
 5268SOL    HW227441   1.564   0.929   8.936 -1.1630 -0.1618  0.6863
 5269SOL     OW27442   1.090   3.942  11.990  0.1420  0.3685 -0.4620
 5269SOL    HW127443   1.092   3.847  11.996 -0.2444  0.5217  1.8975
 5269SOL    HW227444   1.115   3.956  11.899  0.7497  1.2089 -0.1647
 5270SOL     OW27445   3.772   4.557   3.629  1.1225  0.2348 -0.0551
 5270SOL    HW127446   3.739   4.645   3.648  0.7940 -0.4089  2.2874
 5270SOL    HW227447   3.783   4.563   3.534  0.9569 -0.3215 -0.1104
 5271SOL     OW27448   1.505   1.136   0.126  0.0963 -1.0172 -0.2905
 5271SOL    HW127449   1.484   1.229   0.134  0.2246 -1.0202  0.1166
 5271SOL    HW227450   1.455   1.100   0.199 -1.5279 -0.4069 -1.1096
 5272SOL     OW27451   1.131   0.703   7.704 -0.2273 -0.4177 -0.1389
 5272SOL    HW127452   1.208   0.658   7.736 -0.0225  0.6874  0.9186
 5272SOL    HW227453   1.080   0.701   7.785  0.4724  2.3802  0.3684
 5273SOL     OW27454   3.341   0.196   5.511 -0.2466 -0.3734  0.1673
 5273SOL    HW127455   3.285   0.207   5.588 -0.8907 -0.3623 -0.3036
 5273SOL    HW227456   3.370   0.283   5.485  2.8382 -0.8641  1.9525
 5274SOL     OW27457   1.141   2.055   5.753 -0.3481  0.1746 -0.0049
 5274SOL    HW127458   1.124   2.074   5.845  0.6165  0.2541  0.1562
 5274SOL    HW227459   1.235   2.037   5.752 -0.2969  0.4489 -0.1767
 5275SOL     OW27460   1.967   2.578  16.872 -0.2953  0.0624  0.2861
 5275SOL    HW127461   2.055   2.589  16.909  0.9602 -1.3141 -2.3344
 5275SOL    HW227462   1.990   2.630  16.795  2.3354 -2.6124 -0.7134
 5276SOL     OW27463   3.495   3.696  14.434 -0.4862  0.3127 -0.0807
 5276SOL    HW127464   3.418   3.700  14.377  1.3774  1.3926 -2.5367
 5276SOL    HW227465   3.458   3.718  14.519  0.9073 -0.5526  0.7444
 5277SOL     OW27466   4.286   2.144   3.824 -0.1901  0.0697  0.0445
 5277SOL    HW127467   4.356   2.190   3.871 -0.9834  2.4529 -1.0760
 5277SOL    HW227468   4.330   2.064   3.796 -1.6463  0.1032 -2.3833
 5278SOL     OW27469   4.473   1.247  16.005 -0.2041 -0.3171  0.2128
 5278SOL    HW127470   4.424   1.302  15.945 -1.2282  0.6019  1.9143
 5278SOL    HW227471   4.518   1.190  15.941 -0.6914  1.2192 -1.4772
 5279SOL     OW27472   3.750   4.020   9.382  0.0526  0.7032  0.3766
 5279SOL    HW127473   3.807   4.097   9.383 -1.5060  1.8755 -0.8077
 5279SOL    HW227474   3.688   4.036   9.312  3.0380 -0.3473 -2.4943
 5280SOL     OW27475   2.160   2.581  12.420 -0.7243  0.3796  0.6369
 5280SOL    HW127476   2.148   2.672  12.393 -3.5916  0.1705  1.2315
 5280SOL    HW227477   2.088   2.534  12.379 -1.6573  2.4239 -0.0707
 5281SOL     OW27478   1.271   0.477   5.252 -0.6145 -0.2072 -0.0766
 5281SOL    HW127479   1.346   0.470   5.312 -0.3243  0.3350 -0.3821
 5281SOL    HW227480   1.214   0.548   5.282 -0.7012 -0.1350 -0.4189
 5282SOL     OW27481   1.893   3.680  13.069 -0.1085  0.4192  0.5498
 5282SOL    HW127482   1.812   3.731  13.064 -0.8116 -0.7274  0.0458
 5282SOL    HW227483   1.861   3.615  13.132 -1.1091  1.4212  1.0821
 5283SOL     OW27484   0.910   2.156   5.351 -0.3455  0.5548 -0.4419
 5283SOL    HW127485   0.949   2.230   5.304 -0.0926  0.5654 -0.2097
 5283SOL    HW227486   0.916   2.085   5.287 -2.0441 -2.9120  3.2838
 5284SOL     OW27487   1.156   2.561  17.274 -1.3878  0.1858  0.6114
 5284SOL    HW127488   1.131   2.626  17.339  0.3022  0.6997  0.7345
 5284SOL    HW227489   1.091   2.490  17.280  0.8829 -1.9369  0.0839
 5285SOL     OW27490   4.601   0.358   2.292  0.6201 -0.4897 -0.3589
 5285SOL    HW127491   4.590   0.413   2.214  0.0591  0.4273  0.3717
 5285SOL    HW227492   4.524   0.380   2.343 -1.7020 -1.6968 -3.3529
 5286SOL     OW27493   3.777   2.036   4.323  0.1778 -0.2102  0.2498
 5286SOL    HW127494   3.814   2.087   4.396  0.4509  1.9657 -1.4219
 5286SOL    HW227495   3.770   2.105   4.257  1.3433  0.2668  0.6213
 5287SOL     OW27496   2.054   3.764   5.731  0.2322 -0.2025  0.0498
 5287SOL    HW127497   2.143   3.745   5.761  0.5331  0.7172 -0.2589
 5287SOL    HW227498   2.049   3.857   5.752 -2.3007 -0.4801  0.7274
 5288SOL     OW27499   1.838   1.730  17.631  0.0758 -0.2582 -0.2684
 5288SOL    HW127500   1.898   1.743  17.704 -0.5453 -0.2766  0.2473
 5288SOL    HW227501   1.773   1.797  17.653  1.7210  0.3414  2.7362
 5289SOL     OW27502   2.100   0.150   3.452 -0.0060 -0.3569  0.6129
 5289SOL    HW127503   2.077   0.200   3.531  0.7181  0.0131  0.5812
 5289SOL    HW227504   2.194   0.142   3.467  0.4156 -0.1279 -1.9798
 5290SOL     OW27505   0.025   3.007   7.981  0.0452 -0.3482 -0.5020
 5290SOL    HW127506   0.063   3.089   8.012  1.8589 -1.2297 -0.3777
 5290SOL    HW227507   4.698   3.026   7.912 -0.6869  0.1728  0.2987
 5291SOL     OW27508   4.642   3.448  10.905  0.1661  0.5627  0.3196
 5291SOL    HW127509   4.565   3.496  10.874  1.3150  1.5755 -0.9650
 5291SOL    HW227510   4.624   3.448  10.999 -0.2852 -1.2127  0.2238
 5292SOL     OW27511   1.268   3.874  13.332 -0.3902 -0.1268 -0.1577
 5292SOL    HW127512   1.239   3.782  13.327 -0.3725 -0.0536 -1.7452
 5292SOL    HW227513   1.211   3.924  13.274  0.6314  0.6242 -0.5067
 5293SOL     OW27514   2.694   2.350   3.877 -0.3788  0.3148  0.0239
 5293SOL    HW127515   2.649   2.429   3.905 -1.2905  0.0151 -0.5785
 5293SOL    HW227516   2.626   2.289   3.907  1.4347 -1.1252  1.1403
 5294SOL     OW27517   3.733   1.736   9.054  0.9649 -0.0620  0.9989
 5294SOL    HW127518   3.720   1.771   9.143  1.0034  0.7167  0.7027
 5294SOL    HW227519   3.737   1.642   9.072 -0.2554 -0.2217  0.4221
 5295SOL     OW27520   3.501   3.356   7.243 -0.5423 -0.1335 -0.2063
 5295SOL    HW127521   3.561   3.430   7.230  1.5516 -1.7094  0.5036
 5295SOL    HW227522   3.464   3.341   7.156 -1.6131 -0.8334  0.3722
 5296SOL     OW27523   3.169   2.928   7.188  0.6371  0.5856  0.0489
 5296SOL    HW127524   3.137   3.018   7.195 -0.8304  0.1528 -1.2911
 5296SOL    HW227525   3.131   2.901   7.105  1.4288 -0.2608 -0.0461
 5297SOL     OW27526   1.036   2.617   1.663  0.0952 -0.2932 -0.3596
 5297SOL    HW127527   1.108   2.622   1.725  0.2011 -2.0964 -0.3403
 5297SOL    HW227528   1.086   2.618   1.582  0.8622 -1.5514  0.0979
 5298SOL     OW27529   1.417   2.815  15.446 -0.6383  0.1090  0.2039
 5298SOL    HW127530   1.411   2.878  15.374  2.6004 -0.7273 -0.7762
 5298SOL    HW227531   1.446   2.745  15.387 -4.1201 -0.7861 -0.4520
 5299SOL     OW27532   2.121   2.579  11.053  0.1487  0.2267 -0.3337
 5299SOL    HW127533   2.076   2.573  11.137 -1.2992 -0.5115 -1.1686
 5299SOL    HW227534   2.104   2.666  11.016 -2.8267  0.2895  1.2124
 5300SOL     OW27535   0.215   1.100   5.028  0.2167  0.5712  0.2173
 5300SOL    HW127536   0.132   1.116   4.984  0.4043  1.4141  0.1733
 5300SOL    HW227537   0.211   1.166   5.097 -0.6782 -0.0797  0.7888
 5301SOL     OW27538   2.408   2.844   3.624 -0.3027 -0.1680  0.6467
 5301SOL    HW127539   2.426   2.827   3.531 -0.0409  0.5505  0.5656
 5301SOL    HW227540   2.407   2.940   3.625  2.2031 -0.1702  1.5802
 5302SOL     OW27541   3.163   1.383   4.896 -0.2561 -0.2923 -0.1082
 5302SOL    HW127542   3.067   1.386   4.902 -0.3563 -1.2849 -1.2239
 5302SOL    HW227543   3.182   1.296   4.931 -0.2450 -0.8893 -1.5837
 5303SOL     OW27544   4.245   1.111   7.621 -0.1823 -0.2696 -0.5999
 5303SOL    HW127545   4.316   1.125   7.684  0.2146  1.2639 -1.3781
 5303SOL    HW227546   4.214   1.021   7.634  1.0441 -0.0092  4.1563
 5304SOL     OW27547   4.011   3.063   4.041 -0.2568  0.4023 -0.3634
 5304SOL    HW127548   4.043   3.135   3.987 -0.7777  0.7118 -0.2644
 5304SOL    HW227549   3.936   3.092   4.092  0.3801 -0.7241  1.1992
 5305SOL     OW27550   0.161   4.670   1.248 -0.9480  0.8120  0.0981
 5305SOL    HW127551   0.184   0.006   1.307  0.0320 -0.0956  0.8314
 5305SOL    HW227552   0.238   4.614   1.257 -0.3762  1.7425  0.9907
 5306SOL     OW27553   1.839   2.037   9.927 -0.1163 -0.4314  0.4608
 5306SOL    HW127554   1.927   2.073   9.936 -0.0327 -0.6293  0.4249
 5306SOL    HW227555   1.853   1.976   9.855 -1.0007 -0.1773  0.0748
 5307SOL     OW27556   3.306   1.189   5.343  0.4419  1.0962  0.0421
 5307SOL    HW127557   3.270   1.101   5.354  1.2665  0.4668 -2.4445
 5307SOL    HW227558   3.343   1.199   5.431  3.9315  1.2077 -1.4518
 5308SOL     OW27559   0.038   3.609   6.246 -0.3720 -0.0171  0.1079
 5308SOL    HW127560   0.061   3.587   6.155  0.8385 -2.0235  0.9020
 5308SOL    HW227561   0.115   3.589   6.299  1.1168 -0.1248 -2.0521
 5309SOL     OW27562   2.111   2.059  16.356  0.2250  0.5801 -0.2634
 5309SOL    HW127563   2.195   2.099  16.379  0.9905 -0.2314 -1.6968
 5309SOL    HW227564   2.082   2.029  16.442 -0.4875  0.3442 -0.5887
 5310SOL     OW27565   3.478   0.921   7.894  0.6545  0.7481 -0.2618
 5310SOL    HW127566   3.544   0.872   7.846 -0.1805 -0.1858 -0.4448
 5310SOL    HW227567   3.533   1.000   7.902  1.8406  0.0097 -1.1853
 5311SOL     OW27568   1.734   1.122   7.151  0.0040  0.0723  0.2585
 5311SOL    HW127569   1.746   1.181   7.076  0.6766  0.6454  0.8284
 5311SOL    HW227570   1.760   1.173   7.228 -0.1811  0.7418 -0.1166
 5312SOL     OW27571   3.270   1.676  16.912 -0.1084  0.0896 -0.1266
 5312SOL    HW127572   3.245   1.766  16.891 -2.5218 -0.7484 -0.8565
 5312SOL    HW227573   3.210   1.649  16.982 -0.5636 -2.7384 -1.5946
 5313SOL     OW27574   3.255   4.365   2.193 -0.5345 -0.6348 -0.1223
 5313SOL    HW127575   3.221   4.281   2.163 -0.1312 -1.2911  1.2506
 5313SOL    HW227576   3.181   4.394   2.247  0.2824  1.4819 -0.1365
 5314SOL     OW27577   1.295   0.426   2.655 -0.3099 -0.1926 -0.1551
 5314SOL    HW127578   1.332   0.485   2.721  0.7014 -0.2086 -0.7178
 5314SOL    HW227579   1.205   0.459   2.651 -0.1893  0.2203  0.5373
 5315SOL     OW27580   2.382   2.020   7.573 -0.2191  0.5847  0.3924
 5315SOL    HW127581   2.379   2.049   7.664 -0.5835  1.9233 -0.0470
 5315SOL    HW227582   2.470   2.046   7.546  0.6975 -3.5232 -0.5246
 5316SOL     OW27583   1.077   2.911   7.027  0.1798  0.2770  0.1826
 5316SOL    HW127584   1.146   2.875   6.973  0.0691 -0.4798  0.5366
 5316SOL    HW227585   1.030   2.829   7.045 -0.4653  0.5485 -0.2730
 5317SOL     OW27586   1.804   2.087   8.330  0.9741  0.1611 -0.0514
 5317SOL    HW127587   1.724   2.086   8.278  0.7152 -0.5111  0.3617
 5317SOL    HW227588   1.771   2.116   8.415  0.6903 -3.1740  0.9582
 5318SOL     OW27589   3.958   0.133   2.717  0.3458 -0.3508  0.8223
 5318SOL    HW127590   3.903   0.068   2.762  0.4421 -0.9534  0.0683
 5318SOL    HW227591   3.919   0.214   2.751 -0.4692 -0.9569  1.3287
 5319SOL     OW27592   1.564   2.070  11.524  0.1208 -0.1124  0.5857
 5319SOL    HW127593   1.566   2.044  11.616  3.7397  0.6168  0.7527
 5319SOL    HW227594   1.476   2.106  11.518  0.1063  0.0212  1.5301
 5320SOL     OW27595   1.912   2.149   6.650  0.1839  0.6337 -0.1066
 5320SOL    HW127596   1.886   2.166   6.740  1.4293  0.4874  0.2844
 5320SOL    HW227597   1.894   2.235   6.611 -1.4589  0.4000  0.1544
 5321SOL     OW27598   0.870   0.675   9.529  0.0397 -0.5653  0.3280
 5321SOL    HW127599   0.817   0.743   9.571 -0.0476 -0.0404 -0.6373
 5321SOL    HW227600   0.833   0.597   9.571 -0.7095 -0.3192  0.1082
 5322SOL     OW27601   2.705   2.255  16.599  0.3172  0.3436 -0.0895
 5322SOL    HW127602   2.661   2.188  16.652  0.1636  0.4119 -0.1311
 5322SOL    HW227603   2.786   2.266  16.649  0.6626  1.0516 -0.8137
 5323SOL     OW27604   3.539   0.248   7.701 -0.1092  0.0948  0.2227
 5323SOL    HW127605   3.589   0.228   7.622 -0.3520 -0.4058  0.1950
 5323SOL    HW227606   3.504   0.336   7.693  0.0944  0.2283  0.7643
 5324SOL     OW27607   0.220   0.816   6.333  0.6138  0.2666 -0.5142
 5324SOL    HW127608   0.264   0.732   6.349 -2.6817 -1.5528 -0.8206
 5324SOL    HW227609   0.258   0.838   6.248 -0.2228 -0.3167 -1.0469
 5325SOL     OW27610   3.293   0.022   6.158 -0.2612 -0.0994 -0.2923
 5325SOL    HW127611   3.301   0.093   6.222  0.7281 -0.3608 -0.1323
 5325SOL    HW227612   3.209   0.038   6.115  0.5339  0.7663 -1.5285
 5326SOL     OW27613   1.989   0.453   8.016  0.4121  0.6523  0.0238
 5326SOL    HW127614   2.039   0.454   7.934  2.2511 -0.7199  1.1193
 5326SOL    HW227615   2.026   0.379   8.064 -0.5013 -0.5366 -1.1126
 5327SOL     OW27616   4.436   1.441   0.034 -0.5396  0.0161 -0.6584
 5327SOL    HW127617   4.366   1.418   0.095 -1.5615 -0.4095 -1.9948
 5327SOL    HW227618   4.421   1.536   0.031 -0.0378  0.0566 -1.7611
 5328SOL     OW27619   3.283   1.566  10.534 -0.1497 -0.6049 -0.3579
 5328SOL    HW127620   3.319   1.596  10.617 -1.2552 -0.3693  0.0419
 5328SOL    HW227621   3.306   1.638  10.475  1.5871  0.3611  1.5192
 5329SOL     OW27622   3.063   0.088   5.218  0.3534 -0.3812  0.0084
 5329SOL    HW127623   2.992   0.131   5.170 -1.3441 -1.1940  1.8012
 5329SOL    HW227624   3.017   0.008   5.242  0.9580 -0.7521 -0.0809
 5330SOL     OW27625   2.069   3.153   5.771 -0.6179 -0.2418  0.1077
 5330SOL    HW127626   1.996   3.211   5.792  0.1436  0.2216  1.4481
 5330SOL    HW227627   2.067   3.169   5.677 -0.7466  0.3777  0.2165
 5331SOL     OW27628   4.548   3.612  15.552 -0.2655 -0.2707  0.8261
 5331SOL    HW127629   4.642   3.607  15.563 -0.1655  1.5210  0.8776
 5331SOL    HW227630   4.550   3.666  15.472  2.7762 -1.0193  0.4177
 5332SOL     OW27631   4.547   2.609   4.965 -0.8005  0.4590 -0.4225
 5332SOL    HW127632   4.501   2.525   4.956 -0.6493  0.3680 -0.3620
 5332SOL    HW227633   4.516   2.654   4.886  0.4383 -0.2655 -1.3352
 5333SOL     OW27634   4.331   4.386   4.030 -0.3954 -0.2293 -0.4122
 5333SOL    HW127635   4.387   4.367   3.955 -0.1627 -0.6167 -0.1399
 5333SOL    HW227636   4.261   4.322   4.015 -0.7924  0.1640 -0.2616
 5334SOL     OW27637   2.851   2.566  13.915 -0.1292  0.1941  0.6112
 5334SOL    HW127638   2.879   2.491  13.966  0.7217 -0.4726 -0.8433
 5334SOL    HW227639   2.871   2.533  13.827  0.1212 -0.6848  0.9955
 5335SOL     OW27640   1.475   2.259   3.121 -0.4065  0.1414  0.1302
 5335SOL    HW127641   1.469   2.309   3.203 -4.2797  1.2216 -0.8217
 5335SOL    HW227642   1.492   2.325   3.053 -3.0332  0.6022 -0.0830
 5336SOL     OW27643   3.321   1.226   6.595 -0.4013  0.1300 -0.3630
 5336SOL    HW127644   3.244   1.280   6.578  0.4133  2.2028  2.5518
 5336SOL    HW227645   3.346   1.214   6.504 -0.4161 -1.9156 -0.0898
 5337SOL     OW27646   0.236   1.474   9.028 -0.9010 -0.5209  0.1411
 5337SOL    HW127647   0.230   1.378   9.024 -3.7163 -0.3709  0.5575
 5337SOL    HW227648   0.322   1.484   9.069 -1.5835 -0.1419  1.4842
 5338SOL     OW27649   2.910   0.631  15.686  0.5117  0.1200 -1.1854
 5338SOL    HW127650   2.818   0.606  15.690  0.8160 -0.2510  3.5402
 5338SOL    HW227651   2.918   0.679  15.604  0.3421 -0.2345 -1.4094
 5339SOL     OW27652   2.580   2.672   6.496  0.9242  0.0601 -0.3970
 5339SOL    HW127653   2.642   2.696   6.427  0.0317 -0.8953 -1.5117
 5339SOL    HW227654   2.498   2.702   6.459  1.0694  0.5383 -0.3344
 5340SOL     OW27655   4.488   2.735   6.082 -0.6554  0.1188  0.1403
 5340SOL    HW127656   4.505   2.826   6.058  0.8963 -0.5741 -1.4085
 5340SOL    HW227657   4.517   2.730   6.174 -2.5130 -2.4245  0.5721
 5341SOL     OW27658   1.274   1.871   6.799 -0.9263  0.1337  0.2125
 5341SOL    HW127659   1.240   1.860   6.710  0.2292  0.6541 -0.2981
 5341SOL    HW227660   1.368   1.856   6.787 -1.2642 -3.4340  1.9411
 5342SOL     OW27661   4.389   1.500   6.131 -0.0479 -0.0456 -0.3807
 5342SOL    HW127662   4.380   1.444   6.054 -0.7896 -2.4674  1.4402
 5342SOL    HW227663   4.300   1.520   6.162  0.4776 -1.4943  2.0717
 5343SOL     OW27664   1.489   3.691  13.725  0.0186  0.3314 -0.0718
 5343SOL    HW127665   1.513   3.638  13.650 -0.1291 -2.2115  1.6677
 5343SOL    HW227666   1.415   3.746  13.700  0.5331  1.4315  0.8447
 5344SOL     OW27667   3.435   1.417   7.427  0.1813  0.5743 -0.0789
 5344SOL    HW127668   3.422   1.505   7.392  1.4566  0.3801 -1.0530
 5344SOL    HW227669   3.439   1.355   7.353 -0.7139  0.7430 -0.2677
 5345SOL     OW27670   0.996   2.212  12.058 -0.4191 -0.4255 -0.2118
 5345SOL    HW127671   1.035   2.195  11.973 -1.3468 -1.7301 -0.3838
 5345SOL    HW227672   1.052   2.285  12.085  3.5623 -3.4480 -0.3251
 5346SOL     OW27673   2.870   3.480   5.955 -0.4575  0.0833  0.1406
 5346SOL    HW127674   2.844   3.519   6.039  0.2463 -0.8204  0.7865
 5346SOL    HW227675   2.921   3.557   5.933  0.3612 -0.3625  0.4768
 5347SOL     OW27676   3.662   0.866  16.865 -0.3096  0.1847  0.4279
 5347SOL    HW127677   3.656   0.774  16.890  0.6097  1.0988  3.9567
 5347SOL    HW227678   3.585   0.904  16.907 -1.9651 -1.8288 -0.7425
 5348SOL     OW27679   0.162   4.139   9.134  0.1147  0.2202  0.5687
 5348SOL    HW127680   0.245   4.184   9.152  1.0961 -0.7884 -1.5060
 5348SOL    HW227681   0.200   4.060   9.097  1.2572  0.7949  0.5023
 5349SOL     OW27682   0.348   2.714   4.578 -0.0659 -0.4700  0.0123
 5349SOL    HW127683   0.283   2.658   4.537 -0.6780 -0.6102  1.1794
 5349SOL    HW227684   0.287   2.787   4.595 -1.3187 -1.5404  0.1046
 5350SOL     OW27685   1.320   0.377   7.160 -0.0730 -0.4124  0.0199
 5350SOL    HW127686   1.363   0.352   7.078 -0.7042 -0.8889 -0.1701
 5350SOL    HW227687   1.231   0.342   7.148  0.5134 -1.3869 -1.5119
 5351SOL     OW27688   0.623   3.750   3.660 -0.0237  0.0598 -0.1684
 5351SOL    HW127689   0.665   3.684   3.604 -0.1419 -1.3555  1.4093
 5351SOL    HW227690   0.537   3.707   3.656  1.2078 -2.3389 -0.7576
 5352SOL     OW27691   1.346   4.027   6.839 -0.2418 -0.0476 -0.2601
 5352SOL    HW127692   1.275   4.084   6.808  1.3761  1.1255 -1.8176
 5352SOL    HW227693   1.313   3.996   6.923  0.0311 -1.4512 -0.6739
 5353SOL     OW27694   3.418   4.501   5.277 -0.2462  0.0360  0.0190
 5353SOL    HW127695   3.415   4.575   5.337  0.7910 -0.3811  0.5816
 5353SOL    HW227696   3.328   4.511   5.244 -0.3991  1.4826  0.8879
 5354SOL     OW27697   2.233   0.166  13.832  0.1762  0.8699 -0.3788
 5354SOL    HW127698   2.241   0.197  13.742  0.1397 -0.7741 -0.9458
 5354SOL    HW227699   2.161   0.103  13.829  2.1237 -1.3221 -0.1493
 5355SOL     OW27700   2.830   0.934   2.482  0.4478  0.3571 -0.0915
 5355SOL    HW127701   2.839   0.883   2.562 -0.0497  2.8838  1.5741
 5355SOL    HW227702   2.808   0.861   2.425 -0.7802 -0.5362  1.5261
 5356SOL     OW27703   1.985   3.992   4.198  0.1464 -0.0836  0.0353
 5356SOL    HW127704   1.932   3.917   4.224  1.7074 -0.9326  0.7740
 5356SOL    HW227705   1.924   4.058   4.230  0.0413  0.1611 -0.6655
 5357SOL     OW27706   2.787   0.864   7.297 -0.0899 -0.1566 -0.1422
 5357SOL    HW127707   2.767   0.885   7.205 -0.2116  0.4841  0.0269
 5357SOL    HW227708   2.763   0.945   7.342 -1.4933 -0.1052 -0.9845
 5358SOL     OW27709   2.908   4.548  11.228  0.1800  0.7803  0.6198
 5358SOL    HW127710   2.839   4.611  11.207 -1.2277 -0.2454  2.1512
 5358SOL    HW227711   2.867   4.461  11.224 -0.4004  1.0784  0.0308
 5359SOL     OW27712   4.471   1.758  11.202 -0.3737  0.2046  0.1481
 5359SOL    HW127713   4.414   1.827  11.168 -0.8231 -0.6345 -0.7954
 5359SOL    HW227714   4.408   1.694  11.235  0.0446  0.2663  1.0475
 5360SOL     OW27715   4.004   1.065   8.390 -0.7481  0.2524 -0.2106
 5360SOL    HW127716   3.959   1.104   8.315  0.8960  0.4155 -1.0928
 5360SOL    HW227717   3.978   1.117   8.466  1.2007  0.4947  0.2657
 5361SOL     OW27718   2.802   4.076   8.154 -0.3440 -0.3490  0.1798
 5361SOL    HW127719   2.762   4.089   8.239  0.6571  0.8353  0.4671
 5361SOL    HW227720   2.776   3.985   8.139 -0.2414 -0.3803  0.1850
 5362SOL     OW27721   1.062   0.873   1.894 -0.7887  0.0096 -0.1692
 5362SOL    HW127722   1.032   0.848   1.981 -1.2556  0.8417 -0.0819
 5362SOL    HW227723   0.998   0.942   1.875 -0.7492 -0.4086 -1.8037
 5363SOL     OW27724   4.699   4.723  13.462  0.4032  0.2750  0.5756
 5363SOL    HW127725   4.679   4.666  13.387 -0.1222  0.4007  0.6156
 5363SOL    HW227726   0.050   0.017  13.436 -0.3267  2.4478  0.6585
 5364SOL     OW27727   1.295   4.076   1.072 -0.4983  0.1037  0.0902
 5364SOL    HW127728   1.374   4.068   1.018 -1.1796  0.6230 -0.9996
 5364SOL    HW227729   1.272   3.987   1.096 -0.4037 -0.1822 -0.8585
 5365SOL     OW27730   0.585   0.459   3.933  0.0611 -0.5759  0.5278
 5365SOL    HW127731   0.570   0.420   4.020 -1.0224 -1.0685  0.1201
 5365SOL    HW227732   0.643   0.531   3.959  0.5440 -1.1430  1.0242
 5366SOL     OW27733   2.539   0.593   2.284 -0.1070  0.4060 -0.3629
 5366SOL    HW127734   2.622   0.641   2.292  0.6107 -1.1208  1.3270
 5366SOL    HW227735   2.551   0.552   2.370  1.4789  0.3428 -0.6125
 5367SOL     OW27736   1.512   0.871  11.859  0.1247  0.4667 -0.3096
 5367SOL    HW127737   1.544   0.784  11.885 -1.4201 -0.4915 -1.5233
 5367SOL    HW227738   1.432   0.874  11.911 -1.0007 -0.0452 -1.9813
 5368SOL     OW27739   1.860   4.604   5.104  0.4751 -0.2286  0.1563
 5368SOL    HW127740   1.781   4.603   5.157  1.4076  0.3531  1.5480
 5368SOL    HW227741   1.914   4.668   5.150  0.2751  0.9522 -1.2651
 5369SOL     OW27742   1.423   4.570  15.621 -0.4590 -0.1429  0.2394
 5369SOL    HW127743   1.365   4.596  15.692  0.3142 -0.1503  0.8727
 5369SOL    HW227744   1.506   4.584  15.668  0.0556  0.9458 -1.0118
 5370SOL     OW27745   2.578   1.195   7.586 -0.7737  0.7036  0.1362
 5370SOL    HW127746   2.641   1.265   7.602 -0.8947  1.7521 -4.0701
 5370SOL    HW227747   2.636   1.121   7.565  0.1570  1.3754  0.3372
 5371SOL     OW27748   2.936   4.713   9.451 -0.5211 -0.1328  0.6240
 5371SOL    HW127749   2.985   0.059   9.450 -0.9435  0.1197  0.9433
 5371SOL    HW227750   2.978   4.661   9.520  0.6952 -0.4268 -0.3319
 5372SOL     OW27751   0.110   2.080   0.310 -0.1465 -0.9679  0.0687
 5372SOL    HW127752   0.193   2.121   0.335 -1.2810  0.6374  1.2099
 5372SOL    HW227753   0.073   2.153   0.261 -0.3848 -0.6279  0.7534
 5373SOL     OW27754   1.026   2.979   3.195  0.1932 -0.3154 -0.2819
 5373SOL    HW127755   0.974   2.924   3.136  1.1753 -1.2030 -0.3169
 5373SOL    HW227756   1.109   2.932   3.186  1.6845  1.9095  1.8447
 5374SOL     OW27757   1.923   1.970   5.333 -0.1822 -0.3794 -0.1827
 5374SOL    HW127758   1.886   2.043   5.381 -3.7738 -2.1897 -0.1670
 5374SOL    HW227759   1.866   1.894   5.348 -0.1573 -0.6364 -1.3232
 5375SOL     OW27760   0.460   1.852   2.853 -0.3190 -0.1631 -0.6379
 5375SOL    HW127761   0.379   1.820   2.814 -0.7892  2.2340 -1.5754
 5375SOL    HW227762   0.499   1.912   2.790 -1.6811 -0.6607 -1.9358
 5376SOL     OW27763   0.830   1.550   4.545  0.4364  0.2090  0.5538
 5376SOL    HW127764   0.905   1.495   4.523 -0.9726 -1.4121 -0.2236
 5376SOL    HW227765   0.846   1.564   4.638 -0.9468 -2.2215  1.1448
 5377SOL     OW27766   0.858   0.636   5.810  0.2448  0.1158  0.4046
 5377SOL    HW127767   0.849   0.542   5.791 -1.3084 -0.1444  2.3704
 5377SOL    HW227768   0.927   0.662   5.750 -0.2341  0.2609 -0.0732
 5378SOL     OW27769   3.515   0.282   4.041  0.4643 -0.1830  0.1948
 5378SOL    HW127770   3.481   0.196   4.016  0.5455 -0.7239  1.8879
 5378SOL    HW227771   3.498   0.273   4.135  2.8024 -0.4389  0.6003
 5379SOL     OW27772   4.675   2.095  16.044 -0.1835  0.4402 -0.9074
 5379SOL    HW127773   4.700   2.137  16.126 -1.6216 -0.0674 -0.2093
 5379SOL    HW227774   4.693   2.175  15.995 -1.2339 -0.1885 -2.3367
 5380SOL     OW27775   2.456   4.227   5.087 -0.2005  0.3208  0.1923
 5380SOL    HW127776   2.395   4.218   5.161  1.3373  4.0677  1.9329
 5380SOL    HW227777   2.444   4.136   5.061 -1.7583  0.4209  0.5554
 5381SOL     OW27778   0.955   1.450  16.684 -0.3521 -0.0152  0.1549
 5381SOL    HW127779   0.944   1.436  16.590  1.4561 -0.8997  0.0873
 5381SOL    HW227780   0.903   1.529  16.696  0.3959  0.7521 -1.7283
 5382SOL     OW27781   4.464   2.124  16.369 -0.0840 -0.4536  0.3933
 5382SOL    HW127782   4.432   2.178  16.297  0.1590  0.9442  1.3291
 5382SOL    HW227783   4.471   2.192  16.436  3.7476  0.7751 -1.3131
 5383SOL     OW27784   4.029   0.943  12.695 -0.3406 -0.1329  0.1858
 5383SOL    HW127785   4.037   0.975  12.605  0.2657 -0.3035  0.1759
 5383SOL    HW227786   4.033   0.850  12.672 -1.7933 -0.1834  0.1655
 5384SOL     OW27787   0.385   2.876   9.923  0.3296 -0.4044 -0.8169
 5384SOL    HW127788   0.306   2.840   9.963 -1.0033  2.6320 -0.6545
 5384SOL    HW227789   0.458   2.828   9.962 -0.3821  0.5759  1.7817
 5385SOL     OW27790   4.577   0.705   8.880  0.2791  0.7314  0.2524
 5385SOL    HW127791   4.544   0.654   8.806 -0.0664  2.0720 -0.5211
 5385SOL    HW227792   4.506   0.696   8.944 -0.8007  0.5244 -0.9617
 5386SOL     OW27793   0.348   0.259   1.448 -0.2778  0.5424 -0.0699
 5386SOL    HW127794   0.379   0.169   1.448  0.5506  0.8399  2.1338
 5386SOL    HW227795   0.416   0.306   1.497  0.9371  0.1414 -1.3571
 5387SOL     OW27796   2.396   1.842   2.964  0.6172 -0.0959 -0.1123
 5387SOL    HW127797   2.447   1.909   2.919 -0.9218  0.3202 -1.2643
 5387SOL    HW227798   2.392   1.772   2.898  0.5193  0.8556 -1.1194
 5388SOL     OW27799   0.715   0.249   2.017  0.1423  0.1122 -0.3290
 5388SOL    HW127800   0.769   0.210   2.087 -0.5006  1.4435  0.9010
 5388SOL    HW227801   0.765   0.222   1.940 -1.8151 -2.7317 -0.6163
 5389SOL     OW27802   2.195   3.875   4.684  0.0689 -0.0994  0.1318
 5389SOL    HW127803   2.115   3.915   4.650 -1.1469 -1.0723  1.8324
 5389SOL    HW227804   2.154   3.810   4.741  1.2900 -0.3668  0.6947
 5390SOL     OW27805   3.601   0.832   2.617  0.0919  0.0439 -0.0163
 5390SOL    HW127806   3.605   0.857   2.525  0.6608  0.2319  0.0595
 5390SOL    HW227807   3.552   0.750   2.611 -0.4847  0.3963 -0.1715
 5391SOL     OW27808   4.155   0.038   3.121  0.3057 -0.4728  0.4580
 5391SOL    HW127809   4.239   0.054   3.078  0.9415 -3.9483  0.3835
 5391SOL    HW227810   4.111   0.118   3.092 -0.4141 -1.1587 -0.3514
 5392SOL     OW27811   1.185   0.088  14.902 -0.0027 -0.7192 -0.4961
 5392SOL    HW127812   1.117   0.046  14.850 -0.1330 -2.4163  1.0486
 5392SOL    HW227813   1.249   0.017  14.898  1.9135  0.8113  2.3607
 5393SOL     OW27814   3.085   1.814  12.629 -0.1196 -0.0144 -0.0815
 5393SOL    HW127815   3.008   1.782  12.677 -1.1559  1.0258 -1.0551
 5393SOL    HW227816   3.103   1.899  12.669  0.2494  0.8690 -2.1350
 5394SOL     OW27817   3.574   1.916   3.934 -0.1287  0.2579  0.3360
 5394SOL    HW127818   3.527   1.991   3.900  1.2444  0.5385 -0.9654
 5394SOL    HW227819   3.659   1.928   3.892 -0.3365  0.7439  0.0600
 5395SOL     OW27820   0.594   2.905  16.245  0.1809 -0.0538  0.5199
 5395SOL    HW127821   0.592   2.901  16.150 -1.8412 -3.1282  0.6838
 5395SOL    HW227822   0.688   2.901  16.263 -0.1781  2.2549  2.9635
 5396SOL     OW27823   4.282   1.737   4.015  0.0016  0.7780 -0.0479
 5396SOL    HW127824   4.225   1.664   3.993 -1.2304  1.6585  0.2328
 5396SOL    HW227825   4.224   1.795   4.065 -0.0968 -0.6043  1.4288
 5397SOL     OW27826   1.239   3.918   6.517 -0.2909 -0.3466  0.1371
 5397SOL    HW127827   1.271   3.955   6.599 -4.0710  0.7406  1.0875
 5397SOL    HW227828   1.262   3.831   6.552  0.8499 -0.2009 -0.2464
 5398SOL     OW27829   0.209   2.538   2.603 -0.3567  0.1306 -0.0033
 5398SOL    HW127830   0.189   2.631   2.603 -0.6159  0.0809  4.0184
 5398SOL    HW227831   0.135   2.507   2.656 -1.0870 -2.2795 -2.4120
 5399SOL     OW27832   1.003   4.240  13.785 -0.2381 -0.3687 -0.0556
 5399SOL    HW127833   0.983   4.305  13.852 -3.0217 -1.0737 -0.2122
 5399SOL    HW227834   1.043   4.297  13.719 -0.3682 -1.5848 -1.2015
 5400SOL     OW27835   3.003   3.210   8.870  0.4441 -0.5461  0.1532
 5400SOL    HW127836   2.982   3.299   8.900  2.0859 -0.4217  0.9165
 5400SOL    HW227837   3.093   3.211   8.901  0.8687 -2.1117 -1.0833
 5401SOL     OW27838   2.785   1.042  12.092 -0.1674 -0.0389 -0.7221
 5401SOL    HW127839   2.868   1.040  12.045  0.0779 -1.9807 -0.2366
 5401SOL    HW227840   2.761   1.133  12.078 -1.1685 -0.3902 -1.3046
 5402SOL     OW27841   0.541   1.235   0.196  0.1957 -0.0374 -0.0506
 5402SOL    HW127842   0.538   1.303   0.263 -2.5069  0.4609 -0.6662
 5402SOL    HW227843   0.455   1.194   0.208  0.0284  0.2585 -0.2322
 5403SOL     OW27844   2.300   3.866  12.125 -0.2771 -0.4850  0.2468
 5403SOL    HW127845   2.351   3.940  12.092  0.4611 -0.6309  1.0652
 5403SOL    HW227846   2.324   3.790  12.072  2.1733 -0.3566  1.1635
 5404SOL     OW27847   0.980   0.199   5.098 -0.2273  0.3446 -0.1559
 5404SOL    HW127848   0.938   0.253   5.031 -1.5683  0.5719  0.8647
 5404SOL    HW227849   1.071   0.224   5.082  0.5016 -1.5770  1.0067
 5405SOL     OW27850   0.034   1.458   1.896  0.4552  0.2045  0.7483
 5405SOL    HW127851   4.681   1.478   1.868  0.8888  0.6268 -0.3301
 5405SOL    HW227852   0.054   1.529   1.957  1.3464 -0.0155  0.7181
 5406SOL     OW27853   4.442   3.430   0.802  0.9261  0.2532 -0.4068
 5406SOL    HW127854   4.386   3.363   0.842  2.2866 -0.8283 -0.3116
 5406SOL    HW227855   4.422   3.419   0.709  0.5328 -1.8309 -0.0857
 5407SOL     OW27856   4.047   1.392   0.561  0.2238  0.0011  0.0823
 5407SOL    HW127857   4.101   1.319   0.530  1.0265  0.2953  0.7624
 5407SOL    HW227858   4.036   1.437   0.478 -2.2993  1.4024  1.1777
 5408SOL     OW27859   1.577   4.018  16.820 -0.6019  0.6239 -0.7121
 5408SOL    HW127860   1.633   4.010  16.742  1.8915 -1.2114  1.3020
 5408SOL    HW227861   1.504   4.076  16.797 -0.0320  0.4923 -2.9026
 5409SOL     OW27862   3.773   4.667   2.771 -0.4248  0.2227  0.0471
 5409SOL    HW127863   3.705   4.694   2.833 -0.7623 -0.7935  0.1104
 5409SOL    HW227864   3.716   4.641   2.698 -1.3978 -0.1532  0.9449
 5410SOL     OW27865   0.631   0.668   8.256 -1.0704  0.3429 -0.4164
 5410SOL    HW127866   0.614   0.678   8.163 -1.2474 -3.0660 -0.7664
 5410SOL    HW227867   0.572   0.600   8.289 -2.3445  0.8542 -1.6620
 5411SOL     OW27868   2.871   3.597   9.592 -0.2928 -0.0779  0.0224
 5411SOL    HW127869   2.957   3.563   9.569  0.1072  1.6113 -1.0091
 5411SOL    HW227870   2.824   3.524   9.554  0.3338 -0.8933  0.8027
 5412SOL     OW27871   3.288   4.043   9.207  0.1417  0.2398 -0.0703
 5412SOL    HW127872   3.355   4.076   9.268  0.4824  0.6529 -0.6601
 5412SOL    HW227873   3.212   4.100   9.222 -0.8286 -0.8819 -0.7741
 5413SOL     OW27874   2.945   1.012   5.977  0.4323  0.5220 -0.4685
 5413SOL    HW127875   2.861   1.018   6.022  0.6046  3.0925 -0.4948
 5413SOL    HW227876   2.990   0.970   6.051 -0.4306  0.1682 -0.1461
 5414SOL     OW27877   0.389   3.929   3.839  0.2479 -0.0539  0.3106
 5414SOL    HW127878   0.463   3.878   3.805 -1.4285 -0.8596 -2.1662
 5414SOL    HW227879   0.311   3.897   3.793  0.0497 -0.3295  0.8350
 5415SOL     OW27880   3.918   3.338   6.528 -0.6739 -0.3675  0.2777
 5415SOL    HW127881   3.963   3.289   6.598  2.7459 -2.0926 -3.1201
 5415SOL    HW227882   3.971   3.334   6.449 -2.0639 -0.3026 -0.6505
 5416SOL     OW27883   4.167   4.580   5.933 -0.3683  0.2390  0.3365
 5416SOL    HW127884   4.153   4.561   5.840  1.2850 -0.3312  0.1971
 5416SOL    HW227885   4.178   4.493   5.972  1.3236  1.6422  2.9538
 5417SOL     OW27886   4.349   1.522  11.289 -0.4395  0.5951  0.1043
 5417SOL    HW127887   4.327   1.477  11.207  0.8492  1.3619 -0.6518
 5417SOL    HW227888   4.408   1.461  11.334 -0.1063  0.2799 -0.7454
 5418SOL     OW27889   4.409   1.747   2.723  0.7226 -0.0848 -0.6828
 5418SOL    HW127890   4.349   1.768   2.795 -1.5060 -0.3344 -2.4534
 5418SOL    HW227891   4.462   1.683   2.770 -0.8319  0.2559  1.5747
 5419SOL     OW27892   3.420   1.682   3.887 -0.1260  0.1606 -0.2857
 5419SOL    HW127893   3.476   1.648   3.817  0.7677 -0.6050  0.7982
 5419SOL    HW227894   3.469   1.762   3.908 -1.2705  0.9203 -0.5418
 5420SOL     OW27895   4.349   3.245   2.156 -0.5876 -0.1904 -0.0683
 5420SOL    HW127896   4.320   3.278   2.070  0.6415 -1.5632 -1.0075
 5420SOL    HW227897   4.270   3.195   2.179 -0.3558 -0.8797 -0.7664
 5421SOL     OW27898   3.217   0.307   4.715  0.3215 -0.8587 -0.4873
 5421SOL    HW127899   3.140   0.303   4.772 -1.6601  1.9990 -2.9775
 5421SOL    HW227900   3.240   0.219   4.685 -0.9769 -1.0294 -0.9912
 5422SOL     OW27901   1.539   0.481   6.860  0.2079  0.0376 -0.0763
 5422SOL    HW127902   1.533   0.387   6.876  1.9183  0.0248  0.4459
 5422SOL    HW227903   1.448   0.509   6.868 -0.5702 -1.9423 -1.7652
 5423SOL     OW27904   1.773   3.330   7.032 -0.3871  0.1331  0.4861
 5423SOL    HW127905   1.843   3.279   6.991 -2.5243 -1.3950 -1.2611
 5423SOL    HW227906   1.778   3.291   7.119 -1.2486 -0.5458  0.2276
 5424SOL     OW27907   0.534   2.752  10.508  0.1819  0.0489 -0.7005
 5424SOL    HW127908   0.449   2.795  10.504 -1.0008 -2.3308 -0.6668
 5424SOL    HW227909   0.509   2.660  10.505  0.3311 -0.0766  2.0952
 5425SOL     OW27910   1.108   1.311   7.933 -0.6010  0.4717  0.0282
 5425SOL    HW127911   1.050   1.343   7.864 -0.8727 -1.1288 -0.4820
 5425SOL    HW227912   1.146   1.234   7.890  0.3297  1.8765 -1.6473
 5426SOL     OW27913   2.046   2.356  10.386  0.0388 -0.2238 -0.0916
 5426SOL    HW127914   1.998   2.383  10.465 -0.7194 -1.5768 -0.0860
 5426SOL    HW227915   2.001   2.407  10.319  0.2765  0.3390  0.1830
 5427SOL     OW27916   1.962   1.656   5.197 -0.3983 -0.0945 -0.0635
 5427SOL    HW127917   1.873   1.676   5.227 -0.9771 -0.5735 -1.4904
 5427SOL    HW227918   1.934   1.614   5.116  0.0740  1.5828 -1.0929
 5428SOL     OW27919   2.843   2.039   6.045 -0.4744 -0.0740  0.5367
 5428SOL    HW127920   2.773   2.066   6.104 -0.4746 -0.4021  0.6857
 5428SOL    HW227921   2.870   2.123   6.007 -2.3420  1.3507  2.3727
 5429SOL     OW27922   0.089   3.583   1.080  0.7016 -0.4148 -0.4281
 5429SOL    HW127923   0.055   3.673   1.088  0.9561 -0.1494 -2.3835
 5429SOL    HW227924   0.007   3.536   1.063  0.4443 -0.2884  0.4354
 5430SOL     OW27925   2.990   4.500   3.298  0.2903 -0.7574 -0.0145
 5430SOL    HW127926   3.046   4.525   3.372 -0.9473  1.0533  0.2908
 5430SOL    HW227927   2.923   4.567   3.298  0.7858 -0.2638  0.2843
 5431SOL     OW27928   1.999   1.878   2.293  0.0917 -0.3077  0.9769
 5431SOL    HW127929   1.984   1.829   2.212 -1.8780 -1.1217  1.8560
 5431SOL    HW227930   1.911   1.878   2.328  0.1702 -0.8574  1.1751
 5432SOL     OW27931   3.281   2.122   5.992  0.3143  0.0668  0.6021
 5432SOL    HW127932   3.264   2.098   5.901  0.3282  1.9182  0.0941
 5432SOL    HW227933   3.369   2.159   5.981  0.6499 -1.1218 -0.6421
 5433SOL     OW27934   1.403   4.620   2.685 -0.2751 -0.1714  0.0694
 5433SOL    HW127935   1.402   4.674   2.764  3.6470  0.8315 -0.6014
 5433SOL    HW227936   1.494   4.608   2.660 -0.3268 -0.5565  0.0639
 5434SOL     OW27937   0.930   2.453   4.137  0.1781 -0.3859 -0.4532
 5434SOL    HW127938   0.869   2.423   4.070 -0.1542 -0.7120 -0.0112
 5434SOL    HW227939   0.961   2.536   4.103  1.8852 -0.9052 -0.1621
 5435SOL     OW27940   4.479   2.272  12.704 -0.5043  0.4737 -0.5694
 5435SOL    HW127941   4.519   2.186  12.697  0.6780  1.1617 -2.3237
 5435SOL    HW227942   4.555   2.330  12.698 -0.5496  0.8395  2.2513
 5436SOL     OW27943   0.628   3.369  11.005  0.2405 -0.3043 -0.6414
 5436SOL    HW127944   0.626   3.278  10.975 -0.9145 -0.4276 -0.2139
 5436SOL    HW227945   0.533   3.382  11.010  0.6596  2.1507  0.7212
 5437SOL     OW27946   4.182   2.801   7.135  0.2352  0.0127  0.2115
 5437SOL    HW127947   4.090   2.811   7.113  0.0378 -0.9118  0.6102
 5437SOL    HW227948   4.187   2.780   7.228  1.3454 -1.3096 -0.1444
 5438SOL     OW27949   2.192   0.916  17.291 -0.3356  0.0294  0.8155
 5438SOL    HW127950   2.211   0.956  17.206  0.6725  1.4148  1.7039
 5438SOL    HW227951   2.268   0.858  17.299  0.7327  1.0464 -2.0199
 5439SOL     OW27952   3.790   1.184   5.894 -0.1314  0.0583 -0.3887
 5439SOL    HW127953   3.748   1.174   5.979  1.1517 -0.7138  0.1571
 5439SOL    HW227954   3.723   1.136   5.845 -1.1856 -1.4708  2.5641
 5440SOL     OW27955   0.246   2.658   5.234 -0.0900 -0.1328  0.3453
 5440SOL    HW127956   0.293   2.616   5.163 -0.1700 -1.0571  0.8322
 5440SOL    HW227957   0.218   2.734   5.183  0.7107  1.6222  2.4883
 5441SOL     OW27958   0.287   3.678   2.196  0.4779 -0.1673  0.9747
 5441SOL    HW127959   0.242   3.704   2.276 -1.7267  1.8878 -0.9413
 5441SOL    HW227960   0.270   3.584   2.198  0.6760 -0.2250 -0.3216
 5442SOL     OW27961   0.863   3.144   7.624 -0.1163 -0.2614 -0.1331
 5442SOL    HW127962   0.857   3.230   7.583  0.2779  0.2221  0.8256
 5442SOL    HW227963   0.929   3.104   7.568 -0.7732  0.2548 -1.2850
 5443SOL     OW27964   4.289   0.720   3.769 -0.3232  0.2242 -0.1928
 5443SOL    HW127965   4.261   0.805   3.735  1.2377  0.3076 -1.3057
 5443SOL    HW227966   4.340   0.740   3.848  0.8026  0.2632 -0.9244
 5444SOL     OW27967   2.598   2.470   2.766 -0.2910 -0.2891 -0.4445
 5444SOL    HW127968   2.593   2.494   2.858 -2.2732 -0.2398 -0.5659
 5444SOL    HW227969   2.613   2.552   2.720 -0.6620  0.2352  0.3736
 5445SOL     OW27970   3.500   2.703   0.607 -0.1714 -0.0923  0.6202
 5445SOL    HW127971   3.447   2.623   0.605  0.8293 -0.7273 -0.8868
 5445SOL    HW227972   3.565   2.693   0.676 -0.5828  1.2330  1.1948
 5446SOL     OW27973   1.238   2.486  14.290 -0.0234  0.0152  0.7323
 5446SOL    HW127974   1.233   2.565  14.236 -0.1682  0.3619  1.2545
 5446SOL    HW227975   1.330   2.490  14.313  0.0766 -1.8142  0.6767
 5447SOL     OW27976   4.588   2.852   5.092  0.0139  0.3685 -0.2848
 5447SOL    HW127977   4.552   2.775   5.046 -1.2647  0.1387  1.1078
 5447SOL    HW227978   4.549   2.929   5.050  0.2207  1.0289  0.7374
 5448SOL     OW27979   1.199   3.668   6.888  0.2588 -0.6102 -0.0039
 5448SOL    HW127980   1.194   3.688   6.982  1.6686  0.7898 -0.2233
 5448SOL    HW227981   1.132   3.725   6.849  0.8925  1.0367  1.2776
 5449SOL     OW27982   4.017   1.140   6.737  0.3541  0.2681 -0.7320
 5449SOL    HW127983   4.109   1.140   6.763 -0.0557 -0.2327  0.7485
 5449SOL    HW227984   3.971   1.125   6.820  1.5486  1.0402  0.0671
 5450SOL     OW27985   0.495   3.943   3.292  0.0180  0.1330 -0.4715
 5450SOL    HW127986   0.420   4.001   3.283 -0.0716  0.2576  0.9657
 5450SOL    HW227987   0.565   3.993   3.250  1.4150  0.2779  1.9909
 5451SOL     OW27988   2.089   4.650   1.666  0.0161 -0.2300 -0.1834
 5451SOL    HW127989   2.087   4.674   1.759 -1.2259  2.2344 -0.8484
 5451SOL    HW227990   2.031   4.574   1.662  0.4415 -0.4731 -1.5094
 5452SOL     OW27991   3.409   4.139   2.782  0.2093 -0.2842  0.1445
 5452SOL    HW127992   3.330   4.088   2.764  0.7261 -1.3406  0.8564
 5452SOL    HW227993   3.371   4.225   2.762 -0.8554 -0.2453  2.3144
 5453SOL     OW27994   4.543   4.590   6.904 -0.4233 -0.1704 -0.6459
 5453SOL    HW127995   4.534   4.495   6.893  0.7341 -0.4776  0.9968
 5453SOL    HW227996   4.512   4.610   6.992  0.8097 -0.6794 -0.0964
 5454SOL     OW27997   3.842   3.982   5.627  0.0011  0.0450 -0.3799
 5454SOL    HW127998   3.756   3.940   5.625 -0.3018  0.6043  0.8062
 5454SOL    HW227999   3.813   4.065   5.589 -0.1979  0.9089  1.6740
 5455SOL     OW28000   1.882   2.414   7.220  0.3299  0.3512 -0.2777
 5455SOL    HW128001   1.956   2.354   7.219 -0.2302 -0.3309 -0.7271
 5455SOL    HW228002   1.930   2.497   7.222 -0.2120  0.5938  2.7404
 5456SOL     OW28003   3.431   3.623   4.886  1.1579  0.2875  0.2513
 5456SOL    HW128004   3.425   3.564   4.811  0.5818 -1.4633  1.6758
 5456SOL    HW228005   3.491   3.680   4.839  2.5557 -1.2506  0.1429
 5457SOL     OW28006   4.172   3.222   2.516 -0.2673  0.0431 -0.1939
 5457SOL    HW128007   4.250   3.179   2.480  0.2499  1.7786 -1.1147
 5457SOL    HW228008   4.137   3.149   2.567 -2.0775  0.3427 -1.0304
 5458SOL     OW28009   2.305   2.460   6.867  0.0994 -0.2630  0.5111
 5458SOL    HW128010   2.373   2.455   6.800 -0.9116 -3.8567 -0.2156
 5458SOL    HW228011   2.297   2.555   6.879 -2.0140 -0.5411  1.2913
 5459SOL     OW28012   0.975   2.387   1.231  0.0078 -0.7354  0.0431
 5459SOL    HW128013   1.046   2.327   1.252 -2.3873 -4.2529 -1.8530
 5459SOL    HW228014   0.974   2.449   1.304  0.5832 -0.9116  0.2011
 5460SOL     OW28015   0.781   3.140  15.668  0.2956  0.1042  0.0343
 5460SOL    HW128016   0.716   3.094  15.720  1.2647  1.8616  2.8206
 5460SOL    HW228017   0.839   3.070  15.639  1.4145  0.4764  1.3572
 5461SOL     OW28018   3.133   0.833   4.849  0.0787 -0.0650  0.0111
 5461SOL    HW128019   3.070   0.787   4.905 -1.3221  0.4379 -1.1479
 5461SOL    HW228020   3.217   0.806   4.885  0.2650 -0.2810 -0.5881
 5462SOL     OW28021   2.449   0.180   7.222  0.0515  0.1153 -0.4211
 5462SOL    HW128022   2.530   0.198   7.174  1.3869 -1.1681  1.3888
 5462SOL    HW228023   2.489   0.156   7.305  0.7876  0.6315 -0.6236
 5463SOL     OW28024   3.018   4.134   1.588 -0.0531  0.3071 -0.5723
 5463SOL    HW128025   3.081   4.097   1.649  1.1032  0.8088 -1.4582
 5463SOL    HW228026   3.049   4.223   1.568  1.8883 -0.2608 -0.1135
 5464SOL     OW28027   3.336   2.694   9.527  0.2135 -0.1001 -0.0023
 5464SOL    HW128028   3.389   2.624   9.489  0.6611 -0.4629  1.2904
 5464SOL    HW228029   3.371   2.765   9.473  0.4817 -1.0075 -1.0125
 5465SOL     OW28030   1.341   1.380  17.195 -0.4983  0.8537  0.2309
 5465SOL    HW128031   1.381   1.439  17.259 -0.0486  1.8155 -0.9430
 5465SOL    HW228032   1.390   1.298  17.201  0.2075  1.2250 -0.5010
 5466SOL     OW28033   3.756   3.963   7.496  0.2675 -0.5404  0.1888
 5466SOL    HW128034   3.827   4.004   7.545 -0.8498  0.4383  0.9912
 5466SOL    HW228035   3.809   3.919   7.430 -0.0351 -1.0903  0.3186
 5467SOL     OW28036   4.039   0.174   8.417 -0.0534  0.2313 -0.1252
 5467SOL    HW128037   3.949   0.185   8.449 -0.4755 -3.8680  0.0783
 5467SOL    HW228038   4.078   0.206   8.498 -1.3112  0.1049  0.5343
 5468SOL     OW28039   2.371   2.062  10.104 -0.2881 -0.4251 -0.0594
 5468SOL    HW128040   2.371   2.098  10.192  1.9826  2.0495 -1.0691
 5468SOL    HW228041   2.278   2.040  10.093 -0.1562 -2.3039  2.7500
 5469SOL     OW28042   2.225   3.138   7.868 -0.0925 -0.2360 -0.1096
 5469SOL    HW128043   2.198   3.215   7.817  1.3086  0.7675  0.6619
 5469SOL    HW228044   2.149   3.080   7.861 -0.1623 -0.0344 -1.0406
 5470SOL     OW28045   0.332   2.890   3.446  0.1353  0.1149  0.4887
 5470SOL    HW128046   0.408   2.843   3.412  1.2850  3.4031 -1.4382
 5470SOL    HW228047   0.322   2.963   3.385 -0.8343  1.1637  1.9136
 5471SOL     OW28048   2.355   0.075   9.839 -0.2338  0.4205 -0.4388
 5471SOL    HW128049   2.373   4.718   9.826  2.1986  0.8650 -0.3569
 5471SOL    HW228050   2.365   0.074   9.934  3.0485 -1.8482 -0.8003
 5472SOL     OW28051   3.808   3.820   7.246  0.6916  0.5022  0.0749
 5472SOL    HW128052   3.789   3.782   7.160 -1.6831 -1.5924  1.5409
 5472SOL    HW228053   3.904   3.819   7.245  0.6676 -1.8486 -0.7211
 5473SOL     OW28054   0.433   2.032   9.174  0.2043  0.0272  0.3780
 5473SOL    HW128055   0.379   1.967   9.129 -0.2013  0.0482  0.8354
 5473SOL    HW228056   0.417   2.105   9.114 -0.1206 -0.9476 -0.7208
 5474SOL     OW28057   0.683   0.453   7.181 -0.1846 -0.5248 -0.1425
 5474SOL    HW128058   0.592   0.480   7.176  0.0457  0.4303  0.7710
 5474SOL    HW228059   0.692   0.446   7.086 -0.2012 -3.5101  0.0986
 5475SOL     OW28060   2.835   3.311   7.117 -0.1422 -0.1064 -0.0180
 5475SOL    HW128061   2.848   3.339   7.208 -1.9991  2.1553 -0.4601
 5475SOL    HW228062   2.751   3.350   7.093  0.0405  0.7179  0.6752
 5476SOL     OW28063   1.395   1.584   4.281  0.5640  0.9025  0.5411
 5476SOL    HW128064   1.323   1.584   4.343 -0.2275  0.8367 -0.3787
 5476SOL    HW228065   1.367   1.620   4.197 -0.7921 -2.2116 -0.3003
 5477SOL     OW28066   1.303   2.004   2.054 -0.3051 -0.0811  0.1591
 5477SOL    HW128067   1.232   1.959   2.099  1.4018 -2.2963  0.5916
 5477SOL    HW228068   1.267   2.002   1.965 -0.6042 -0.5865  0.2978
 5478SOL     OW28069   1.636   3.466   4.852 -0.2347 -0.2535 -0.0952
 5478SOL    HW128070   1.729   3.463   4.828 -0.8831 -0.2375 -2.6563
 5478SOL    HW228071   1.646   3.405   4.925 -0.8512  0.8644  0.9143
 5479SOL     OW28072   2.217   3.483   5.649  0.0236 -0.4712 -0.3483
 5479SOL    HW128073   2.234   3.509   5.739 -1.8836  2.5880 -0.8805
 5479SOL    HW228074   2.123   3.465   5.647 -0.0044  0.0251 -3.8324
 5480SOL     OW28075   2.445   0.146   4.302 -0.2687 -0.1741 -0.1998
 5480SOL    HW128076   2.422   0.059   4.336 -1.5926  0.1857 -0.1866
 5480SOL    HW228077   2.517   0.167   4.361  0.4238  0.0447 -1.1303
 5481SOL     OW28078   0.616   3.887   6.551  0.2855  0.1910  0.1381
 5481SOL    HW128079   0.585   3.910   6.464  2.6785  2.6766 -0.0459
 5481SOL    HW228080   0.661   3.966   6.582  0.9316  0.4820 -1.5691
 5482SOL     OW28081   3.558   1.340   0.917 -0.3364 -0.1902  0.4447
 5482SOL    HW128082   3.619   1.365   0.847  0.5169 -0.6857  1.0114
 5482SOL    HW228083   3.565   1.416   0.974 -0.2889  1.1766 -1.3948
 5483SOL     OW28084   0.644   0.778   5.900  0.2142 -0.3202  0.3512
 5483SOL    HW128085   0.623   0.824   5.819  1.8511 -1.0905 -0.5212
 5483SOL    HW228086   0.723   0.730   5.874  1.3797  1.0451  1.3983
 5484SOL     OW28087   0.486   4.615  14.391  0.3831  0.1823  0.0877
 5484SOL    HW128088   0.430   4.627  14.468 -0.6433 -1.3364 -0.4114
 5484SOL    HW228089   0.562   4.568  14.427  0.3484 -1.1103 -1.5348
 5485SOL     OW28090   0.601   0.716   5.257 -0.2333 -0.9889 -0.0001
 5485SOL    HW128091   0.620   0.733   5.349 -0.5162  0.8227 -0.2637
 5485SOL    HW228092   0.669   0.652   5.238  0.0340 -0.4545 -0.8498
 5486SOL     OW28093   1.103   1.516   9.116  0.2330 -0.1336 -0.2048
 5486SOL    HW128094   1.027   1.494   9.171  2.3766 -2.7356  1.6887
 5486SOL    HW228095   1.173   1.478   9.169  0.0666  1.3660  1.1269
 5487SOL     OW28096   4.573   3.996  13.571  0.4005 -0.2012  0.0065
 5487SOL    HW128097   4.602   3.941  13.644  2.4313  0.4624 -0.3044
 5487SOL    HW228098   4.611   4.081  13.592  1.0769 -0.3904 -0.4345
 5488SOL     OW28099   2.590   4.021   7.636  0.0259  0.4681  0.4740
 5488SOL    HW128100   2.655   3.954   7.613 -0.4499  0.3483 -0.5297
 5488SOL    HW228101   2.574   4.044   7.545  0.0287 -0.3613  0.2638
 5489SOL     OW28102   0.345   3.245   5.460  0.3504  0.4850 -0.5511
 5489SOL    HW128103   0.275   3.309   5.476  0.7130  0.7523 -0.0394
 5489SOL    HW228104   0.385   3.262   5.545  2.5496 -2.2697 -1.0467
 5490SOL     OW28105   3.019   0.578   4.187 -0.8370 -0.4811 -0.0303
 5490SOL    HW128106   3.025   0.497   4.136  0.7329  0.0735 -0.7259
 5490SOL    HW228107   3.110   0.588   4.215 -0.7645  1.5336 -0.9704
 5491SOL     OW28108   0.611   3.943   0.113 -0.4378 -0.3859  0.0778
 5491SOL    HW128109   0.641   3.866   0.065  1.3675  1.4297 -1.7396
 5491SOL    HW228110   0.694   3.987   0.134 -1.6854  3.0989 -2.1507
 5492SOL     OW28111   2.753   4.527   5.980 -0.0486 -0.7497  0.0651
 5492SOL    HW128112   2.773   4.545   5.888  0.3086 -0.4747  0.1981
 5492SOL    HW228113   2.750   4.612   6.024 -0.8806 -0.1899 -1.0975
 5493SOL     OW28114   3.588   4.445   3.176  0.2002  0.2955  0.2778
 5493SOL    HW128115   3.673   4.449   3.132  0.5219 -1.3463  0.7532
 5493SOL    HW228116   3.568   4.358   3.142  1.5233 -0.1594  0.6583
 5494SOL     OW28117   3.353   1.432  15.764 -0.2554  0.2416  0.3918
 5494SOL    HW128118   3.259   1.446  15.760 -0.3522  0.3275  3.1228
 5494SOL    HW228119   3.369   1.383  15.683  0.4208  1.3239 -0.1387
 5495SOL     OW28120   2.494   3.235   0.856 -0.1411  0.6122 -0.0526
 5495SOL    HW128121   2.403   3.214   0.875  0.3278  0.6144  2.0901
 5495SOL    HW228122   2.518   3.301   0.920 -0.1348  0.8149 -0.2615
 5496SOL     OW28123   4.600   0.780   2.211 -0.0672 -0.1325  0.4024
 5496SOL    HW128124   4.679   0.737   2.178 -1.9328 -2.4907 -0.9722
 5496SOL    HW228125   4.571   0.725   2.283  2.2359 -1.7190  0.1064
 5497SOL     OW28126   3.380   4.073   0.705 -0.2474  0.0865 -0.4875
 5497SOL    HW128127   3.334   4.003   0.751  1.6536 -0.3156  0.8320
 5497SOL    HW228128   3.395   4.022   0.626  0.9884 -2.2871  1.2727
 5498SOL     OW28129   1.767   3.924   7.262 -0.5179  0.5487  0.1649
 5498SOL    HW128130   1.700   3.953   7.201 -2.1566  0.4855  1.9561
 5498SOL    HW228131   1.736   3.842   7.299 -0.2683 -0.4762 -1.9213
 5499SOL     OW28132   2.534   0.413  15.443  0.2120  0.6220 -0.3095
 5499SOL    HW128133   2.604   0.456  15.393  1.0192 -1.0382 -0.6125
 5499SOL    HW228134   2.503   0.353  15.376  0.3095 -0.2503  0.4406
 5500SOL     OW28135   4.695   3.488   8.176  0.2922 -0.5917 -0.6212
 5500SOL    HW128136   0.013   3.510   8.099  2.1424 -1.0052  0.5507
 5500SOL    HW228137   0.021   3.436   8.227  0.1031  1.1510  1.4097
 5501SOL     OW28138   2.338   2.781   1.958  0.1905 -0.3047  0.3343
 5501SOL    HW128139   2.429   2.757   1.978  0.0622 -0.4216  0.7822
 5501SOL    HW228140   2.286   2.744   2.030 -0.5654  1.0558  0.4879
 5502SOL     OW28141   1.334   4.266   9.372  0.5264 -0.1585 -0.4939
 5502SOL    HW128142   1.348   4.216   9.291  0.5464 -0.8294 -0.0820
 5502SOL    HW228143   1.243   4.294   9.375  0.5671 -0.1136  0.2667
 5503SOL     OW28144   4.385   3.242   6.713  0.7141 -0.7589 -0.0010
 5503SOL    HW128145   4.362   3.287   6.794  2.6849  0.9984 -0.4408
 5503SOL    HW228146   4.381   3.320   6.659  1.3180 -0.5227  0.2948
 5504SOL     OW28147   2.418   1.097  15.166  0.6427 -0.3149 -0.3065
 5504SOL    HW128148   2.407   1.028  15.101  3.5041 -0.5492 -0.5118
 5504SOL    HW228149   2.363   1.158  15.116  1.4583  0.1639 -0.6130
 5505SOL     OW28150   3.794   4.718   5.315  0.6930 -0.2053 -0.3680
 5505SOL    HW128151   3.794   4.672   5.231 -0.4788  1.2476 -1.1647
 5505SOL    HW228152   3.721   0.044   5.319 -0.9516 -2.0940 -1.1239
 5506SOL     OW28153   2.718   3.233   8.822  0.8936  0.2685  0.3996
 5506SOL    HW128154   2.750   3.273   8.741 -1.7076 -0.8417 -1.1768
 5506SOL    HW228155   2.804   3.202   8.851  1.7505  2.1826 -0.1397
 5507SOL     OW28156   3.921   1.145  13.216  0.1753  0.0130 -0.0578
 5507SOL    HW128157   3.998   1.200  13.230 -0.9215  2.1115 -2.0811
 5507SOL    HW228158   3.951   1.107  13.133  2.0387  1.4547 -0.0615
 5508SOL     OW28159   4.417   3.732   3.367 -0.6418  0.2634  0.0514
 5508SOL    HW128160   4.333   3.729   3.322 -1.4373 -0.4058  1.5666
 5508SOL    HW228161   4.474   3.703   3.296  0.6384  0.8319  0.8380
 5509SOL     OW28162   0.929   0.882  12.192 -0.1590 -0.1875 -0.0461
 5509SOL    HW128163   0.991   0.817  12.158  1.1003  0.8045  0.3475
 5509SOL    HW228164   0.991   0.925  12.251  1.4360 -2.0114 -0.3829
 5510SOL     OW28165   2.145   1.839   5.267  0.4629 -0.1143 -0.7230
 5510SOL    HW128166   2.080   1.909   5.274  1.2189  0.3352  1.7953
 5510SOL    HW228167   2.095   1.765   5.232 -2.2424  0.4156  2.0693
 5511SOL     OW28168   0.455   3.239   5.718 -0.4039 -0.4323 -0.1912
 5511SOL    HW128169   0.419   3.294   5.788  0.9922 -0.0015  0.1937
 5511SOL    HW228170   0.427   3.153   5.748  1.4503 -0.6611  0.9153
 5512SOL     OW28171   2.165   2.348   6.542 -0.2364 -0.6177  0.1090
 5512SOL    HW128172   2.133   2.306   6.622  0.2838 -0.5542  0.3528
 5512SOL    HW228173   2.156   2.443   6.554  1.2346 -0.5602  0.8203
 5513SOL     OW28174   1.381   2.179   5.528 -0.1815 -0.2903 -0.0205
 5513SOL    HW128175   1.465   2.214   5.556 -0.2908 -0.0089 -0.0431
 5513SOL    HW228176   1.345   2.116   5.590 -1.9094 -0.6785 -1.4095
 5514SOL     OW28177   0.982   1.483   2.400 -0.7085 -0.0938  0.0568
 5514SOL    HW128178   0.904   1.463   2.451 -2.1959 -0.0926 -2.2169
 5514SOL    HW228179   1.032   1.528   2.468 -1.7350  2.4668 -0.8855
 5515SOL     OW28180   0.969   1.495   1.183 -0.0262  0.1158  0.2968
 5515SOL    HW128181   0.902   1.452   1.236  0.4256 -1.9908 -0.8328
 5515SOL    HW228182   0.990   1.568   1.241  0.9335  0.8311 -0.9473
 5516SOL     OW28183   4.441   2.148   7.362 -0.3038  0.3845  0.3131
 5516SOL    HW128184   4.440   2.226   7.306 -2.4823 -0.2671 -0.5840
 5516SOL    HW228185   4.359   2.105   7.338 -0.6720  0.9855  0.5005
 5517SOL     OW28186   1.899   0.736   5.362 -0.4801  0.3386 -0.2823
 5517SOL    HW128187   1.964   0.695   5.305  2.7073  3.6644  0.9747
 5517SOL    HW228188   1.953   0.807   5.396 -0.5917  0.0200  0.5513
 5518SOL     OW28189   4.235   2.112   6.281 -0.3744  0.4921  0.1277
 5518SOL    HW128190   4.229   2.072   6.367 -1.9934  0.5165  0.0300
 5518SOL    HW228191   4.314   2.067   6.250 -0.3071  0.8406 -0.2031
 5519SOL     OW28192   3.668   4.088   6.231 -0.2963 -0.1453 -0.1153
 5519SOL    HW128193   3.653   4.001   6.269 -0.0883 -0.4213 -0.6477
 5519SOL    HW228194   3.714   4.049   6.156  1.0239  0.8474  0.1857
 5520SOL     OW28195   0.610   0.416   7.572  0.4105 -0.0190  0.4347
 5520SOL    HW128196   0.700   0.385   7.579  0.3353 -0.7171 -1.7356
 5520SOL    HW228197   0.589   0.371   7.490  0.2447  1.9349 -0.6010
 5521SOL     OW28198   1.432   1.955   5.676 -0.4610 -0.3624  0.4526
 5521SOL    HW128199   1.438   1.862   5.653 -2.0297 -0.7355  1.5259
 5521SOL    HW228200   1.506   1.971   5.733 -1.8267  0.0545  2.1122
 5522SOL     OW28201   1.424   3.582  14.608 -0.0344  0.3543 -0.2532
 5522SOL    HW128202   1.462   3.595  14.695  0.2127 -2.0468  0.0101
 5522SOL    HW228203   1.331   3.574  14.628  0.2769  0.1994  1.1646
 5523SOL     OW28204   0.938   1.398  17.353 -0.0913 -0.3475 -0.4670
 5523SOL    HW128205   0.846   1.415  17.371 -0.1707 -1.5512  0.2211
 5523SOL    HW228206   0.958   1.360  17.438 -0.2645  1.5317  0.4107
 5524SOL     OW28207   0.678   2.822  10.265 -0.1140  0.0977  0.7049
 5524SOL    HW128208   0.633   2.779  10.338  0.6644  0.1045  1.1909
 5524SOL    HW228209   0.684   2.910  10.301 -0.8449  0.8703 -1.0815
 5525SOL     OW28210   0.521   0.572   0.312 -0.0679  0.4714 -0.0614
 5525SOL    HW128211   0.514   0.601   0.221 -0.8692  0.8928  0.1373
 5525SOL    HW228212   0.614   0.550   0.313 -0.3960 -0.8844 -0.4545
 5526SOL     OW28213   0.205   4.702  13.316 -0.1191 -0.0891 -0.1404
 5526SOL    HW128214   0.198   0.034  13.248  0.7279 -1.1913 -1.3024
 5526SOL    HW228215   0.290   4.720  13.356 -0.2706 -2.1015  1.0546
 5527SOL     OW28216   2.896   0.103   8.651  0.4321  0.2318  0.7805
 5527SOL    HW128217   2.900   0.051   8.731 -0.5948 -0.7683  0.1788
 5527SOL    HW228218   2.815   0.070   8.612  0.4874  0.2212  0.6735
 5528SOL     OW28219   1.515   4.607   9.860 -0.0948 -0.6462 -0.4136
 5528SOL    HW128220   1.564   4.536   9.818  0.7635  0.0153 -0.5060
 5528SOL    HW228221   1.576   4.672   9.827  0.4507 -0.0409  1.8400
 5529SOL     OW28222   4.398   3.571  13.557 -0.3383 -0.0101  0.3223
 5529SOL    HW128223   4.402   3.479  13.585  0.0515  0.4457  1.7838
 5529SOL    HW228224   4.346   3.550  13.480  0.7778 -2.4538  0.2250
 5530SOL     OW28225   0.440   0.728   4.175 -0.1068 -0.1320  0.5201
 5530SOL    HW128226   0.360   0.735   4.228  0.5623  0.9803  1.3752
 5530SOL    HW228227   0.455   0.634   4.170  1.5607  0.1693 -0.0214
 5531SOL     OW28228   4.528   1.140  16.262 -0.3307  0.1264  0.3194
 5531SOL    HW128229   4.586   1.213  16.285 -0.5975  0.9190 -1.4432
 5531SOL    HW228230   4.484   1.170  16.182 -0.5051  0.6208  0.5981
 5532SOL     OW28231   1.444   1.604   6.271 -0.0122  0.6472 -0.7099
 5532SOL    HW128232   1.425   1.678   6.214 -0.8125 -0.6489 -2.1242
 5532SOL    HW228233   1.359   1.562   6.277 -1.0422  2.9227  0.3004
 5533SOL     OW28234   1.926   2.778   9.688 -0.1303  0.0048 -0.0621
 5533SOL    HW128235   1.890   2.864   9.706 -0.3070 -0.1738  0.4463
 5533SOL    HW228236   1.971   2.769   9.772  1.6039 -1.0106 -1.0944
 5534SOL     OW28237   1.855   2.889  10.114 -0.1215  0.2608 -1.0423
 5534SOL    HW128238   1.853   2.828  10.188 -0.7034 -0.4263 -1.6286
 5534SOL    HW228239   1.762   2.902  10.095  0.4369  5.0782 -0.4603
 5535SOL     OW28240   2.012   0.911   3.421 -0.3556 -0.3830 -0.7337
 5535SOL    HW128241   1.945   0.970   3.456  0.0229  0.5625 -1.5782
 5535SOL    HW228242   2.074   0.981   3.401  0.3141 -0.9534 -0.6417
 5536SOL     OW28243   1.099   3.952  12.673  0.2464 -0.8528  0.4281
 5536SOL    HW128244   1.101   3.886  12.603  0.6327 -0.4663  0.0755
 5536SOL    HW228245   1.192   3.976  12.670 -0.4003  1.5035 -0.5111
 5537SOL     OW28246   1.701   0.066   9.719 -0.0621 -0.3405 -0.1533
 5537SOL    HW128247   1.787   0.090   9.755  1.0231 -2.0825 -1.5377
 5537SOL    HW228248   1.727   0.055   9.627  0.0734 -0.7373 -0.0710
 5538SOL     OW28249   2.868   4.637  11.677  0.3862  0.4609 -0.1031
 5538SOL    HW128250   2.809   4.704  11.712  1.0475 -0.3552  2.5364
 5538SOL    HW228251   2.922   4.627  11.755  2.5714  1.5461 -1.4770
 5539SOL     OW28252   4.181   0.327   5.584  0.2991 -0.1419  0.0203
 5539SOL    HW128253   4.162   0.414   5.620  1.1900  0.4049 -0.8437
 5539SOL    HW228254   4.098   0.281   5.597  1.5433 -2.1674  0.7603
 5540SOL     OW28255   0.410   4.086   2.576  0.1737  0.4102 -0.0929
 5540SOL    HW128256   0.499   4.074   2.542 -0.2543 -0.3814 -0.9275
 5540SOL    HW228257   0.361   4.091   2.494 -1.9392 -0.9458  1.0821
 5541SOL     OW28258   3.182   3.683   4.012  0.6995  0.2405 -0.1340
 5541SOL    HW128259   3.263   3.704   3.967  1.0603 -2.9356 -0.9750
 5541SOL    HW228260   3.159   3.774   4.029 -0.3610 -0.4706  2.2009
 5542SOL     OW28261   2.817   2.492   2.524  0.2357  0.2098  0.5545
 5542SOL    HW128262   2.898   2.543   2.520  0.0037  0.2989 -3.4618
 5542SOL    HW228263   2.763   2.550   2.577 -3.3772 -2.2456 -0.4609
 5543SOL     OW28264   0.869   0.030  12.569  0.0995  0.1536 -0.2382
 5543SOL    HW128265   0.800   0.030  12.502 -0.7952  1.5451  0.6962
 5543SOL    HW228266   0.901   4.676  12.568  0.2598  0.2086  0.7426
 5544SOL     OW28267   2.387   2.441   7.835  0.6291  0.4607  0.2677
 5544SOL    HW128268   2.457   2.447   7.900  0.1113 -2.7035  1.1065
 5544SOL    HW228269   2.356   2.352   7.848  0.0767  0.3258 -1.9672
 5545SOL     OW28270   2.374   1.954   5.197  0.1864 -0.3529 -0.1306
 5545SOL    HW128271   2.411   1.947   5.285 -0.8346 -1.5976  0.2076
 5545SOL    HW228272   2.290   1.915   5.221 -0.5386  0.5332 -1.2156
 5546SOL     OW28273   0.569   4.272   1.563  0.1428 -1.0422  0.3535
 5546SOL    HW128274   0.488   4.289   1.610  0.0914  0.3882 -0.2479
 5546SOL    HW228275   0.527   4.211   1.502  1.1649 -1.9045  0.5021
 5547SOL     OW28276   2.549   3.796   7.865 -0.0045  0.7036  0.4913
 5547SOL    HW128277   2.632   3.777   7.908 -0.0794 -0.2438  0.2078
 5547SOL    HW228278   2.578   3.869   7.810 -1.5711  0.7575 -0.2530
 5548SOL     OW28279   2.731   1.302   3.852 -0.0198 -0.2870  0.4324
 5548SOL    HW128280   2.754   1.221   3.806 -1.3703 -1.4697  1.8611
 5548SOL    HW228281   2.797   1.299   3.922  0.1600  0.7041  0.2995
 5549SOL     OW28282   0.439   4.711   6.809 -0.2505 -0.2148 -0.4239
 5549SOL    HW128283   0.442   4.633   6.753  0.1391 -1.8033  1.8380
 5549SOL    HW228284   0.368   0.034   6.784  0.0840  1.0466  1.6343
 5550SOL     OW28285   3.515   0.468   8.982  0.6406  0.2497  0.3098
 5550SOL    HW128286   3.448   0.522   9.024  0.9227  1.9338 -1.4302
 5550SOL    HW228287   3.519   0.396   9.045 -0.1820  0.4744  0.6193
 5551SOL     OW28288   3.935   4.634   4.858  0.0424  0.2294  0.1269
 5551SOL    HW128289   3.964   4.550   4.894  0.4889  0.7175  0.9054
 5551SOL    HW228290   3.847   4.636   4.895  0.5196  3.2860  1.0676
 5552SOL     OW28291   3.022   2.651   9.532  0.0386 -0.2661 -0.4030
 5552SOL    HW128292   2.986   2.639   9.620  0.4666  1.0821 -0.0467
 5552SOL    HW228293   3.116   2.649   9.551 -0.0271 -0.1870 -0.0770
 5553SOL     OW28294   2.907   2.955  12.932 -0.0442  0.1116 -0.0986
 5553SOL    HW128295   2.966   3.030  12.930  0.6683 -0.3680  2.5705
 5553SOL    HW228296   2.824   3.003  12.930 -0.7723 -1.0651  1.3154
 5554SOL     OW28297   1.796   1.402  12.103 -0.0984 -0.1668 -0.1221
 5554SOL    HW128298   1.811   1.320  12.056 -1.7562 -1.6598  1.9130
 5554SOL    HW228299   1.709   1.387  12.141  1.3429 -3.6157  1.8445
 5555SOL     OW28300   1.489   1.661   3.397 -0.1606  0.6470  0.0693
 5555SOL    HW128301   1.583   1.662   3.415 -0.1579 -2.7470  0.1427
 5555SOL    HW228302   1.492   1.716   3.318  0.2680 -1.3314 -1.3072
 5556SOL     OW28303   3.842   0.795   9.617 -0.0635  0.0157  0.4832
 5556SOL    HW128304   3.878   0.821   9.703  1.0419 -0.9012  0.2913
 5556SOL    HW228305   3.882   0.868   9.569  0.8660 -0.0450  1.1564
 5557SOL     OW28306   2.383   0.038  10.121  0.4206 -0.3070  0.8170
 5557SOL    HW128307   2.298   0.081  10.107 -0.0332 -1.0974  1.1358
 5557SOL    HW228308   2.442   0.114  10.120  1.6604 -1.2824  0.3405
 5558SOL     OW28309   3.699   3.959   2.345  0.5790  0.0790 -0.3656
 5558SOL    HW128310   3.748   4.040   2.340 -0.0051  0.4466 -0.1599
 5558SOL    HW228311   3.641   3.986   2.416  1.7200 -1.1264  1.0220
 5559SOL     OW28312   4.581   3.103   5.858 -0.1063 -0.1849 -0.2011
 5559SOL    HW128313   4.543   3.186   5.886  1.7297  0.6184 -0.0722
 5559SOL    HW228314   4.592   3.051   5.938  3.1802 -0.4399 -0.8100
 5560SOL     OW28315   3.858   3.061   3.235 -0.0192  0.0836 -0.4337
 5560SOL    HW128316   3.843   3.152   3.261  0.8012 -0.1172  0.6951
 5560SOL    HW228317   3.939   3.074   3.185  0.9318 -4.7860 -0.1107
 5561SOL     OW28318   3.472   4.226   7.320 -0.5161 -0.1890  0.3433
 5561SOL    HW128319   3.465   4.318   7.344  2.0638  0.4883 -1.5864
 5561SOL    HW228320   3.389   4.198   7.360 -0.1828 -0.0428  1.1433
 5562SOL     OW28321   2.205   1.544  17.255 -0.3665 -0.1218  0.0006
 5562SOL    HW128322   2.296   1.547  17.286 -0.2878  3.1983 -0.4732
 5562SOL    HW228323   2.158   1.589  17.326  0.4895  0.5584  0.1434
 5563SOL     OW28324   3.699   4.518  16.584  0.0814  0.0651  0.3029
 5563SOL    HW128325   3.624   4.485  16.536 -0.8828 -0.5908  2.2985
 5563SOL    HW228326   3.657   4.600  16.610 -2.8475 -1.6846  1.0083
 5564SOL     OW28327   2.413   0.847   7.307 -0.3514 -0.4335  0.2444
 5564SOL    HW128328   2.444   0.771   7.259  2.1163 -1.4239  3.4313
 5564SOL    HW228329   2.431   0.920   7.248 -2.8909  0.8295  1.0196
 5565SOL     OW28330   1.289   2.975   6.187  0.6387  0.1169  0.2855
 5565SOL    HW128331   1.289   3.064   6.222  0.4107  0.1359  0.2385
 5565SOL    HW228332   1.302   2.982   6.092  2.6821 -0.8712  0.4966
 5566SOL     OW28333   4.263   3.452   4.411 -0.3130  0.1806 -0.2395
 5566SOL    HW128334   4.266   3.357   4.420 -0.0880  0.1644 -0.5002
 5566SOL    HW228335   4.277   3.467   4.318 -2.9483  1.5079 -0.4266
 5567SOL     OW28336   1.673   0.381   2.973 -0.6851 -0.0378  0.8044
 5567SOL    HW128337   1.755   0.333   2.982 -0.7185  0.2637  2.7231
 5567SOL    HW228338   1.670   0.394   2.878 -0.6702 -0.7061  0.7124
 5568SOL     OW28339   4.083   1.489   6.168  0.3163  0.0549 -0.1863
 5568SOL    HW128340   4.049   1.473   6.256  1.1631 -1.5035 -0.1365
 5568SOL    HW228341   4.068   1.412   6.113 -1.2135  0.4688 -0.3402
 5569SOL     OW28342   3.291   2.805   4.298 -0.4548  0.0407 -0.2261
 5569SOL    HW128343   3.267   2.729   4.351 -0.3948 -0.0331 -0.3053
 5569SOL    HW228344   3.204   2.821   4.262 -0.3832 -0.6791 -0.7082
 5570SOL     OW28345   1.191   2.771   4.959 -0.0109 -0.1756 -0.7238
 5570SOL    HW128346   1.180   2.712   5.034 -0.7397  1.4260  0.4232
 5570SOL    HW228347   1.109   2.819   4.948  0.3342  0.3428 -0.9697
 5571SOL     OW28348   0.174   2.425   4.177  0.2852 -0.3398  0.5144
 5571SOL    HW128349   0.127   2.476   4.111 -0.5010  0.6107  1.8007
 5571SOL    HW228350   0.202   2.354   4.119 -3.4518 -0.8244 -0.7063
 5572SOL     OW28351   1.884   0.832   8.295  0.2040 -0.3281 -0.1856
 5572SOL    HW128352   1.818   0.777   8.252 -0.9888 -0.1679  1.4235
 5572SOL    HW228353   1.953   0.814   8.231 -1.0040 -3.2628 -0.6777
 5573SOL     OW28354   2.721   0.465   8.806  0.4473  0.8029 -0.3526
 5573SOL    HW128355   2.769   0.546   8.788  1.4219  0.5940  1.2890
 5573SOL    HW228356   2.773   0.429   8.878 -1.4669 -0.6976  0.2665
 5574SOL     OW28357   2.393   0.598   9.022  0.0267  0.6690 -0.2141
 5574SOL    HW128358   2.420   0.577   8.932  1.3054  2.8771 -0.3475
 5574SOL    HW228359   2.306   0.559   9.012  1.5466 -2.7016 -0.2999
 5575SOL     OW28360   1.264   3.630   3.960 -0.0859 -0.0977  0.7152
 5575SOL    HW128361   1.341   3.593   3.917 -2.2032 -1.5717 -1.8402
 5575SOL    HW228362   1.199   3.565   3.934  2.1798 -2.0186 -0.1508
 5576SOL     OW28363   0.554   4.575  10.960 -0.2081 -0.4041  0.0016
 5576SOL    HW128364   0.521   4.589  10.871  2.7223  2.6066 -0.5984
 5576SOL    HW228365   0.599   4.491  10.948  1.8998  0.2799  3.1962
 5577SOL     OW28366   2.326   2.845  14.865  0.8029 -0.2674 -0.2363
 5577SOL    HW128367   2.417   2.827  14.887  1.8968  2.5149 -2.5875
 5577SOL    HW228368   2.286   2.800  14.940  0.8496 -0.7152 -0.4810
 5578SOL     OW28369   0.757   3.045   5.355  0.4038  0.3852  0.6783
 5578SOL    HW128370   0.818   3.118   5.359  1.1479 -0.1892 -0.2897
 5578SOL    HW228371   0.769   2.998   5.438 -3.2232 -0.0242  0.9653
 5579SOL     OW28372   0.287   0.163   5.473 -0.3065  0.1214  0.1402
 5579SOL    HW128373   0.274   0.103   5.399 -5.0978 -0.2875  1.3357
 5579SOL    HW228374   0.348   0.109   5.523  0.9628  1.6339  0.2224
 5580SOL     OW28375   3.092   0.859   2.357 -0.1696 -0.3533  0.0440
 5580SOL    HW128376   3.012   0.890   2.398  0.1494  0.7447 -0.1617
 5580SOL    HW228377   3.067   0.868   2.265  0.7509  0.3963 -0.1397
 5581SOL     OW28378   3.180   2.293   9.190 -0.7126  0.2294 -0.2613
 5581SOL    HW128379   3.246   2.307   9.258 -1.4025 -0.1546  0.4877
 5581SOL    HW228380   3.109   2.351   9.218 -2.6626 -1.8658 -0.7989
 5582SOL     OW28381   3.927   1.822   3.895  0.2169  0.2656 -0.3174
 5582SOL    HW128382   4.007   1.804   3.943  0.5812 -1.3868 -1.5544
 5582SOL    HW228383   3.899   1.909   3.925 -1.1117 -0.0483 -0.6403
 5583SOL     OW28384   2.335   3.878   7.631  0.2488 -0.1213 -0.5520
 5583SOL    HW128385   2.294   3.915   7.709  0.5525  0.1741 -0.5336
 5583SOL    HW228386   2.424   3.909   7.647  0.3927 -0.4521 -0.6961
 5584SOL     OW28387   0.253   1.266   1.824  0.3741  0.6723 -0.5134
 5584SOL    HW128388   0.248   1.181   1.779  0.3607  0.2406  0.2919
 5584SOL    HW228389   0.169   1.310   1.814  0.5502  1.2377  0.4881
 5585SOL     OW28390   2.085   3.726  13.738 -0.3731  0.2297  0.1221
 5585SOL    HW128391   2.001   3.768  13.717  0.0893  1.1476  0.1167
 5585SOL    HW228392   2.058   3.635  13.738  3.3721 -0.8860 -3.5774
 5586SOL     OW28393   2.687   3.232  14.242  0.2598  0.4964 -0.3835
 5586SOL    HW128394   2.749   3.188  14.184  0.0480 -1.3666  0.8177
 5586SOL    HW228395   2.735   3.253  14.322 -3.5307  0.3828  1.9563
 5587SOL     OW28396   3.706   3.563   2.246  0.6382 -0.6785 -0.2248
 5587SOL    HW128397   3.644   3.490   2.241  1.1068 -0.9290 -2.2236
 5587SOL    HW228398   3.785   3.510   2.253  1.4134  0.5637  0.5410
 5588SOL     OW28399   1.573   4.587   4.670  0.8636  0.2548  0.2283
 5588SOL    HW128400   1.562   4.605   4.764  1.2604  1.7529 -0.0111
 5588SOL    HW228401   1.575   4.679   4.646 -1.6868 -0.1845 -1.6309
 5589SOL     OW28402   0.756   3.938  14.467 -0.1307 -0.0635  0.0797
 5589SOL    HW128403   0.769   3.861  14.412  2.5167  0.7032 -0.3772
 5589SOL    HW228404   0.803   4.003  14.415 -0.3446  0.1258  0.1214
 5590SOL     OW28405   3.212   4.499   5.585 -0.3923 -0.6519 -0.0946
 5590SOL    HW128406   3.291   4.548   5.565  0.3774 -0.8851  2.2894
 5590SOL    HW228407   3.143   4.564   5.570  0.5512  0.4910  0.5676
 5591SOL     OW28408   1.843   3.706  14.820 -0.1649  0.3020  0.5527
 5591SOL    HW128409   1.922   3.672  14.861 -0.6417 -0.2392  1.0143
 5591SOL    HW228410   1.872   3.776  14.761 -0.8987  0.0530 -0.1181
 5592SOL     OW28411   2.178   4.229   9.358 -0.7120 -0.3057 -0.1552
 5592SOL    HW128412   2.118   4.283   9.306 -0.9968 -0.5568 -0.0863
 5592SOL    HW228413   2.205   4.299   9.417 -2.1101  0.2037 -0.1329
 5593SOL     OW28414   4.619   3.404   7.088 -0.0252  0.3393  0.0114
 5593SOL    HW128415   4.535   3.368   7.116  0.1289  0.5114  0.6936
 5593SOL    HW228416   4.601   3.497   7.077  0.3073  0.1010 -2.5804
 5594SOL     OW28417   4.126   1.324  13.187 -0.1981 -0.5323  0.0756
 5594SOL    HW128418   4.190   1.317  13.116 -1.0720 -0.9076 -0.6728
 5594SOL    HW228419   4.186   1.332  13.261  0.1036 -0.8114 -0.1359
 5595SOL     OW28420   1.979   0.022   0.385  0.1084  0.7147  0.3313
 5595SOL    HW128421   2.057   0.034   0.438  1.3356  3.8463 -2.2099
 5595SOL    HW228422   1.920   0.076   0.438 -0.8051  0.2305 -0.1934
 5596SOL     OW28423   3.248   3.871  17.354 -0.0030 -0.3508 -0.4584
 5596SOL    HW128424   3.214   3.955  17.383 -0.0832 -1.0710  1.5781
 5596SOL    HW228425   3.292   3.842  17.434 -2.1898 -1.2653  0.4225
 5597SOL     OW28426   2.215   0.919  12.914  0.1207 -0.1475  0.4575
 5597SOL    HW128427   2.121   0.937  12.914  0.2087  0.3362  1.5881
 5597SOL    HW228428   2.240   0.901  13.005  0.8571 -0.4809  0.1883
 5598SOL     OW28429   2.104   2.095   9.952 -0.7245 -0.1845 -0.6180
 5598SOL    HW128430   2.071   2.179   9.984  2.8407  0.1364  2.1892
 5598SOL    HW228431   2.150   2.117   9.871  0.0287 -3.3380 -1.0455
 5599SOL     OW28432   2.759   1.641   8.334  0.4183  0.6139  0.2971
 5599SOL    HW128433   2.789   1.554   8.361 -0.2780 -0.1342 -1.3360
 5599SOL    HW228434   2.845   1.684   8.334  0.0749  1.2618  2.0362
 5600SOL     OW28435   2.952   0.635   6.745 -0.2396 -0.2832  0.4038
 5600SOL    HW128436   2.930   0.726   6.729 -2.6231 -0.8241  0.6125
 5600SOL    HW228437   3.032   0.642   6.796  1.0960 -0.9265 -1.5973
 5601SOL     OW28438   0.780   4.004   6.166  0.6338 -0.3402 -0.2525
 5601SOL    HW128439   0.742   4.039   6.085 -0.9678 -0.7720  0.2999
 5601SOL    HW228440   0.701   3.984   6.216  1.6436 -2.3993  0.5143
 5602SOL     OW28441   3.618   4.353  15.497 -0.2799  0.1420 -0.0800
 5602SOL    HW128442   3.657   4.271  15.467  1.2048  0.4850  0.9376
 5602SOL    HW228443   3.662   4.372  15.580 -2.8663 -1.1125  1.5984
 5603SOL     OW28444   2.414   2.286  10.707  0.3895  0.0611 -1.0173
 5603SOL    HW128445   2.509   2.276  10.704  0.1826 -1.7414 -1.6670
 5603SOL    HW228446   2.388   2.351  10.773 -2.9768  0.1423 -2.3980
 5604SOL     OW28447   0.881   0.215   1.795  0.7476  0.1914 -0.5804
 5604SOL    HW128448   0.839   0.238   1.712 -2.0834 -1.0341  0.4998
 5604SOL    HW228449   0.927   0.297   1.809  0.8377  0.0975 -0.3253
 5605SOL     OW28450   2.050   1.243   8.776 -0.4415 -0.1780 -0.2249
 5605SOL    HW128451   1.957   1.222   8.776 -0.1480 -1.4685 -1.3769
 5605SOL    HW228452   2.074   1.288   8.695 -1.0688 -0.9965 -0.8610
 5606SOL     OW28453   3.239   3.924   7.890 -0.0402 -0.2597  0.6217
 5606SOL    HW128454   3.227   3.987   7.961  1.7536  0.3639  0.3585
 5606SOL    HW228455   3.205   3.845   7.933  0.9227 -1.4988 -0.8985
 5607SOL     OW28456   2.067   0.848   7.258 -0.3506  0.2671 -0.3090
 5607SOL    HW128457   2.103   0.922   7.209 -3.1785  2.5484  1.0747
 5607SOL    HW228458   2.131   0.780   7.236 -0.5046 -0.1582  0.5423
 5608SOL     OW28459   4.376   0.679   1.129 -0.5362 -0.1686 -0.4835
 5608SOL    HW128460   4.400   0.749   1.068 -1.1614  1.0908  0.7068
 5608SOL    HW228461   4.294   0.642   1.096 -0.7182 -0.7309  0.6158
 5609SOL     OW28462   3.865   0.511   9.378 -0.3124 -0.1425 -0.2125
 5609SOL    HW128463   3.960   0.500   9.375 -0.3968 -1.5603  1.8661
 5609SOL    HW228464   3.869   0.603   9.351  0.9033 -0.1944 -0.2056
 5610SOL     OW28465   2.653   0.787   3.321  0.4808  0.2519  0.3861
 5610SOL    HW128466   2.593   0.845   3.273  0.0421 -0.9861 -0.5677
 5610SOL    HW228467   2.595   0.772   3.395  0.0302  1.7847  0.3578
 5611SOL     OW28468   1.491   1.039   7.255 -0.8044 -0.0529  0.2526
 5611SOL    HW128469   1.545   0.991   7.317  1.3428  3.3926  1.0637
 5611SOL    HW228470   1.556   1.070   7.191 -2.6870  1.8446 -0.7644
 5612SOL     OW28471   0.250   0.108   2.579  0.0145  0.1611 -0.0464
 5612SOL    HW128472   0.255   0.041   2.512 -2.0217 -1.3306  1.2974
 5612SOL    HW228473   0.177   0.164   2.553 -0.4944 -0.6058 -0.2380
 5613SOL     OW28474   2.986   0.417  14.060  0.7050 -0.7519 -0.4289
 5613SOL    HW128475   2.978   0.375  13.974  1.1363 -0.7170 -0.4838
 5613SOL    HW228476   2.920   0.372  14.113 -0.3868  0.5174 -0.7182
 5614SOL     OW28477   2.753   4.241   4.279  0.4969 -0.4579  0.4476
 5614SOL    HW128478   2.672   4.267   4.321 -0.4627 -0.6333 -1.2852
 5614SOL    HW228479   2.725   4.176   4.215 -0.8877  0.0741  0.5268
 5615SOL     OW28480   0.217   4.328   3.066 -0.0518  0.0812 -0.3377
 5615SOL    HW128481   0.134   4.341   3.113 -0.4997  0.6652 -1.2727
 5615SOL    HW228482   0.219   4.400   3.003  0.6362  0.3586  0.0016
 5616SOL     OW28483   2.190   1.421   3.977 -0.5419  0.3566  0.6656
 5616SOL    HW128484   2.279   1.446   4.002 -0.1668  0.7351 -1.0309
 5616SOL    HW228485   2.185   1.409   3.882  0.7698  1.4831  0.4510
 5617SOL     OW28486   1.784   3.050   6.097 -0.0279 -0.1376  0.0441
 5617SOL    HW128487   1.699   3.080   6.127  0.4382  0.8288  0.3875
 5617SOL    HW228488   1.779   3.046   6.001 -1.3054 -1.9534  0.1812
 5618SOL     OW28489   4.699   4.320   3.274  0.3779  0.4453 -0.3596
 5618SOL    HW128490   4.680   4.354   3.186 -0.1253 -0.7983 -0.7237
 5618SOL    HW228491   4.716   4.403   3.319  2.3716 -0.8649  1.2801
 5619SOL     OW28492   3.889   1.463   2.535 -0.7774 -0.2897 -0.4446
 5619SOL    HW128493   3.865   1.504   2.619  1.7916  2.4272 -1.0028
 5619SOL    HW228494   3.803   1.444   2.499 -0.7865 -2.7681  0.8902
 5620SOL     OW28495   4.100   3.703  11.274 -0.0974  0.3329  0.5436
 5620SOL    HW128496   4.079   3.675  11.363  0.5808  0.7622  0.8379
 5620SOL    HW228497   4.044   3.779  11.257  1.7765  1.6787  0.4066
 5621SOL     OW28498   4.017   1.049  12.944 -0.3333 -0.1020 -0.3535
 5621SOL    HW128499   4.105   1.015  12.965  0.5431  1.6021 -1.2811
 5621SOL    HW228500   4.016   1.014  12.855  0.7184  1.4798 -0.9881
 5622SOL     OW28501   0.322   2.350   7.277 -0.1588 -0.5525 -0.2054
 5622SOL    HW128502   0.304   2.425   7.221  1.5851 -0.5645 -0.7939
 5622SOL    HW228503   0.267   2.372   7.352  1.3662 -2.5705  1.5351
 5623SOL     OW28504   2.216   2.760   7.173  0.3137 -0.0935 -0.6761
 5623SOL    HW128505   2.251   2.842   7.209 -0.4053 -0.9647  2.0168
 5623SOL    HW228506   2.299   2.713   7.166  1.2820  1.4093  0.8205
 5624SOL     OW28507   3.574   0.592   4.830  0.4822 -0.5966 -0.4546
 5624SOL    HW128508   3.607   0.625   4.746 -1.0891 -0.6195 -1.0721
 5624SOL    HW228509   3.642   0.615   4.894 -1.5766  1.2473  1.0850
 5625SOL     OW28510   3.687   3.779  15.297  0.7846  0.6883 -0.1286
 5625SOL    HW128511   3.669   3.686  15.284 -0.8050  1.0973 -0.7709
 5625SOL    HW228512   3.771   3.786  15.252  0.6197  0.0525 -0.5279
 5626SOL     OW28513   4.422   1.695   4.446  0.1221  0.7226  0.2358
 5626SOL    HW128514   4.503   1.729   4.408  0.1691  1.0016  0.5864
 5626SOL    HW228515   4.362   1.756   4.403 -0.4417 -1.2313 -1.7696
 5627SOL     OW28516   0.881   0.741   0.250  0.8317 -0.0345 -0.4848
 5627SOL    HW128517   0.914   0.831   0.260  1.2344 -0.3249  0.8008
 5627SOL    HW228518   0.802   0.753   0.198  0.3511 -1.7960 -0.1493
 5628SOL     OW28519   3.285   3.258   8.889 -0.0218  0.1952 -0.3541
 5628SOL    HW128520   3.290   3.172   8.848  0.2119 -0.9848  2.1511
 5628SOL    HW228521   3.329   3.316   8.827  1.9150  0.1639  0.9715
 5629SOL     OW28522   0.597   0.730  14.638  0.0625 -0.3837  0.0519
 5629SOL    HW128523   0.560   0.811  14.672  1.5161  0.6231 -0.8036
 5629SOL    HW228524   0.688   0.743  14.611  0.6764 -1.8793  1.3856
 5630SOL     OW28525   3.915   1.076  10.271  0.2575 -0.1063  0.1437
 5630SOL    HW128526   3.957   1.030  10.344 -1.1692 -0.7471  0.5541
 5630SOL    HW228527   3.953   1.160  10.294  2.0223 -0.1018 -2.6935
 5631SOL     OW28528   1.949   1.175   6.414 -0.0776 -0.6422  0.7844
 5631SOL    HW128529   1.932   1.267   6.393 -2.2731 -1.5141 -1.3672
 5631SOL    HW228530   1.867   1.144   6.453 -0.8018  1.8098  1.2411
 5632SOL     OW28531   0.096   0.331   0.264  0.3210 -0.7274 -0.3764
 5632SOL    HW128532   0.164   0.367   0.321  0.2137  0.3334 -0.9245
 5632SOL    HW228533   0.149   0.295   0.194  1.4657 -0.8512  0.5650
 5633SOL     OW28534   2.784   0.540   6.561 -0.2014 -0.2252  0.0195
 5633SOL    HW128535   2.758   0.606   6.497 -0.3295  2.1617  2.5380
 5633SOL    HW228536   2.842   0.576   6.628 -2.3103  0.4001  1.5033
 5634SOL     OW28537   0.446   3.708   7.962  0.3682 -0.4369  0.0292
 5634SOL    HW128538   0.535   3.683   7.934  0.3442 -1.2517  0.6683
 5634SOL    HW228539   0.402   3.716   7.877  0.1735  1.7887  0.3363
 5635SOL     OW28540   0.972   4.517  16.115 -0.9312  0.6748  0.4091
 5635SOL    HW128541   0.881   4.515  16.147 -0.0847  2.3331  2.9745
 5635SOL    HW228542   0.991   4.423  16.113  2.1249  1.3413 -1.6799
 5636SOL     OW28543   3.804   2.897   7.049  0.4020 -0.0439  0.3473
 5636SOL    HW128544   3.780   2.823   7.105  2.4985 -0.6739  0.4155
 5636SOL    HW228545   3.817   2.850   6.967 -0.5656  3.1813 -1.6524
 5637SOL     OW28546   1.562   2.182   2.317 -0.1234  0.0610 -0.0121
 5637SOL    HW128547   1.518   2.266   2.304 -1.5406 -0.3478  2.1802
 5637SOL    HW228548   1.495   2.142   2.372  0.2431 -1.9536 -1.0435
 5638SOL     OW28549   1.393   3.466   8.089  0.4952 -0.1218 -0.1746
 5638SOL    HW128550   1.310   3.512   8.102  0.2208 -0.9206  0.8785
 5638SOL    HW228551   1.455   3.514   8.144 -0.3558 -1.8630  2.3316
 5639SOL     OW28552   1.604   3.680   9.868  0.8407  0.4549  0.3648
 5639SOL    HW128553   1.522   3.730   9.868 -0.1729 -1.2059  1.6823
 5639SOL    HW228554   1.630   3.684   9.776 -1.5263  0.8714 -0.3088
 5640SOL     OW28555   1.097   3.098   5.154 -0.0965  0.1715 -0.2621
 5640SOL    HW128556   1.171   3.158   5.167  0.3298 -0.3751 -0.1223
 5640SOL    HW228557   1.051   3.117   5.236  2.1936 -0.3680  1.1563
 5641SOL     OW28558   3.720   1.548  17.616 -0.3618 -0.5884 -0.6797
 5641SOL    HW128559   3.780   1.556  17.541  0.7300  1.2523  0.3822
 5641SOL    HW228560   3.651   1.490  17.586 -2.7684  2.1205 -0.3283
 5642SOL     OW28561   0.928   0.216   0.417 -0.2941 -0.3823  0.0958
 5642SOL    HW128562   1.016   0.253   0.422  0.5045 -2.1050 -1.3046
 5642SOL    HW228563   0.923   0.164   0.498 -0.0897 -0.6958 -0.0919
 5643SOL     OW28564   2.221   2.126   3.843 -0.5049 -0.0170  0.2148
 5643SOL    HW128565   2.218   2.154   3.752  1.9755 -0.7097 -0.0809
 5643SOL    HW228566   2.309   2.088   3.840  0.4739  2.2267  0.1808
 5644SOL     OW28567   0.521   2.354   5.553 -0.2491  0.2195  0.3178
 5644SOL    HW128568   0.560   2.268   5.536  0.0734  0.4567 -0.1550
 5644SOL    HW228569   0.606   2.398   5.562 -0.9366  0.9299  3.2118
 5645SOL     OW28570   4.276   1.778  14.256  0.4437 -0.0661 -0.1805
 5645SOL    HW128571   4.353   1.797  14.309  1.1437 -1.3243 -0.7646
 5645SOL    HW228572   4.286   1.844  14.187  0.9008 -1.0496 -1.0478
 5646SOL     OW28573   3.335   4.533   1.960  0.0114 -0.4264  0.1484
 5646SOL    HW128574   3.403   4.595   1.985 -0.7285  0.2480  0.4919
 5646SOL    HW228575   3.297   4.497   2.039  0.1796  0.7172  0.7473
 5647SOL     OW28576   3.026   2.757   4.312 -0.3825 -0.1633 -0.1825
 5647SOL    HW128577   2.970   2.683   4.335  0.8990 -1.0936 -0.0621
 5647SOL    HW228578   2.966   2.824   4.279 -2.5045 -0.2686  3.4658
 5648SOL     OW28579   3.929   2.966   9.600 -0.1348  0.0004 -0.2350
 5648SOL    HW128580   3.981   2.954   9.679 -0.0269  2.2111  0.0452
 5648SOL    HW228581   3.893   2.881   9.575  1.0759 -0.2414 -1.1184
 5649SOL     OW28582   0.585   2.042  14.624 -0.4970 -0.2692 -0.4077
 5649SOL    HW128583   0.564   2.127  14.585  2.1682  0.4943 -0.1576
 5649SOL    HW228584   0.679   2.053  14.614 -0.5018  1.7341  1.7977
 5650SOL     OW28585   0.326   4.037   9.837  0.2387  0.1991  0.1957
 5650SOL    HW128586   0.288   4.034   9.925 -0.0522 -1.6696  0.0190
 5650SOL    HW228587   0.247   4.008   9.790  1.5149 -2.4944 -0.2643
 5651SOL     OW28588   2.308   4.606   3.537  0.0609 -0.3226 -0.2965
 5651SOL    HW128589   2.343   4.695   3.549 -2.0943  0.3634  0.7969
 5651SOL    HW228590   2.355   4.581   3.457  1.2538 -1.0941  0.6532
 5652SOL     OW28591   4.354   4.095  16.415  0.3027  0.1341  0.2617
 5652SOL    HW128592   4.406   4.110  16.494  1.3781  1.1431 -0.6475
 5652SOL    HW228593   4.269   4.101  16.459  0.0647  1.4963 -0.3996
 5653SOL     OW28594   0.451   2.825   9.377  0.0386 -0.4973  0.1053
 5653SOL    HW128595   0.432   2.809   9.469  3.1776  0.6663  0.9805
 5653SOL    HW228596   0.468   2.919   9.389 -0.5421 -0.2684 -0.8607
 5654SOL     OW28597   1.158   3.330  11.727 -1.0066  0.4257  0.0158
 5654SOL    HW128598   1.202   3.363  11.805 -1.9561 -2.1686  1.6417
 5654SOL    HW228599   1.134   3.411  11.682 -2.0969  0.6146  0.9407
 5655SOL     OW28600   1.231   4.605   7.654  0.1448  0.0184  0.0291
 5655SOL    HW128601   1.246   4.654   7.734 -0.4156 -2.1458  1.4616
 5655SOL    HW228602   1.315   4.561   7.642  0.0578 -0.3072  0.6152
 5656SOL     OW28603   3.616   4.400   5.081  0.1281  0.2761 -0.4034
 5656SOL    HW128604   3.553   4.449   5.027 -2.3856  0.2016  2.4721
 5656SOL    HW228605   3.587   4.440   5.163 -1.6350  0.0714 -0.9146
 5657SOL     OW28606   3.506   2.191   8.666  0.8209 -0.4413 -0.2203
 5657SOL    HW128607   3.496   2.281   8.697  0.3500 -1.2165  1.8392
 5657SOL    HW228608   3.415   2.162   8.664 -0.1810  2.5545  1.3992
 5658SOL     OW28609   3.685   3.455  14.867 -0.2610 -0.4841 -0.1548
 5658SOL    HW128610   3.698   3.369  14.828 -0.4538 -1.2049  1.3754
 5658SOL    HW228611   3.716   3.523  14.807 -2.1040  0.2416 -0.2887
 5659SOL     OW28612   0.085   0.197   9.338 -0.5364  0.0899  0.0979
 5659SOL    HW128613   0.057   0.191   9.430  3.5461  2.1561  1.5238
 5659SOL    HW228614   0.090   0.105   9.315  0.3722 -0.6246  3.0686
 5660SOL     OW28615   1.826   2.658  10.304 -0.0384  0.1448 -0.8056
 5660SOL    HW128616   1.740   2.671  10.343  0.6837 -0.7352  1.0791
 5660SOL    HW228617   1.808   2.571  10.269  1.2417 -0.3318 -0.2924
 5661SOL     OW28618   1.702   3.323   5.402 -0.0092 -0.5784 -0.2940
 5661SOL    HW128619   1.702   3.353   5.311 -0.1101 -1.6524 -0.6489
 5661SOL    HW228620   1.682   3.402   5.452 -0.1624  0.0002 -1.2665
 5662SOL     OW28621   0.518   1.904  16.860 -0.1571  0.0081 -0.5275
 5662SOL    HW128622   0.480   1.978  16.908  1.9063  0.4743  0.4071
 5662SOL    HW228623   0.558   1.856  16.933 -1.1542  3.5467  2.3966
 5663SOL     OW28624   0.096   2.806  10.031  0.1585  0.2599 -0.0659
 5663SOL    HW128625   0.070   2.767   9.947 -1.0648 -2.0669  1.3837
 5663SOL    HW228626   0.063   2.896  10.025  1.4011  0.7866  1.0863
 5664SOL     OW28627   0.054   2.371   3.135  0.0890  0.1571 -0.1938
 5664SOL    HW128628   0.056   2.454   3.181  2.2282 -0.0375  0.0519
 5664SOL    HW228629   0.048   2.404   3.045  0.3460 -2.1055 -1.0596
 5665SOL     OW28630   2.657   2.735   4.826 -0.0677 -0.5180  0.3930
 5665SOL    HW128631   2.581   2.723   4.768  0.4263 -0.3775 -0.2750
 5665SOL    HW228632   2.632   2.815   4.871  1.0507 -0.1128  0.2905
 5666SOL     OW28633   0.092   3.292   5.856  0.0272  0.1232 -0.2864
 5666SOL    HW128634   0.027   3.305   5.925 -1.5479  1.6077 -2.0346
 5666SOL    HW228635   0.111   3.200   5.875  0.9481  0.3410 -0.1325
 5667SOL     OW28636   0.858   1.740  11.684 -0.7515  0.8414  0.3077
 5667SOL    HW128637   0.925   1.791  11.729  1.1089  1.1073 -2.7971
 5667SOL    HW228638   0.905   1.657  11.696  1.1652  1.3437 -4.0192
 5668SOL     OW28639   2.826   4.018  10.461 -0.2934  0.4580 -0.2936
 5668SOL    HW128640   2.840   3.936  10.508 -0.0740  1.4221  1.3310
 5668SOL    HW228641   2.730   4.023  10.454 -0.2510  2.0320  0.1468
 5669SOL     OW28642   2.086   1.804  10.774 -0.1550  0.3283  0.5823
 5669SOL    HW128643   2.082   1.895  10.744 -1.6771  0.2045  0.4318
 5669SOL    HW228644   2.174   1.783  10.743 -0.1372  0.4099  0.5780
 5670SOL     OW28645   2.205   4.008   8.709 -0.0621 -0.2720  0.2077
 5670SOL    HW128646   2.251   4.021   8.626  1.3410 -0.5452  0.9356
 5670SOL    HW228647   2.134   4.072   8.707  0.9540  0.9251  1.6718
 5671SOL     OW28648   2.382   4.495   5.008  0.0765 -0.4724  0.6546
 5671SOL    HW128649   2.454   4.434   5.026  0.2973 -0.9321 -1.8178
 5671SOL    HW228650   2.326   4.431   4.963  1.4563 -1.7931  0.8172
 5672SOL     OW28651   3.692   0.832   7.788 -0.0102  0.3111 -0.2417
 5672SOL    HW128652   3.768   0.881   7.755 -0.0518  0.8533  0.4600
 5672SOL    HW228653   3.723   0.804   7.875  1.3962 -0.1424 -0.8874
 5673SOL     OW28654   3.151   1.608  15.964 -0.5726 -0.2812  0.3164
 5673SOL    HW128655   3.091   1.552  15.915 -1.0122  2.4822 -2.2860
 5673SOL    HW228656   3.171   1.685  15.911  1.6342 -1.3317 -0.3495
 5674SOL     OW28657   0.720   3.165   7.348  0.6032  0.3991  0.4415
 5674SOL    HW128658   0.677   3.105   7.409 -1.1508  0.7389 -0.4748
 5674SOL    HW228659   0.813   3.143   7.357  0.5150  0.1515  0.7359
 5675SOL     OW28660   0.731   2.897   5.116  0.2595  0.3446 -0.0232
 5675SOL    HW128661   0.640   2.896   5.087  0.8486  0.8006 -1.8937
 5675SOL    HW228662   0.727   2.931   5.205 -0.4666  2.9055 -1.0220
 5676SOL     OW28663   2.330   4.396  10.369  0.1310 -0.3196 -0.3748
 5676SOL    HW128664   2.239   4.425  10.367 -0.8576 -3.4474 -1.0289
 5676SOL    HW228665   2.375   4.481  10.374 -1.9428  0.7541 -0.1553
 5677SOL     OW28666   2.145   1.986   1.935  0.4113  0.2376  0.0997
 5677SOL    HW128667   2.071   2.047   1.924  0.1470 -0.2105 -0.6005
 5677SOL    HW228668   2.100   1.924   1.993  0.1488 -0.4215 -0.8108
 5678SOL     OW28669   1.418   0.211   6.857 -0.2389  0.1357 -0.8537
 5678SOL    HW128670   1.434   0.117   6.867  0.3270  0.6204  2.7218
 5678SOL    HW228671   1.324   0.227   6.871 -0.0928  0.2802 -0.0521
 5679SOL     OW28672   0.101   2.480  16.019  0.1131  0.6183 -0.1989
 5679SOL    HW128673   0.049   2.439  15.950 -1.6556  2.1832  0.1915
 5679SOL    HW228674   0.041   2.487  16.094  0.7369 -1.0044  0.4619
 5680SOL     OW28675   1.366   2.090   0.131  0.0985 -0.0542 -0.2675
 5680SOL    HW128676   1.372   2.095   0.035 -0.0740 -1.5118 -0.3567
 5680SOL    HW228677   1.458   2.098   0.156 -0.6400  0.0363  2.3940
 5681SOL     OW28678   1.815   3.357   2.107  0.2930  0.0901 -0.3911
 5681SOL    HW128679   1.749   3.400   2.161  1.0569  0.1643  0.4738
 5681SOL    HW228680   1.891   3.414   2.122  1.0964 -0.3923 -2.5247
 5682SOL     OW28681   4.421   4.156   7.072  0.8217 -0.0504  0.1609
 5682SOL    HW128682   4.368   4.136   6.994  0.4839 -2.6069  1.0529
 5682SOL    HW228683   4.386   4.239   7.104  1.2584  0.9106 -1.8604
 5683SOL     OW28684   1.620   0.520   4.516 -0.4715 -0.1547  0.2774
 5683SOL    HW128685   1.661   0.458   4.456  1.1983  1.0657  0.1657
 5683SOL    HW228686   1.602   0.463   4.591 -0.9720 -0.8215 -0.3434
 5684SOL     OW28687   1.752   4.708   6.178  0.3516  0.2019 -0.1012
 5684SOL    HW128688   1.702   4.646   6.124 -1.0241 -0.7690  2.3164
 5684SOL    HW228689   1.742   4.667   6.264 -2.6210  1.0048 -0.0588
 5685SOL     OW28690   3.222   3.526   4.228 -0.7296 -0.0196 -0.4054
 5685SOL    HW128691   3.228   3.572   4.144  0.8537  1.7913  0.6910
 5685SOL    HW228692   3.177   3.444   4.209 -0.9882 -0.7838  3.4564
 5686SOL     OW28693   0.739   4.564   1.784  0.2299 -0.1067  0.6081
 5686SOL    HW128694   0.754   4.631   1.850 -1.0540  0.0592  0.7362
 5686SOL    HW228695   0.819   4.511   1.792 -0.1341 -0.9721 -1.3075
 5687SOL     OW28696   0.490   1.772  14.969  0.7097  0.0729 -0.4708
 5687SOL    HW128697   0.422   1.751  15.034 -0.0094 -0.2923 -1.3462
 5687SOL    HW228698   0.435   1.835  14.923  1.8775  2.0391  0.8273
 5688SOL     OW28699   3.147   1.596   7.806  0.2742  0.2757 -0.3925
 5688SOL    HW128700   3.206   1.635   7.742  1.4636  2.5098  2.0637
 5688SOL    HW228701   3.149   1.507   7.772 -1.5092 -0.6699  1.9357
 5689SOL     OW28702   4.655   4.652   7.792 -0.0403 -0.3901 -0.0359
 5689SOL    HW128703   4.687   4.620   7.876  0.9624  0.5882 -0.0575
 5689SOL    HW228704   4.595   4.723   7.815  1.8186  1.4999 -1.0564
 5690SOL     OW28705   0.597   2.928  17.097  0.2654 -0.0251  0.0054
 5690SOL    HW128706   0.501   2.924  17.096  0.3160 -1.3476  1.3330
 5690SOL    HW228707   0.619   2.918  17.004 -1.1773  1.3530 -0.4880
 5691SOL     OW28708   1.500   3.411   7.211 -0.1427  0.1597  0.1057
 5691SOL    HW128709   1.561   3.478   7.180  0.3255 -0.4370 -0.2482
 5691SOL    HW228710   1.537   3.401   7.299 -1.0474 -1.3580  0.3099
 5692SOL     OW28711   3.171   4.529   1.702 -0.1936  0.1417  0.1987
 5692SOL    HW128712   3.266   4.539   1.705 -0.0022 -2.6615  4.1181
 5692SOL    HW228713   3.142   4.555   1.789 -1.6756 -0.2821 -0.1659
 5693SOL     OW28714   4.202   0.897  15.792 -0.1243  0.1831 -0.6132
 5693SOL    HW128715   4.169   0.984  15.817 -0.9261 -0.3548  0.1953
 5693SOL    HW228716   4.277   0.931  15.743  0.5449  0.6524  0.7115
 5694SOL     OW28717   2.661   2.720   4.413 -0.6137  0.2442  0.1722
 5694SOL    HW128718   2.714   2.642   4.430 -0.6657 -0.2729 -2.1376
 5694SOL    HW228719   2.601   2.713   4.488 -1.9882  1.5064 -0.8037
 5695SOL     OW28720   3.077   2.135  17.483  0.4107 -0.3007 -0.5066
 5695SOL    HW128721   3.030   2.182  17.552  0.5496  1.6109 -1.7242
 5695SOL    HW228722   3.021   2.058  17.476 -1.6216  0.9060  2.3380
 5696SOL     OW28723   2.024   3.693   7.793  0.4738 -1.0941 -0.2858
 5696SOL    HW128724   1.991   3.674   7.880 -0.2763  0.0648 -0.3219
 5696SOL    HW228725   2.117   3.697   7.815  0.5133 -0.7179 -0.5134
 5697SOL     OW28726   0.285   4.016  15.272  0.2856 -0.1099 -0.8354
 5697SOL    HW128727   0.317   4.081  15.335  0.3228  0.1034 -1.0794
 5697SOL    HW228728   0.357   4.015  15.209  1.4997  0.6541  0.5128
 5698SOL     OW28729   2.983   1.629  12.435 -0.0722 -0.2020  0.4434
 5698SOL    HW128730   3.011   1.679  12.512 -0.7951 -1.3254  1.4352
 5698SOL    HW228731   2.888   1.636  12.445 -0.0761 -1.0404  1.0096
 5699SOL     OW28732   4.223   3.122   5.427  0.1942  0.2349 -0.2344
 5699SOL    HW128733   4.165   3.176   5.373  0.2883 -0.0342 -0.6066
 5699SOL    HW228734   4.159   3.057   5.453 -0.4474  1.6479  1.7791
 5700SOL     OW28735   1.588   1.125   9.562 -0.2166 -0.1406 -0.2813
 5700SOL    HW128736   1.678   1.121   9.596  1.7398  3.0292 -5.1599
 5700SOL    HW228737   1.543   1.140   9.645  2.1692  3.3216  0.4105
 5701SOL     OW28738   0.967   2.228   8.490 -0.0094 -0.1294 -0.2256
 5701SOL    HW128739   0.982   2.303   8.549 -0.4274 -0.9583  0.9327
 5701SOL    HW228740   0.989   2.150   8.541 -1.6874 -0.2819  0.2421
 5702SOL     OW28741   1.282   4.289   7.518 -0.2034 -0.4256 -0.2801
 5702SOL    HW128742   1.217   4.344   7.474  1.4313 -0.2311 -2.4152
 5702SOL    HW228743   1.357   4.348   7.521  0.2434 -1.0318  0.4940
 5703SOL     OW28744   3.004   1.493  12.751  0.0402  0.1056  0.4433
 5703SOL    HW128745   2.976   1.459  12.836 -0.6938 -0.6431 -0.1052
 5703SOL    HW228746   2.922   1.518  12.709 -0.3376 -0.9103  0.6021
 5704SOL     OW28747   0.358   0.459  16.998 -0.0649  0.5533  0.2742
 5704SOL    HW128748   0.405   0.511  16.932  0.5824 -0.3065  0.0553
 5704SOL    HW228749   0.296   0.404  16.949  0.2916  0.8313 -0.4975
 5705SOL     OW28750   3.100   2.203   7.501 -0.3905  0.0628 -0.0396
 5705SOL    HW128751   3.071   2.123   7.546  0.4377 -1.4836 -2.2794
 5705SOL    HW228752   3.147   2.250   7.570  0.0196  1.1344 -1.0534
 5706SOL     OW28753   0.971   1.845   7.712 -0.2295  0.1109 -0.0793
 5706SOL    HW128754   1.048   1.903   7.715  1.4676 -2.1508 -0.4684
 5706SOL    HW228755   0.953   1.862   7.619 -0.3356  0.5797  0.0258
 5707SOL     OW28756   4.443   0.599   8.631  0.2953 -0.8081  0.0731
 5707SOL    HW128757   4.477   0.662   8.567 -0.6368  0.4305  0.8146
 5707SOL    HW228758   4.365   0.631   8.676  0.7254  0.2770  0.0481
 5708SOL     OW28759   1.194   2.595  10.453  0.0257 -0.7008 -0.4353
 5708SOL    HW128760   1.263   2.549  10.405 -2.1599 -0.7894 -3.5394
 5708SOL    HW228761   1.164   2.537  10.523 -2.9528  2.3120  0.7734
 5709SOL     OW28762   0.303   1.779   8.493 -0.1369  0.1102 -0.7740
 5709SOL    HW128763   0.299   1.686   8.468  1.9152 -0.8154  2.2403
 5709SOL    HW228764   0.393   1.789   8.460  0.5303  0.0939  1.0248
 5710SOL     OW28765   3.299   3.740   7.206  0.2958 -0.2240  0.3257
 5710SOL    HW128766   3.362   3.788   7.259  1.2408  0.4225 -1.3797
 5710SOL    HW228767   3.346   3.752   7.123 -0.0440 -2.1757 -0.1431
 5711SOL     OW28768   3.708   3.830  15.869  0.5334  0.2079 -0.1994
 5711SOL    HW128769   3.737   3.910  15.826 -0.1746 -0.1910 -1.4044
 5711SOL    HW228770   3.662   3.869  15.945  1.6237  2.1631 -0.5481
 5712SOL     OW28771   0.250   0.960   1.993  0.0665  0.7276 -0.0234
 5712SOL    HW128772   0.165   0.964   1.950  1.2700  1.9973 -2.3106
 5712SOL    HW228773   0.227   0.896   2.060 -0.5282 -1.7804 -2.6119
 5713SOL     OW28774   2.365   4.533  16.556  0.0947  0.2557  0.5036
 5713SOL    HW128775   2.330   4.446  16.574  1.8584 -0.4893  0.3561
 5713SOL    HW228776   2.392   4.531  16.465 -1.3365 -0.3882  0.0924
 5714SOL     OW28777   3.693   1.134  16.753  0.1926 -0.5311 -0.2015
 5714SOL    HW128778   3.667   1.088  16.832  0.7743  0.0157  0.3092
 5714SOL    HW228779   3.762   1.075  16.724  0.2850 -0.0723 -0.9166
 5715SOL     OW28780   1.492   4.160   4.899 -0.1472 -0.1577 -0.1331
 5715SOL    HW128781   1.471   4.157   4.806  0.0091 -1.1986 -0.1396
 5715SOL    HW228782   1.483   4.066   4.919  1.3752 -0.2936 -0.0203
 5716SOL     OW28783   0.124   3.494   6.601  0.5508 -0.4185  0.1856
 5716SOL    HW128784   0.103   3.420   6.659 -1.3667 -1.0731 -1.3472
 5716SOL    HW228785   0.220   3.494   6.599  0.5402 -0.8414 -0.2938
 5717SOL     OW28786   2.780   4.091   5.550  0.1278  0.2069  0.2975
 5717SOL    HW128787   2.759   4.006   5.589  0.2153 -0.6144 -1.4196
 5717SOL    HW228788   2.722   4.098   5.474 -1.2251  2.7217  1.5626
 5718SOL     OW28789   0.168   1.793   4.245 -0.1802 -0.1594 -0.0391
 5718SOL    HW128790   0.204   1.707   4.227  1.4467  0.6268 -0.5250
 5718SOL    HW228791   0.236   1.827   4.303  0.4173  0.7996 -1.3102
 5719SOL     OW28792   0.634   4.705   2.870  0.0054  0.1525  0.3806
 5719SOL    HW128793   0.609   4.676   2.782 -1.3810  0.7470  0.5698
 5719SOL    HW228794   0.592   4.637   2.923  0.1930 -1.0864 -1.0598
 5720SOL     OW28795   3.426   0.787   3.382 -0.0483 -0.5164  0.8725
 5720SOL    HW128796   3.500   0.725   3.381 -1.0736 -1.7148 -1.0692
 5720SOL    HW228797   3.474   0.869   3.395 -2.0510 -0.0263  5.0288
 5721SOL     OW28798   4.358   2.168   5.841 -0.0556 -0.2008 -0.3349
 5721SOL    HW128799   4.283   2.108   5.833  1.3791 -2.1174  0.4730
 5721SOL    HW228800   4.429   2.105   5.830  1.2407  1.3612 -0.9280
 5722SOL     OW28801   2.285   0.484   6.458  0.1533  0.5464 -0.3468
 5722SOL    HW128802   2.370   0.507   6.496  0.5665  3.2271 -2.9556
 5722SOL    HW228803   2.307   0.392   6.439 -1.7252 -0.4276  2.1018
 5723SOL     OW28804   1.503   4.402   5.672  0.5544 -0.5662 -0.1585
 5723SOL    HW128805   1.509   4.323   5.726  0.5023 -0.4959 -0.0488
 5723SOL    HW228806   1.483   4.465   5.741 -3.2659  1.6657 -3.3236
 5724SOL     OW28807   3.582   3.785   2.181  0.1307 -0.1052 -0.1780
 5724SOL    HW128808   3.617   3.701   2.211  0.8873  0.0463 -0.6313
 5724SOL    HW228809   3.627   3.846   2.238  0.9642  0.5068 -1.4795
 5725SOL     OW28810   4.059   4.655   6.900 -0.9324  0.1931  0.7345
 5725SOL    HW128811   4.011   4.591   6.952  1.8462 -0.9515  1.8780
 5725SOL    HW228812   4.009   0.001   6.904 -1.3183 -0.0553  1.0145
 5726SOL     OW28813   3.913   2.711   5.228 -0.2687  0.0075  0.3534
 5726SOL    HW128814   3.826   2.685   5.197  0.2042  0.5200 -1.4183
 5726SOL    HW228815   3.909   2.806   5.223  1.7718  0.1696  1.7269
 5727SOL     OW28816   2.598   0.313   4.529  0.3587 -0.1017 -0.6118
 5727SOL    HW128817   2.601   0.372   4.454  0.7193  0.2988 -0.2792
 5727SOL    HW228818   2.586   0.381   4.594 -1.0632 -1.1092  0.1829
 5728SOL     OW28819   4.578   2.705   5.322 -0.8989  0.3328 -0.0644
 5728SOL    HW128820   4.492   2.741   5.342 -0.3183  0.0554  2.9741
 5728SOL    HW228821   4.604   2.759   5.247 -1.5208  1.4856  0.5423
 5729SOL     OW28822   0.399   1.190   5.381 -0.0675  0.2252 -0.1263
 5729SOL    HW128823   0.459   1.121   5.354 -0.9809  0.0137 -1.6235
 5729SOL    HW228824   0.316   1.144   5.388  1.1600 -2.2836 -1.8753
 5730SOL     OW28825   2.155   4.464   4.524  0.0650 -0.0787  0.3331
 5730SOL    HW128826   2.086   4.458   4.590  0.5772  0.5416  0.9277
 5730SOL    HW228827   2.107   4.486   4.444 -0.6725  0.3417  0.8832
 5731SOL     OW28828   4.068   1.528  15.496  0.4800  0.6464 -0.1001
 5731SOL    HW128829   4.063   1.584  15.419  0.7392 -0.2490 -0.7777
 5731SOL    HW228830   4.161   1.518  15.518 -0.3101  0.2004  3.1188
 5732SOL     OW28831   0.673   1.122   3.369  0.4619 -0.2689 -0.4831
 5732SOL    HW128832   0.679   1.027   3.361 -0.3767 -0.4156  0.6628
 5732SOL    HW228833   0.592   1.139   3.418  0.7827  0.0939 -0.0789
 5733SOL     OW28834   3.909   2.422   7.462  0.1121 -0.2667 -0.0174
 5733SOL    HW128835   3.815   2.438   7.467 -0.4163 -3.0557 -0.8079
 5733SOL    HW228836   3.945   2.507   7.487 -0.3142  0.1376 -0.8044
 5734SOL     OW28837   1.753   2.552  17.528 -0.1879  0.1840  0.1200
 5734SOL    HW128838   1.820   2.573  17.593  1.2340 -1.2177 -0.8864
 5734SOL    HW228839   1.704   2.484  17.573 -1.1199  0.6156 -0.2283
 5735SOL     OW28840   0.444   4.173   7.319 -0.1123  0.1684  0.3248
 5735SOL    HW128841   0.398   4.218   7.389  2.3051  0.7213  1.5507
 5735SOL    HW228842   0.485   4.249   7.278  0.3799 -0.0951  0.3279
 5736SOL     OW28843   3.076   2.935   9.880 -0.1082  0.1665  0.3109
 5736SOL    HW128844   2.982   2.939   9.862  0.1627  0.2318 -1.0441
 5736SOL    HW228845   3.088   3.030   9.880 -3.3848  0.5589 -0.9353
 5737SOL     OW28846   3.465   1.142  12.382 -0.1383  0.3296  0.1834
 5737SOL    HW128847   3.463   1.215  12.320  1.1733 -0.0710 -0.3278
 5737SOL    HW228848   3.545   1.165  12.430  0.9332 -0.9921 -0.9584
 5738SOL     OW28849   3.007   4.064   9.051 -0.4904 -0.2834 -0.3246
 5738SOL    HW128850   3.015   3.995   9.117 -0.0417  0.6463  0.6025
 5738SOL    HW228851   2.952   4.119   9.106  0.1738 -0.7062  0.7494
 5739SOL     OW28852   3.103   3.567   7.183  0.1567 -0.9517  0.3086
 5739SOL    HW128853   3.152   3.491   7.214  0.0637 -0.7000  1.0706
 5739SOL    HW228854   3.158   3.644   7.196 -0.7506  0.0300 -1.6236
 5740SOL     OW28855   2.553   4.385  13.194  0.3398  0.6994  0.2636
 5740SOL    HW128856   2.502   4.447  13.143  0.4331 -0.1834 -0.9098
 5740SOL    HW228857   2.532   4.411  13.283 -0.1524  0.5400  0.1971
 5741SOL     OW28858   0.494   1.800  16.007  0.0223  0.2787 -0.0530
 5741SOL    HW128859   0.497   1.841  15.920 -0.3770 -0.1316 -0.2611
 5741SOL    HW228860   0.419   1.841  16.050 -0.2719 -0.8813  0.5259
 5742SOL     OW28861   4.220   2.262   4.589 -0.5074 -0.0281 -0.3294
 5742SOL    HW128862   4.287   2.193   4.589 -0.6294 -0.1494  0.1461
 5742SOL    HW228863   4.215   2.268   4.494  1.9800  0.3761 -0.4479
 5743SOL     OW28864   4.449   2.100   2.670  0.9259 -0.0338 -0.5947
 5743SOL    HW128865   4.494   2.046   2.604  0.9263  0.7869 -1.2642
 5743SOL    HW228866   4.434   2.181   2.621 -1.7720  0.0721  0.4155
 5744SOL     OW28867   0.473   1.358  14.936  0.0010  0.3553 -0.7817
 5744SOL    HW128868   0.454   1.330  15.026 -1.6352  0.7409 -1.0065
 5744SOL    HW228869   0.560   1.394  14.955  0.2861 -0.0219 -1.3990
 5745SOL     OW28870   4.360   3.999  12.163 -0.3697 -0.2610 -0.6922
 5745SOL    HW128871   4.308   3.923  12.137 -0.9402  0.0800 -0.5621
 5745SOL    HW228872   4.441   3.980  12.116  0.9134  2.6484  0.3472
 5746SOL     OW28873   4.134   1.242   3.233 -0.1002  0.3077 -0.0938
 5746SOL    HW128874   4.057   1.195   3.265  0.5097 -0.6499 -0.0409
 5746SOL    HW228875   4.079   1.293   3.175 -1.5054 -1.0021  0.0852
 5747SOL     OW28876   2.374   4.340  12.095  0.2522  0.2214 -0.1621
 5747SOL    HW128877   2.352   4.421  12.141  0.9428 -0.3338  1.1329
 5747SOL    HW228878   2.335   4.269  12.146  1.5903  1.0124  1.9591
 5748SOL     OW28879   3.661   1.751   2.711  0.3718 -0.0361  0.4348
 5748SOL    HW128880   3.661   1.697   2.633  0.5958 -0.4064  0.6939
 5748SOL    HW228881   3.570   1.745   2.743 -0.2538  0.4103 -1.2938
 5749SOL     OW28882   0.115   1.961   3.573 -0.9817  0.5348  0.1123
 5749SOL    HW128883   0.130   1.959   3.668 -0.1517  0.9300 -0.0098
 5749SOL    HW228884   0.204   1.948   3.539 -0.2086  1.7460  1.6921
 5750SOL     OW28885   2.352   2.733   6.349 -0.8110  0.2963 -0.6411
 5750SOL    HW128886   2.308   2.803   6.398  1.0337  0.9054  0.1621
 5750SOL    HW228887   2.285   2.713   6.284 -0.0101 -1.3058 -0.9831
 5751SOL     OW28888   1.760   4.718   5.721 -0.5693 -0.2455 -0.2453
 5751SOL    HW128889   1.701   0.018   5.655 -2.0843 -4.6678 -1.2606
 5751SOL    HW228890   1.747   0.050   5.787 -1.1939  0.0095 -0.6267
 5752SOL     OW28891   0.182   3.188   9.023 -0.2349  0.0216 -0.1659
 5752SOL    HW128892   0.201   3.104   9.064 -0.9094 -0.8759 -1.6807
 5752SOL    HW228893   0.196   3.242   9.101 -0.1030 -0.2678  0.0101
 5753SOL     OW28894   2.371   2.448   8.440 -0.1428  0.1369  0.3398
 5753SOL    HW128895   2.339   2.358   8.435 -0.1043  0.0735  1.1735
 5753SOL    HW228896   2.329   2.483   8.361 -1.7856 -2.1558  0.1930
 5754SOL     OW28897   0.354   1.304  10.480  0.4100 -0.0222  0.6181
 5754SOL    HW128898   0.380   1.232  10.422  0.5377 -0.0632  0.7265
 5754SOL    HW228899   0.320   1.253  10.553 -2.0403  2.1903  1.0434
 5755SOL     OW28900   0.543   1.942   8.899  0.5633  0.1825  0.1272
 5755SOL    HW128901   0.544   1.959   8.805 -1.1854  0.7047  0.2102
 5755SOL    HW228902   0.635   1.920   8.917 -0.0096 -1.5634  0.8996
 5756SOL     OW28903   0.510   4.538  14.760  0.0122  0.0779  0.2238
 5756SOL    HW128904   0.590   4.587  14.745  0.2411 -0.9676 -1.9298
 5756SOL    HW228905   0.549   4.451  14.763 -0.5096 -0.1763 -0.2211
 5757SOL     OW28906   0.141   3.202   9.758 -0.4866 -0.1548  0.5471
 5757SOL    HW128907   0.118   3.122   9.804 -1.3880  0.0553  0.4479
 5757SOL    HW228908   0.237   3.193   9.761 -0.4965 -0.3457  0.2839
 5758SOL     OW28909   0.155   0.746   6.900  0.3978  0.0449 -0.3745
 5758SOL    HW128910   0.216   0.819   6.903  1.1557 -0.6810  2.4066
 5758SOL    HW228911   0.135   0.746   6.806  0.1812  0.5182 -0.3301
 5759SOL     OW28912   3.941   3.278   7.724 -0.1796 -0.0938 -0.3341
 5759SOL    HW128913   3.939   3.246   7.634 -0.3776 -1.6301  0.2101
 5759SOL    HW228914   4.019   3.332   7.730  1.2625 -1.9457 -2.5308
 5760SOL     OW28915   3.619   4.147  11.757  0.0386  0.4310  0.2518
 5760SOL    HW128916   3.620   4.137  11.662  1.0018 -2.4993  0.5613
 5760SOL    HW228917   3.712   4.139  11.778  0.3535  2.2320 -0.3951
 5761SOL     OW28918   2.678   2.328   5.128 -0.5053  0.5118 -0.5947
 5761SOL    HW128919   2.662   2.315   5.222  0.1933 -0.7927 -0.6486
 5761SOL    HW228920   2.771   2.352   5.128  1.0186 -5.1777  0.0640
 5762SOL     OW28921   2.770   1.210  15.841 -0.3949 -0.4681  0.4199
 5762SOL    HW128922   2.834   1.194  15.772  0.7606 -1.0375  1.6493
 5762SOL    HW228923   2.805   1.296  15.864 -2.1484  0.0474  1.1695
 5763SOL     OW28924   4.490   3.870   0.955 -0.1128 -0.1690  0.4231
 5763SOL    HW128925   4.584   3.884   0.949  0.0459 -2.4481 -2.4568
 5763SOL    HW228926   4.491   3.775   0.970  0.7285 -0.2791 -0.3239
 5764SOL     OW28927   1.978   2.176   4.039 -0.4014  0.1055  0.3450
 5764SOL    HW128928   1.973   2.147   4.130 -2.2685 -1.1527 -0.1620
 5764SOL    HW228929   2.070   2.163   4.015 -0.4865  0.5156 -0.1910
 5765SOL     OW28930   4.081   4.277   2.155 -0.3434 -0.2457  0.2548
 5765SOL    HW128931   4.015   4.232   2.209  1.2158 -2.2483  0.4697
 5765SOL    HW228932   4.134   4.325   2.219 -0.6077 -0.0064  0.2940
 5766SOL     OW28933   2.077   3.632  14.209 -0.0942 -0.8178 -0.2407
 5766SOL    HW128934   2.147   3.607  14.149  1.6481 -0.2220  1.5442
 5766SOL    HW228935   2.066   3.724  14.186 -0.8945 -1.4195 -2.2490
 5767SOL     OW28936   4.675   0.992  10.495 -0.1781 -0.0951 -0.4219
 5767SOL    HW128937   4.637   0.954  10.575  1.7129  0.6071  0.8008
 5767SOL    HW228938   4.603   1.041  10.456 -1.0133 -1.3709 -0.5002
 5768SOL     OW28939   2.951   2.375  15.526 -0.6863  0.6031 -0.1910
 5768SOL    HW128940   2.864   2.339  15.542 -1.6689  2.5677 -1.0629
 5768SOL    HW228941   2.956   2.361  15.432  0.0606  2.1744 -0.3916
 5769SOL     OW28942   0.832   2.588   7.667  0.0897 -0.5455 -1.4517
 5769SOL    HW128943   0.885   2.635   7.603  0.9323 -0.1721 -0.4756
 5769SOL    HW228944   0.883   2.600   7.747 -1.3877  1.0236 -0.7545
 5770SOL     OW28945   2.044   0.575  15.884 -0.3798  0.0548  0.1287
 5770SOL    HW128946   2.049   0.560  15.790  0.7236  1.0511  0.0267
 5770SOL    HW228947   2.037   0.484  15.913  0.0936 -0.0092  0.0523
 5771SOL     OW28948   1.432   1.305   0.691  0.0512 -0.0177  0.7284
 5771SOL    HW128949   1.475   1.356   0.622  0.0489 -1.4188 -0.3121
 5771SOL    HW228950   1.384   1.371   0.741 -2.5028  1.0521 -3.1137
 5772SOL     OW28951   2.937   1.189   2.006  0.1378 -0.1380 -0.2918
 5772SOL    HW128952   3.001   1.246   1.964 -1.6248  1.2143 -1.1256
 5772SOL    HW228953   2.863   1.184   1.945 -0.5222 -3.7560  0.7841
 5773SOL     OW28954   3.615   2.545   6.738 -0.4463 -0.6191  0.0740
 5773SOL    HW128955   3.536   2.528   6.686 -0.9006  0.9211  0.2681
 5773SOL    HW228956   3.595   2.486   6.811  0.4804 -0.0829  0.7512
 5774SOL     OW28957   1.664   0.435   8.419  0.1302 -0.0774 -0.2555
 5774SOL    HW128958   1.731   0.489   8.461 -1.2866  0.8552  0.7846
 5774SOL    HW228959   1.615   0.399   8.493 -2.2053  1.7051 -0.9507
 5775SOL     OW28960   3.168   4.268   8.226 -0.3647 -0.4037  0.3335
 5775SOL    HW128961   3.246   4.220   8.252 -0.0889 -1.2363 -2.0895
 5775SOL    HW228962   3.165   4.327   8.302 -1.0088 -0.7461  0.5758
 5776SOL     OW28963   1.409   1.247  12.127  0.0610 -0.3982 -0.0710
 5776SOL    HW128964   1.432   1.228  12.218 -1.8837  0.7211  0.6495
 5776SOL    HW228965   1.471   1.191  12.080  0.4180  0.4330 -0.5806
 5777SOL     OW28966   2.354   3.872  10.642  0.1569 -0.3801  0.0685
 5777SOL    HW128967   2.434   3.846  10.596 -0.5398  1.4744 -2.1966
 5777SOL    HW228968   2.335   3.781  10.667  1.4376 -0.8677 -0.7376
 5778SOL     OW28969   1.984   1.744   2.050 -0.5588  0.1360 -0.1519
 5778SOL    HW128970   2.026   1.695   1.979 -2.0123 -1.0885 -0.1535
 5778SOL    HW228971   1.896   1.745   2.013  1.1836  1.8696 -4.3090
 5779SOL     OW28972   1.401   1.045   2.142 -0.1964 -0.2441 -0.0574
 5779SOL    HW128973   1.433   0.970   2.092 -4.0113 -2.4677  0.8920
 5779SOL    HW228974   1.427   1.118   2.085  0.8110 -0.9383 -0.5032
 5780SOL     OW28975   4.180   3.965   9.490  0.0200  0.3172  0.1749
 5780SOL    HW128976   4.135   4.049   9.481  0.2100  0.3706 -0.3235
 5780SOL    HW228977   4.239   3.992   9.560 -1.9958  1.0189  1.5853
 5781SOL     OW28978   0.281   4.468   8.411 -0.1065 -0.0872 -0.8890
 5781SOL    HW128979   0.366   4.477   8.367 -0.6474 -0.3850 -2.0015
 5781SOL    HW228980   0.239   4.553   8.423 -0.6313 -0.5421  0.4655
 5782SOL     OW28981   4.124   0.724  16.289  0.3136 -0.2298  0.2225
 5782SOL    HW128982   4.142   0.643  16.337  0.2611 -0.1955  0.2992
 5782SOL    HW228983   4.151   0.698  16.201 -0.8791 -0.8195  0.0446
 5783SOL     OW28984   0.115   4.683   6.138 -0.1393  0.1344  0.0607
 5783SOL    HW128985   0.173   4.714   6.069 -0.6371  0.1058 -0.3735
 5783SOL    HW228986   0.074   0.028   6.169  1.4428  0.5118  1.1547
 5784SOL     OW28987   0.432   0.012   0.448  0.5291  0.2384 -0.7065
 5784SOL    HW128988   0.503   0.075   0.440  0.4810  0.4258  0.3132
 5784SOL    HW228989   0.462   4.710   0.530 -0.8464  0.4170 -0.1131
 5785SOL     OW28990   0.421   2.322  16.834  0.2372  0.2726 -0.4253
 5785SOL    HW128991   0.417   2.243  16.888  0.9123  1.4749  1.3954
 5785SOL    HW228992   0.326   2.332  16.828  0.2071  1.8043  2.5027
 5786SOL     OW28993   2.094   2.535   4.335  0.1945 -0.4256  0.1258
 5786SOL    HW128994   2.168   2.483   4.304  1.3897  2.2774 -1.5264
 5786SOL    HW228995   2.104   2.603   4.269  0.7367  0.0894  0.7283
 5787SOL     OW28996   1.472   0.922   0.356  0.0991 -0.6197 -0.1164
 5787SOL    HW128997   1.429   0.871   0.425 -0.5843  2.4021  1.6720
 5787SOL    HW228998   1.488   0.851   0.293 -0.2470 -0.1092 -0.7696
 5788SOL     OW28999   1.294   1.709   0.294 -0.4847  0.2969  0.2468
 5788SOL    HW129000   1.274   1.683   0.204 -3.7848 -1.5201  1.4820
 5788SOL    HW229001   1.243   1.790   0.298 -0.8658  0.1067 -0.8033
 5789SOL     OW29002   2.579   1.041   0.387  0.1702 -0.3772 -0.0058
 5789SOL    HW129003   2.531   1.044   0.304 -2.9126  0.9556  1.8505
 5789SOL    HW229004   2.601   0.948   0.386 -0.9189 -0.6400  0.0234
 5790SOL     OW29005   3.044   0.617   8.772  0.3881  0.5851 -0.1416
 5790SOL    HW129006   3.126   0.568   8.772  0.2090  0.2789 -0.7758
 5790SOL    HW229007   3.083   0.702   8.753 -0.2697  0.4339 -2.2810
 5791SOL     OW29008   1.784   1.088   6.646  0.4581 -0.0418  0.9205
 5791SOL    HW129009   1.810   0.998   6.627 -1.3923  0.0589 -2.1559
 5791SOL    HW229010   1.720   1.073   6.715  1.2076 -1.2178  1.3496
 5792SOL     OW29011   0.884   1.170  11.269 -0.7653  0.2474 -0.5019
 5792SOL    HW129012   0.883   1.075  11.277 -0.8327  0.1325 -1.7543
 5792SOL    HW229013   0.909   1.173  11.176 -1.9049 -1.3390 -0.8606
 5793SOL     OW29014   2.299   0.423   4.888 -0.2380 -0.2919  0.6381
 5793SOL    HW129015   2.267   0.441   4.977  0.8067  1.1456  0.7284
 5793SOL    HW229016   2.227   0.375   4.847 -0.9250 -0.7080  2.3055
 5794SOL     OW29017   1.755   0.327   2.453  0.0705  0.1186  0.6025
 5794SOL    HW129018   1.843   0.326   2.415  0.6604  1.3278  1.9270
 5794SOL    HW229019   1.709   0.349   2.372  1.2994  0.1604 -0.0935
 5795SOL     OW29020   1.233   1.793   6.544 -0.3305 -0.1205 -0.4426
 5795SOL    HW129021   1.219   1.723   6.480 -0.0092  0.1297 -0.7823
 5795SOL    HW229022   1.294   1.855   6.506  0.0716  1.0640  2.0975
 5796SOL     OW29023   2.497   2.154  12.642 -0.4099  0.1148  0.5453
 5796SOL    HW129024   2.458   2.136  12.556 -0.2032 -0.9078  0.6679
 5796SOL    HW229025   2.443   2.221  12.684  3.4520  2.3164  1.9440
 5797SOL     OW29026   3.611   4.652  15.603  0.0387 -0.1814 -0.3065
 5797SOL    HW129027   3.530   4.656  15.552 -0.7223  1.2155  1.0238
 5797SOL    HW229028   3.664   4.690  15.533  1.1136  0.1624  0.6881
 5798SOL     OW29029   4.449   2.603   8.520  0.1938 -0.0621 -0.1147
 5798SOL    HW129030   4.463   2.514   8.487 -0.5800 -0.0012 -0.5951
 5798SOL    HW229031   4.475   2.646   8.439 -0.1978 -1.2445 -0.8769
 5799SOL     OW29032   4.352   4.266   9.919 -0.2752 -0.0373  0.5668
 5799SOL    HW129033   4.300   4.212   9.978 -0.4759  0.9764  1.3204
 5799SOL    HW229034   4.426   4.296   9.973 -0.4764 -0.0049  0.8227
 5800SOL     OW29035   2.694   4.225   8.571 -0.4649 -0.3970 -0.0712
 5800SOL    HW129036   2.601   4.247   8.573 -0.1596  0.8399  0.5110
 5800SOL    HW229037   2.677   4.139   8.534  0.5616 -1.0366  0.9826
 5801SOL     OW29038   2.709   4.726  11.156  0.6127  0.4740  1.0828
 5801SOL    HW129039   2.784   0.041  11.126  0.3662  0.4958  0.5046
 5801SOL    HW229040   2.709   0.006  11.250 -1.6669  1.8047  0.8424
 5802SOL     OW29041   4.606   1.753  10.235  0.0284 -0.1676 -0.4778
 5802SOL    HW129042   4.584   1.803  10.313 -1.7239 -0.5559 -0.7086
 5802SOL    HW229043   4.687   1.709  10.258 -0.0045 -0.1102 -0.2549
 5803SOL     OW29044   2.896   4.313   8.407 -0.5473 -0.6470 -0.2431
 5803SOL    HW129045   2.960   4.255   8.448 -0.2362  0.6096  1.0358
 5803SOL    HW229046   2.812   4.281   8.440 -0.8133 -0.3001 -0.5793
 5804SOL     OW29047   1.720   1.205  17.684 -0.1989 -0.4334 -0.5126
 5804SOL    HW129048   1.661   1.175   0.011 -2.0289  0.4827 -1.6598
 5804SOL    HW229049   1.798   1.151  17.696 -0.1112  0.0684  1.3127
 5805SOL     OW29050   1.993   0.319   4.022 -0.4306  0.1367  0.3559
 5805SOL    HW129051   1.922   0.270   4.064 -0.8336 -0.3913 -0.9517
 5805SOL    HW229052   2.048   0.335   4.099  1.1952 -0.3190 -0.7337
 5806SOL     OW29053   2.471   2.097   5.666  0.2368  0.4203 -0.2333
 5806SOL    HW129054   2.460   2.048   5.748 -0.1370  0.4187 -0.2854
 5806SOL    HW229055   2.504   2.175   5.709  0.9161 -1.4450  2.6611
 5807SOL     OW29056   1.144   2.771   6.103  0.5821 -0.0818  0.5485
 5807SOL    HW129057   1.183   2.845   6.149  0.5586 -0.1556  0.6901
 5807SOL    HW229058   1.108   2.814   6.026 -1.7523 -2.1699  0.4605
 5808SOL     OW29059   1.624   0.576   3.371  0.1380 -0.0226 -0.1699
 5808SOL    HW129060   1.581   0.491   3.373  2.4925 -1.2823 -3.6077
 5808SOL    HW229061   1.608   0.603   3.461 -2.5671  0.3530 -0.7810
 5809SOL     OW29062   0.825   1.366  12.755 -0.1625  0.4007 -0.1552
 5809SOL    HW129063   0.794   1.434  12.815  0.1360 -0.9225  1.4895
 5809SOL    HW229064   0.811   1.289  12.809  2.9927  0.2640  0.4727
 5810SOL     OW29065   1.667   3.370   7.417  0.1250  0.1860  0.5328
 5810SOL    HW129066   1.756   3.340   7.436 -0.0167  0.2381  1.2496
 5810SOL    HW229067   1.621   3.340   7.495 -0.4827 -1.1213 -0.3101
 5811SOL     OW29068   4.676   1.977   7.367  0.1864  0.4615 -0.1850
 5811SOL    HW129069   4.588   2.015   7.369  0.8169  2.0473 -2.0415
 5811SOL    HW229070   0.001   2.051   7.372  1.2199 -0.4500  0.7492
 5812SOL     OW29071   2.171   4.361  14.245 -0.5957  0.2442 -0.2420
 5812SOL    HW129072   2.256   4.322  14.263 -0.9383 -1.8883 -3.2198
 5812SOL    HW229073   2.190   4.437  14.191 -0.8414  1.9456  2.0870
 5813SOL     OW29074   2.764   4.156   5.056 -0.3185 -0.0184 -0.1134
 5813SOL    HW129075   2.778   4.061   5.052  1.1655  0.2525 -1.6247
 5813SOL    HW229076   2.852   4.186   5.030 -0.3264  1.6857  1.8780
 5814SOL     OW29077   0.364   3.244   0.451  0.3820  0.2485 -0.2710
 5814SOL    HW129078   0.318   3.171   0.493  0.5924  0.2470 -0.0423
 5814SOL    HW229079   0.332   3.318   0.503 -2.5592  0.5741 -2.5547
 5815SOL     OW29080   0.990   2.089   7.001 -0.1296 -0.2989  0.4913
 5815SOL    HW129081   1.029   2.011   7.041 -3.2212 -0.4228  3.2193
 5815SOL    HW229082   0.966   2.130   7.084 -0.5406  1.2688 -0.4014
 5816SOL     OW29083   0.445   0.267   2.661 -0.0654  0.2929  1.1619
 5816SOL    HW129084   0.376   0.207   2.633  0.1544  0.6812 -0.1781
 5816SOL    HW229085   0.391   0.343   2.682  2.1601  2.1205  0.2585
 5817SOL     OW29086   2.069   0.723   9.759  0.2069 -0.3984 -0.2513
 5817SOL    HW129087   1.992   0.779   9.756 -0.4441 -1.2889 -0.2979
 5817SOL    HW229088   2.081   0.723   9.665  1.4961  1.4440 -0.0753
 5818SOL     OW29089   3.886   0.619   3.803 -0.5407  0.0674 -0.9087
 5818SOL    HW129090   3.873   0.526   3.823  2.1885  0.0117  0.6283
 5818SOL    HW229091   3.925   0.618   3.715  0.0469  0.3863 -0.6464
 5819SOL     OW29092   1.812   2.426   4.344  0.4255 -0.2705  0.1481
 5819SOL    HW129093   1.894   2.471   4.319  0.3493 -0.4321 -0.3959
 5819SOL    HW229094   1.837   2.365   4.413 -0.8553 -0.7287  0.1932
 5820SOL     OW29095   3.468   1.572  13.895  0.3103  0.0452 -0.5666
 5820SOL    HW129096   3.536   1.624  13.853  0.2399  0.3097 -0.3518
 5820SOL    HW229097   3.507   1.545  13.978  1.1830  0.4099 -0.8654
 5821SOL     OW29098   0.890   0.417   4.948 -0.1079  0.1607 -0.0619
 5821SOL    HW129099   0.838   0.490   4.915 -1.4651 -0.8678 -0.2302
 5821SOL    HW229100   0.958   0.424   4.882 -0.7650 -1.5561 -0.9337
 5822SOL     OW29101   2.172   3.385  15.133  0.0923 -0.2959  0.1975
 5822SOL    HW129102   2.122   3.335  15.197  0.0223  1.4915  1.5399
 5822SOL    HW229103   2.167   3.331  15.054  0.5621 -0.3735  0.2171
 5823SOL     OW29104   3.208   0.911   4.429  0.1800  0.8350 -0.2562
 5823SOL    HW129105   3.300   0.907   4.456  0.2166 -2.1247 -0.7509
 5823SOL    HW229106   3.220   0.917   4.334 -0.0037  0.4272 -0.3043
 5824SOL     OW29107   4.151   1.503   2.448 -0.0241 -0.0735 -0.1288
 5824SOL    HW129108   4.062   1.498   2.482 -0.5528 -0.1286 -1.5098
 5824SOL    HW229109   4.187   1.427   2.493  0.0466 -0.2157 -0.4236
 5825SOL     OW29110   2.006   2.731   1.531 -0.4581  0.1065 -0.6021
 5825SOL    HW129111   2.032   2.759   1.619  1.1997 -0.8866 -0.7816
 5825SOL    HW229112   1.928   2.778   1.502 -0.2254 -0.8259 -2.7308
 5826SOL     OW29113   2.611   3.013   5.514  0.0754 -0.2599 -0.2991
 5826SOL    HW129114   2.643   3.084   5.569 -1.8075  0.7441 -0.4981
 5826SOL    HW229115   2.666   3.023   5.436 -0.6849 -0.0518 -0.8120
 5827SOL     OW29116   1.547   3.254   4.328 -0.2702 -0.3938 -0.5442
 5827SOL    HW129117   1.600   3.183   4.364  0.9413 -0.2928 -2.1261
 5827SOL    HW229118   1.576   3.249   4.237  3.9017  2.0534  0.6264
 5828SOL     OW29119   4.151   4.346   9.717  0.0025 -0.6053  0.0702
 5828SOL    HW129120   4.204   4.323   9.793 -0.2696 -0.6850  0.2349
 5828SOL    HW229121   4.146   4.261   9.672  0.7243 -0.4537 -0.3006
 5829SOL     OW29122   3.268   2.265   4.045  0.5344  0.3620  0.3419
 5829SOL    HW129123   3.176   2.273   4.021  0.4253 -1.9175 -0.0710
 5829SOL    HW229124   3.269   2.174   4.076  1.1580 -0.1148 -1.0637
 5830SOL     OW29125   4.503   2.873   2.173 -0.3487  0.0721 -0.2101
 5830SOL    HW129126   4.416   2.836   2.161 -0.3453 -0.4534  1.3724
 5830SOL    HW229127   4.527   2.849   2.262 -1.6948  1.7712  0.5921
 5831SOL     OW29128   0.308   2.268   4.401  0.1722  0.4602  0.1662
 5831SOL    HW129129   0.255   2.309   4.333  1.4229 -2.0821 -2.3144
 5831SOL    HW229130   0.375   2.225   4.349 -0.6737  0.7596 -1.1600
 5832SOL     OW29131   1.275   4.631   8.825 -0.6417  0.7728 -0.3158
 5832SOL    HW129132   1.317   4.687   8.890 -1.2914  1.3183 -0.3623
 5832SOL    HW229133   1.349   4.610   8.769 -0.1572  1.5748  0.0240
 5833SOL     OW29134   0.034   3.848   1.133 -0.3071  0.4352  0.4987
 5833SOL    HW129135   4.733   3.868   1.219 -0.3223 -0.5957  0.7271
 5833SOL    HW229136   0.107   3.907   1.117  2.4346 -2.4541  2.5870
 5834SOL     OW29137   3.236   4.553   4.654  0.0723  0.1583  0.1038
 5834SOL    HW129138   3.225   4.533   4.561  1.6001 -0.5329  0.0656
 5834SOL    HW229139   3.146   4.577   4.673  0.2492  0.2141  0.8831
 5835SOL     OW29140   4.732   3.186   7.548 -0.1913 -0.0841  0.0251
 5835SOL    HW129141   0.063   3.126   7.580  0.5721  0.0883 -1.2662
 5835SOL    HW229142   4.671   3.121   7.513  0.6042 -0.8414  0.0534
 5836SOL     OW29143   1.117   1.480   0.510 -0.1442 -0.3863  0.0298
 5836SOL    HW129144   1.064   1.545   0.464  0.4108  1.1739  1.5980
 5836SOL    HW229145   1.096   1.402   0.459  0.8375 -2.4097  2.6774
 5837SOL     OW29146   4.188   4.037  10.786 -0.0699 -0.1665 -0.5980
 5837SOL    HW129147   4.235   3.994  10.714  0.5366 -1.2566  0.4502
 5837SOL    HW229148   4.149   4.110  10.738 -2.1547 -1.9939 -1.6461
 5838SOL     OW29149   0.781   2.974   3.694 -0.2664 -0.0459  0.0515
 5838SOL    HW129150   0.757   3.016   3.612  1.2842 -0.5069 -0.6501
 5838SOL    HW229151   0.768   3.053   3.745 -0.4272 -0.2357  0.3070
 5839SOL     OW29152   3.978   1.228   2.411 -0.4875 -0.6792  0.1288
 5839SOL    HW129153   3.962   1.317   2.441 -3.6733 -0.8514 -1.1325
 5839SOL    HW229154   4.036   1.231   2.335 -1.5914  0.2512 -0.6606
 5840SOL     OW29155   4.353   0.518   4.106 -0.4551  0.1685 -0.2716
 5840SOL    HW129156   4.352   0.490   4.198 -0.2622 -1.4391 -0.7634
 5840SOL    HW229157   4.309   0.603   4.110 -0.8674 -0.0872  0.6187
 5841SOL     OW29158   0.392   4.124  10.319  0.8184 -0.3924  0.5905
 5841SOL    HW129159   0.434   4.199  10.360  1.0693  0.3373 -1.0103
 5841SOL    HW229160   0.302   4.147  10.298  1.2760  0.8114 -0.0298
 5842SOL     OW29161   2.453   1.580   9.352  0.0692 -0.2573 -0.2091
 5842SOL    HW129162   2.437   1.650   9.289  0.4285  1.8795  2.1123
 5842SOL    HW229163   2.491   1.633   9.421 -0.0039 -0.1662 -0.2396
 5843SOL     OW29164   3.805   0.716  13.128  0.5697  0.1045 -0.7215
 5843SOL    HW129165   3.756   0.746  13.204 -0.6103 -1.9049 -0.6797
 5843SOL    HW229166   3.805   0.780  13.057  4.2202  1.4652  0.5098
 5844SOL     OW29167   0.513   4.195   8.303 -0.5245 -0.1625  0.3964
 5844SOL    HW129168   0.544   4.242   8.380 -2.6006  0.7753  0.6258
 5844SOL    HW229169   0.585   4.225   8.247  0.3662 -1.5186  0.8057
 5845SOL     OW29170   3.504   3.761   3.333 -0.1623 -0.6836 -0.0683
 5845SOL    HW129171   3.447   3.698   3.289 -0.5185 -0.0111 -0.5612
 5845SOL    HW229172   3.533   3.811   3.257 -0.9861 -1.7772 -1.1078
 5846SOL     OW29173   4.657   0.892   2.710 -0.5501  0.3929 -0.9606
 5846SOL    HW129174   4.722   0.863   2.774 -1.0506 -1.1970 -1.1699
 5846SOL    HW229175   4.584   0.831   2.722 -0.3783 -0.1636 -2.7153
 5847SOL     OW29176   2.357   2.929   6.580  0.1999 -0.2527  0.1786
 5847SOL    HW129177   2.444   2.969   6.578  0.5867 -1.0568  0.7468
 5847SOL    HW229178   2.310   2.962   6.503 -0.6289  0.4046  0.9645
 5848SOL     OW29179   3.223   4.431  12.723 -0.0277 -0.5906  0.1678
 5848SOL    HW129180   3.208   4.449  12.630 -0.2130 -2.2195 -0.1091
 5848SOL    HW229181   3.316   4.451  12.732 -0.2516  0.2988  0.4867
 5849SOL     OW29182   1.207   2.115   8.631  0.9615  0.3949  0.4821
 5849SOL    HW129183   1.276   2.056   8.600 -0.0133 -1.0349  0.9991
 5849SOL    HW229184   1.245   2.200   8.612  1.0077  0.4947  1.0267
 5850SOL     OW29185   3.804   0.064   1.721  0.1885 -0.0075 -0.2488
 5850SOL    HW129186   3.780   4.720   1.674  1.3108 -1.0285  0.9017
 5850SOL    HW229187   3.847   0.024   1.797 -0.6764  1.1069  0.8364
 5851SOL     OW29188   0.932   0.454  10.247 -0.2876 -0.1716  0.6261
 5851SOL    HW129189   0.909   0.481  10.336  1.1880  0.9906  0.6533
 5851SOL    HW229190   0.943   0.361  10.268  1.4120  0.1437  1.1025
 5852SOL     OW29191   0.934   0.404   9.221 -0.4313 -0.0243  0.1136
 5852SOL    HW129192   0.926   0.309   9.230  2.4991  0.0999  3.6343
 5852SOL    HW229193   1.026   0.425   9.231 -0.3426  1.0499 -3.0574
 5853SOL     OW29194   3.325   3.882   2.586 -0.1311  0.3557 -0.0321
 5853SOL    HW129195   3.306   3.849   2.498  0.3272  0.1683 -0.0653
 5853SOL    HW229196   3.405   3.930   2.562  0.4081 -0.0244  1.0247
 5854SOL     OW29197   4.611   4.307   6.912  0.1382  0.3598  0.5078
 5854SOL    HW129198   4.526   4.266   6.928 -0.3766  1.5350  0.7651
 5854SOL    HW229199   4.670   4.282   6.984 -0.8220 -1.9880  0.4735
 5855SOL     OW29200   3.742   3.918   9.621  0.0880 -0.0962 -0.4272
 5855SOL    HW129201   3.648   3.908   9.632  0.2203  0.5220  1.2122
 5855SOL    HW229202   3.738   3.955   9.532 -4.3205  1.4052  0.3719
 5856SOL     OW29203   3.040   1.679   8.320  0.2403  0.3333  0.3128
 5856SOL    HW129204   3.067   1.683   8.228  3.0136  1.3555  1.1617
 5856SOL    HW229205   3.125   1.685   8.365 -0.7291 -0.1086  2.2078
 5857SOL     OW29206   0.315   0.938  17.583  0.5109  0.1710  0.3053
 5857SOL    HW129207   0.388   0.908  17.528  1.2316  0.8721  0.8926
 5857SOL    HW229208   0.334   1.031  17.575  1.3330 -0.0029  0.2462
 5858SOL     OW29209   1.452   3.328   2.193  0.2457 -0.2459  0.0162
 5858SOL    HW129210   1.522   3.385   2.226 -0.0972  0.0263  0.2721
 5858SOL    HW229211   1.448   3.362   2.104  1.2983 -1.7149 -0.5957
 5859SOL     OW29212   0.306   4.616   7.488 -0.3134  0.3080  0.6767
 5859SOL    HW129213   0.309   4.706   7.453 -1.2271  0.0871  0.0117
 5859SOL    HW229214   0.223   4.601   7.442  0.4163 -1.8222  0.0755
 5860SOL     OW29215   0.733   3.728   8.558  0.2007  0.0049  0.2048
 5860SOL    HW129216   0.713   3.726   8.464  1.4267  0.1519 -0.0608
 5860SOL    HW229217   0.724   3.638   8.587  0.7976 -0.0190  0.3102
 5861SOL     OW29218   4.510   2.597   9.591 -0.1212 -0.2038 -0.2760
 5861SOL    HW129219   4.534   2.547   9.669  0.6802  1.3518  0.4673
 5861SOL    HW229220   4.416   2.607   9.604  0.3835  1.5456  1.9238
 5862SOL     OW29221   1.120   1.055   8.586 -0.1385 -0.1904  0.0661
 5862SOL    HW129222   1.040   1.087   8.544 -0.6290  0.0653  1.2003
 5862SOL    HW229223   1.169   1.134   8.611  0.0458 -0.5272  0.7808
 5863SOL     OW29224   3.344   4.062   5.004  0.3001  0.1717  0.3066
 5863SOL    HW129225   3.315   4.029   4.919 -1.3875 -1.3914  1.4775
 5863SOL    HW229226   3.413   4.001   5.029 -0.9386 -0.7987  1.3677
 5864SOL     OW29227   2.746   3.077   5.813 -0.4774  0.2177  0.3096
 5864SOL    HW129228   2.822   3.051   5.761 -1.6074 -3.9806  0.7613
 5864SOL    HW229229   2.699   2.995   5.795  1.0203 -0.7655  0.8611
 5865SOL     OW29230   1.257   3.475   3.598  0.1546 -0.5146 -0.1443
 5865SOL    HW129231   1.352   3.472   3.610  0.0857  1.4054  0.8707
 5865SOL    HW229232   1.254   3.422   3.518 -1.8950  0.7584 -0.9219
 5866SOL     OW29233   1.355   4.555   5.891  0.0897  0.2117  0.2675
 5866SOL    HW129234   1.284   4.596   5.842 -0.9072  0.8478  2.2371
 5866SOL    HW229235   1.305   4.479   5.920  1.6024 -1.1261 -0.6495
 5867SOL     OW29236   0.063   0.804   5.584  0.4945  0.5261 -0.4920
 5867SOL    HW129237   0.101   0.848   5.508  0.2789  0.2400 -0.7610
 5867SOL    HW229238   0.098   0.858   5.655  1.1417  1.4238 -1.4964
 5868SOL     OW29239   1.274   4.530   9.551 -0.5674  0.4872  0.6478
 5868SOL    HW129240   1.285   4.466   9.481  0.3305 -0.5169  1.7151
 5868SOL    HW229241   1.202   4.580   9.511 -1.1525 -1.0755 -0.2350
 5869SOL     OW29242   0.745   0.654  12.254 -0.5716 -0.2085 -0.2382
 5869SOL    HW129243   0.789   0.607  12.324  1.8259  2.6249  0.1785
 5869SOL    HW229244   0.800   0.732  12.242  0.0187 -1.0122 -2.6991
 5870SOL     OW29245   3.592   0.007   5.762 -0.4487 -0.2828  0.2008
 5870SOL    HW129246   3.596   0.102   5.753 -0.1656 -0.1163  2.1813
 5870SOL    HW229247   3.532   0.005   5.837 -0.7244 -2.0384 -0.0609
 5871SOL     OW29248   3.218   1.193  12.560  0.6141 -0.3550 -0.0783
 5871SOL    HW129249   3.284   1.179  12.492  1.8257  1.0210  0.8275
 5871SOL    HW229250   3.241   1.281  12.588 -0.3592  0.0580 -0.5827
 5872SOL     OW29251   3.088   3.193   9.922  0.4499 -0.1963  0.1866
 5872SOL    HW129252   3.077   3.237  10.007  0.6486  0.4070 -0.0994
 5872SOL    HW229253   3.060   3.260   9.860 -2.4743  0.8489  2.5786
 5873SOL     OW29254   2.173   0.748  14.509 -0.8819  0.2128 -0.1061
 5873SOL    HW129255   2.177   0.841  14.530 -1.6712 -0.0980  1.4468
 5873SOL    HW229256   2.081   0.743  14.482 -0.5024 -1.4087 -1.1485
 5874SOL     OW29257   1.230   0.374   9.259  0.1482 -1.6067 -0.4600
 5874SOL    HW129258   1.214   0.292   9.306 -0.8025 -1.3644 -0.3491
 5874SOL    HW229259   1.299   0.412   9.313 -0.3798 -3.1066  1.2992
 5875SOL     OW29260   1.913   0.533  17.611 -0.4507 -0.1886  0.1595
 5875SOL    HW129261   1.976   0.486  17.665 -0.0694 -0.0298 -0.1505
 5875SOL    HW229262   1.966   0.576  17.543 -1.8140  0.6137 -0.4028
 5876SOL     OW29263   1.044   0.177  16.724  0.1589  0.3354  0.2998
 5876SOL    HW129264   0.994   0.098  16.743  1.7008 -0.3384  1.5012
 5876SOL    HW229265   1.062   0.168  16.631  0.1529 -0.5240  0.3853
 5877SOL     OW29266   2.910   3.714   2.325 -0.4407  0.3098 -0.4005
 5877SOL    HW129267   2.832   3.674   2.287 -0.9061 -0.0318  0.9179
 5877SOL    HW229268   2.979   3.712   2.258 -0.5359 -1.0608 -0.4629
 5878SOL     OW29269   2.843   4.728  13.115 -0.6822  0.0742 -0.1370
 5878SOL    HW129270   2.845   4.736  13.210 -1.2901  1.6668 -0.2507
 5878SOL    HW229271   2.755   0.030  13.108 -0.7337 -0.3696 -1.8547
 5879SOL     OW29272   1.424   0.445  16.190 -0.2163 -0.4900 -0.1339
 5879SOL    HW129273   1.334   0.413  16.194 -0.4091 -0.0593 -1.1808
 5879SOL    HW229274   1.464   0.365  16.223 -1.6724 -0.6953  1.1235
 5880SOL     OW29275   3.137   0.366   5.654  0.1360 -0.4887  0.1050
 5880SOL    HW129276   3.134   0.454   5.615  1.0387 -0.0397  1.0461
 5880SOL    HW229277   3.086   0.314   5.592 -1.4291  0.0101  0.9762
 5881SOL     OW29278   4.729   0.607  17.698  1.0917  0.6623  0.0383
 5881SOL    HW129279   0.016   0.683  17.646 -0.3969 -0.1936 -1.8910
 5881SOL    HW229280   0.077   0.575  17.732  1.5164 -0.1561 -1.7505
 5882SOL     OW29281   3.824   2.699   8.282 -0.2719  0.7069  0.5936
 5882SOL    HW129282   3.870   2.782   8.273  1.9383 -0.4743  1.0455
 5882SOL    HW229283   3.763   2.709   8.354  0.1205  4.0023  0.4503
 5883SOL     OW29284   4.043   1.219   3.630  0.0011  0.1813  0.9423
 5883SOL    HW129285   4.020   1.168   3.552 -0.0111  1.8765 -0.1762
 5883SOL    HW229286   4.023   1.157   3.700 -0.0619  1.3830  1.9922
 5884SOL     OW29287   1.840   4.638   7.139  0.0338  0.0813  0.3032
 5884SOL    HW129288   1.785   4.633   7.218 -0.4450  0.1334 -0.0290
 5884SOL    HW229289   1.796   4.575   7.082 -0.2797  1.0596 -0.5241
 5885SOL     OW29290   1.510   4.403   5.386  0.3229 -0.7274 -0.1434
 5885SOL    HW129291   1.415   4.409   5.374 -0.0913 -3.6072  1.5693
 5885SOL    HW229292   1.517   4.404   5.482 -3.7189  1.7162  0.1158
 5886SOL     OW29293   1.615   0.872   3.905 -0.2312 -1.0100 -0.1309
 5886SOL    HW129294   1.620   0.957   3.948  0.5491 -1.2837  0.3204
 5886SOL    HW229295   1.628   0.886   3.811 -1.5213  1.5229  0.0876
 5887SOL     OW29296   0.555   3.931  10.392  0.1203 -0.3808 -0.0437
 5887SOL    HW129297   0.511   4.011  10.362 -1.2212 -0.6435  1.2205
 5887SOL    HW229298   0.531   3.928  10.485  1.5751  0.0666  0.3486
 5888SOL     OW29299   1.117   3.654   5.229 -0.0952 -0.4937  0.3434
 5888SOL    HW129300   1.072   3.730   5.191  2.4462  1.4986  1.3531
 5888SOL    HW229301   1.204   3.693   5.223 -0.3538  0.1822  0.8908
 5889SOL     OW29302   1.510   1.074  17.198  0.1213 -0.2455 -0.1143
 5889SOL    HW129303   1.532   0.985  17.227 -1.1971 -0.2674  0.8196
 5889SOL    HW229304   1.560   1.117  17.267  0.7311 -0.8468 -0.1787
 5890SOL     OW29305   1.186   2.026   7.732 -0.3358  0.5837 -0.4379
 5890SOL    HW129306   1.243   2.024   7.656 -0.3061  0.9468 -0.4246
 5890SOL    HW229307   1.171   2.120   7.739 -1.5299  0.3658 -0.0354
 5891SOL     OW29308   2.363   4.131   3.595  0.3287 -0.0481 -0.8428
 5891SOL    HW129309   2.348   4.106   3.504  1.5991  0.4480 -1.1881
 5891SOL    HW229310   2.446   4.086   3.608 -0.8540 -1.9581  0.0731
 5892SOL     OW29311   4.651   4.650   5.619 -0.0007 -0.1408  0.1980
 5892SOL    HW129312   4.722   4.711   5.601  0.4122 -0.5026  0.5935
 5892SOL    HW229313   4.585   4.684   5.558  0.1604  0.6573  0.4607
 5893SOL     OW29314   1.685   0.389   6.066  0.3276  0.6872  1.1479
 5893SOL    HW129315   1.714   0.478   6.045 -2.6948  1.4122  0.1285
 5893SOL    HW229316   1.671   0.400   6.160  2.3862  0.2010  1.5291
 5894SOL     OW29317   3.889   0.762   9.228 -0.1480  0.3122  0.4109
 5894SOL    HW129318   3.892   0.857   9.217  1.3481  0.1645 -0.4075
 5894SOL    HW229319   3.953   0.744   9.159 -1.6859  1.1637 -1.2468
 5895SOL     OW29320   0.591   0.220   7.371  0.3013 -0.6014  0.6123
 5895SOL    HW129321   0.609   0.282   7.301  1.2684  2.0972  3.2909
 5895SOL    HW229322   0.592   0.135   7.325  1.7258  0.2432 -0.9190
 5896SOL     OW29323   3.316   2.177   9.001  0.2203  0.2481  0.4099
 5896SOL    HW129324   3.282   2.244   8.942 -1.2485 -1.2494 -0.4640
 5896SOL    HW229325   3.258   2.202   9.072 -2.3151 -0.3810 -1.4171
 5897SOL     OW29326   4.445   1.686   5.716 -0.6175  0.1290  0.2089
 5897SOL    HW129327   4.401   1.771   5.714 -0.5478  0.1423 -1.1549
 5897SOL    HW229328   4.498   1.707   5.793 -0.6322 -1.3492  0.6028
 5898SOL     OW29329   0.405   4.065   8.513 -0.5375  0.1524 -0.5118
 5898SOL    HW129330   0.428   4.123   8.441 -0.7132  1.9455  0.8690
 5898SOL    HW229331   0.312   4.052   8.495 -0.7361  0.6070  0.1760
 5899SOL     OW29332   4.006   2.080   2.627 -1.0282 -0.1036  0.0648
 5899SOL    HW129333   4.014   2.064   2.721  1.3185 -4.5903 -0.9262
 5899SOL    HW229334   4.075   2.024   2.592 -1.3331 -0.0063 -0.6877
 5900SOL     OW29335   3.865   1.507  17.107 -0.4589  0.1633 -0.0797
 5900SOL    HW129336   3.883   1.589  17.061 -1.1919  0.4908  0.2033
 5900SOL    HW229337   3.865   1.460  17.024  0.9839 -0.3656  0.2285
 5901SOL     OW29338   2.333   2.406   3.915 -0.6281  0.8246  0.5437
 5901SOL    HW129339   2.293   2.319   3.911  1.2825 -0.0253  0.0636
 5901SOL    HW229340   2.260   2.467   3.905 -1.8522 -0.3693  2.2083
 5902SOL     OW29341   0.034   1.442   8.324 -0.2135 -0.1687  0.0672
 5902SOL    HW129342   0.085   1.398   8.391  0.2207  1.6639  0.9256
 5902SOL    HW229343   4.684   1.415   8.358 -0.6895  1.2604  0.0175
 5903SOL     OW29344   2.323   3.214  15.516 -0.2048  0.1948 -0.3429
 5903SOL    HW129345   2.242   3.206  15.465 -1.0956  0.0952  1.0984
 5903SOL    HW229346   2.362   3.292  15.478  1.4354 -0.2410  0.4541
 5904SOL     OW29347   1.310   1.309   7.664  0.2105  0.9395 -0.2945
 5904SOL    HW129348   1.369   1.281   7.594 -0.3711 -1.5030  0.2086
 5904SOL    HW229349   1.261   1.230   7.684  0.9436  0.5984  0.1554
 5905SOL     OW29350   3.882   4.474   8.142  0.3959 -0.7447 -0.1077
 5905SOL    HW129351   3.868   4.566   8.163 -0.7421 -0.4825 -2.0320
 5905SOL    HW229352   3.847   4.440   8.224  1.0345  0.7413  0.7784
 5906SOL     OW29353   3.505   1.589   5.056  0.1450 -0.3265 -0.2342
 5906SOL    HW129354   3.447   1.630   4.991  1.8403 -1.3233 -2.3392
 5906SOL    HW229355   3.445   1.527   5.098 -1.0734  0.4531 -0.7903
 5907SOL     OW29356   0.481   2.512   6.220 -0.3406 -0.4383 -0.5099
 5907SOL    HW129357   0.449   2.556   6.142  0.2009 -0.6574 -0.8549
 5907SOL    HW229358   0.528   2.577   6.272  0.9060 -2.6915  1.1857
 5908SOL     OW29359   3.625   2.930   4.588  0.3338 -0.6493  0.0055
 5908SOL    HW129360   3.561   2.891   4.646 -1.4152  0.4253 -1.1709
 5908SOL    HW229361   3.584   2.929   4.501  1.1685 -0.6841 -0.3886
 5909SOL     OW29362   1.981   2.665  17.668 -0.5377 -0.1053 -0.4835
 5909SOL    HW129363   2.009   2.674   0.017 -0.5321 -1.0020 -0.3944
 5909SOL    HW229364   2.062   2.651  17.619  0.1741 -0.3080  0.7343
 5910SOL     OW29365   4.419   2.466   3.292 -0.2222 -0.1701 -0.4327
 5910SOL    HW129366   4.486   2.534   3.280  0.6220 -0.8613  0.3571
 5910SOL    HW229367   4.463   2.409   3.355 -0.1420  0.8229  0.4183
 5911SOL     OW29368   1.847   0.417  16.294 -0.2085 -0.2148 -1.2682
 5911SOL    HW129369   1.796   0.434  16.373 -0.1615 -0.9104 -1.0958
 5911SOL    HW229370   1.930   0.389  16.331 -2.1979 -2.7628  1.2556
 5912SOL     OW29371   0.300   4.166   1.741 -0.3005  0.4136 -0.7569
 5912SOL    HW129372   0.240   4.091   1.742  0.1613  0.0524 -0.2708
 5912SOL    HW229373   0.339   4.153   1.828 -0.2704  0.7105 -0.7267
 5913SOL     OW29374   3.851   4.182   2.363  0.5291 -0.1130  0.2172
 5913SOL    HW129375   3.943   4.158   2.373  0.2656 -0.8031  0.9982
 5913SOL    HW229376   3.856   4.277   2.375  0.2536 -0.0528 -0.1272
 5914SOL     OW29377   1.515   4.193   8.240  0.4440 -0.3377 -0.2943
 5914SOL    HW129378   1.455   4.217   8.170  0.4855  0.8773  0.0765
 5914SOL    HW229379   1.572   4.270   8.246  0.7099 -0.5050 -0.6687
 5915SOL     OW29380   4.175   2.252  12.734 -0.1080  0.4587  0.0734
 5915SOL    HW129381   4.140   2.217  12.816 -2.5253  0.2999 -1.0304
 5915SOL    HW229382   4.266   2.222  12.734 -0.0319  0.6562 -1.5357
 5916SOL     OW29383   2.499   4.189   2.383  0.4344 -0.1451  0.1140
 5916SOL    HW129384   2.467   4.276   2.359  0.5745  0.5880  2.4831
 5916SOL    HW229385   2.464   4.133   2.314  1.4896  0.3542 -0.8219
 5917SOL     OW29386   0.152   2.255   3.527 -0.4365  0.5152 -0.4254
 5917SOL    HW129387   0.130   2.163   3.538 -0.6822  0.6582  0.2624
 5917SOL    HW229388   0.240   2.253   3.490 -0.0776  0.4204  0.4305
 5918SOL     OW29389   1.075   4.166   3.683  0.1533  0.8726  0.0500
 5918SOL    HW129390   1.146   4.213   3.639  2.3118  0.5768  3.2711
 5918SOL    HW229391   1.071   4.092   3.623  0.7334  2.0137 -1.3959
 5919SOL     OW29392   3.461   3.693  11.166  0.9807 -0.0380  0.1884
 5919SOL    HW129393   3.394   3.624  11.170  1.0815 -0.0294  2.1237
 5919SOL    HW229394   3.535   3.632  11.167  0.8047 -0.2489  0.4121
 5920SOL     OW29395   2.102   3.808  17.423 -0.1400  0.5270  0.8121
 5920SOL    HW129396   2.052   3.874  17.471 -0.8035 -0.1412  1.0352
 5920SOL    HW229397   2.090   3.739  17.488  0.9369 -0.6646 -0.2587
 5921SOL     OW29398   3.611   1.431  17.180 -0.3091 -0.2813 -0.2572
 5921SOL    HW129399   3.706   1.423  17.192 -0.4554  0.2382  1.1945
 5921SOL    HW229400   3.606   1.508  17.123 -0.8534  0.1710  0.4143
 5922SOL     OW29401   2.155   0.681   4.001 -0.5663  0.2576  0.0656
 5922SOL    HW129402   2.235   0.632   3.981  1.7415  3.4495  1.4187
 5922SOL    HW229403   2.091   0.632   3.950  1.1600  0.5062 -2.3692
 5923SOL     OW29404   1.978   2.825   4.426 -0.0248 -0.5252  0.1274
 5923SOL    HW129405   1.885   2.838   4.447 -0.0993  1.6240 -1.6238
 5923SOL    HW229406   2.003   2.780   4.507 -0.6429 -0.7241  0.2135
 5924SOL     OW29407   2.712   0.724   6.368  0.5352  0.4733 -0.1883
 5924SOL    HW129408   2.629   0.709   6.323 -0.3184  0.5712  1.3486
 5924SOL    HW229409   2.708   0.817   6.392  1.9471  1.2253 -2.8475
 5925SOL     OW29410   1.662   0.246   4.958 -0.0837  0.1949  0.4012
 5925SOL    HW129411   1.745   0.214   4.991 -0.6332 -1.5529  0.0876
 5925SOL    HW229412   1.664   0.342   4.961 -2.4874  0.3212 -1.3433
 5926SOL     OW29413   1.214   0.980  16.980 -1.1533  0.5121  0.4364
 5926SOL    HW129414   1.186   1.072  16.979 -0.8346  0.6199  1.8347
 5926SOL    HW229415   1.308   0.991  16.965 -1.2554 -0.7664 -1.1482
 5927SOL     OW29416   3.990   4.011   3.035 -0.0014  0.9030  0.3060
 5927SOL    HW129417   3.899   4.007   3.006 -0.2396  1.4131  0.9876
 5927SOL    HW229418   4.036   4.037   2.955  0.8886 -0.3175  0.4109
 5928SOL     OW29419   3.243   2.635   6.657  0.4599 -0.2841  1.0533
 5928SOL    HW129420   3.298   2.592   6.591  0.8906  0.3136  1.0218
 5928SOL    HW229421   3.219   2.568   6.721 -0.3777 -1.0744 -0.0927
 5929SOL     OW29422   3.145   4.355   1.483 -0.1836 -0.2578  0.2555
 5929SOL    HW129423   3.232   4.317   1.499  0.0638  1.0879  2.0100
 5929SOL    HW229424   3.138   4.423   1.549 -1.7651 -0.0557 -0.1196
 5930SOL     OW29425   3.643   3.195   0.731 -0.4696  0.2491  0.2403
 5930SOL    HW129426   3.657   3.105   0.701  1.3404  0.4554  0.5155
 5930SOL    HW229427   3.631   3.182   0.825 -0.7466  2.1514  0.4600
 5931SOL     OW29428   1.035   4.714   2.830 -0.3228  0.1305 -0.0386
 5931SOL    HW129429   1.068   4.657   2.900 -0.5464 -0.2502 -0.2407
 5931SOL    HW229430   1.041   0.061   2.877 -0.4757 -0.4985  1.0930
 5932SOL     OW29431   3.289   3.696  12.699 -0.1431  0.0647  0.1007
 5932SOL    HW129432   3.316   3.742  12.620 -0.0955 -2.0912 -1.1255
 5932SOL    HW229433   3.205   3.739  12.715 -0.4880 -1.3532  2.1505
 5933SOL     OW29434   0.275   3.185   1.901 -0.3958  0.3978 -0.3561
 5933SOL    HW129435   0.294   3.268   1.945 -0.3578  1.5394 -2.5446
 5933SOL    HW229436   0.215   3.143   1.963 -0.5782 -2.3718 -2.4036
 5934SOL     OW29437   3.203   1.045  12.783 -0.3902  0.1972  0.1641
 5934SOL    HW129438   3.192   1.094  12.701 -0.8151  1.0052  0.7105
 5934SOL    HW229439   3.182   1.113  12.847 -1.5369  1.3555 -1.4468
 5935SOL     OW29440   3.341   2.575  13.294 -0.5598  0.1208  0.1691
 5935SOL    HW129441   3.268   2.573  13.356  0.0227  2.0942  0.9106
 5935SOL    HW229442   3.282   2.578  13.219 -0.7064 -0.9029  0.2447
 5936SOL     OW29443   1.951   3.885  14.203 -0.7121 -0.6031  0.7295
 5936SOL    HW129444   1.937   3.858  14.112 -0.2000 -0.5674  0.6360
 5936SOL    HW229445   1.976   3.977  14.198 -2.0566 -0.4430 -2.5947
 5937SOL     OW29446   1.275   1.016  17.669  0.1534  0.1605  0.5747
 5937SOL    HW129447   1.358   1.003  17.714 -0.4472 -0.6194  1.4549
 5937SOL    HW229448   1.303   1.063  17.590 -2.1296 -1.1663 -1.0309
 5938SOL     OW29449   1.770   4.602   0.507  0.1480 -0.3621  0.0269
 5938SOL    HW129450   1.732   4.535   0.451  0.6605 -0.7129  0.1007
 5938SOL    HW229451   1.849   4.628   0.460  1.0254 -1.7428  0.7507
 5939SOL     OW29452   4.546   3.062   7.811 -0.9481 -0.7459  0.1098
 5939SOL    HW129453   4.580   3.107   7.733 -0.0770 -0.3350  0.7217
 5939SOL    HW229454   4.456   3.095   7.812 -0.6405  0.0893  0.4499
 5940SOL     OW29455   0.196   0.595   5.115  0.2152 -0.2938  0.5864
 5940SOL    HW129456   0.236   0.626   5.197 -0.4246  0.2461  0.6930
 5940SOL    HW229457   0.110   0.627   5.141 -0.6502 -2.1218 -0.0614
 5941SOL     OW29458   1.106   0.308  11.572 -0.3827  0.0787 -0.2650
 5941SOL    HW129459   1.179   0.272  11.621 -0.9973 -0.2976  0.3732
 5941SOL    HW229460   1.147   0.365  11.507 -0.0666 -1.3494 -1.3106
 5942SOL     OW29461   2.790   4.360  10.033 -0.2575 -0.4857 -0.1944
 5942SOL    HW129462   2.731   4.435  10.042 -1.9973 -1.7534 -1.1131
 5942SOL    HW229463   2.751   4.299  10.095 -2.8561 -0.7872 -2.1573
 5943SOL     OW29464   2.170   1.364  15.602 -0.1588  0.1470 -0.0691
 5943SOL    HW129465   2.135   1.281  15.637  0.9396 -0.3237 -0.0968
 5943SOL    HW229466   2.135   1.424  15.668 -0.3669  0.1914 -0.2197
 5944SOL     OW29467   2.704   3.387  13.005 -0.6035  0.0237  0.0213
 5944SOL    HW129468   2.704   3.467  12.953  0.2087  1.4875  2.2409
 5944SOL    HW229469   2.652   3.415  13.081 -2.6054 -0.9654 -1.0056
 5945SOL     OW29470   2.451   1.294  16.792 -0.1468 -0.7970  0.3301
 5945SOL    HW129471   2.493   1.329  16.871 -1.2073 -0.8563  0.9277
 5945SOL    HW229472   2.450   1.202  16.818 -1.3522 -0.0696  2.9379
 5946SOL     OW29473   1.665   4.226   7.023 -0.2347 -0.7743  0.5765
 5946SOL    HW129474   1.591   4.168   7.040 -2.0688  1.2045 -0.7546
 5946SOL    HW229475   1.729   4.158   6.999  0.4651  0.0618  0.0561
 5947SOL     OW29476   3.707   3.219   6.855  0.8245 -0.2221  0.3996
 5947SOL    HW129477   3.614   3.233   6.836  0.9851 -1.6281 -1.3280
 5947SOL    HW229478   3.734   3.306   6.884 -1.1014 -0.2972  2.4218
 5948SOL     OW29479   4.153   0.266   4.555 -0.1979  0.3044  0.5816
 5948SOL    HW129480   4.129   0.257   4.647  0.7380  0.5991  0.8503
 5948SOL    HW229481   4.239   0.225   4.567 -1.4140 -1.1927  4.3650
 5949SOL     OW29482   4.374   2.432   3.695 -0.3779  0.8039 -0.4156
 5949SOL    HW129483   4.450   2.376   3.676  0.7106  1.2062  2.6542
 5949SOL    HW229484   4.315   2.368   3.656  0.4627 -1.3197  1.7774
 5950SOL     OW29485   1.620   0.710  12.122  0.4518 -0.0115 -0.3220
 5950SOL    HW129486   1.661   0.749  12.200 -1.6209 -0.5028  1.0307
 5950SOL    HW229487   1.699   0.695  12.071  0.1200 -1.5886 -0.3547
 5951SOL     OW29488   2.776   3.832   9.706 -0.2546 -0.6411  0.0199
 5951SOL    HW129489   2.687   3.801   9.724  0.4470 -2.7875 -0.1833
 5951SOL    HW229490   2.809   3.761   9.651  0.1389 -0.0782 -0.4745
 5952SOL     OW29491   2.877   2.797   5.985  0.1164  0.2529 -0.4393
 5952SOL    HW129492   2.847   2.869   6.041  1.1104 -0.6195  1.2545
 5952SOL    HW229493   2.850   2.826   5.898 -0.4168 -2.0298 -1.0196
 5953SOL     OW29494   1.233   2.526   5.562  0.2108 -0.0835  0.4000
 5953SOL    HW129495   1.314   2.548   5.516  0.2610 -1.2783 -0.0630
 5953SOL    HW229496   1.261   2.522   5.654  0.2387 -2.2607  0.2981
 5954SOL     OW29497   2.322   4.617   0.726  0.6510  0.4012  0.3112
 5954SOL    HW129498   2.258   4.676   0.688  0.1833  1.5719  2.9389
 5954SOL    HW229499   2.316   4.548   0.660  3.1112 -1.0207  1.5571
 5955SOL     OW29500   3.085   3.010   4.537  0.3088 -0.5976 -0.3591
 5955SOL    HW129501   3.130   2.926   4.546  0.0221 -0.6543  0.4861
 5955SOL    HW229502   3.013   2.999   4.598  1.9984 -0.7712  1.6071
 5956SOL     OW29503   1.834   2.397  12.613 -0.6388 -0.5606  0.4342
 5956SOL    HW129504   1.883   2.345  12.677 -0.0914 -1.2999 -0.5842
 5956SOL    HW229505   1.880   2.480  12.627 -1.0580 -0.3211  0.4012
 5957SOL     OW29506   0.040   1.033   6.293  0.0293 -0.3922  0.2829
 5957SOL    HW129507   0.076   1.116   6.260  1.5528 -0.2998  2.2483
 5957SOL    HW229508   0.113   0.973   6.290  0.0989 -0.3902  1.8448
 5958SOL     OW29509   2.468   2.066   4.973 -0.0223  0.2110  0.6594
 5958SOL    HW129510   2.560   2.041   4.972 -0.4932 -1.4977 -0.8408
 5958SOL    HW229511   2.435   2.002   5.036 -1.7649 -1.1892 -1.6345
 5959SOL     OW29512   2.784   3.527   4.405 -0.1392 -0.5127 -0.0184
 5959SOL    HW129513   2.748   3.439   4.390 -1.0146 -0.2752  0.7458
 5959SOL    HW229514   2.729   3.557   4.477  0.7531 -1.4268  1.0287
 5960SOL     OW29515   0.290   4.608   4.896  0.0760  0.3094 -0.3392
 5960SOL    HW129516   0.341   4.651   4.827 -0.4547 -0.1180 -1.0059
 5960SOL    HW229517   0.209   4.659   4.891  0.2907  0.6970  0.1657
 5961SOL     OW29518   3.496   3.200   2.152 -0.6625  0.0053  0.0606
 5961SOL    HW129519   3.439   3.127   2.128  0.9960 -1.1765 -0.3233
 5961SOL    HW229520   3.456   3.283   2.127  1.0446  0.7212 -0.2784
 5962SOL     OW29521   2.291   2.747   7.629 -0.2931 -0.6309  0.1487
 5962SOL    HW129522   2.257   2.669   7.585 -1.8486  0.4421 -0.5365
 5962SOL    HW229523   2.213   2.788   7.666 -1.0169 -1.3563 -0.5782
 5963SOL     OW29524   3.062   4.497   3.023  0.5268 -0.3841 -0.2736
 5963SOL    HW129525   3.032   4.408   3.038 -0.9396  0.1726  0.0778
 5963SOL    HW229526   3.026   4.524   3.108 -2.3407  1.1534 -1.9868
 5964SOL     OW29527   3.039   0.793   1.511  0.0975  0.1938  0.1547
 5964SOL    HW129528   3.115   0.751   1.469 -0.1746 -0.3893  0.2474
 5964SOL    HW229529   2.987   0.813   1.433 -1.7880 -0.7149  1.1840
 5965SOL     OW29530   0.937   3.172  14.659 -0.3972  0.6386  0.2337
 5965SOL    HW129531   0.974   3.101  14.607  0.1530  0.8668  0.3146
 5965SOL    HW229532   0.841   3.162  14.657 -0.3366  0.7351 -2.6639
 5966SOL     OW29533   1.994   1.006   8.015 -0.1522  0.2068  0.2274
 5966SOL    HW129534   2.043   0.998   7.933  1.9261 -0.1370  1.5007
 5966SOL    HW229535   2.004   0.915   8.042  2.3910  0.9910  1.8555
 5967SOL     OW29536   1.271   0.903   1.710  0.5487 -0.5741  0.4659
 5967SOL    HW129537   1.183   0.884   1.745 -0.2611  0.1397 -1.2016
 5967SOL    HW229538   1.322   0.916   1.790  0.7425 -1.5819  0.5032
 5968SOL     OW29539   2.385   0.932  14.966 -0.1036  0.0723 -0.0043
 5968SOL    HW129540   2.434   0.877  14.905  1.5689  0.7762  0.7305
 5968SOL    HW229541   2.345   0.865  15.023 -1.1813 -1.6775 -2.8394
 5969SOL     OW29542   2.183   0.399   0.266  0.0453 -0.0948 -0.1462
 5969SOL    HW129543   2.262   0.453   0.270 -0.2002  0.2131  0.4894
 5969SOL    HW229544   2.120   0.456   0.309  2.4472  2.4473  0.0085
 5970SOL     OW29545   0.973   4.152   1.865  0.0181 -0.2444 -0.1484
 5970SOL    HW129546   0.889   4.107   1.864 -0.9798  1.6514 -0.4756
 5970SOL    HW229547   0.951   4.245   1.869  1.6585  0.0488  2.3720
 5971SOL     OW29548   3.941   4.406  12.893  0.3396  0.3412  0.2307
 5971SOL    HW129549   3.994   4.341  12.939 -1.4144 -0.3081  1.3348
 5971SOL    HW229550   3.891   4.453  12.959  0.6841 -2.5095  2.4936
 5972SOL     OW29551   3.656   3.228   6.456 -0.1477  0.0216  0.0699
 5972SOL    HW129552   3.739   3.267   6.483 -0.6417  0.2860  1.1787
 5972SOL    HW229553   3.667   3.137   6.484 -2.7463 -0.6580 -1.1944
 5973SOL     OW29554   0.583   2.523   2.424  0.2701  0.0680 -0.2938
 5973SOL    HW129555   0.668   2.541   2.384  0.5080 -1.0599 -0.3024
 5973SOL    HW229556   0.596   2.562   2.510  0.1579 -1.8342  0.5908
 5974SOL     OW29557   4.276   3.413   1.656 -0.4995 -0.2254  0.3041
 5974SOL    HW129558   4.186   3.433   1.632 -1.0555  0.6214  3.0298
 5974SOL    HW229559   4.292   3.331   1.610 -0.0491 -0.3812  0.7361
 5975SOL     OW29560   0.653   2.135   6.945  0.0953 -0.5402  0.3005
 5975SOL    HW129561   0.621   2.149   7.034 -0.9059 -1.0879  0.0219
 5975SOL    HW229562   0.573   2.144   6.894 -0.6529 -0.5773  1.4661
 5976SOL     OW29563   3.302   3.224   9.157  0.3009 -0.3601  0.4043
 5976SOL    HW129564   3.390   3.260   9.173  1.2422 -2.2650 -0.5097
 5976SOL    HW229565   3.311   3.226   9.062 -0.2656 -0.5435  0.3523
 5977SOL     OW29566   2.675   3.280   6.710 -0.3927 -0.0134  0.7276
 5977SOL    HW129567   2.728   3.359   6.721 -1.9453  0.8036  2.4631
 5977SOL    HW229568   2.736   3.211   6.735  0.6674  1.0542  1.0806
 5978SOL     OW29569   4.037   2.680   2.688 -0.5163 -0.0435 -0.2349
 5978SOL    HW129570   3.987   2.756   2.716 -1.4366 -1.1364  1.1326
 5978SOL    HW229571   3.995   2.606   2.733  3.1354 -2.6611 -1.1549
 5979SOL     OW29572   1.109   0.045   2.555  0.1981  0.5504 -0.2801
 5979SOL    HW129573   1.205   0.047   2.550  0.2469  2.4346  1.2961
 5979SOL    HW229574   1.093   0.030   2.648 -0.4368  1.8789 -0.1836
 5980SOL     OW29575   0.029   1.429   3.565 -0.5988 -0.0450 -0.3181
 5980SOL    HW129576   0.041   1.517   3.530  0.1381 -0.4280 -1.0372
 5980SOL    HW229577   0.121   1.412   3.585 -0.2430  0.0963 -1.8024
 5981SOL     OW29578   4.642   3.884  10.688  0.5182  0.9431 -0.1100
 5981SOL    HW129579   4.654   3.790  10.679 -1.3918  0.6454  0.3954
 5981SOL    HW229580   4.653   3.898  10.782 -0.5142  0.0198  0.1393
 5982SOL     OW29581   3.819   3.132   6.045  0.2124  0.0024 -0.0589
 5982SOL    HW129582   3.875   3.209   6.050 -1.9390  1.5900 -0.6440
 5982SOL    HW229583   3.809   3.110   6.138 -0.5382  1.1562  0.1392
 5983SOL     OW29584   0.102   4.009  14.120 -0.0445 -0.2245  0.3262
 5983SOL    HW129585   0.015   4.009  14.160 -0.9478 -0.4159 -1.6468
 5983SOL    HW229586   0.111   4.096  14.081  0.0794 -0.7536 -0.8237
 5984SOL     OW29587   1.927   3.973   0.320  0.2845  0.3006 -0.3930
 5984SOL    HW129588   1.986   4.017   0.259  0.8725 -1.1389 -0.8535
 5984SOL    HW229589   1.883   4.047   0.360  2.0101  2.1886 -1.9432
 5985SOL     OW29590   1.956   0.113   7.302 -0.1601 -0.7152  0.0903
 5985SOL    HW129591   1.939   0.039   7.243  1.3182 -2.0430  1.3428
 5985SOL    HW229592   1.866   0.145   7.307  0.1480  0.0243  0.7822
 5986SOL     OW29593   3.296   2.380   8.213 -0.4255 -0.1647  0.9336
 5986SOL    HW129594   3.381   2.424   8.208 -0.0883 -0.9167 -0.0713
 5986SOL    HW229595   3.234   2.451   8.227 -1.2884 -1.1316  2.0337
 5987SOL     OW29596   0.958   3.022   2.524  0.3700  0.1753 -0.2903
 5987SOL    HW129597   1.003   3.106   2.517  0.1183  0.5625  2.7967
 5987SOL    HW229598   0.866   3.043   2.509  0.1215 -0.2032  0.6814
 5988SOL     OW29599   0.200   2.315   2.274 -0.1921  0.1818 -0.1816
 5988SOL    HW129600   0.135   2.280   2.213 -1.4651  0.2959  1.1117
 5988SOL    HW229601   0.269   2.249   2.261  0.1887  0.3252  1.1175
 5989SOL     OW29602   2.952   1.771   4.465  0.0951  0.5656 -0.1406
 5989SOL    HW129603   2.962   1.677   4.458 -1.2412  0.3366  0.9593
 5989SOL    HW229604   2.878   1.765   4.525 -0.1071  2.5057 -0.1754
 5990SOL     OW29605   4.185   1.029   5.018 -0.2216 -0.1030  0.3613
 5990SOL    HW129606   4.254   1.053   5.080  0.1671  2.6055 -1.1494
 5990SOL    HW229607   4.237   1.014   4.939  2.1652 -1.9065  2.2850
 5991SOL     OW29608   1.936   2.589  11.278  0.3287 -0.2195  0.1157
 5991SOL    HW129609   1.950   2.497  11.254  0.7284 -0.0318 -0.3558
 5991SOL    HW229610   1.907   2.579  11.369  4.1104 -0.7368  1.2626
 5992SOL     OW29611   1.190   0.429  12.452 -0.4510  0.2676 -0.4763
 5992SOL    HW129612   1.283   0.409  12.467 -0.5901  0.4810  0.6791
 5992SOL    HW229613   1.164   0.339  12.472  2.1743 -0.2751  0.4888
 5993SOL     OW29614   1.323   0.793  11.516 -0.1261  0.0773 -0.2099
 5993SOL    HW129615   1.376   0.865  11.553 -1.0500  0.8919 -0.4873
 5993SOL    HW229616   1.394   0.729  11.506  1.3356  1.0912  3.2779
 5994SOL     OW29617   1.302   3.382   7.856 -0.1744  0.0948 -0.3292
 5994SOL    HW129618   1.224   3.428   7.888  0.3221  0.2176  0.6974
 5994SOL    HW229619   1.351   3.408   7.933  0.8438  0.0116 -0.9559
 5995SOL     OW29620   1.815   3.765   0.606  0.2806 -0.0956  0.2513
 5995SOL    HW129621   1.782   3.749   0.518  0.6769  2.8083 -0.4132
 5995SOL    HW229622   1.898   3.717   0.614  0.3295  0.2465  1.7332
 5996SOL     OW29623   2.801   3.902  12.763  0.2064  0.5142  0.1873
 5996SOL    HW129624   2.716   3.897  12.806  0.1737 -1.8853 -0.1598
 5996SOL    HW229625   2.797   3.996  12.746 -0.9240 -0.0792 -2.9677
 5997SOL     OW29626   2.882   1.104  14.790 -0.1954  0.2981  0.3550
 5997SOL    HW129627   2.917   1.160  14.859  2.4121 -2.1358  1.0084
 5997SOL    HW229628   2.846   1.040  14.852 -2.6861  0.9339 -0.4683
 5998SOL     OW29629   2.767   3.773   8.886 -0.1122 -0.3290  0.1443
 5998SOL    HW129630   2.748   3.859   8.847 -0.4998 -1.4058 -2.0005
 5998SOL    HW229631   2.716   3.783   8.966  1.5835  3.3513  0.8002
 5999SOL     OW29632   1.069   4.450   8.957  0.0472  0.0712 -0.2972
 5999SOL    HW129633   1.107   4.429   8.872 -1.5652 -1.4108 -0.6427
 5999SOL    HW229634   1.004   4.509   8.919  0.2924  0.4455 -0.1429
 6000SOL     OW29635   4.548   2.887   3.778 -0.2466 -0.3057 -0.0061
 6000SOL    HW129636   4.569   2.820   3.712  0.5644 -0.4630  0.4158
 6000SOL    HW229637   4.468   2.849   3.814  0.7707 -1.1049  1.3793
 6001SOL     OW29638   0.150   1.295   6.180  0.0773 -0.3357  0.3679
 6001SOL    HW129639   0.193   1.285   6.265 -0.4626 -2.6776  0.3431
 6001SOL    HW229640   0.149   1.388   6.157  0.1300 -0.5422 -0.4853
 6002SOL     OW29641   0.714   1.333   3.772  0.4114  0.0920  0.3047
 6002SOL    HW129642   0.688   1.246   3.803  0.2905 -0.1642 -0.5030
 6002SOL    HW229643   0.759   1.303   3.692  2.3714  0.4973  1.2544
 6003SOL     OW29644   1.116   1.114   4.523  0.1023 -0.3802 -0.0392
 6003SOL    HW129645   1.109   1.067   4.440 -0.6790  1.8594 -1.2505
 6003SOL    HW229646   1.157   1.046   4.576 -0.8516 -1.7793 -1.1119
 6004SOL     OW29647   4.493   0.817   5.774  0.0816 -0.2907 -0.2210
 6004SOL    HW129648   4.450   0.901   5.791  2.0630  1.1549 -2.4039
 6004SOL    HW229649   4.571   0.859   5.737  0.9365 -1.2459  0.5098
 6005SOL     OW29650   4.333   4.190   2.043 -0.3579  0.9318  0.1746
 6005SOL    HW129651   4.388   4.269   2.045 -1.3677  1.6969 -1.5420
 6005SOL    HW229652   4.248   4.224   2.071  0.2729  0.3185  2.8603
 6006SOL     OW29653   4.664   4.574   1.131 -0.5081  0.1708 -0.5415
 6006SOL    HW129654   4.692   4.498   1.081  0.0518 -0.7520  1.1457
 6006SOL    HW229655   0.013   4.605   1.164 -1.3742  0.4902  1.4437
 6007SOL     OW29656   3.267   3.957   4.127 -0.0912 -0.0270 -0.0032
 6007SOL    HW129657   3.187   3.961   4.179  1.4602 -1.1249  2.4808
 6007SOL    HW229658   3.314   3.883   4.166  1.0791  1.3947  1.2654
 6008SOL     OW29659   2.998   3.759  14.707  0.1700 -0.1917  0.0845
 6008SOL    HW129660   2.965   3.685  14.657 -0.3270 -0.0710  0.2410
 6008SOL    HW229661   2.921   3.812  14.724  0.4240  0.5989 -1.2856
 6009SOL     OW29662   3.137   0.416   7.214 -0.1360  0.2487 -0.5843
 6009SOL    HW129663   3.110   0.507   7.209 -1.4391 -0.1370 -0.6268
 6009SOL    HW229664   3.061   0.363   7.240  0.5587 -0.9626 -0.9990
 6010SOL     OW29665   2.353   2.441  10.112 -0.0303  0.3494  0.3390
 6010SOL    HW129666   2.316   2.519  10.071  0.4631 -0.0321 -0.8381
 6010SOL    HW229667   2.428   2.427  10.054  0.0971  1.9512  0.1131
 6011SOL     OW29668   0.864   3.752   4.754  0.3784 -0.3643  0.1085
 6011SOL    HW129669   0.833   3.821   4.695  1.1181 -0.3801 -0.3043
 6011SOL    HW229670   0.801   3.755   4.826  0.2005 -1.8312  0.0246
 6012SOL     OW29671   2.675   2.735   3.701 -0.2432  0.6200 -0.1459
 6012SOL    HW129672   2.732   2.786   3.644  0.7761 -2.8644 -2.2204
 6012SOL    HW229673   2.594   2.786   3.690 -0.0192  0.7853 -1.0271
 6013SOL     OW29674   0.694   1.960  15.015  0.5660 -0.1598  0.0615
 6013SOL    HW129675   0.621   1.913  14.976  2.0940 -2.1502 -0.3976
 6013SOL    HW229676   0.658   2.049  15.003  1.2965  0.1846  0.4253
 6014SOL     OW29677   0.178   2.760   8.896 -0.5560  0.2964 -0.0326
 6014SOL    HW129678   0.256   2.807   8.927  0.4865 -0.9445 -0.7770
 6014SOL    HW229679   0.214   2.672   8.903  1.0939  0.8799 -0.9572
 6015SOL     OW29680   3.382   3.399   4.457  0.6439 -0.0603 -0.2314
 6015SOL    HW129681   3.345   3.388   4.369 -1.7483 -0.1578  0.7825
 6015SOL    HW229682   3.440   3.322   4.459  0.2129 -0.4358 -2.0712
 6016SOL     OW29683   0.462   2.541  14.399 -0.6052  0.1552 -0.2098
 6016SOL    HW129684   0.473   2.633  14.373 -1.1956  0.7476  1.5913
 6016SOL    HW229685   0.550   2.515  14.426 -0.9916 -0.3333  0.5923
 6017SOL     OW29686   0.336   2.534   7.906 -0.7930 -0.4807 -0.5410
 6017SOL    HW129687   0.421   2.568   7.936 -0.6861 -1.2011 -0.0124
 6017SOL    HW229688   0.291   2.611   7.872 -3.7309 -1.3004  1.5048
 6018SOL     OW29689   1.292   2.170   6.524 -0.1078 -0.2152 -0.8939
 6018SOL    HW129690   1.230   2.121   6.470  1.4069 -1.6694 -1.3116
 6018SOL    HW229691   1.373   2.154   6.475  2.1683  2.0541  2.1346
 6019SOL     OW29692   2.194   3.857  13.939 -0.1880 -0.4590  0.3525
 6019SOL    HW129693   2.156   3.826  13.857  1.8575 -1.3186 -0.2668
 6019SOL    HW229694   2.153   3.944  13.941  0.6156 -0.0683  0.0946
 6020SOL     OW29695   4.611   2.334   9.518  0.0898 -0.1732  0.7467
 6020SOL    HW129696   4.602   2.429   9.510 -1.5223 -0.4238 -0.5559
 6020SOL    HW229697   4.690   2.336   9.572 -0.2004  0.2503  1.1545
 6021SOL     OW29698   0.261   0.873   9.447 -0.3877 -0.2854 -0.3912
 6021SOL    HW129699   0.283   0.845   9.536 -1.5210 -0.9937 -0.3325
 6021SOL    HW229700   0.267   0.787   9.405  0.9758  2.4540 -5.8760
 6022SOL     OW29701   2.142   2.803   3.127  0.1949 -0.7683 -0.6248
 6022SOL    HW129702   2.068   2.757   3.088  0.0733  0.5955 -1.9885
 6022SOL    HW229703   2.103   2.888   3.148  1.5813 -0.1749 -0.4170
 6023SOL     OW29704   4.366   1.123   5.206  0.4703  0.1948 -0.2945
 6023SOL    HW129705   4.461   1.117   5.219  0.2840  0.2591  1.0317
 6023SOL    HW229706   4.334   1.179   5.277  0.1798 -0.3705  0.0172
 6024SOL     OW29707   3.442   2.249  12.752  0.6403 -0.7357  0.1995
 6024SOL    HW129708   3.393   2.259  12.671 -1.8466 -1.9803  1.5445
 6024SOL    HW229709   3.478   2.160  12.747  0.4630 -0.7093 -1.4863
 6025SOL     OW29710   3.614   0.615   5.576  0.6988 -0.3785 -0.2796
 6025SOL    HW129711   3.539   0.673   5.590  2.3542  1.3843  1.2759
 6025SOL    HW229712   3.674   0.630   5.649  1.9054  0.1142 -1.3730
 6026SOL     OW29713   4.076   1.586   7.954 -0.4249  0.4022 -1.0268
 6026SOL    HW129714   4.158   1.587   7.906 -0.6394  2.0823 -1.3570
 6026SOL    HW229715   4.111   1.603   8.042 -0.4721  0.2642 -0.9798
 6027SOL     OW29716   0.943   1.397   4.276  0.0944  0.4306 -0.4069
 6027SOL    HW129717   0.931   1.383   4.182 -1.8660  1.4065 -0.3011
 6027SOL    HW229718   0.910   1.311   4.302  0.3808  0.5574  0.3786
 6028SOL     OW29719   3.383   3.380   5.604 -0.7837 -0.5475 -0.0060
 6028SOL    HW129720   3.345   3.428   5.531  0.5580 -0.7938 -0.8512
 6028SOL    HW229721   3.411   3.296   5.570  2.6307  0.2596  0.8526
 6029SOL     OW29722   2.218   2.073   9.719  0.2276 -0.2455  0.2513
 6029SOL    HW129723   2.149   2.008   9.708 -0.4486  0.3848  0.7525
 6029SOL    HW229724   2.288   2.058   9.656  0.5627  0.3628  0.4813
 6030SOL     OW29725   4.196   1.633  16.709 -0.1144  0.0669 -0.9776
 6030SOL    HW129726   4.195   1.674  16.622  2.3670 -1.0156 -1.5127
 6030SOL    HW229727   4.237   1.552  16.677  0.9162  0.1961  0.0499
 6031SOL     OW29728   2.125   4.404  14.790  0.2699  0.0358  0.1221
 6031SOL    HW129729   2.065   4.478  14.791 -0.4329 -0.5010 -2.1777
 6031SOL    HW229730   2.103   4.360  14.707  2.1708  0.8448 -0.8083
 6032SOL     OW29731   1.095   2.059   6.306  0.2980 -0.0959 -0.7541
 6032SOL    HW129732   1.040   1.981   6.310  0.7431 -0.4705 -1.7798
 6032SOL    HW229733   1.040   2.113   6.362  0.0920 -0.8484 -0.2464
 6033SOL     OW29734   2.006   0.899   0.522  0.2624  0.5057  0.5365
 6033SOL    HW129735   2.042   0.986   0.542  0.6205  0.0316  1.9480
 6033SOL    HW229736   2.090   0.863   0.493  0.0829  0.6424 -0.1598
 6034SOL     OW29737   1.329   0.900   5.171 -0.0640 -0.6492  0.4181
 6034SOL    HW129738   1.272   0.969   5.204  1.4771  0.7540  0.1668
 6034SOL    HW229739   1.365   0.872   5.256 -1.7965  0.0709  1.3739
 6035SOL     OW29740   3.740   4.005   2.925  0.1762  0.6839 -0.6013
 6035SOL    HW129741   3.760   3.925   2.877 -2.8979  0.2819 -1.2166
 6035SOL    HW229742   3.751   4.078   2.863 -1.9885  0.1889 -1.5968
 6036SOL     OW29743   2.665   3.627   4.628 -0.1097  0.0787 -0.3806
 6036SOL    HW129744   2.637   3.714   4.597 -0.1046  1.0208  2.3045
 6036SOL    HW229745   2.691   3.648   4.717  0.1477  1.3472 -0.7501
 6037SOL     OW29746   0.994   2.341  14.764 -0.6026 -0.8270 -0.4069
 6037SOL    HW129747   0.905   2.362  14.794  0.1452 -2.3546  2.8058
 6037SOL    HW229748   1.009   2.253  14.798 -2.7342 -1.5739 -1.4013
 6038SOL     OW29749   3.876   0.966   0.883 -0.1110 -0.1643 -0.0961
 6038SOL    HW129750   3.781   0.961   0.894 -0.0747  1.5584  1.0083
 6038SOL    HW229751   3.882   1.016   0.802 -0.2649 -0.5241 -0.3292
 6039SOL     OW29752   4.389   3.565   4.609 -0.5295  0.1589 -0.0462
 6039SOL    HW129753   4.458   3.569   4.543 -0.0796 -1.2177  0.3346
 6039SOL    HW229754   4.329   3.510   4.559  0.0108 -1.4306  1.0463
 6040SOL     OW29755   4.270   3.481  14.934 -0.7911  0.1594 -0.2942
 6040SOL    HW129756   4.260   3.454  15.026 -0.1718  0.2228 -0.2067
 6040SOL    HW229757   4.177   3.481  14.910 -0.4730  0.8970 -1.5032
 6041SOL     OW29758   1.028   3.338   4.465  0.4612 -0.5811  0.3470
 6041SOL    HW129759   1.121   3.323   4.477  0.2921 -1.5291  0.4888
 6041SOL    HW229760   1.023   3.431   4.488 -0.3161 -0.4008 -0.5533
 6042SOL     OW29761   0.763   3.801   5.841  0.0155 -0.0580  0.4964
 6042SOL    HW129762   0.748   3.725   5.897  0.9278 -0.8532 -0.3284
 6042SOL    HW229763   0.785   3.756   5.759  0.3508  0.3451  0.3672
 6043SOL     OW29764   2.365   4.036   4.561  0.3187  0.6846 -0.1004
 6043SOL    HW129765   2.311   3.982   4.618  0.4619  0.0685 -0.5513
 6043SOL    HW229766   2.362   4.122   4.604  1.2441  0.2388  0.8639
 6044SOL     OW29767   4.097   4.391   6.427 -0.6001  0.1587 -0.4375
 6044SOL    HW129768   4.011   4.432   6.435 -0.3931  0.7355 -1.2560
 6044SOL    HW229769   4.142   4.407   6.510  1.7021  0.8330 -1.8271
 6045SOL     OW29770   2.622   4.623   4.781 -0.2418  0.1169  0.4006
 6045SOL    HW129771   2.601   4.534   4.810  0.1509 -0.3364 -0.6930
 6045SOL    HW229772   2.654   4.612   4.691 -1.6134 -0.6640 -0.0002
 6046SOL     OW29773   2.216   3.548   6.679 -0.0382  0.5488 -0.6068
 6046SOL    HW129774   2.148   3.513   6.737 -1.0464  0.8516 -1.5888
 6046SOL    HW229775   2.296   3.528   6.727 -1.1350  0.8636  1.3447
 6047SOL     OW29776   3.871   4.313   5.098  0.3731  0.0335 -0.0714
 6047SOL    HW129777   3.783   4.348   5.109  0.3662  0.5208 -1.7256
 6047SOL    HW229778   3.888   4.292   5.190 -1.7846 -1.8296 -0.1152
 6048SOL     OW29779   0.969   4.153   8.713  0.0345  0.0894 -0.4406
 6048SOL    HW129780   0.986   4.192   8.627 -0.3455  2.4767  0.5472
 6048SOL    HW229781   0.912   4.214   8.761 -0.4243 -0.6481 -0.0364
 6049SOL     OW29782   0.054   1.860   2.622 -0.2937  0.4249 -0.2787
 6049SOL    HW129783   4.708   1.815   2.602 -0.5119 -0.1198  1.7824
 6049SOL    HW229784   0.057   1.921   2.548 -0.7512 -2.2506 -2.5039
 6050SOL     OW29785   2.390   2.400   2.344 -0.2219 -0.3023  0.0729
 6050SOL    HW129786   2.427   2.383   2.257 -0.7275 -1.2861  0.0432
 6050SOL    HW229787   2.444   2.345   2.401 -0.1491  0.7781  1.0367
 6051SOL     OW29788   2.038   3.896  10.927 -0.3530  0.4985 -0.8087
 6051SOL    HW129789   1.958   3.948  10.926 -0.8876 -0.3130  0.5397
 6051SOL    HW229790   2.092   3.946  10.989 -1.7074 -0.3947  1.0641
 6052SOL     OW29791   1.081   2.871   8.585 -0.0298  0.1336 -0.6317
 6052SOL    HW129792   1.055   2.870   8.677 -0.2455 -0.0769 -0.6932
 6052SOL    HW229793   1.012   2.929   8.553 -1.2940 -0.5545  0.8850
 6053SOL     OW29794   3.169   1.395  10.362 -0.2159  0.0789 -0.6704
 6053SOL    HW129795   3.254   1.373  10.324  0.8600  1.2200  1.0242
 6053SOL    HW229796   3.200   1.441  10.441  1.1900 -2.4427  0.2622
 6054SOL     OW29797   0.212   3.610   1.431  0.7615 -0.4023 -0.0372
 6054SOL    HW129798   0.259   3.682   1.474  0.3193  0.8263 -1.6168
 6054SOL    HW229799   0.198   3.646   1.343  2.7708 -1.0614 -0.6288
 6055SOL     OW29800   0.069   1.891   7.922 -0.1326 -0.0368  0.4313
 6055SOL    HW129801   0.020   1.898   7.840  2.0164  1.4354 -0.7250
 6055SOL    HW229802   0.160   1.907   7.897 -0.1414 -0.2653  0.2435
 6056SOL     OW29803   4.087   4.586   1.582 -0.6407  0.5251 -0.3520
 6056SOL    HW129804   4.088   4.673   1.622 -0.4966 -0.9048  2.8200
 6056SOL    HW229805   3.997   4.559   1.600  0.0625 -0.7146  1.3557
 6057SOL     OW29806   1.195   0.719   1.327  0.5083 -0.7271 -0.0768
 6057SOL    HW129807   1.239   0.804   1.324 -0.2951 -0.2858  0.9814
 6057SOL    HW229808   1.226   0.670   1.250  1.0437 -1.4022  0.5723
 6058SOL     OW29809   2.480   1.044  16.853 -0.4791  0.6081  0.1751
 6058SOL    HW129810   2.435   1.024  16.935 -0.9028 -1.2733 -0.5135
 6058SOL    HW229811   2.481   0.961  16.806 -0.0388 -1.0526  3.0991
 6059SOL     OW29812   2.690   3.276   4.340 -0.4013  0.2157 -0.0417
 6059SOL    HW129813   2.627   3.220   4.386 -1.4270  1.2377 -0.1875
 6059SOL    HW229814   2.732   3.222   4.273 -0.3972  0.9876 -0.6566
 6060SOL     OW29815   2.880   3.094   6.961 -0.3906  0.1298  0.6484
 6060SOL    HW129816   2.869   3.111   6.867  2.0513 -1.5154  0.0446
 6060SOL    HW229817   2.874   3.180   7.001  0.8818  1.3838 -1.8116
 6061SOL     OW29818   2.599   4.547   9.995 -0.0017  0.5623  0.4087
 6061SOL    HW129819   2.577   4.617  10.057 -3.3952  1.9296 -2.3687
 6061SOL    HW229820   2.536   4.547   9.924  0.4793  0.1788 -0.0190
 6062SOL     OW29821   3.473   3.449   2.037  0.2407 -0.0814  0.2131
 6062SOL    HW129822   3.410   3.520   2.025 -0.0185 -0.4461 -0.5561
 6062SOL    HW229823   3.538   3.471   1.970 -0.2682  0.7954  0.0056
 6063SOL     OW29824   0.046   3.388   3.342  0.1020  0.5224 -0.4970
 6063SOL    HW129825   0.047   3.298   3.373  0.4014  0.2633 -1.2709
 6063SOL    HW229826   0.005   3.430   3.418 -0.4624  0.8202 -0.9692
 6064SOL     OW29827   1.953   0.992   5.820  0.1096  0.0663 -0.2189
 6064SOL    HW129828   2.013   0.927   5.857 -0.3363 -0.7514 -0.9572
 6064SOL    HW229829   2.017   1.056   5.788  1.3574  0.7147  3.5313
 6065SOL     OW29830   0.043   4.462   5.293  0.1167  0.3592 -0.4790
 6065SOL    HW129831   0.087   4.546   5.306 -0.4986  0.5639  0.2829
 6065SOL    HW229832   0.019   4.437   5.383  1.4235 -0.2060 -0.2857
 6066SOL     OW29833   2.901   3.368   5.116  0.8415 -0.2356  0.4893
 6066SOL    HW129834   2.806   3.374   5.121  0.7463 -0.4441 -1.0776
 6066SOL    HW229835   2.925   3.436   5.053  0.4881  0.2518  0.8826
 6067SOL     OW29836   1.656   3.833   2.872  0.0804  0.3538 -0.2092
 6067SOL    HW129837   1.683   3.743   2.886 -2.3430 -0.2301  0.6291
 6067SOL    HW229838   1.667   3.835   2.777 -2.1689 -0.0249 -0.4741
 6068SOL     OW29839   0.040   3.409   7.334  0.1554  0.0427 -0.6217
 6068SOL    HW129840   4.731   3.347   7.392  0.8226  1.8005  1.7845
 6068SOL    HW229841   4.718   3.405   7.258  1.2254  1.0769 -1.4890
 6069SOL     OW29842   0.267   3.125  17.054  0.6199  0.3106 -0.1029
 6069SOL    HW129843   0.234   3.118  16.964  0.7369  1.2123 -0.2132
 6069SOL    HW229844   0.204   3.076  17.106  1.2141  0.5898  0.8746
 6070SOL     OW29845   1.657   4.656   4.910  0.2806 -0.1088 -0.5820
 6070SOL    HW129846   1.729   4.672   4.850 -0.5424 -0.2237 -1.6099
 6070SOL    HW229847   1.701   4.644   4.994 -2.7382 -1.6039  0.7985
 6071SOL     OW29848   2.465   1.220   4.162 -0.2467 -0.1141 -0.2609
 6071SOL    HW129849   2.451   1.130   4.192 -2.2692  0.0112 -0.8750
 6071SOL    HW229850   2.561   1.227   4.167  0.0822 -3.3974 -1.4412
 6072SOL     OW29851   1.759   3.485   3.708 -0.4840  0.3265  0.0872
 6072SOL    HW129852   1.808   3.543   3.650  1.6282  0.8235  2.3910
 6072SOL    HW229853   1.825   3.475   3.777  1.1253  2.4351 -1.1667
 6073SOL     OW29854   3.911   1.301   5.157 -0.4544  0.4781  0.0231
 6073SOL    HW129855   3.889   1.395   5.160 -1.9440  0.1938 -1.8028
 6073SOL    HW229856   3.941   1.289   5.247  0.2641 -2.2506 -0.5975
 6074SOL     OW29857   3.270   1.394   7.686  0.0632  0.4037 -0.0285
 6074SOL    HW129858   3.289   1.468   7.629 -0.1941  1.7562  1.6410
 6074SOL    HW229859   3.309   1.331   7.625  1.3865  0.2205  1.0040
 6075SOL     OW29860   4.548   3.629  16.101 -0.2224  0.4784 -0.5624
 6075SOL    HW129861   4.642   3.632  16.116 -0.2493  1.1289 -0.5287
 6075SOL    HW229862   4.558   3.647  16.008 -0.4964  0.2298 -0.6382
 6076SOL     OW29863   2.916   0.097   0.342 -0.0150 -0.5152 -0.0693
 6076SOL    HW129864   2.857   0.172   0.348  0.3657 -0.3603  1.6700
 6076SOL    HW229865   2.947   0.109   0.252  0.9915 -1.0732  0.1981
 6077SOL     OW29866   0.486   0.613  12.303 -0.3491  0.5082 -0.2796
 6077SOL    HW129867   0.578   0.633  12.283 -0.0636 -1.3002 -0.8342
 6077SOL    HW229868   0.446   0.623  12.216 -1.0524 -1.4535 -0.1722
 6078SOL     OW29869   1.860   4.709   1.031  0.3326 -0.4539  0.6306
 6078SOL    HW129870   1.926   4.641   1.042  1.2369  0.3700  0.4107
 6078SOL    HW229871   1.889   0.027   1.105  2.8013  0.1577 -0.7582
 6079SOL     OW29872   3.719   1.511   4.359  0.4999  0.6668 -0.2543
 6079SOL    HW129873   3.638   1.462   4.347  1.6332 -1.2974 -0.0084
 6079SOL    HW229874   3.694   1.591   4.313 -0.3053  0.0058 -0.9452
 6080SOL     OW29875   2.600   0.370   2.837  0.3283  0.2308 -0.0972
 6080SOL    HW129876   2.607   0.298   2.775 -0.4899 -0.3798  0.5108
 6080SOL    HW229877   2.637   0.337   2.919 -0.0801 -1.5341 -0.6258
 6081SOL     OW29878   2.273   4.044   6.269 -0.1102  0.1976 -0.0906
 6081SOL    HW129879   2.282   4.139   6.262 -0.2847  0.1209 -1.2926
 6081SOL    HW229880   2.293   4.034   6.362 -0.0260 -0.7835 -0.2215
 6082SOL     OW29881   4.436   4.136   5.944  0.3324 -0.4613 -0.0814
 6082SOL    HW129882   4.370   4.078   5.980 -2.0608  1.5940 -1.1413
 6082SOL    HW229883   4.468   4.078   5.875 -0.6456 -0.1086 -0.8350
 6083SOL     OW29884   3.673   1.826  15.991  0.2161  0.1678 -0.1412
 6083SOL    HW129885   3.687   1.742  16.034  0.0029  0.0370 -0.3291
 6083SOL    HW229886   3.715   1.810  15.907  0.7894  0.4913  0.0852
 6084SOL     OW29887   2.109   3.655  10.001  0.5837  0.1188  0.2655
 6084SOL    HW129888   2.014   3.655   9.993  0.5795 -1.5093  0.2371
 6084SOL    HW229889   2.114   3.739   9.955 -1.1558  1.3001  2.2395
 6085SOL     OW29890   2.128   4.655  11.110  0.3049  0.5594  1.0574
 6085SOL    HW129891   2.126   4.720  11.039  1.1385 -1.6386 -0.9616
 6085SOL    HW229892   2.036   4.650  11.137 -0.0170  1.5769  0.1783
 6086SOL     OW29893   2.419   1.845   4.453  0.2321  0.0673  0.6022
 6086SOL    HW129894   2.440   1.830   4.545 -0.5468 -2.5202  0.3567
 6086SOL    HW229895   2.506   1.856   4.414  1.1873 -0.7579  2.4904
 6087SOL     OW29896   2.411   1.763   3.208  0.5008 -0.0482 -0.4171
 6087SOL    HW129897   2.425   1.776   3.114  0.3012  0.0992 -0.4261
 6087SOL    HW229898   2.316   1.764   3.220  0.3023  2.7756 -2.1667
 6088SOL     OW29899   4.631   3.738   6.424  0.4346 -1.1236  0.7494
 6088SOL    HW129900   4.677   3.765   6.503 -0.8067  1.2219  0.6823
 6088SOL    HW229901   4.699   3.757   6.360 -0.4498  0.0834  0.1744
 6089SOL     OW29902   0.156   4.107   6.329 -0.3030 -0.2174 -0.5931
 6089SOL    HW129903   0.147   4.076   6.419  0.2513 -1.4621 -0.9647
 6089SOL    HW229904   0.111   4.032   6.291  1.8095 -1.6667 -0.2071
 6090SOL     OW29905   0.391   2.013   3.532  0.7364  0.1275  0.1110
 6090SOL    HW129906   0.459   1.997   3.467  0.4144 -1.4226  0.1647
 6090SOL    HW229907   0.443   1.981   3.605 -1.9545 -2.2319  1.0042
 6091SOL     OW29908   2.406   2.006   9.545  0.0466  0.2745  0.1351
 6091SOL    HW129909   2.405   1.913   9.520 -1.6195 -0.3195  2.3709
 6091SOL    HW229910   2.486   2.013   9.598  0.5758  0.9643 -0.7651
 6092SOL     OW29911   3.344   3.566   3.009  0.0846 -0.0928  0.0782
 6092SOL    HW129912   3.328   3.612   2.927  0.4470  1.5055  0.8992
 6092SOL    HW229913   3.438   3.578   3.022  0.2873 -1.9769  0.3860
 6093SOL     OW29914   4.004   4.562   8.716 -0.2389  0.4216 -0.2651
 6093SOL    HW129915   3.910   4.571   8.696 -0.4625 -1.6023 -0.1823
 6093SOL    HW229916   4.007   4.633   8.780 -0.5813 -0.3586  0.6156
 6094SOL     OW29917   3.243   3.782   9.527 -0.2841  0.1509 -0.8722
 6094SOL    HW129918   3.261   3.875   9.539  0.4229  0.1062 -1.5875
 6094SOL    HW229919   3.270   3.744   9.610 -3.1474  2.7232  1.2235
 6095SOL     OW29920   3.456   2.488   8.752  0.0822  0.5162  0.2994
 6095SOL    HW129921   3.547   2.502   8.725 -0.0230  0.7538  0.0627
 6095SOL    HW229922   3.424   2.503   8.663  0.2967 -0.6174  0.0333
 6096SOL     OW29923   1.033   0.328   6.499  0.4334  0.1626  0.3634
 6096SOL    HW129924   1.046   0.255   6.438 -1.1172 -1.9450  2.5355
 6096SOL    HW229925   1.118   0.335   6.541 -0.7744 -2.8144  3.2945
 6097SOL     OW29926   1.860   4.127   5.322  0.6155 -0.8974  0.7067
 6097SOL    HW129927   1.769   4.112   5.297  1.5415 -3.1297 -1.2708
 6097SOL    HW229928   1.867   4.213   5.281  0.6905 -0.9569  0.5964
 6098SOL     OW29929   4.119   3.296   7.417 -0.4468  0.6206  0.0374
 6098SOL    HW129930   4.066   3.217   7.418 -0.5982  0.7077 -1.0258
 6098SOL    HW229931   4.207   3.258   7.424 -0.8910 -0.2723  0.6830
 6099SOL     OW29932   4.556   3.324   1.586 -0.2671  0.5265 -0.0931
 6099SOL    HW129933   4.553   3.255   1.652  0.2353  0.4447 -0.1554
 6099SOL    HW229934   4.464   3.313   1.560 -0.5944 -1.7357  2.0589
 6100SOL     OW29935   3.875   1.204   8.580  0.0700  0.4029  0.2010
 6100SOL    HW129936   3.831   1.281   8.544 -0.0450  0.0933 -0.3169
 6100SOL    HW229937   3.809   1.166   8.637  1.7322 -2.1823  0.4370
 6101SOL     OW29938   2.050   2.012   8.427  0.1167 -0.3296 -0.0596
 6101SOL    HW129939   1.970   2.014   8.375 -0.6111  2.2400  1.2020
 6101SOL    HW229940   2.088   1.936   8.383 -1.9017 -1.4143  0.0525
 6102SOL     OW29941   4.641   1.921   4.649 -0.0072 -0.0558  0.0344
 6102SOL    HW129942   4.690   1.934   4.731  1.5523  0.5079 -0.9949
 6102SOL    HW229943   4.713   1.885   4.598 -0.2262 -1.0335  0.4219
 6103SOL     OW29944   2.662   1.024  15.222 -0.3483 -0.0610 -0.1916
 6103SOL    HW129945   2.689   1.101  15.173  0.1628  0.4737  0.9414
 6103SOL    HW229946   2.569   1.043  15.210 -0.0675  0.3641 -1.6489
 6104SOL     OW29947   0.341   2.905   2.561  0.1107  0.4112  0.8885
 6104SOL    HW129948   0.372   2.815   2.561  2.3166  1.1783  2.5782
 6104SOL    HW229949   0.248   2.890   2.547  0.5501 -1.7497  0.3351
 6105SOL     OW29950   3.259   3.341   9.672 -0.1136  0.2334  0.3472
 6105SOL    HW129951   3.332   3.401   9.655 -0.9364  1.5511  1.4534
 6105SOL    HW229952   3.245   3.356   9.766 -1.8086 -0.1370  0.1598
 6106SOL     OW29953   1.598   1.163   2.744  0.9704  0.1719 -0.2219
 6106SOL    HW129954   1.567   1.253   2.741  2.1419  0.6080  0.6991
 6106SOL    HW229955   1.552   1.125   2.670 -2.8386 -0.8700  2.7214
 6107SOL     OW29956   2.920   4.617   4.964  0.2705  0.0737  0.3283
 6107SOL    HW129957   2.932   4.587   5.055 -0.6870  0.5402  0.6042
 6107SOL    HW229958   2.826   4.619   4.950  0.2870 -1.9317 -0.0462
 6108SOL     OW29959   0.246   2.387   3.854  0.2272  0.2289 -0.2843
 6108SOL    HW129960   0.331   2.432   3.858  0.8557 -1.0349  0.7138
 6108SOL    HW229961   0.248   2.360   3.761  1.6415  0.6146 -0.3672
 6109SOL     OW29962   3.422   0.536   2.050  0.1791 -0.0234 -0.3197
 6109SOL    HW129963   3.515   0.523   2.068 -0.0239 -1.0609  0.0119
 6109SOL    HW229964   3.397   0.577   2.132  0.8295  1.7569 -1.0097
 6110SOL     OW29965   1.768   0.267   5.580 -0.0952  0.1036  0.4785
 6110SOL    HW129966   1.694   0.206   5.584 -0.1310 -0.0529 -2.8284
 6110SOL    HW229967   1.745   0.334   5.645  0.7803  1.4274 -0.5752
 6111SOL     OW29968   1.615   0.897   9.985  0.2919  0.3463 -0.1631
 6111SOL    HW129969   1.632   0.812  10.025  1.4678  1.7425  2.2868
 6111SOL    HW229970   1.529   0.924  10.017  0.2808 -0.3843  0.4161
 6112SOL     OW29971   0.582   0.399   2.484  0.0989 -0.5160 -0.0696
 6112SOL    HW129972   0.526   0.344   2.539 -0.1785 -0.2055 -0.0428
 6112SOL    HW229973   0.520   0.471   2.472  0.5621 -0.4525 -2.2524
 6113SOL     OW29974   3.145   0.634   0.011 -0.5130 -0.6717 -0.1512
 6113SOL    HW129975   3.090   0.704   0.048 -0.5910 -0.9802  0.3207
 6113SOL    HW229976   3.219   0.681  17.714 -0.8340  0.8383  1.0526
 6114SOL     OW29977   3.721   1.418   4.761 -0.6634  0.6072 -0.0783
 6114SOL    HW129978   3.630   1.411   4.731 -1.4740  1.9741  2.0453
 6114SOL    HW229979   3.767   1.376   4.689  1.0027 -2.1911  2.6333
 6115SOL     OW29980   1.746   3.969  11.965 -0.0942  0.3368  0.0546
 6115SOL    HW129981   1.730   3.883  12.004  0.3081  0.6411  0.8810
 6115SOL    HW229982   1.667   4.006  12.005 -2.3504 -1.4870 -2.6675
 6116SOL     OW29983   3.527   3.219   7.487  0.2939  0.3606 -0.5636
 6116SOL    HW129984   3.502   3.147   7.428  0.8601 -1.0720  0.9454
 6116SOL    HW229985   3.524   3.290   7.423 -2.2214  0.9757  0.2353
 6117SOL     OW29986   0.384   0.236   6.247 -0.4490  0.0035  0.0726
 6117SOL    HW129987   0.478   0.236   6.228 -0.5195  1.9347 -0.2636
 6117SOL    HW229988   0.376   0.192   6.332  0.0973  0.2773  0.2697
 6118SOL     OW29989   0.966   0.382   5.652  0.2962  0.2604 -0.0787
 6118SOL    HW129990   0.891   0.363   5.595  1.1293 -2.3573 -0.2712
 6118SOL    HW229991   0.976   0.300   5.699 -1.5766 -0.2678 -0.5881
 6119SOL     OW29992   2.869   1.161   4.752 -0.1868 -0.3074 -0.2577
 6119SOL    HW129993   2.875   1.157   4.848 -1.8705 -1.5538 -0.2226
 6119SOL    HW229994   2.955   1.124   4.730 -0.8174 -2.2013  0.5128
 6120SOL     OW29995   3.967   1.683   4.468 -0.2426  0.1291  0.1681
 6120SOL    HW129996   3.897   1.619   4.455 -0.0880  0.5072 -2.4778
 6120SOL    HW229997   4.050   1.638   4.457  0.8700  1.7603  1.7852
 6121SOL     OW29998   2.196   1.681   3.665 -0.1831  0.3640 -0.0179
 6121SOL    HW129999   2.266   1.705   3.725 -1.4458  2.1105  0.7469
 6121SOL    HW230000   2.130   1.747   3.688  2.0581  2.0353  1.5964
 6122SOL     OW30001   2.790   4.674   3.416  0.3138 -0.1327  0.0110
 6122SOL    HW130002   2.761   4.602   3.473 -0.4946 -0.6589 -1.0561
 6122SOL    HW230003   2.852   4.711   3.478  0.2393 -0.2560  0.1581
 6123SOL     OW30004   2.017   3.028   3.190  0.0252  0.2440 -0.6134
 6123SOL    HW130005   1.983   3.051   3.103 -0.5406  2.4355  0.1841
 6123SOL    HW230006   1.935   3.023   3.239 -0.4605 -0.7149 -1.5291
 6124SOL     OW30007   1.060   2.581   8.257  0.1296  0.0333 -0.5834
 6124SOL    HW130008   1.134   2.634   8.288 -0.2490 -0.5262  1.2596
 6124SOL    HW230009   1.104   2.496   8.249 -0.8763 -0.7165  1.7696
 6125SOL     OW30010   1.103   0.219   7.734  0.3178 -0.7978 -0.2419
 6125SOL    HW130011   1.019   0.223   7.688  0.5974  0.2761 -0.6594
 6125SOL    HW230012   1.069   0.193   7.820 -3.1126  0.1157 -1.2887
 6126SOL     OW30013   3.596   3.887   5.532 -0.0125  0.6941 -0.7661
 6126SOL    HW130014   3.657   3.900   5.459  0.0002  0.6804 -0.7577
 6126SOL    HW230015   3.546   3.809   5.509  1.9930 -0.7288 -0.3033
 6127SOL     OW30016   4.024   1.792   3.169  0.4733 -0.1382 -0.4494
 6127SOL    HW130017   4.116   1.818   3.163  0.1779  1.2776  1.1389
 6127SOL    HW230018   4.000   1.811   3.078  0.7465  3.5118  0.2204
 6128SOL     OW30019   1.759   3.303   6.751 -0.4769 -0.3603  0.3715
 6128SOL    HW130020   1.678   3.257   6.773  0.7902 -2.6587  0.2237
 6128SOL    HW230021   1.786   3.340   6.835  1.0490  1.7972 -1.0581
 6129SOL     OW30022   2.493   4.055   7.378  0.2886  0.3666 -0.2330
 6129SOL    HW130023   2.483   3.963   7.352  0.2375  0.6535 -1.2262
 6129SOL    HW230024   2.405   4.079   7.350  0.8535  1.9296 -0.6110
 6130SOL     OW30025   2.447   1.017   1.366  0.4039  0.3669 -0.1569
 6130SOL    HW130026   2.472   0.928   1.341  0.5906  0.3552  0.0700
 6130SOL    HW230027   2.446   1.009   1.462  0.1961 -1.4920 -0.3125
 6131SOL     OW30028   3.074   0.575   2.699 -0.3508 -0.0586  0.2565
 6131SOL    HW130029   3.047   0.542   2.785 -0.5315  0.8122  0.5415
 6131SOL    HW230030   3.124   0.652   2.727 -0.2523 -0.3079  0.7784
 6132SOL     OW30031   4.077   4.001  12.845 -0.3312 -0.0689  0.2350
 6132SOL    HW130032   4.155   4.046  12.878  0.7811 -0.8707 -1.3274
 6132SOL    HW230033   4.118   3.969  12.765 -0.2188  3.1250 -0.9422
 6133SOL     OW30034   1.329   4.306   8.074  0.2338  0.4120  0.3124
 6133SOL    HW130035   1.276   4.335   8.148  0.2013 -0.1013  0.4866
 6133SOL    HW230036   1.259   4.290   8.009  1.9042  0.3223 -1.4671
 6134SOL     OW30037   3.617   0.421   9.443  0.5869  0.2700 -0.3352
 6134SOL    HW130038   3.707   0.449   9.461  0.4546  1.8937 -2.0997
 6134SOL    HW230039   3.574   0.470   9.513 -0.1415 -1.6233  0.5406
 6135SOL     OW30040   3.227   0.501   8.048 -0.5040 -0.1346  0.4591
 6135SOL    HW130041   3.173   0.455   7.984 -0.4985  0.0376  0.3309
 6135SOL    HW230042   3.189   0.588   8.060 -0.8374 -0.1207 -0.6642
 6136SOL     OW30043   3.534   2.500   8.270  0.2595  0.0454  0.4671
 6136SOL    HW130044   3.569   2.585   8.296  1.3100 -0.2831  0.1547
 6136SOL    HW230045   3.561   2.446   8.344  1.3997 -2.3619 -1.7205
 6137SOL     OW30046   2.018   0.534   5.871  0.3873 -0.0585  0.0203
 6137SOL    HW130047   2.066   0.453   5.884 -0.3958 -0.6255 -0.6595
 6137SOL    HW230048   2.039   0.557   5.781  0.8293 -0.5764 -0.0088
 6138SOL     OW30049   2.810   2.719   1.742  0.8708 -0.1873  0.3361
 6138SOL    HW130050   2.786   2.646   1.797 -1.2791  0.0736 -0.2536
 6138SOL    HW230051   2.902   2.725   1.768  1.0458  0.2881 -0.3817
 6139SOL     OW30052   3.628   1.142   7.876  0.1747 -0.2097 -0.3336
 6139SOL    HW130053   3.708   1.156   7.826 -0.4889 -1.4397 -1.7465
 6139SOL    HW230054   3.595   1.232   7.885 -1.7310 -0.8708 -0.6863
 6140SOL     OW30055   0.191   1.442   8.098 -0.2780 -0.3447 -0.4053
 6140SOL    HW130056   0.159   1.529   8.074  0.5510  0.1514  0.3074
 6140SOL    HW230057   0.147   1.430   8.182 -1.2421 -2.9633 -1.2741
 6141SOL     OW30058   3.763   0.474   1.669  0.1316 -0.1017 -0.5512
 6141SOL    HW130059   3.854   0.496   1.646  0.9128 -3.1113 -0.3176
 6141SOL    HW230060   3.720   0.510   1.592  0.1999  2.5574  0.6461
 6142SOL     OW30061   1.982   3.220   1.953  0.5481 -0.2842  0.1248
 6142SOL    HW130062   1.916   3.254   2.013  1.2207 -0.1259  0.7760
 6142SOL    HW230063   2.025   3.301   1.925 -1.8823  0.3108 -1.8556
 6143SOL     OW30064   3.291   1.224   5.994  0.8562  0.2707  0.5121
 6143SOL    HW130065   3.374   1.272   5.998  1.5248 -0.8431  0.1445
 6143SOL    HW230066   3.327   1.135   6.002 -0.9834 -0.4794  0.4645
 6144SOL     OW30067   1.390   3.230   4.985 -0.3152 -0.4066  0.1511
 6144SOL    HW130068   1.435   3.297   5.036  1.0239 -0.1050 -1.4352
 6144SOL    HW230069   1.329   3.289   4.939  0.2948 -1.8496 -2.5113
 6145SOL     OW30070   0.189   0.800   7.611  0.7086 -0.7502  0.2425
 6145SOL    HW130071   0.217   0.888   7.636  2.9371 -1.2891 -0.3817
 6145SOL    HW230072   0.099   0.812   7.579  1.3006  1.4733 -0.6267
 6146SOL     OW30073   3.202   0.863   5.378 -0.1672  0.2267 -0.5954
 6146SOL    HW130074   3.232   0.807   5.306 -0.1353  2.1616 -2.0965
 6146SOL    HW230075   3.202   0.787   5.436  1.2831  2.2037  1.9669
 6147SOL     OW30076   3.154   0.944   9.141 -0.3749  0.1712 -0.4390
 6147SOL    HW130077   3.187   0.902   9.062 -0.9239  0.1206 -0.6368
 6147SOL    HW230078   3.062   0.956   9.120 -1.0116  0.7469  2.6414
 6148SOL     OW30079   3.337   4.169  12.498 -0.1446  0.9994 -0.0893
 6148SOL    HW130080   3.263   4.193  12.553 -1.6626 -1.0119 -1.2288
 6148SOL    HW230081   3.292   4.152  12.415 -0.6924  0.5949  0.2953
 6149SOL     OW30082   2.054   1.638   1.803  0.1000  0.0307  0.2746
 6149SOL    HW130083   1.970   1.614   1.764  0.3782  2.5561 -1.8895
 6149SOL    HW230084   2.106   1.575   1.752 -1.2742 -0.1093 -0.9766
 6150SOL     OW30085   1.074   2.094   6.007  0.1215 -0.1327  0.1508
 6150SOL    HW130086   1.080   2.078   6.101  3.2877 -1.2837 -0.2326
 6150SOL    HW230087   1.011   2.164   6.023 -0.9596 -1.3964  1.4770
 6151SOL     OW30088   2.772   1.098   4.160 -0.2473 -0.2429 -0.2916
 6151SOL    HW130089   2.846   1.054   4.202  0.6880  1.7291  0.0706
 6151SOL    HW230090   2.710   1.094   4.233  0.1812  0.5164  0.1065
 6152SOL     OW30091   3.942   1.468   8.965  0.3437 -0.4648  0.7935
 6152SOL    HW130092   3.895   1.447   9.045  0.7776  1.3900  1.5344
 6152SOL    HW230093   4.018   1.515   8.998 -0.9543 -0.1288  3.2658
 6153SOL     OW30094   1.399   1.506   2.527  0.4388  0.2789  0.3414
 6153SOL    HW130095   1.462   1.495   2.598 -0.8437  1.9158  1.7343
 6153SOL    HW230096   1.441   1.584   2.489  2.4955 -1.6760 -1.3956
 6154SOL     OW30097   1.774   2.450   2.217  0.0944  0.1866 -0.4345
 6154SOL    HW130098   1.729   2.502   2.283  1.4676  0.9199 -0.0700
 6154SOL    HW230099   1.790   2.514   2.148  0.3266 -1.5979 -2.0327
 6155SOL     OW30100   2.527   1.419   4.749 -0.0620 -0.1463  0.3089
 6155SOL    HW130101   2.621   1.437   4.744 -0.0518 -0.3977 -0.2912
 6155SOL    HW230102   2.526   1.326   4.729 -0.4093 -0.2023  0.5807
 6156SOL     OW30103   3.139   2.048   5.747 -0.5433  0.0866 -0.3209
 6156SOL    HW130104   3.147   1.993   5.669 -2.8282 -1.4145  0.4754
 6156SOL    HW230105   3.126   1.979   5.812 -1.8196 -0.6601 -1.3555
 6157SOL     OW30106   0.961   4.723   6.880  0.5171  0.1345 -0.1352
 6157SOL    HW130107   0.935   4.691   6.966  1.9563  0.2634  0.3485
 6157SOL    HW230108   0.880   0.037   6.867  0.0051 -0.8923 -0.9163
 6158SOL     OW30109   0.168   3.327   9.272 -0.1838 -0.0550  0.5516
 6158SOL    HW130110   0.097   3.324   9.336 -1.1182  0.4309 -0.4789
 6158SOL    HW230111   0.222   3.255   9.306 -1.9088 -1.8507 -0.5190
 6159SOL     OW30112   0.323   0.491  11.312 -0.3417 -0.0490 -0.3514
 6159SOL    HW130113   0.363   0.468  11.228  0.0619  3.7924 -1.2106
 6159SOL    HW230114   0.321   0.404  11.352  0.9006  1.2156  2.5192
 6160SOL     OW30115   1.173   4.645   4.119  0.7510 -0.1344 -0.5778
 6160SOL    HW130116   1.111   4.578   4.087 -2.1450  1.8553  0.8236
 6160SOL    HW230117   1.113   4.719   4.124 -0.5461 -1.0115 -2.7449
 6161SOL     OW30118   0.053   0.482   9.287 -0.3884  0.1266  0.1380
 6161SOL    HW130119   0.024   0.396   9.317 -2.8516  1.4242  1.5191
 6161SOL    HW230120   4.709   0.533   9.274 -1.5162 -1.6610  0.0760
 6162SOL     OW30121   0.704   3.495   8.000 -0.4173  0.1618 -0.1058
 6162SOL    HW130122   0.783   3.547   8.016 -0.6467  0.4696  0.0254
 6162SOL    HW230123   0.728   3.458   7.915  0.3182 -1.0655  0.6328
 6163SOL     OW30124   4.038   1.543   0.302  0.3241 -0.0779  0.3119
 6163SOL    HW130125   4.001   1.560   0.216  1.5045 -0.3277 -0.2437
 6163SOL    HW230126   3.991   1.603   0.360 -1.1364 -0.5684 -0.3646
 6164SOL     OW30127   3.065   4.248  12.407  0.1359  0.3490 -0.2035
 6164SOL    HW130128   3.094   4.338  12.390  0.4237  0.2988  0.0275
 6164SOL    HW230129   2.981   4.259  12.451 -0.0460 -0.2115 -0.4092
 6165SOL     OW30130   4.459   4.060   5.534 -0.3307  0.3365  0.4763
 6165SOL    HW130131   4.391   4.056   5.466 -2.2336  0.7145  2.3705
 6165SOL    HW230132   4.543   4.061   5.488 -0.3063  1.8859  0.5566
 6166SOL     OW30133   1.918   4.576   3.329  0.1580 -0.1183  0.6287
 6166SOL    HW130134   1.897   4.483   3.321 -1.6379  0.3576 -0.2064
 6166SOL    HW230135   1.962   4.574   3.414 -0.5681 -1.1933  0.9758
 6167SOL     OW30136   0.660   4.502   9.454  0.5427 -0.3824  0.1748
 6167SOL    HW130137   0.577   4.520   9.498  0.0286 -1.9333 -0.1555
 6167SOL    HW230138   0.640   4.523   9.363  1.0924  0.1973  0.1897
 6168SOL     OW30139   0.634   1.460  15.952 -0.0836 -0.7900  0.4071
 6168SOL    HW130140   0.586   1.497  16.026  3.4106  1.4686  1.6093
 6168SOL    HW230141   0.700   1.529  15.942 -2.4594  1.5327  0.5878
 6169SOL     OW30142   0.252   0.304   3.128 -0.5232  0.5687 -0.1723
 6169SOL    HW130143   0.212   0.385   3.096 -1.5736 -0.6604 -1.9820
 6169SOL    HW230144   0.192   0.293   3.202 -0.9744 -3.5217 -1.1717
 6170SOL     OW30145   4.416   1.005   8.356  0.2268 -0.2622  0.2111
 6170SOL    HW130146   4.387   1.096   8.357  0.6185 -0.0918 -2.1345
 6170SOL    HW230147   4.374   0.976   8.436  0.6670 -1.2159  0.0938
 6171SOL     OW30148   3.580   1.054   7.541 -0.4614  0.1749 -0.0422
 6171SOL    HW130149   3.591   0.984   7.606  0.2237  1.0122  0.7325
 6171SOL    HW230150   3.501   1.096   7.575 -0.6640 -0.0773 -0.1949
 6172SOL     OW30151   2.392   1.946   2.592 -0.3869 -0.2766  0.1125
 6172SOL    HW130152   2.435   2.012   2.646 -1.9105  0.6918  0.1463
 6172SOL    HW230153   2.460   1.902   2.541  1.4048  0.0149  2.2495
 6173SOL     OW30154   4.597   0.792   8.411 -0.4020  0.2665  0.2780
 6173SOL    HW130155   4.531   0.856   8.382 -0.4873  0.5475  1.1103
 6173SOL    HW230156   4.664   0.860   8.417  1.4625 -1.7348  1.9076
 6174SOL     OW30157   3.945   1.414   1.115  0.3883 -0.3670 -0.3001
 6174SOL    HW130158   3.970   1.329   1.081 -0.1762 -1.5271  2.1851
 6174SOL    HW230159   3.949   1.467   1.035  0.4648 -0.2386 -0.2125
 6175SOL     OW30160   2.306   3.745   6.485  0.2284  0.4687  0.4195
 6175SOL    HW130161   2.265   3.682   6.544  1.0634 -1.4321 -1.0308
 6175SOL    HW230162   2.381   3.693   6.455  0.9023  0.6240  1.8568
 6176SOL     OW30163   0.821   1.185   2.718  0.6884 -0.3017  1.0001
 6176SOL    HW130164   0.902   1.141   2.693  1.3471  1.0036  0.8571
 6176SOL    HW230165   0.769   1.106   2.729 -0.1315  0.2025  0.7207
 6177SOL     OW30166   4.188   4.461   3.616  0.2463  0.4323 -0.4831
 6177SOL    HW130167   4.240   4.532   3.654  1.6801 -1.2487  0.7102
 6177SOL    HW230168   4.118   4.515   3.580  1.2493  1.0527 -1.4927
 6178SOL     OW30169   1.340   1.159   6.176  0.3966  0.3509  0.0782
 6178SOL    HW130170   1.342   1.126   6.265  1.4719  1.0911  0.3405
 6178SOL    HW230171   1.288   1.239   6.187  0.1872  0.6654 -3.0145
 6179SOL     OW30172   2.972   4.071  16.605 -0.0262  0.0644 -0.3264
 6179SOL    HW130173   2.926   3.989  16.587  0.0447 -0.0576  0.0575
 6179SOL    HW230174   2.978   4.103  16.515 -2.1686 -1.8852 -1.1851
 6180SOL     OW30175   0.976   3.093   7.239  0.2023 -0.0943  0.3018
 6180SOL    HW130176   1.002   3.033   7.309  0.4344 -1.2837 -0.8067
 6180SOL    HW230177   1.025   3.049   7.171  1.8145 -0.5359  1.7452
 6181SOL     OW30178   1.417   1.859   2.392 -0.1940  0.2685  0.0914
 6181SOL    HW130179   1.445   1.840   2.482  2.8918  1.4673 -0.6268
 6181SOL    HW230180   1.328   1.893   2.398 -0.2343  0.3660 -1.2701
 6182SOL     OW30181   3.708   1.629   4.005 -0.4404 -0.3820 -0.1027
 6182SOL    HW130182   3.645   1.643   4.075 -1.1820 -2.5723 -0.3277
 6182SOL    HW230183   3.773   1.698   4.014 -1.4139  0.4339  0.6929
 6183SOL     OW30184   0.515   1.179   8.697  0.3351  0.3771  0.2897
 6183SOL    HW130185   0.497   1.268   8.725 -1.7581 -1.1384  3.7132
 6183SOL    HW230186   0.544   1.195   8.607  0.4423  0.6937  0.3798
 6184SOL     OW30187   4.251   4.422   2.328 -0.2250  0.2983 -0.2684
 6184SOL    HW130188   4.249   4.497   2.269 -1.1223  0.4807 -0.0112
 6184SOL    HW230189   4.318   4.450   2.390 -1.3086  0.4675  0.8147
 6185SOL     OW30190   1.686   2.884   2.602  0.2806 -0.0588  0.0141
 6185SOL    HW130191   1.749   2.822   2.637  1.2906  0.2003 -1.3870
 6185SOL    HW230192   1.647   2.916   2.684  1.1013 -2.9111  1.5111
 6186SOL     OW30193   3.675   2.826   2.995  0.1320 -0.0561  0.1954
 6186SOL    HW130194   3.684   2.773   2.916 -0.9211 -0.7588  0.5429
 6186SOL    HW230195   3.673   2.918   2.969  0.0714  0.7839  3.1762
 6187SOL     OW30196   2.285   0.653   2.251  0.1793 -0.1540 -0.0510
 6187SOL    HW130197   2.372   0.641   2.290  0.2255 -1.8330 -0.6378
 6187SOL    HW230198   2.263   0.562   2.228  0.5755 -0.8391  2.2829
 6188SOL     OW30199   2.215   1.389   6.589 -0.1264  0.5764  0.3458
 6188SOL    HW130200   2.223   1.472   6.542  1.2173 -0.7107 -1.6818
 6188SOL    HW230201   2.124   1.392   6.618 -0.4688  3.4532 -1.0295
 6189SOL     OW30202   4.675   4.585   3.425 -0.2199  0.7794  0.1703
 6189SOL    HW130203   4.707   4.600   3.514  0.2743 -0.3629  0.1800
 6189SOL    HW230204   4.580   4.596   3.434 -0.6364 -1.0434 -1.9129
 6190SOL     OW30205   2.658   4.494   6.590 -0.2943 -0.2184 -0.1130
 6190SOL    HW130206   2.648   4.399   6.599 -0.7129 -0.4075 -2.3742
 6190SOL    HW230207   2.752   4.507   6.604 -0.0664 -2.4082  0.3613
 6191SOL     OW30208   0.729   3.146   2.322  0.3659  0.5364 -0.1806
 6191SOL    HW130209   0.816   3.152   2.283  0.4499  0.2477 -0.0392
 6191SOL    HW230210   0.733   3.065   2.373 -1.0186 -0.2684 -1.3393
 6192SOL     OW30211   2.845   2.760   2.842 -0.2461 -0.2210  0.2330
 6192SOL    HW130212   2.806   2.752   2.929  1.7313 -2.6122  0.9045
 6192SOL    HW230213   2.939   2.749   2.858 -0.2024  1.1319  0.9186
 6193SOL     OW30214   1.114   2.240  11.472 -0.4220  0.5217  0.0827
 6193SOL    HW130215   1.057   2.196  11.535  0.0879 -0.6934 -0.2935
 6193SOL    HW230216   1.199   2.201  11.494 -0.3138  1.0711  0.6541
 6194SOL     OW30217   1.349   1.425   0.106  0.2582  0.2805 -0.1082
 6194SOL    HW130218   1.435   1.412   0.066  0.8170 -0.9381  1.4962
 6194SOL    HW230219   1.329   1.516   0.083 -0.3778 -0.2028 -1.4182
 6195SOL     OW30220   3.382   1.160   4.273  0.1576 -0.2366 -0.1135
 6195SOL    HW130221   3.371   1.146   4.367  1.0751  1.3192  0.2377
 6195SOL    HW230222   3.366   1.080   4.223 -1.6192  0.6084 -0.8817
 6196SOL     OW30223   4.423   3.193   0.982 -0.2668 -0.1832  0.1184
 6196SOL    HW130224   4.518   3.195   0.981 -0.3136  1.3368 -0.4468
 6196SOL    HW230225   4.408   3.227   1.070  0.1046  0.3403 -0.0229
 6197SOL     OW30226   0.199   3.774  15.197 -0.0805  0.3180 -0.3261
 6197SOL    HW130227   0.260   3.757  15.125 -0.1724  0.0861 -0.3511
 6197SOL    HW230228   0.231   3.859  15.226 -0.4074 -0.4350  2.2991
 6198SOL     OW30229   4.166   1.506  11.756 -0.1106 -0.4623  0.4404
 6198SOL    HW130230   4.151   1.523  11.849  1.1298  0.3592  0.4960
 6198SOL    HW230231   4.076   1.490  11.728  0.7876  0.8445 -3.2940
 6199SOL     OW30232   3.659   0.286   8.823  0.2373  0.2772 -0.2444
 6199SOL    HW130233   3.632   0.361   8.876  0.4845  1.2013 -1.4311
 6199SOL    HW230234   3.573   0.250   8.805  0.1983 -0.5759  1.5650
 6200SOL     OW30235   3.460   2.648   2.406  0.2067 -0.1093  0.2394
 6200SOL    HW130236   3.479   2.661   2.314 -2.7397 -0.1303 -0.3895
 6200SOL    HW230237   3.392   2.581   2.404 -0.5473  0.6844 -0.6353
 6201SOL     OW30238   2.814   0.341  11.213  0.2817  0.8635 -0.1250
 6201SOL    HW130239   2.747   0.352  11.146 -0.6283  3.8336  1.2762
 6201SOL    HW230240   2.855   0.259  11.186 -0.1573  0.4914  0.3458
 6202SOL     OW30241   1.747   3.700   6.924  0.1432  0.3614 -0.0354
 6202SOL    HW130242   1.799   3.776   6.949 -1.4727  2.0005 -1.6573
 6202SOL    HW230243   1.678   3.733   6.866 -0.1130 -1.3444 -0.7007
 6203SOL     OW30244   2.756   1.935   5.690  0.4483  0.6167  0.2079
 6203SOL    HW130245   2.840   1.892   5.677  0.3287 -0.1081  1.9023
 6203SOL    HW230246   2.727   1.884   5.765 -0.1261  0.9859  0.2381
 6204SOL     OW30247   4.122   4.055   2.811 -0.0640  0.1950 -0.4559
 6204SOL    HW130248   4.049   4.099   2.767 -1.2282  0.6750  1.9676
 6204SOL    HW230249   4.132   3.981   2.751  0.1920  0.2166 -0.4408
 6205SOL     OW30250   0.667   3.531   4.157  0.5393  0.0566  0.0318
 6205SOL    HW130251   0.744   3.489   4.195  0.6517 -0.7516 -1.1102
 6205SOL    HW230252   0.656   3.600   4.223 -1.1737  0.7067 -0.9375
 6206SOL     OW30253   1.809   0.905   7.023 -0.3183 -0.6140  0.4589
 6206SOL    HW130254   1.785   0.984   7.072  0.5073 -0.6491  0.9114
 6206SOL    HW230255   1.899   0.929   7.003  0.1850  0.5395  4.0906
 6207SOL     OW30256   0.662   4.399  15.950 -0.1963  0.3008 -0.1514
 6207SOL    HW130257   0.600   4.435  16.013  0.6713  0.5934  0.5246
 6207SOL    HW230258   0.621   4.420  15.866  1.9697  0.8823 -1.0662
 6208SOL     OW30259   0.815   1.620   3.246  0.1984 -0.5123 -0.0161
 6208SOL    HW130260   0.781   1.531   3.254  0.0137 -0.1607  3.2658
 6208SOL    HW230261   0.908   1.600   3.235 -0.4753 -3.5393 -0.1548
 6209SOL     OW30262   3.633   1.313   1.806 -0.1626 -0.1672 -0.0400
 6209SOL    HW130263   3.716   1.355   1.831  0.1746  0.0691 -1.5681
 6209SOL    HW230264   3.611   1.264   1.886  0.3879  0.4572  0.4972
 6210SOL     OW30265   2.533   3.529   7.461 -0.1734  0.3807 -0.0372
 6210SOL    HW130266   2.592   3.471   7.414 -0.6720 -1.1921  1.2920
 6210SOL    HW230267   2.453   3.476   7.460  0.0205  0.1508 -2.1669
 6211SOL     OW30268   3.657   0.767   9.388 -0.2970  0.6840  0.0851
 6211SOL    HW130269   3.703   0.768   9.473  2.5372 -1.6092 -1.4417
 6211SOL    HW230270   3.738   0.772   9.337 -0.1107  1.6141  0.4640
 6212SOL     OW30271   1.782   0.205   5.905  0.0397 -0.6491  0.0509
 6212SOL    HW130272   1.735   0.281   5.940 -1.5933 -1.3781 -0.5461
 6212SOL    HW230273   1.833   0.179   5.981  0.6633  1.4066  0.3352
 6213SOL     OW30274   4.375   2.605  17.000 -0.2875  0.0172  0.0532
 6213SOL    HW130275   4.433   2.536  16.970  1.1196  0.2702  2.1972
 6213SOL    HW230276   4.417   2.683  16.964  0.4554 -1.1707 -1.6230
 6214SOL     OW30277   1.765   0.660   6.187 -0.0884  0.3347  0.3607
 6214SOL    HW130278   1.807   0.653   6.273  0.6875  1.5953  0.0974
 6214SOL    HW230279   1.674   0.650   6.215 -0.4254  0.5678 -0.6530
 6215SOL     OW30280   2.038   1.635   4.315 -0.0411 -0.1514 -0.3504
 6215SOL    HW130281   2.128   1.651   4.287  0.7677 -1.4888  1.5131
 6215SOL    HW230282   1.997   1.612   4.232  1.9834  0.1308 -1.4289
 6216SOL     OW30283   4.600   4.041   2.980  0.0073 -0.0821  0.7680
 6216SOL    HW130284   4.609   4.079   2.893  0.3292 -1.0090  0.3985
 6216SOL    HW230285   4.687   4.006   2.997 -0.5446 -0.8020  2.1229
 6217SOL     OW30286   4.344   0.144  11.311 -0.1059  0.3161  0.1518
 6217SOL    HW130287   4.280   0.088  11.356  1.7845 -1.4369  0.6755
 6217SOL    HW230288   4.415   0.144  11.375  0.2071  1.4889 -0.1965
 6218SOL     OW30289   3.954   3.736   5.684 -0.7415 -0.3874 -0.1479
 6218SOL    HW130290   3.940   3.825   5.651  1.1081  0.4115  1.1741
 6218SOL    HW230291   3.985   3.692   5.606 -0.7010 -0.9148  0.1659
 6219SOL     OW30292   3.817   2.325   7.206  0.1539  0.2019  0.1563
 6219SOL    HW130293   3.726   2.357   7.203  0.4542  1.0488 -0.0770
 6219SOL    HW230294   3.839   2.357   7.294  1.0606 -0.6595  0.2359
 6220SOL     OW30295   2.559   1.340   9.447  0.0608 -0.2287 -0.2599
 6220SOL    HW130296   2.519   1.419   9.412 -1.0074 -0.7587 -0.2404
 6220SOL    HW230297   2.517   1.281   9.385  1.0374  1.6951 -2.7297
 6221SOL     OW30298   0.349   4.558   2.464 -0.0408 -0.2059  0.1716
 6221SOL    HW130299   0.388   4.621   2.403 -2.8095  0.9675 -0.3838
 6221SOL    HW230300   0.337   4.484   2.404  0.7052 -0.7879  0.7463
 6222SOL     OW30301   2.001   0.798  15.638  0.2303  0.3108 -0.1758
 6222SOL    HW130302   1.975   0.727  15.578  3.0988 -0.9658  0.0506
 6222SOL    HW230303   2.086   0.767  15.669  0.7366 -0.0141 -1.8488
 6223SOL     OW30304   1.337   4.087   7.326 -0.2843 -0.0473  0.4773
 6223SOL    HW130305   1.397   4.026   7.370  0.8871 -1.3545 -2.8563
 6223SOL    HW230306   1.313   4.159   7.384 -1.6762  1.0166 -1.4323
 6224SOL     OW30307   0.010   3.348   2.165  0.2424 -0.0899 -0.0225
 6224SOL    HW130308   4.666   3.338   2.217  0.5011  0.6368  0.5136
 6224SOL    HW230309   4.721   3.409   2.096  0.8472  0.1651 -0.0219
 6225SOL     OW30310   3.792   2.454   3.860  0.2021 -0.7150 -0.0305
 6225SOL    HW130311   3.799   2.459   3.765  1.5541  0.9298  0.1515
 6225SOL    HW230312   3.717   2.395   3.870 -0.6205  0.2445 -0.5985
 6226SOL     OW30313   1.997   4.038   8.292  0.2142 -0.6166  0.0047
 6226SOL    HW130314   2.064   4.081   8.345  0.8589 -0.9352 -0.5607
 6226SOL    HW230315   1.963   3.971   8.352 -0.4913  1.2575  1.7484
 6227SOL     OW30316   4.565   2.570   2.939 -0.3789  0.4237  0.3208
 6227SOL    HW130317   4.500   2.513   2.899 -0.2762 -0.7002  1.7377
 6227SOL    HW230318   4.538   2.566   3.031  0.1067  0.4584  0.4606
 6228SOL     OW30319   4.289   2.481   4.178 -0.1163  0.8843  0.2176
 6228SOL    HW130320   4.243   2.556   4.218  0.0639  1.5779 -0.8915
 6228SOL    HW230321   4.289   2.518   4.090  2.0076  3.4774  1.3217
 6229SOL     OW30322   1.365   2.705   8.511 -0.0405 -0.3024  0.3099
 6229SOL    HW130323   1.363   2.787   8.463  0.4420 -1.5841 -1.9106
 6229SOL    HW230324   1.456   2.693   8.538  0.2162  2.4810  0.5870
 6230SOL     OW30325   3.398   0.290   7.988  0.5284  0.1652  0.1595
 6230SOL    HW130326   3.445   0.308   7.907  1.4094 -3.3124 -0.0855
 6230SOL    HW230327   3.334   0.360   8.001  1.2629  0.7848  0.3806
 6231SOL     OW30328   3.467   0.677  16.063 -0.1264  0.0857 -0.0723
 6231SOL    HW130329   3.480   0.760  16.017  0.9900 -0.4254 -0.6815
 6231SOL    HW230330   3.529   0.618  16.020  0.7165  2.2221 -1.7640
 6232SOL     OW30331   3.942   4.477   0.467 -0.3775  0.4901  0.2857
 6232SOL    HW130332   3.894   4.482   0.385 -1.1583 -0.1287  0.7025
 6232SOL    HW230333   4.022   4.431   0.442 -0.8930  0.4859 -1.3511
 6233SOL     OW30334   3.475   3.315  12.556 -0.5584 -0.6432  0.5799
 6233SOL    HW130335   3.496   3.399  12.516  0.4808 -2.0197 -1.7696
 6233SOL    HW230336   3.556   3.264  12.556 -0.2045 -0.0446  3.3625
 6234SOL     OW30337   0.788   3.527   1.615  0.0338  0.3772 -0.1924
 6234SOL    HW130338   0.696   3.502   1.613  0.4566 -1.1663 -0.4500
 6234SOL    HW230339   0.787   3.622   1.615 -2.8797  0.3471  1.6434
 6235SOL     OW30340   0.331   3.320   7.472 -0.3402 -0.1459  0.1452
 6235SOL    HW130341   0.302   3.406   7.440 -0.6069 -0.5840 -0.7709
 6235SOL    HW230342   0.327   3.336   7.566 -0.5093  1.2148 -0.0891
 6236SOL     OW30343   0.327   1.636   6.452  0.1480  0.1006 -0.3149
 6236SOL    HW130344   0.269   1.574   6.497 -4.7806  2.0363 -3.9839
 6236SOL    HW230345   0.278   1.717   6.468  1.2408  0.4722  1.2250
 6237SOL     OW30346   1.244   2.981   1.929  0.2423  0.7798 -0.4476
 6237SOL    HW130347   1.228   3.065   1.886 -2.3575  0.4575 -0.0891
 6237SOL    HW230348   1.155   2.962   1.958  0.5398 -1.2617 -0.8765
 6238SOL     OW30349   2.117   2.828   1.771  0.0250  0.1196 -0.0798
 6238SOL    HW130350   2.077   2.914   1.764  2.7035  1.3549 -0.0183
 6238SOL    HW230351   2.206   2.836   1.805  0.1998 -0.8820 -0.2786
 6239SOL     OW30352   2.187   2.529  12.086  0.2221 -0.4196 -0.0868
 6239SOL    HW130353   2.277   2.519  12.117  1.1514 -0.0545 -2.6729
 6239SOL    HW230354   2.176   2.624  12.095  0.7538 -0.2956 -0.7344
 6240SOL     OW30355   3.749   2.234   4.135 -0.2456  0.3385  0.4627
 6240SOL    HW130356   3.676   2.292   4.115  0.1405  1.4403  2.2610
 6240SOL    HW230357   3.814   2.304   4.141 -0.3860  0.6477 -1.7318
 6241SOL     OW30358   0.451   3.596  17.055  0.0660 -0.5307  0.0420
 6241SOL    HW130359   0.481   3.615  17.144  1.4425 -2.0876 -0.0905
 6241SOL    HW230360   0.444   3.501  17.056  1.2798 -0.6069  1.4200
 6242SOL     OW30361   0.544   3.287   8.553 -0.4599  0.0999 -0.0651
 6242SOL    HW130362   0.547   3.201   8.595 -0.7749  0.6738  1.1189
 6242SOL    HW230363   0.452   3.311   8.565  0.2457  2.9296 -0.4620
 6243SOL     OW30364   1.802   0.736   9.300 -0.5335 -0.8840 -0.0756
 6243SOL    HW130365   1.894   0.755   9.283 -0.6726  0.0168  0.1976
 6243SOL    HW230366   1.762   0.819   9.274 -0.2113 -0.8222 -0.3817
 6244SOL     OW30367   3.498   2.249   7.439 -0.3215 -0.2486  0.4539
 6244SOL    HW130368   3.503   2.217   7.529 -0.0287 -0.8406  0.2237
 6244SOL    HW230369   3.456   2.171   7.404  0.0098 -0.8807  1.4857
 6245SOL     OW30370   2.941   0.709   5.287  0.5550  0.1955 -0.3436
 6245SOL    HW130371   3.034   0.734   5.283  0.3737  0.6885 -1.4396
 6245SOL    HW230372   2.907   0.794   5.316 -1.8255 -0.3587 -1.6010
 6246SOL     OW30373   2.199   4.300   6.159 -0.4698  0.6189  0.4265
 6246SOL    HW130374   2.120   4.345   6.129 -0.4966 -0.1301 -0.6324
 6246SOL    HW230375   2.218   4.357   6.233  0.3284  0.9449 -0.0398
 6247SOL     OW30376   3.693   4.278   3.710 -0.2296 -0.1381  0.2716
 6247SOL    HW130377   3.700   4.368   3.677  0.0979 -0.7348 -1.2735
 6247SOL    HW230378   3.700   4.224   3.631  1.4078  2.0749 -1.0853
 6248SOL     OW30379   0.754   0.170   8.283  0.0811 -0.1231  0.0753
 6248SOL    HW130380   0.694   0.240   8.309  1.1681  1.2599 -1.1881
 6248SOL    HW230381   0.835   0.205   8.319  0.3666 -0.0583 -0.6238
 6249SOL     OW30382   2.797   1.377   8.518 -0.0334 -0.3121  0.2682
 6249SOL    HW130383   2.743   1.315   8.469 -0.8661  0.2574  0.4631
 6249SOL    HW230384   2.888   1.352   8.504 -0.8507 -1.7290 -2.4075
 6250SOL     OW30385   3.336   2.122   9.962  0.0786 -0.2624  0.5057
 6250SOL    HW130386   3.378   2.046   9.919 -0.3896 -0.3218  0.1564
 6250SOL    HW230387   3.396   2.187   9.926  0.7596 -1.2324 -0.1461
 6251SOL     OW30388   2.254   3.584   3.548 -0.3622  0.6245  0.6588
 6251SOL    HW130389   2.197   3.635   3.606 -0.7079 -0.6280  1.4050
 6251SOL    HW230390   2.336   3.584   3.596 -0.2463  1.0892  0.4662
 6252SOL     OW30391   1.042   0.082  10.592  0.1651 -0.0912  0.7031
 6252SOL    HW130392   0.974   0.093  10.525  0.3793 -0.2408  0.4645
 6252SOL    HW230393   1.041   0.172  10.624  0.7223  0.8103 -1.8447
 6253SOL     OW30394   0.150   1.290   2.571 -0.3711 -0.0851  0.1886
 6253SOL    HW130395   0.215   1.285   2.501 -0.3017 -0.9920  0.3140
 6253SOL    HW230396   0.100   1.214   2.541  0.1380  0.2776 -1.5635
 6254SOL     OW30397   1.992   1.107  13.249  0.2094  0.5342 -0.5838
 6254SOL    HW130398   2.041   1.164  13.308  2.7287 -1.2855 -0.9241
 6254SOL    HW230399   1.897   1.109  13.264  0.4042 -1.6547  0.9198
 6255SOL     OW30400   2.248   1.048   4.895 -0.2112 -0.1660  0.3794
 6255SOL    HW130401   2.260   1.079   4.806 -1.5387 -1.1015 -0.1260
 6255SOL    HW230402   2.331   1.079   4.930 -0.7557  0.1853  1.3813
 6256SOL     OW30403   4.407   3.099  15.012  0.5981 -0.6123 -0.1355
 6256SOL    HW130404   4.461   3.143  15.077  0.9550 -1.6110  0.2533
 6256SOL    HW230405   4.346   3.042  15.059  0.1815  1.0935  1.3886
 6257SOL     OW30406   2.499   4.153   1.336 -0.3598  0.0813 -0.8174
 6257SOL    HW130407   2.410   4.175   1.360 -0.5241  1.5855 -2.7884
 6257SOL    HW230408   2.540   4.182   1.418  0.9272  1.1633 -1.8389
 6258SOL     OW30409   1.919   4.669   1.379 -0.4038  0.4524 -0.3444
 6258SOL    HW130410   1.960   4.639   1.297  0.2910  0.4186  0.0187
 6258SOL    HW230411   1.904   4.583   1.419  1.0202  1.3986  2.1945
 6259SOL     OW30412   0.842   0.011   8.088  0.7868 -0.2612 -0.0137
 6259SOL    HW130413   0.766   4.703   8.049  0.4929 -1.5006  1.9314
 6259SOL    HW230414   0.796   0.051   8.162  1.2801  0.3316 -0.0372
 6260SOL     OW30415   4.444   4.598   8.609 -0.3137 -0.1513  0.7733
 6260SOL    HW130416   4.492   4.530   8.561 -3.5604 -2.2386  0.5131
 6260SOL    HW230417   4.483   4.674   8.566  0.8856 -0.6727  0.9215
 6261SOL     OW30418   1.014   0.611   0.447 -0.0244 -0.4675  0.2495
 6261SOL    HW130419   0.959   0.658   0.384 -1.6759 -0.2544  1.8298
 6261SOL    HW230420   1.021   0.528   0.400 -0.9209  0.1148 -0.9023
 6262SOL     OW30421   2.764   1.563   3.044 -0.3345 -0.0760  0.6115
 6262SOL    HW130422   2.789   1.471   3.030  3.5789  1.1049 -0.1534
 6262SOL    HW230423   2.670   1.568   3.027 -0.0495  0.1534 -0.8825
 6263SOL     OW30424   4.703   2.092  14.654  0.2789  0.5253  0.3441
 6263SOL    HW130425   4.629   2.124  14.603  1.4920  1.3488 -0.9286
 6263SOL    HW230426   4.730   2.010  14.612 -1.1384 -1.2323  2.8752
 6264SOL     OW30427   2.595   4.253   2.006 -0.0198 -0.0377  0.2687
 6264SOL    HW130428   2.641   4.251   1.921  0.0676  0.0817  0.3137
 6264SOL    HW230429   2.509   4.239   1.966  0.5840  0.4423 -1.2068
 6265SOL     OW30430   1.303   4.312   3.587 -0.1157 -0.0848  0.7153
 6265SOL    HW130431   1.376   4.367   3.615  2.3003 -3.5266  1.2043
 6265SOL    HW230432   1.355   4.263   3.523 -1.1579 -0.5087  0.1942
 6266SOL     OW30433   3.398   1.984   5.026 -0.2807  0.4813 -0.0126
 6266SOL    HW130434   3.466   1.956   4.965 -0.6958  0.7653 -0.6200
 6266SOL    HW230435   3.406   2.079   5.031  1.1585  0.3339  0.3914
 6267SOL     OW30436   0.777   0.759   3.111 -0.5738 -0.2859  0.2657
 6267SOL    HW130437   0.729   0.698   3.167 -0.2513  0.0154  0.8638
 6267SOL    HW230438   0.791   0.840   3.160  0.4709 -0.9133  1.0183
 6268SOL     OW30439   3.617   4.050   5.275  0.4142 -0.0732 -0.0872
 6268SOL    HW130440   3.551   4.107   5.315  2.7260  1.2030  1.9663
 6268SOL    HW230441   3.577   4.035   5.189 -2.5201 -0.4243  1.3559
 6269SOL     OW30442   4.548   3.005  10.754  0.6179 -0.5771  0.2357
 6269SOL    HW130443   4.610   2.938  10.725 -0.8664 -1.3438 -1.1682
 6269SOL    HW230444   4.611   3.065  10.793 -0.3521  0.9110 -0.5031
 6270SOL     OW30445   3.003   0.235  14.612 -0.0485 -0.2431  0.2726
 6270SOL    HW130446   2.955   0.317  14.605 -1.5980 -1.2711 -0.9745
 6270SOL    HW230447   2.970   0.196  14.693 -3.9707  2.3029 -0.1211
 6271SOL     OW30448   1.693   3.444   6.032  0.0172 -0.4872 -0.6504
 6271SOL    HW130449   1.721   3.421   6.121 -0.9932 -0.0299 -0.2048
 6271SOL    HW230450   1.707   3.538   6.033  1.5445 -0.7167  0.9425
 6272SOL     OW30451   1.124   3.140   8.814  0.1310 -0.7545 -0.0704
 6272SOL    HW130452   1.175   3.080   8.760 -1.8410 -2.0053 -0.5091
 6272SOL    HW230453   1.071   3.180   8.745  1.1310  0.5534 -0.0951
 6273SOL     OW30454   0.663   2.947   6.932 -0.2805  0.2389 -0.0305
 6273SOL    HW130455   0.689   2.870   6.882 -0.1488  0.0512  0.3316
 6273SOL    HW230456   0.710   3.020   6.891  1.3851  0.0389  1.5492
 6274SOL     OW30457   3.187   2.071   4.222  0.5428 -0.1695 -0.5172
 6274SOL    HW130458   3.106   2.033   4.187 -0.7504  2.3353 -0.2215
 6274SOL    HW230459   3.170   2.070   4.316  0.5060  0.6803 -0.5174
 6275SOL     OW30460   3.365   0.783  14.894 -0.3902 -0.4688 -0.4529
 6275SOL    HW130461   3.362   0.732  14.813 -1.3449 -1.3315  0.1191
 6275SOL    HW230462   3.305   0.854  14.874  1.2400  0.9940 -0.1984
 6276SOL     OW30463   0.364   1.447   1.183  0.5744 -0.5751  0.3043
 6276SOL    HW130464   0.328   1.529   1.218  1.6397  0.0189 -0.0137
 6276SOL    HW230465   0.380   1.478   1.094 -1.8666  1.5290  0.5955
 6277SOL     OW30466   3.265   4.693   6.821 -0.5087  0.3028  0.0155
 6277SOL    HW130467   3.269   4.660   6.910  0.1684  1.2321  0.3312
 6277SOL    HW230468   3.304   4.618   6.776  0.2066  0.1799  0.8404
 6278SOL     OW30469   4.211   2.924  14.094  0.2021 -0.3250  0.1258
 6278SOL    HW130470   4.153   2.949  14.166  0.9432  1.4078  0.1275
 6278SOL    HW230471   4.173   2.974  14.021 -2.2390 -1.6021  0.5298
 6279SOL     OW30472   3.152   1.498  12.025 -0.2687  0.0202 -0.0118
 6279SOL    HW130473   3.111   1.439  11.963  1.6852 -0.8400 -0.5010
 6279SOL    HW230474   3.114   1.470  12.108  0.8139 -1.5970 -0.0499
 6280SOL     OW30475   0.600   4.646   0.671 -0.3725 -0.2161  0.0427
 6280SOL    HW130476   0.670   4.653   0.735  0.1309  0.9192 -0.6345
 6280SOL    HW230477   0.650   4.604   0.601  1.3024  0.1943  1.0204
 6281SOL     OW30478   0.183   3.227   4.537 -0.0954 -0.4479  0.0524
 6281SOL    HW130479   0.218   3.313   4.560  1.2018 -0.6869 -0.9870
 6281SOL    HW230480   0.130   3.243   4.459 -1.3677  0.6004  1.1453
 6282SOL     OW30481   4.172   2.489   7.171  0.0680  0.0914 -0.1033
 6282SOL    HW130482   4.227   2.461   7.097  0.5620  1.3483 -0.2100
 6282SOL    HW230483   4.086   2.498   7.131 -0.1513 -3.4051 -0.4279
 6283SOL     OW30484   0.057   4.086   2.592  0.1256 -0.4394 -0.3902
 6283SOL    HW130485   0.126   4.044   2.644 -0.2851 -0.8055 -0.1479
 6283SOL    HW230486   0.005   4.011   2.564 -0.5076 -0.4372  0.8110
 6284SOL     OW30487   0.007   1.986   7.653 -0.3567  0.0292 -0.5208
 6284SOL    HW130488   4.692   2.000   7.573  3.0892 -0.2592 -2.7631
 6284SOL    HW230489   0.098   1.993   7.624 -0.5698  0.6156 -1.0561
 6285SOL     OW30490   1.580   2.602   4.683  0.7299 -0.1816  0.8284
 6285SOL    HW130491   1.548   2.580   4.596 -1.2689  2.6485  0.8441
 6285SOL    HW230492   1.540   2.687   4.702  2.3243  0.8041 -0.2559
 6286SOL     OW30493   2.415   1.412   8.356  0.6168  0.4509  0.6649
 6286SOL    HW130494   2.443   1.320   8.356  1.5402  0.7310  0.9674
 6286SOL    HW230495   2.331   1.413   8.310  1.0002 -0.5656 -0.0692
 6287SOL     OW30496   1.454   3.263   3.726 -0.3433  0.8953 -0.4457
 6287SOL    HW130497   1.476   3.356   3.724 -2.2676  1.3688  0.0866
 6287SOL    HW230498   1.534   3.211   3.731 -1.4070 -0.7628 -0.5920
 6288SOL     OW30499   2.294   4.668   3.099  0.5960  0.3203 -0.5707
 6288SOL    HW130500   2.336   4.733   3.154 -0.9743  0.1216  0.8651
 6288SOL    HW230501   2.204   4.691   3.122  1.7412  1.8077  2.3309
 6289SOL     OW30502   1.300   1.580   0.862 -0.1208  0.5660  0.0197
 6289SOL    HW130503   1.326   1.594   0.771  1.7374 -0.2142  0.4250
 6289SOL    HW230504   1.342   1.658   0.899  3.9582 -2.6102  2.1663
 6290SOL     OW30505   0.996   3.353   6.744  0.3500  0.0660  0.0853
 6290SOL    HW130506   1.022   3.307   6.824  0.8944 -1.6443 -1.0828
 6290SOL    HW230507   0.948   3.425   6.785  0.2627  0.3744 -0.5755
 6291SOL     OW30508   2.424   2.002   6.387  0.3055 -0.0975 -0.3374
 6291SOL    HW130509   2.339   1.967   6.358  0.3798  0.1421 -0.8430
 6291SOL    HW230510   2.445   1.920   6.432  2.4323 -0.5860 -2.1878
 6292SOL     OW30511   3.333   3.662  13.099  0.2633 -0.2509 -0.3984
 6292SOL    HW130512   3.405   3.655  13.161  0.3014  1.9249 -0.1812
 6292SOL    HW230513   3.313   3.756  13.104  0.4336 -0.1328 -1.7716
 6293SOL     OW30514   4.290   1.915   4.333  0.2019 -0.5794  0.2350
 6293SOL    HW130515   4.327   2.000   4.309  0.1388  0.1636  2.7454
 6293SOL    HW230516   4.206   1.917   4.286  0.3408  2.5348  0.1151
 6294SOL     OW30517   0.600   1.607   8.807 -0.7965 -0.3466 -0.2404
 6294SOL    HW130518   0.637   1.559   8.733 -0.6599  2.7534 -2.1822
 6294SOL    HW230519   0.646   1.690   8.796  2.8103 -2.2303  0.6911
 6295SOL     OW30520   0.717   0.715  17.139  0.1907  0.6476  0.3820
 6295SOL    HW130521   0.688   0.805  17.152  2.0941  0.9231  2.6690
 6295SOL    HW230522   0.761   0.690  17.220  0.7436  1.6098  0.3727
 6296SOL     OW30523   3.750   1.380  16.880  0.2037  0.4001  0.0526
 6296SOL    HW130524   3.660   1.412  16.873 -0.6951 -2.3524 -0.8430
 6296SOL    HW230525   3.733   1.292  16.849 -0.8073  1.5259 -2.5414
 6297SOL     OW30526   2.769   2.582   2.247  0.8015 -0.7116 -0.4038
 6297SOL    HW130527   2.721   2.508   2.209  0.6644 -1.3761  1.0326
 6297SOL    HW230528   2.796   2.529   2.323  0.3901 -0.5146 -0.1214
 6298SOL     OW30529   3.046   3.034  11.794 -0.0651  0.4910  0.2595
 6298SOL    HW130530   3.018   2.990  11.713  0.2844  0.0685  0.3695
 6298SOL    HW230531   3.102   3.105  11.764  2.4771 -0.7259  2.1227
 6299SOL     OW30532   4.411   1.196   2.080 -0.2559 -0.4487  0.3643
 6299SOL    HW130533   4.423   1.119   2.024 -0.6618 -0.8329  0.8117
 6299SOL    HW230534   4.473   1.185   2.152 -0.1922  1.4638  0.6206
 6300SOL     OW30535   0.718   1.872   3.259  0.4125 -0.2674 -0.1543
 6300SOL    HW130536   0.665   1.854   3.337 -0.4940 -0.4204 -0.8012
 6300SOL    HW230537   0.758   1.787   3.244 -0.9436 -0.9184 -0.1311
 6301SOL     OW30538   1.111   1.444   4.940 -0.6795  0.5011 -0.1863
 6301SOL    HW130539   1.046   1.435   5.011 -1.1564  1.7204 -0.4739
 6301SOL    HW230540   1.182   1.497   4.977 -0.1558  0.3782 -1.0252
 6302SOL     OW30541   1.405   0.797   1.958 -0.1971  0.1147 -0.5612
 6302SOL    HW130542   1.403   0.753   2.043 -1.2626 -0.1618 -0.7338
 6302SOL    HW230543   1.446   0.734   1.899 -0.5658  0.0329 -0.7338
 6303SOL     OW30544   4.272   2.818  12.106 -0.0234  0.3843  0.0919
 6303SOL    HW130545   4.180   2.801  12.124  0.2006 -2.4656 -1.3904
 6303SOL    HW230546   4.312   2.739  12.143  3.0444  1.4746 -0.8359
 6304SOL     OW30547   0.487   4.520   8.658 -0.2555  0.6709  0.0148
 6304SOL    HW130548   0.480   4.556   8.746  1.2021  0.9525  0.0123
 6304SOL    HW230549   0.405   4.540   8.613 -0.8970 -0.5198  0.6318
 6305SOL     OW30550   4.197   0.872   7.718  0.1713 -0.1086 -0.2712
 6305SOL    HW130551   4.207   0.843   7.809 -1.1114 -2.0703 -0.7507
 6305SOL    HW230552   4.249   0.812   7.665 -0.2375 -0.2194 -0.5452
 6306SOL     OW30553   2.443   1.423   1.078  0.2479  0.7396 -0.7779
 6306SOL    HW130554   2.375   1.484   1.047 -1.5374 -0.5165  0.6808
 6306SOL    HW230555   2.392   1.348   1.109  2.0604 -0.2746 -0.2579
 6307SOL     OW30556   3.368   3.741   0.889 -0.2706  0.5100  0.3838
 6307SOL    HW130557   3.301   3.803   0.859  0.3719  1.4628  0.9141
 6307SOL    HW230558   3.418   3.795   0.951  0.2274 -0.3027  0.6794
 6308SOL     OW30559   2.572   2.141   8.242 -0.0242 -0.5159  0.0362
 6308SOL    HW130560   2.520   2.218   8.216  0.7231 -0.7614 -2.1956
 6308SOL    HW230561   2.613   2.168   8.324 -1.5338 -1.0383  0.9764
 6309SOL     OW30562   4.420   1.367  15.762 -0.2716 -0.5834 -0.3831
 6309SOL    HW130563   4.375   1.436  15.714  1.7147  1.1547  0.2712
 6309SOL    HW230564   4.506   1.382  15.724 -1.6218 -0.9060 -3.6054
 6310SOL     OW30565   0.604   1.815   3.490  0.2244 -0.1734  0.1048
 6310SOL    HW130566   0.663   1.787   3.561  0.4291  2.2719  0.8973
 6310SOL    HW230567   0.529   1.757   3.505  0.1966  0.5330  2.8174
 6311SOL     OW30568   2.560   0.395  16.477  0.1014  0.0941 -0.2042
 6311SOL    HW130569   2.633   0.340  16.448  0.6791  0.7350  0.0119
 6311SOL    HW230570   2.521   0.339  16.544  2.3856 -2.9737 -1.4078
 6312SOL     OW30571   2.269   0.935  10.826 -0.2255 -0.4085  0.2148
 6312SOL    HW130572   2.227   0.968  10.746 -0.4610 -0.7094  0.2154
 6312SOL    HW230573   2.194   0.922  10.885 -0.2269 -1.6241 -0.0617
 6313SOL     OW30574   0.730   0.161   5.229 -0.0520  0.7025  0.2094
 6313SOL    HW130575   0.815   0.201   5.209 -0.0347  1.2356  1.3639
 6313SOL    HW230576   0.668   0.221   5.186 -0.6422  0.7910  1.1944
 6314SOL     OW30577   3.286   1.074   1.891 -0.2812  0.1877 -0.7222
 6314SOL    HW130578   3.240   0.994   1.916 -0.3513  0.6680  0.6896
 6314SOL    HW230579   3.328   1.050   1.809  2.3781 -0.5696  0.8409
 6315SOL     OW30580   3.441   3.619   5.193 -0.1714  1.0205  0.9759
 6315SOL    HW130581   3.444   3.640   5.099 -2.1409  2.0791  1.1332
 6315SOL    HW230582   3.411   3.529   5.193  1.1445  0.5854  2.9550
 6316SOL     OW30583   1.236   1.446   7.409 -0.2221  0.3760  0.3204
 6316SOL    HW130584   1.177   1.408   7.345  0.3893  2.0397 -1.2421
 6316SOL    HW230585   1.242   1.378   7.476  0.1882  0.2794  0.1870
 6317SOL     OW30586   4.416   4.399   1.737 -0.1969  0.2604 -0.2797
 6317SOL    HW130587   4.490   4.347   1.769 -0.8908  0.3576  1.5079
 6317SOL    HW230588   4.455   4.484   1.760 -1.0025  0.3085  0.8752
 6318SOL     OW30589   3.821   0.996   2.713  0.7392  0.0891  0.0714
 6318SOL    HW130590   3.735   0.954   2.706  0.4373  0.6345  0.5524
 6318SOL    HW230591   3.875   0.931   2.759  2.6705  1.6039 -0.0610
 6319SOL     OW30592   2.214   1.964   8.072 -0.0891  0.2080 -0.4749
 6319SOL    HW130593   2.278   1.903   8.037  1.5750  0.5520  1.9765
 6319SOL    HW230594   2.156   1.906   8.120  0.5676 -0.0316  0.0202
 6320SOL     OW30595   2.757   0.322   3.097  0.7141  0.5047  0.5267
 6320SOL    HW130596   2.727   0.395   3.152 -1.9531 -1.5538  1.7533
 6320SOL    HW230597   2.837   0.298   3.145  0.6128 -1.3659 -0.2496
 6321SOL     OW30598   3.784   0.883  16.620 -0.0400 -0.3276  0.3728
 6321SOL    HW130599   3.877   0.861  16.629  0.4729  1.5569 -0.4701
 6321SOL    HW230600   3.753   0.847  16.704  0.7387 -1.3835  0.2081
 6322SOL     OW30601   2.114   2.650   1.115  0.0520 -0.2280  0.3250
 6322SOL    HW130602   2.027   2.611   1.107  0.4855 -0.9526 -0.8543
 6322SOL    HW230603   2.143   2.619   1.200 -1.0070 -0.4194  0.6133
 6323SOL     OW30604   3.667   4.226  16.087 -0.6387 -0.0342  0.2613
 6323SOL    HW130605   3.601   4.238  16.019  0.7512 -1.0274 -1.2911
 6323SOL    HW230606   3.683   4.317  16.110 -1.8046  0.6736 -1.6804
 6324SOL     OW30607   1.074   4.293   2.154  0.1123  0.4553 -0.5451
 6324SOL    HW130608   1.084   4.379   2.114  2.5119  0.0970 -0.7282
 6324SOL    HW230609   1.125   4.237   2.095 -0.7654 -2.2329  1.2409
 6325SOL     OW30610   3.225   2.018  16.138 -0.3421 -0.9173 -0.1080
 6325SOL    HW130611   3.283   1.942  16.149  2.5653  1.1931 -0.8072
 6325SOL    HW230612   3.213   2.026  16.043  1.1174 -0.4585 -0.2585
 6326SOL     OW30613   1.234   0.726   2.467  0.4374 -0.1913  0.0897
 6326SOL    HW130614   1.250   0.709   2.559 -1.8752 -1.3005  0.3063
 6326SOL    HW230615   1.138   0.733   2.460  0.4501 -0.2843 -0.1952
 6327SOL     OW30616   0.986   0.364   6.788 -0.1260 -0.0056  0.0796
 6327SOL    HW130617   1.028   0.333   6.708  0.5491 -0.2914  0.5387
 6327SOL    HW230618   1.053   0.400   6.847  1.0239  0.7658 -1.7203
 6328SOL     OW30619   3.583   0.647  14.170  0.0175 -0.7326  0.7554
 6328SOL    HW130620   3.666   0.663  14.125  1.5192  0.1465  3.8974
 6328SOL    HW230621   3.527   0.630  14.094  0.5846 -0.5537  0.3000
 6329SOL     OW30622   1.014   1.453   6.445 -0.1534  0.0626  0.1442
 6329SOL    HW130623   1.063   1.469   6.526  0.9224 -0.4700 -0.3924
 6329SOL    HW230624   0.923   1.465   6.471  0.1911  1.0675  0.8876
 6330SOL     OW30625   0.980   2.637   7.419 -0.3628 -0.5025  0.5420
 6330SOL    HW130626   1.073   2.649   7.436  0.1499 -3.1799 -0.3372
 6330SOL    HW230627   0.975   2.668   7.328  0.4100  2.1418  1.3820
 6331SOL     OW30628   2.140   2.615   3.975  0.3987 -0.0020 -0.3437
 6331SOL    HW130629   2.145   2.685   3.910 -3.7057 -0.3638 -1.0419
 6331SOL    HW230630   2.148   2.662   4.058 -1.7055 -3.4279  1.8005
 6332SOL     OW30631   3.932   2.248   4.837  0.0932  0.4931  0.0535
 6332SOL    HW130632   3.990   2.296   4.895  0.2278 -1.0528  1.1946
 6332SOL    HW230633   3.990   2.178   4.807  1.1459  0.5313  2.0057
 6333SOL     OW30634   0.418   0.240  11.380  0.5978  0.1932 -0.1545
 6333SOL    HW130635   0.507   0.214  11.353  0.8891 -0.3884  1.3322
 6333SOL    HW230636   0.375   0.155  11.392  0.3103  0.1383 -1.5715
 6334SOL     OW30637   0.967   2.559   8.515  0.1128 -0.4439 -0.5229
 6334SOL    HW130638   0.960   2.654   8.528 -1.1389 -0.5421 -0.4531
 6334SOL    HW230639   1.015   2.535   8.437 -0.6343  0.3946 -1.2372
 6335SOL     OW30640   1.970   0.245   5.064 -0.4020  0.3578 -0.1748
 6335SOL    HW130641   1.976   0.166   5.117  0.7552  0.3978 -0.2277
 6335SOL    HW230642   2.056   0.248   5.022 -1.4344 -1.6803 -2.4719
 6336SOL     OW30643   4.031   2.632   9.382 -0.0977  0.0371 -0.0812
 6336SOL    HW130644   4.062   2.719   9.405  1.9465 -0.8200  0.4403
 6336SOL    HW230645   4.022   2.586   9.465 -0.4561  0.9043  0.3572
 6337SOL     OW30646   0.108   2.999   1.741 -0.7279  0.2346  0.0386
 6337SOL    HW130647   0.189   3.049   1.742 -0.7490  0.2973 -1.0673
 6337SOL    HW230648   0.146   2.919   1.776 -0.5216  0.3475  0.0684
 6338SOL     OW30649   2.449   0.725   6.253  0.7628  0.2753  0.5541
 6338SOL    HW130650   2.390   0.664   6.297 -0.3295  2.5039  2.2033
 6338SOL    HW230651   2.399   0.805   6.234  0.4911  0.0627  0.3727
 6339SOL     OW30652   0.938   1.622   8.941 -0.0353  0.4806  0.5791
 6339SOL    HW130653   0.968   1.586   8.858  0.0903  1.3630  0.2442
 6339SOL    HW230654   0.995   1.575   9.003  0.7081  0.4425 -0.1332
 6340SOL     OW30655   2.621   3.260   2.421 -0.3354  0.8636  0.2928
 6340SOL    HW130656   2.597   3.342   2.379  0.6996 -0.2428 -2.4678
 6340SOL    HW230657   2.535   3.234   2.453  1.1288 -2.5862  1.3875
 6341SOL     OW30658   1.597   1.241   5.535  0.2900 -0.3321 -0.1861
 6341SOL    HW130659   1.674   1.233   5.592  1.3716  1.8958 -1.3276
 6341SOL    HW230660   1.597   1.149   5.509  0.4082 -0.4063  0.0711
 6342SOL     OW30661   3.931   3.809  14.095  0.4594 -0.5558 -0.0894
 6342SOL    HW130662   3.843   3.786  14.125  0.0268  1.4759  0.1812
 6342SOL    HW230663   3.983   3.733  14.122  0.4640 -0.7979 -0.7800
 6343SOL     OW30664   0.051   3.333   3.813  0.4750  0.4212 -0.8898
 6343SOL    HW130665   0.114   3.317   3.884  0.2680  2.9776 -0.1088
 6343SOL    HW230666   0.036   3.249   3.771 -1.9977  0.0135  0.8092
 6344SOL     OW30667   2.125   1.703   4.870  0.5050 -0.2000 -0.1120
 6344SOL    HW130668   2.082   1.620   4.851 -2.0294  0.9581  0.5791
 6344SOL    HW230669   2.047   1.759   4.874  0.8981  0.3016  0.6115
 6345SOL     OW30670   0.467   1.484   4.804  0.2593  0.5595 -0.2679
 6345SOL    HW130671   0.482   1.573   4.773 -3.8538  1.2875 -0.1440
 6345SOL    HW230672   0.534   1.486   4.872  1.0212 -1.5656 -0.9524
 6346SOL     OW30673   0.924   0.693   9.133  0.2394 -0.6331  0.4856
 6346SOL    HW130674   0.833   0.722   9.131 -0.2421 -2.4532 -3.1125
 6346SOL    HW230675   0.922   0.607   9.175 -0.5910 -0.5828  0.5402
 6347SOL     OW30676   0.597   0.724  10.933  0.0157 -0.7534 -0.1791
 6347SOL    HW130677   0.674   0.721  10.991  1.3490 -0.7948 -1.9615
 6347SOL    HW230678   0.553   0.644  10.961 -0.5574 -0.4775 -0.3055
 6348SOL     OW30679   0.973   4.696   7.590  0.1314  0.6009 -0.1365
 6348SOL    HW130680   0.934   4.609   7.585  2.9770 -0.6610  0.1669
 6348SOL    HW230681   1.062   4.677   7.619  0.0167  1.1487  0.5674
 6349SOL     OW30682   2.716   1.998  12.716  0.4230 -0.1289  0.0526
 6349SOL    HW130683   2.663   1.942  12.659 -1.7589  0.5063  1.4488
 6349SOL    HW230684   2.671   2.082  12.715  1.2337  0.3050  0.9957
 6350SOL     OW30685   2.863   0.060   8.182 -0.6222 -0.3756 -0.1783
 6350SOL    HW130686   2.834   0.123   8.248  0.1920 -0.6698  0.4660
 6350SOL    HW230687   2.856   4.717   8.237 -0.1667 -2.5396 -3.2328
 6351SOL     OW30688   3.851   3.704   5.936 -0.4122  0.2880  0.6703
 6351SOL    HW130689   3.938   3.695   5.974  0.7457 -0.4623 -2.1974
 6351SOL    HW230690   3.880   3.722   5.847 -0.5365 -2.3237  0.0896
 6352SOL     OW30691   4.663   3.292   8.450 -0.2249  0.3936  0.1765
 6352SOL    HW130692   0.016   3.302   8.416  0.1379 -2.0261  0.4036
 6352SOL    HW230693   4.642   3.199   8.437 -2.2516  1.0673 -1.4276
 6353SOL     OW30694   3.077   4.393  10.607 -0.3234  0.5832  0.0409
 6353SOL    HW130695   3.013   4.453  10.567 -0.1767  0.1836 -0.8005
 6353SOL    HW230696   3.155   4.446  10.591  0.4088 -0.2071  1.0299
 6354SOL     OW30697   0.867   0.014  13.995 -0.8560  0.2026 -0.2448
 6354SOL    HW130698   0.819   4.710  14.068 -1.3282 -0.8562 -1.1300
 6354SOL    HW230699   0.953   0.033  14.032  0.0043 -1.9708 -1.1435
 6355SOL     OW30700   0.757   1.710  17.285 -0.2327 -0.4639  0.2843
 6355SOL    HW130701   0.730   1.625  17.319  2.2609 -1.2861  0.2177
 6355SOL    HW230702   0.830   1.734  17.342  0.8383 -1.0414 -0.8326
 6356SOL     OW30703   0.637   2.103   4.720 -0.0092  0.2065  0.2829
 6356SOL    HW130704   0.654   2.115   4.813  2.0072 -0.5428  0.0163
 6356SOL    HW230705   0.569   2.169   4.709  0.0814  0.4038  0.8808
 6357SOL     OW30706   2.509   0.747   3.796 -0.3505  0.6797  0.3404
 6357SOL    HW130707   2.561   0.738   3.876  3.0598  1.2295 -1.8335
 6357SOL    HW230708   2.438   0.798   3.836 -0.7599 -0.5657  1.2013
 6358SOL     OW30709   2.220   1.529  14.941 -0.0306 -0.1691 -0.2405
 6358SOL    HW130710   2.207   1.588  15.016 -0.4177 -4.1360  2.8464
 6358SOL    HW230711   2.303   1.555  14.903 -1.1865  1.3869 -1.7012
 6359SOL     OW30712   1.795   2.176   5.466  0.4301  0.2408 -0.1047
 6359SOL    HW130713   1.861   2.184   5.535 -0.9222  0.6741  1.1617
 6359SOL    HW230714   1.732   2.235   5.508  2.1756  1.0006  1.4864
 6360SOL     OW30715   4.112   4.368   7.173  0.5186 -0.4416 -0.3217
 6360SOL    HW130716   4.089   4.389   7.083  0.5454  1.3918  0.0893
 6360SOL    HW230717   4.036   4.398   7.223 -0.4375 -2.1113 -0.7915
 6361SOL     OW30718   4.272   0.510   4.899  0.0905  0.3357  0.1020
 6361SOL    HW130719   4.238   0.432   4.943 -0.7164 -0.5840 -2.1963
 6361SOL    HW230720   4.209   0.530   4.830 -1.0715  1.1399  1.3694
 6362SOL     OW30721   3.082   2.437  13.215 -0.8621 -0.7396 -0.7876
 6362SOL    HW130722   3.074   2.345  13.191  1.9296 -1.3735  0.6173
 6362SOL    HW230723   2.993   2.453  13.247 -1.3171 -2.2127 -1.3471
 6363SOL     OW30724   4.700   3.801   5.709 -0.3929 -0.0741  0.7476
 6363SOL    HW130725   0.030   3.858   5.670  0.3363 -1.3349  0.1282
 6363SOL    HW230726   4.638   3.864   5.745  2.7966  2.1811  2.2255
 6364SOL     OW30727   2.893   1.426   4.158 -0.0307  0.6201  0.2383
 6364SOL    HW130728   2.811   1.471   4.136 -0.5746 -0.3322  0.3112
 6364SOL    HW230729   2.871   1.393   4.246  0.5095 -2.0128 -0.6009
 6365SOL     OW30730   2.297   4.542   8.614 -0.0302 -0.3452 -0.2200
 6365SOL    HW130731   2.285   4.474   8.681  1.0331 -1.5187 -1.2158
 6365SOL    HW230732   2.236   4.612   8.636  0.5828  0.4080 -0.9182
 6366SOL     OW30733   1.005   2.570  15.995  0.6282  0.4913  0.4290
 6366SOL    HW130734   1.061   2.586  16.071  0.2779  1.2065  0.5359
 6366SOL    HW230735   0.920   2.610  16.018 -0.9964 -1.5909 -1.9745
 6367SOL     OW30736   0.651   1.644   7.140 -0.5385 -0.5764  0.1496
 6367SOL    HW130737   0.696   1.681   7.216 -0.0116 -1.6527  0.3563
 6367SOL    HW230738   0.559   1.671   7.143 -0.2121  0.7345 -1.6272
 6368SOL     OW30739   1.809   4.682   2.941 -0.2695 -0.0157  0.3714
 6368SOL    HW130740   1.770   4.672   3.028 -0.3830 -2.0247  0.0897
 6368SOL    HW230741   1.852   0.031   2.952 -1.2813  0.8013 -1.8571
 6369SOL     OW30742   2.456   2.382   8.161  0.2431 -0.2496 -0.5322
 6369SOL    HW130743   2.530   2.399   8.103  1.4792  0.4170  1.2319
 6369SOL    HW230744   2.427   2.472   8.172  0.1893 -0.5463  1.7792
 6370SOL     OW30745   1.077   3.818   8.250  0.0486  0.3946 -0.4222
 6370SOL    HW130746   1.064   3.868   8.170  0.3471 -1.5930 -1.7321
 6370SOL    HW230747   1.129   3.886   8.292 -1.8800  1.7841 -0.2787
 6371SOL     OW30748   1.328   2.011  13.140 -0.1265  0.4773 -0.0264
 6371SOL    HW130749   1.368   2.091  13.106 -0.3756  0.5065 -0.2479
 6371SOL    HW230750   1.299   2.040  13.226  2.1482  1.8036  0.2839
 6372SOL     OW30751   3.893   1.303  15.298  0.0147 -0.0495 -0.3024
 6372SOL    HW130752   3.971   1.344  15.260  0.0032  0.3910  0.1488
 6372SOL    HW230753   3.878   1.330  15.389  1.2108 -2.4365  0.6035
 6373SOL     OW30754   2.593   4.229   9.356  0.0281  0.2377  0.3221
 6373SOL    HW130755   2.545   4.146   9.360  2.1341 -0.9821  0.3638
 6373SOL    HW230756   2.671   4.196   9.312 -0.5223  1.0844 -1.2638
 6374SOL     OW30757   0.585   0.779   3.650  0.5040 -0.1291  0.0098
 6374SOL    HW130758   0.523   0.822   3.710  1.9960  2.0420  0.0108
 6374SOL    HW230759   0.658   0.749   3.703  1.0277 -0.8341 -1.1234
 6375SOL     OW30760   3.015   1.530  16.789 -0.0890  0.1433  0.6842
 6375SOL    HW130761   3.044   1.587  16.718  1.3959 -1.0871  0.3015
 6375SOL    HW230762   2.921   1.536  16.769  0.9201  2.2857 -3.4369
 6376SOL     OW30763   3.476   0.951   7.305 -0.0073 -0.6617  0.3171
 6376SOL    HW130764   3.490   0.981   7.395 -2.4602 -0.0291  0.4807
 6376SOL    HW230765   3.550   0.890   7.304  0.4030 -0.1685  0.6798
 6377SOL     OW30766   4.616   2.239   1.738 -0.3629 -0.1118  0.9808
 6377SOL    HW130767   4.681   2.303   1.768 -0.8828 -0.1796  2.2449
 6377SOL    HW230768   4.535   2.263   1.782  0.2092  1.1674  1.3418
 6378SOL     OW30769   2.849   2.151   7.687 -0.1895 -0.0014  0.1909
 6378SOL    HW130770   2.935   2.143   7.726  0.5281 -1.4950 -1.6777
 6378SOL    HW230771   2.797   2.134   7.766 -0.4349  0.6803  0.1762
 6379SOL     OW30772   1.768   4.540  10.356  0.1542 -0.2432 -0.0277
 6379SOL    HW130773   1.707   4.607  10.324 -0.8240 -0.6028  1.1059
 6379SOL    HW230774   1.775   4.571  10.446 -2.2025  2.1429 -0.6439
 6380SOL     OW30775   3.922   3.753   8.052 -0.1254  0.2293 -0.5015
 6380SOL    HW130776   3.984   3.683   8.034  1.3119  1.7185 -1.3324
 6380SOL    HW230777   3.862   3.746   7.978 -0.7104  0.2874 -0.0305
 6381SOL     OW30778   4.409   2.395  16.238  0.4798 -0.2942 -0.8207
 6381SOL    HW130779   4.319   2.395  16.271  1.0048  0.5827  0.5761
 6381SOL    HW230780   4.402   2.415  16.145 -0.2157 -2.2723 -1.1986
 6382SOL     OW30781   1.869   3.824  10.167  0.0448 -0.3616 -0.8954
 6382SOL    HW130782   1.789   3.820  10.220 -1.1101  1.8167 -2.4633
 6382SOL    HW230783   1.860   3.747  10.112  0.1094 -0.7636 -0.3471
 6383SOL     OW30784   4.067   3.288   7.087 -0.4528  0.1295  0.2469
 6383SOL    HW130785   4.112   3.214   7.128  2.4106  0.7696 -1.7671
 6383SOL    HW230786   4.029   3.240   7.013 -2.4596  2.2112 -0.0599
 6384SOL     OW30787   3.923   1.896   8.696  0.6640 -0.1217 -0.6058
 6384SOL    HW130788   3.891   1.830   8.757 -0.2059  0.8531 -0.0095
 6384SOL    HW230789   3.943   1.976   8.745  0.7652 -0.9716  0.7343
 6385SOL     OW30790   1.336   4.001   3.733  0.0503 -0.0527 -0.9880
 6385SOL    HW130791   1.313   4.001   3.640  2.0109  0.9755 -1.4821
 6385SOL    HW230792   1.262   3.958   3.775 -1.3279  3.1748 -0.1613
 6386SOL     OW30793   2.212   4.075   7.808 -0.4418 -0.6207 -0.2697
 6386SOL    HW130794   2.196   4.079   7.903 -0.9583  2.9815 -0.4917
 6386SOL    HW230795   2.153   4.142   7.773  0.5840  0.8298  0.7908
 6387SOL     OW30796   1.342   2.119   4.385 -0.5416  0.0626  0.2066
 6387SOL    HW130797   1.293   2.058   4.330  1.4643 -2.3439  1.0826
 6387SOL    HW230798   1.353   2.077   4.470  1.2427  0.3692  0.1186
 6388SOL     OW30799   0.346   0.288  15.809  0.3305  0.2351  0.1433
 6388SOL    HW130800   0.271   0.235  15.837 -0.2370  0.9811  0.0453
 6388SOL    HW230801   0.301   0.347  15.748  0.6054  1.5089  1.1857
 6389SOL     OW30802   4.609   2.962   2.954 -0.1031  0.7222 -0.3846
 6389SOL    HW130803   4.669   3.022   2.909  0.8284 -2.0272 -2.8259
 6389SOL    HW230804   4.535   2.958   2.893 -0.6566 -1.8897  0.4792
 6390SOL     OW30805   4.323   4.352   7.945 -0.0210 -0.0266 -0.7458
 6390SOL    HW130806   4.258   4.395   8.001  0.4410 -0.6556  0.2764
 6390SOL    HW230807   4.362   4.426   7.898  0.8933 -0.2282 -0.2909
 6391SOL     OW30808   4.447   0.125   1.684  0.2615  0.0470 -0.0909
 6391SOL    HW130809   4.502   0.101   1.609  3.5455  2.2085  1.6161
 6391SOL    HW230810   4.357   0.114   1.656 -0.0363 -4.4148  2.6617
 6392SOL     OW30811   4.648   1.488  12.435 -0.1485 -0.0328  0.4678
 6392SOL    HW130812   4.582   1.522  12.374  2.9124 -0.7066 -3.2353
 6392SOL    HW230813   4.729   1.483  12.383  0.5646  1.0330  1.4789
 6393SOL     OW30814   0.932   2.783   3.414  0.1627 -0.5966  0.4297
 6393SOL    HW130815   0.998   2.714   3.408  0.8897  0.1503 -0.0129
 6393SOL    HW230816   0.981   2.864   3.423  1.5192 -1.2746 -0.9189
 6394SOL     OW30817   2.562   2.409   7.143  0.0341 -0.1770 -0.0189
 6394SOL    HW130818   2.592   2.346   7.208  1.5501 -0.5789 -1.1101
 6394SOL    HW230819   2.631   2.393   7.078 -1.4550 -0.0648 -1.6303
 6395SOL     OW30820   4.066   3.425   1.469  0.3337  0.2376 -0.5733
 6395SOL    HW130821   4.025   3.347   1.507  0.8003 -1.3104 -3.2477
 6395SOL    HW230822   4.006   3.434   1.395 -0.6866 -0.2059  0.2034
 6396SOL     OW30823   0.215   2.334   5.537  0.7269 -0.8967 -0.0628
 6396SOL    HW130824   0.311   2.341   5.540  0.5002  0.2083  3.9723
 6396SOL    HW230825   0.191   2.347   5.445 -1.5349 -1.3480  0.4808
 6397SOL     OW30826   1.064   1.213   4.786  0.3252  0.1190 -0.0844
 6397SOL    HW130827   1.066   1.303   4.818 -1.0352  0.3957 -0.7777
 6397SOL    HW230828   1.092   1.224   4.695 -0.8362 -2.1097 -0.6966
 6398SOL     OW30829   4.147   0.220  16.497 -0.2400  0.8175  0.0052
 6398SOL    HW130830   4.097   0.141  16.476 -0.4492  1.7412 -2.9168
 6398SOL    HW230831   4.237   0.190  16.494 -0.2666  0.6718  0.7393
 6399SOL     OW30832   2.798   4.094   5.907  0.0685 -0.1536  0.2671
 6399SOL    HW130833   2.833   4.144   5.981  1.2128  0.3534 -0.6099
 6399SOL    HW230834   2.783   4.014   5.957  0.0121 -0.8809 -0.9117
 6400SOL     OW30835   2.208   3.094  11.035  0.0012 -0.2426  0.0989
 6400SOL    HW130836   2.263   3.129  10.965  0.4579 -0.7911  0.1733
 6400SOL    HW230837   2.165   3.176  11.060  2.0440  1.5269 -2.2012
 6401SOL     OW30838   1.935   3.883   8.494  0.0864 -0.4712 -0.0588
 6401SOL    HW130839   1.857   3.838   8.528  2.1903 -1.3733  3.5655
 6401SOL    HW230840   1.973   3.888   8.582 -0.5791  1.1908  0.1352
 6402SOL     OW30841   4.200   3.457   9.485  0.0859  0.3400  0.3688
 6402SOL    HW130842   4.133   3.410   9.533 -0.4499 -0.1871 -0.9127
 6402SOL    HW230843   4.241   3.387   9.434 -1.6794  1.1184 -2.0728
 6403SOL     OW30844   2.361   4.501   2.030 -0.5147 -0.4207  0.0628
 6403SOL    HW130845   2.402   4.436   2.087 -1.6397 -0.1839  1.1346
 6403SOL    HW230846   2.267   4.482   2.035 -0.1501 -2.2547 -0.3083
 6404SOL     OW30847   3.852   3.849   4.478  0.1227  0.6523  0.0146
 6404SOL    HW130848   3.853   3.769   4.531 -0.7651  0.9686  0.5198
 6404SOL    HW230849   3.944   3.856   4.455 -0.5327 -0.4666 -2.9020
 6405SOL     OW30850   4.634   3.885   3.653  0.0313  0.0540  0.1521
 6405SOL    HW130851   4.557   3.932   3.622 -1.1696 -2.0944 -0.1741
 6405SOL    HW230852   4.595   3.823   3.715  0.9167 -1.0446 -0.3877
 6406SOL     OW30853   4.031   1.765   6.659  0.1834 -0.3748 -0.3152
 6406SOL    HW130854   3.985   1.769   6.744 -0.9714  0.4442 -0.9706
 6406SOL    HW230855   3.980   1.830   6.611  0.5141 -0.0476 -0.2222
 6407SOL     OW30856   0.645   0.736  12.012 -0.1796 -0.2402  0.1070
 6407SOL    HW130857   0.552   0.731  12.036 -0.8246  0.6304 -2.1845
 6407SOL    HW230858   0.675   0.686  12.088 -1.3215  0.0886  0.7843
 6408SOL     OW30859   2.178   1.986   4.582  0.1703 -0.0927  0.2168
 6408SOL    HW130860   2.270   1.971   4.563 -0.3718 -1.9384 -0.9827
 6408SOL    HW230861   2.136   1.950   4.504 -0.3283  0.2179  0.3387
 6409SOL     OW30862   4.484   3.329   3.127 -0.4696 -0.0174  0.0700
 6409SOL    HW130863   4.534   3.406   3.153  1.5530 -0.9750 -1.0702
 6409SOL    HW230864   4.491   3.320   3.032  0.0230  2.3728 -0.1096
 6410SOL     OW30865   2.913   1.464   5.672  0.9091 -0.2650 -0.0973
 6410SOL    HW130866   2.952   1.550   5.690 -0.9593  0.7195 -0.7918
 6410SOL    HW230867   2.989   1.407   5.658  1.0762 -0.5409  1.9456
 6411SOL     OW30868   3.647   4.414   7.152  0.0764 -0.1240  0.1356
 6411SOL    HW130869   3.567   4.361   7.142  0.3860 -0.2343 -1.5927
 6411SOL    HW230870   3.633   4.444   7.242  0.0418  2.9953 -0.9185
 6412SOL     OW30871   4.684   2.425  12.810 -0.6235  0.1071  0.8743
 6412SOL    HW130872   0.023   2.411  12.867 -0.1113 -0.7011 -0.0054
 6412SOL    HW230873   4.613   2.385  12.861 -0.5041 -0.8278  0.2982
 6413SOL     OW30874   3.982   3.793   9.047 -0.2335 -0.4680 -1.1246
 6413SOL    HW130875   3.934   3.777   9.127  0.4737  0.0918 -0.5864
 6413SOL    HW230876   3.937   3.875   9.027  2.0554  0.5338 -2.3005
 6414SOL     OW30877   3.842   3.272   5.697 -0.0929 -0.7265  0.3852
 6414SOL    HW130878   3.839   3.360   5.734  2.8169 -0.7870  0.7206
 6414SOL    HW230879   3.790   3.278   5.616 -1.5460  0.0008  1.3795
 6415SOL     OW30880   4.242   3.776  12.023  0.6396 -0.4790 -0.5190
 6415SOL    HW130881   4.238   3.680  12.020  0.4749 -0.4704 -0.6051
 6415SOL    HW230882   4.280   3.792  11.936 -0.7345  2.5554 -0.5590
 6416SOL     OW30883   3.914   0.046   7.869  0.1771 -0.2040 -0.0234
 6416SOL    HW130884   3.981   0.007   7.925 -0.4246 -0.7006  0.3576
 6416SOL    HW230885   3.968   0.122   7.847  2.4592 -1.8666 -0.1232
 6417SOL     OW30886   3.491   2.276  16.168  0.1775  0.4970  0.1838
 6417SOL    HW130887   3.506   2.191  16.208  2.7535  0.7777 -0.1579
 6417SOL    HW230888   3.575   2.317  16.187  0.7828  1.2903 -4.2578
 6418SOL     OW30889   4.544   4.644   1.385 -0.5685  0.0952 -0.2427
 6418SOL    HW130890   4.458   4.603   1.386 -1.7199  2.5407 -1.3448
 6418SOL    HW230891   4.571   4.588   1.312 -0.4448  0.0066 -0.1313
 6419SOL     OW30892   1.943   3.493   5.680  0.3080 -0.7661 -0.2514
 6419SOL    HW130893   1.872   3.498   5.616  0.3948  1.0393 -0.2033
 6419SOL    HW230894   1.967   3.583   5.702 -3.0026  0.2861 -0.8293
 6420SOL     OW30895   1.430   1.582  13.362 -0.4467  0.2804  0.1140
 6420SOL    HW130896   1.395   1.510  13.414  0.8323 -0.4909 -0.0967
 6420SOL    HW230897   1.354   1.619  13.317 -0.1781  0.2654 -0.3464
 6421SOL     OW30898   0.841   1.959  14.389  0.1416  0.7841  0.3756
 6421SOL    HW130899   0.891   1.930  14.465  0.0435  2.0951  0.9402
 6421SOL    HW230900   0.902   1.953  14.316 -2.0076 -2.5002 -1.1377
 6422SOL     OW30901   4.149   3.110   2.841 -0.4011 -0.0126 -0.0253
 6422SOL    HW130902   4.071   3.083   2.793  0.5777  1.6704 -2.5642
 6422SOL    HW230903   4.169   3.200   2.816 -2.5558  0.6685  0.6658
 6423SOL     OW30904   3.590   1.955  11.321 -0.4227  1.0533  0.6145
 6423SOL    HW130905   3.582   1.881  11.382 -1.6471  0.4669 -0.2606
 6423SOL    HW230906   3.586   1.911  11.236 -0.2525 -0.8912  1.6038
 6424SOL     OW30907   3.303   1.535  12.366  0.3501 -0.2420  0.2889
 6424SOL    HW130908   3.310   1.521  12.460  0.6624  0.4415  0.3585
 6424SOL    HW230909   3.224   1.484  12.345 -0.4554  1.6557 -1.3498
 6425SOL     OW30910   1.460   1.308   3.074  0.3761  0.3591  0.2167
 6425SOL    HW130911   1.517   1.371   3.119  1.5659 -0.8347  0.3876
 6425SOL    HW230912   1.500   1.231   3.114 -1.0326  0.2197  1.3951
 6426SOL     OW30913   1.318   2.998   2.826  0.5553 -0.0737 -0.2935
 6426SOL    HW130914   1.230   2.977   2.795 -0.3512  1.4637  1.2229
 6426SOL    HW230915   1.325   3.094   2.818 -2.1835 -0.0563 -2.5315
 6427SOL     OW30916   0.393   2.254   8.912 -0.0608 -0.1151  0.3559
 6427SOL    HW130917   0.399   2.182   8.849  0.1854  0.0485  0.1905
 6427SOL    HW230918   0.484   2.261   8.940 -0.4657  1.3998  1.2948
 6428SOL     OW30919   3.144   1.286  17.202 -0.1709  0.2994 -0.0946
 6428SOL    HW130920   3.132   1.220  17.270  2.2365 -1.0773 -0.9967
 6428SOL    HW230921   3.154   1.363  17.259 -1.1517  0.3402  0.0271
 6429SOL     OW30922   3.937   2.784  13.889  0.0619 -0.2400 -0.4287
 6429SOL    HW130923   4.001   2.758  13.954  1.0148 -0.9780 -1.6649
 6429SOL    HW230924   3.996   2.804  13.817  0.7561  1.0813  0.5115
 6430SOL     OW30925   1.970   1.997   4.957  0.1591  0.5753  0.1235
 6430SOL    HW130926   1.904   1.931   4.977 -0.8559  1.1211 -1.4213
 6430SOL    HW230927   1.924   2.075   4.988  1.4576  2.2661 -2.2007
 6431SOL     OW30928   4.449   4.068   6.672  0.3050 -0.1229 -0.8177
 6431SOL    HW130929   4.462   3.979   6.706  1.2032 -0.2871 -1.5979
 6431SOL    HW230930   4.425   4.041   6.583 -0.9877 -3.0255  0.4227
 6432SOL     OW30931   3.468   3.408   8.687 -0.1044 -0.1867 -0.7380
 6432SOL    HW130932   3.423   3.473   8.632  0.1287 -0.7822 -1.6256
 6432SOL    HW230933   3.527   3.460   8.741 -0.0801  0.8675 -1.7864
 6433SOL     OW30934   4.362   3.634   7.762  0.3406 -0.2607  0.1035
 6433SOL    HW130935   4.441   3.649   7.710 -0.5693  1.4426 -0.7811
 6433SOL    HW230936   4.326   3.721   7.779  0.6034  0.1234 -1.2710
 6434SOL     OW30937   3.261   3.621  16.662 -0.2745 -0.1039  0.3491
 6434SOL    HW130938   3.295   3.533  16.646 -0.3778  0.4392 -2.9365
 6434SOL    HW230939   3.331   3.675  16.626 -0.1799  0.2196  1.0330
 6435SOL     OW30940   1.022   2.587   5.412 -0.0922 -0.6272 -0.3264
 6435SOL    HW130941   1.115   2.576   5.429 -0.2908 -0.1597  0.9781
 6435SOL    HW230942   1.025   2.562   5.319  1.0143 -0.4339 -0.3325
 6436SOL     OW30943   0.062   4.569   8.010 -0.7503  0.0387 -0.2291
 6436SOL    HW130944   0.019   4.523   8.082  1.6522 -0.0715  1.1274
 6436SOL    HW230945   0.120   4.496   7.987  2.0511  1.7702  1.5031
 6437SOL     OW30946   3.563   0.663   6.261 -0.3798 -0.4871  0.1882
 6437SOL    HW130947   3.608   0.580   6.275  1.9046  1.0286  1.8884
 6437SOL    HW230948   3.637   0.714   6.293 -2.1381  2.7476 -0.8503
 6438SOL     OW30949   3.393   4.297   3.329 -0.3110 -0.0154  0.6538
 6438SOL    HW130950   3.447   4.362   3.375 -1.4646  2.0146 -0.8196
 6438SOL    HW230951   3.411   4.216   3.376 -2.6419 -1.7600 -1.4732
 6439SOL     OW30952   2.541   4.356   4.372 -0.2826 -0.2703 -0.0644
 6439SOL    HW130953   2.449   4.334   4.358  0.1110 -0.5909 -2.1790
 6439SOL    HW230954   2.554   4.420   4.302 -1.4998  1.3743  1.2184
 6440SOL     OW30955   2.253   1.121   8.005 -0.6132  0.4287 -0.2512
 6440SOL    HW130956   2.249   1.216   7.996 -0.1881  0.4664 -0.0696
 6440SOL    HW230957   2.214   1.085   7.925 -0.3328 -0.3972 -0.0176
 6441SOL     OW30958   0.225   1.383   9.889  0.0053  0.6086 -0.5452
 6441SOL    HW130959   0.276   1.431   9.954 -0.6635  0.3932  0.1417
 6441SOL    HW230960   0.138   1.417   9.912  0.1887 -0.4988  1.8902
 6442SOL     OW30961   0.469   3.136   7.031 -0.2924 -0.1713 -0.5247
 6442SOL    HW130962   0.559   3.119   7.003 -0.3267 -1.0320 -0.1398
 6442SOL    HW230963   0.442   3.044   7.031 -0.4095 -0.1355  1.3274
 6443SOL     OW30964   4.671   4.229   6.592 -0.6470 -0.0375  0.4056
 6443SOL    HW130965   4.727   4.219   6.670 -0.1099 -1.4975 -0.1748
 6443SOL    HW230966   4.601   4.168   6.616 -0.8207  0.1427  0.3544
 6444SOL     OW30967   4.446   2.685   3.600  0.2113  0.3941  0.7586
 6444SOL    HW130968   4.380   2.747   3.631 -0.5132  0.0841 -0.1396
 6444SOL    HW230969   4.437   2.606   3.652 -1.5144  0.9320  1.2831
 6445SOL     OW30970   0.809   2.880   7.838 -0.0714  0.6945  0.3368
 6445SOL    HW130971   0.750   2.859   7.766  0.0140  0.3997  0.3514
 6445SOL    HW230972   0.833   2.970   7.815 -0.3164  0.0341 -2.5548
 6446SOL     OW30973   0.808   1.900   8.952 -0.3729 -0.5737 -0.0658
 6446SOL    HW130974   0.862   1.822   8.941 -1.3581 -1.3336  0.4025
 6446SOL    HW230975   0.863   1.964   8.907  0.9114 -0.5238  1.6046
 6447SOL     OW30976   2.507   4.564   7.793  0.1373  0.0547  0.2514
 6447SOL    HW130977   2.424   4.522   7.820 -1.1755  2.8201  0.4996
 6447SOL    HW230978   2.568   4.530   7.858 -1.8064 -1.1363  1.4794
 6448SOL     OW30979   2.944   4.374   4.554  0.0368  0.2077 -0.1633
 6448SOL    HW130980   3.030   4.378   4.512  0.6928  2.2716  1.3814
 6448SOL    HW230981   2.892   4.424   4.490 -1.2158 -2.3692 -1.1922
 6449SOL     OW30982   0.697   1.712   6.304  0.3222  0.4897 -0.6475
 6449SOL    HW130983   0.649   1.779   6.256 -0.2429 -0.8679 -1.9821
 6449SOL    HW230984   0.636   1.696   6.376  0.2788  0.2524 -0.7354
 6450SOL     OW30985   1.267   3.356   4.124  0.4699 -0.1662 -0.3387
 6450SOL    HW130986   1.207   3.429   4.139  1.9668  0.9614  0.0936
 6450SOL    HW230987   1.286   3.353   4.031 -0.5475 -0.0607 -0.5549
 6451SOL     OW30988   3.850   1.269   2.080 -0.2467  0.3475 -0.1408
 6451SOL    HW130989   3.802   1.351   2.070 -0.0995  0.5842  1.0891
 6451SOL    HW230990   3.837   1.241   2.170 -0.0925  0.9766  0.0770
 6452SOL     OW30991   1.012   1.682   0.005 -0.0768 -0.3271 -0.0820
 6452SOL    HW130992   0.988   1.745   0.074  2.1025  0.0845  0.2797
 6452SOL    HW230993   0.950   1.616   0.036 -1.8063  1.4531  0.3269
 6453SOL     OW30994   1.468   3.395   1.932 -0.0908  0.0240 -0.3029
 6453SOL    HW130995   1.384   3.439   1.942  1.0242  2.3410 -1.0807
 6453SOL    HW230996   1.523   3.454   1.880  2.8166  0.3233  3.0803
 6454SOL     OW30997   1.193   1.068   5.444  0.4568 -0.2544 -0.3649
 6454SOL    HW130998   1.266   1.101   5.393  0.1552  0.8347 -0.1119
 6454SOL    HW230999   1.190   1.132   5.516 -1.1774 -0.9529  0.1916
 6455SOL     OW31000   0.281   2.113   7.038 -0.2943 -0.0568  0.4191
 6455SOL    HW131001   0.294   2.086   7.129  2.1965 -0.6092 -0.0892
 6455SOL    HW231002   0.189   2.137   7.042 -0.6033 -1.1269 -0.2549
 6456SOL     OW31003   1.759   3.679   1.346  0.0421  0.5463 -0.0928
 6456SOL    HW131004   1.714   3.656   1.265  0.2468 -3.3595  0.9160
 6456SOL    HW231005   1.691   3.736   1.382 -0.3929 -1.1326  1.6944
 6457SOL     OW31006   3.346   2.841   9.769 -0.0890 -0.1674  0.1821
 6457SOL    HW131007   3.343   2.779   9.697 -2.7557 -1.4633  1.3967
 6457SOL    HW231008   3.294   2.913   9.732  0.1342 -0.5282 -0.8221
 6458SOL     OW31009   0.461   0.394   8.607 -0.0248  0.1147  0.4528
 6458SOL    HW131010   0.375   0.389   8.567 -0.6823  0.3547  1.8149
 6458SOL    HW231011   0.437   0.420   8.697 -1.1862 -1.0053  0.4618
 6459SOL     OW31012   0.207   3.389  17.672  0.0927 -0.3776  0.0983
 6459SOL    HW131013   0.199   3.323  17.741 -0.9637  0.6486  0.9739
 6459SOL    HW231014   0.157   3.344  17.605 -0.2014  0.2023 -0.0776
 6460SOL     OW31015   1.509   1.441  10.382  0.6198  0.7558 -0.4266
 6460SOL    HW131016   1.535   1.459  10.291  3.9015  1.3797  0.6286
 6460SOL    HW231017   1.584   1.468  10.435  2.5720 -0.0431 -2.7376
 6461SOL     OW31018   0.097   4.273   8.401 -0.5212 -0.1073 -0.0027
 6461SOL    HW131019   0.120   4.186   8.434  1.4996  0.9306  1.2801
 6461SOL    HW231020   0.171   4.331   8.418 -0.8968  0.0656  1.0512
 6462SOL     OW31021   4.351   4.033   8.156  0.8635 -0.4877  0.1928
 6462SOL    HW131022   4.405   4.026   8.235  2.8461 -0.8051 -1.2013
 6462SOL    HW231023   4.264   4.055   8.189  1.3542 -3.1762  3.2716
 6463SOL     OW31024   3.378   2.418   3.759 -0.2882  0.1855 -0.3949
 6463SOL    HW131025   3.430   2.463   3.692 -0.0485  2.0509  1.0317
 6463SOL    HW231026   3.372   2.486   3.826 -0.1332  0.7027 -0.9054
 6464SOL     OW31027   3.952   4.243   6.181 -0.3651 -0.4611  0.0997
 6464SOL    HW131028   3.917   4.321   6.225 -0.7501 -0.7058  0.2257
 6464SOL    HW231029   4.026   4.290   6.141  0.4784 -0.7454  1.3122
 6465SOL     OW31030   0.320   2.337   9.179  0.1653  0.2354 -0.0630
 6465SOL    HW131031   0.322   2.313   9.087  0.8594 -0.3980  0.1155
 6465SOL    HW231032   0.361   2.423   9.185  2.6609 -0.8242 -2.1323
 6466SOL     OW31033   0.984   3.233   5.721  0.1936  0.0429 -0.3397
 6466SOL    HW131034   1.078   3.225   5.737 -0.0436  0.1763  1.1492
 6466SOL    HW231035   0.975   3.328   5.722  0.4345  0.0743 -1.1549
 6467SOL     OW31036   4.683   3.455  13.840 -0.5191 -0.2797  0.9238
 6467SOL    HW131037   4.717   3.470  13.929  1.0813  1.7591 -0.0370
 6467SOL    HW231038   4.649   3.366  13.840  1.9007 -1.2008 -0.4465
 6468SOL     OW31039   3.482   1.355  12.837 -0.4096 -0.1949 -0.3462
 6468SOL    HW131040   3.575   1.339  12.822 -1.1203 -1.3899 -3.6569
 6468SOL    HW231041   3.449   1.270  12.808  2.0579 -1.9070  1.9341
 6469SOL     OW31042   4.508   2.796   7.206  0.2622  0.3102 -0.7157
 6469SOL    HW131043   4.469   2.740   7.138 -0.5565  1.2863 -1.0469
 6469SOL    HW231044   4.476   2.759   7.288  1.0386  1.9855  0.3323
 6470SOL     OW31045   1.163   4.651   5.745 -0.4610  0.4171 -0.0808
 6470SOL    HW131046   1.132   4.733   5.784 -0.0884  0.2947  0.4737
 6470SOL    HW231047   1.147   4.666   5.652 -1.4755 -0.4853 -0.0477
 6471SOL     OW31048   3.428   1.849   1.849 -0.4869 -0.0493 -0.3915
 6471SOL    HW131049   3.413   1.773   1.905  1.8673 -0.0710  0.1776
 6471SOL    HW231050   3.448   1.914   1.916  0.4298  0.5002 -1.2033
 6472SOL     OW31051   2.161   3.456  12.541 -0.0372  0.1551 -0.1552
 6472SOL    HW131052   2.071   3.444  12.512  0.1007  1.3675 -1.0816
 6472SOL    HW231053   2.180   3.387  12.604  0.8820 -1.0558 -1.7443
 6473SOL     OW31054   4.043   4.350   1.772 -0.5315  0.2157  0.2140
 6473SOL    HW131055   4.028   4.270   1.822  0.6532  0.3959  0.8639
 6473SOL    HW231056   4.101   4.322   1.701  0.0833 -1.7963  1.4954
 6474SOL     OW31057   2.202   4.230   1.340 -0.2652  0.3060  0.2050
 6474SOL    HW131058   2.203   4.159   1.276 -2.4335  0.4538 -0.0007
 6474SOL    HW231059   2.135   4.196   1.399  1.2293 -0.4522  1.4509
 6475SOL     OW31060   2.818   1.955   1.016 -0.4698 -0.1273  0.1972
 6475SOL    HW131061   2.770   2.036   1.034 -0.8450 -0.4166  0.5089
 6475SOL    HW231062   2.809   1.924   1.107 -0.0317 -1.3246 -0.1741
 6476SOL     OW31063   1.881   4.448   6.777 -0.1173  0.5242  0.0074
 6476SOL    HW131064   1.938   4.404   6.714 -0.9465  0.2175 -0.5343
 6476SOL    HW231065   1.943   4.473   6.845  1.0857 -1.0086 -0.5526
 6477SOL     OW31066   0.754   3.200  11.205  0.2112  0.0090 -0.4763
 6477SOL    HW131067   0.809   3.242  11.270 -1.0267  1.2149 -0.2190
 6477SOL    HW231068   0.744   3.270  11.140  2.2131  1.9652  1.3435
 6478SOL     OW31069   3.553   3.901   7.690  0.0879  0.1343  0.0298
 6478SOL    HW131070   3.605   3.958   7.633 -0.6949 -0.0685 -0.8749
 6478SOL    HW231071   3.487   3.966   7.718  0.6601  0.9271 -0.4503
 6479SOL     OW31072   0.388   0.568   3.806 -0.0860 -0.3192  0.2477
 6479SOL    HW131073   0.410   0.658   3.833 -0.0006 -0.3327  0.2209
 6479SOL    HW231074   0.464   0.524   3.844  0.0783  1.3898  1.9105
 6480SOL     OW31075   1.677   3.081   5.830 -0.7562 -0.1222  0.0074
 6480SOL    HW131076   1.703   3.173   5.835  0.8104 -0.4291 -2.6618
 6480SOL    HW231077   1.742   3.046   5.768 -0.3473 -1.5190  1.2244
 6481SOL     OW31078   0.396   1.734   7.534  0.0762 -0.0776  0.5345
 6481SOL    HW131079   0.477   1.744   7.484  0.3054 -1.9010  0.5146
 6481SOL    HW231080   0.435   1.720   7.620 -0.2116  0.0349  0.6818
 6482SOL     OW31081   4.616   3.001   9.777  0.0051 -0.1985 -0.0344
 6482SOL    HW131082   4.532   2.992   9.732 -0.5136 -1.4795  1.1593
 6482SOL    HW231083   4.631   3.089   9.745  0.4300  0.0806  0.9285
 6483SOL     OW31084   1.222   4.635  10.527  0.3815  0.2536  0.3377
 6483SOL    HW131085   1.135   4.663  10.554  0.3756  1.5053 -1.0283
 6483SOL    HW231086   1.207   4.660  10.436  0.8668  0.3187  0.2752
 6484SOL     OW31087   2.634   2.204   7.311 -0.1320 -0.0206  0.0357
 6484SOL    HW131088   2.577   2.165   7.244  2.0273 -0.2543 -1.6570
 6484SOL    HW231089   2.643   2.136   7.378 -0.2315 -0.3068 -0.2424
 6485SOL     OW31090   2.989   3.718  16.368 -0.3676 -0.6404 -0.7166
 6485SOL    HW131091   2.937   3.733  16.447  1.5899 -1.3466  0.7133
 6485SOL    HW231092   3.063   3.777  16.381 -0.6801 -0.7011  1.3828
 6486SOL     OW31093   4.448   2.264  13.658 -0.3039  0.2887 -0.7774
 6486SOL    HW131094   4.477   2.178  13.689  0.1859 -0.3605 -3.0480
 6486SOL    HW231095   4.366   2.238  13.616 -1.0466  1.2639  0.0835
 6487SOL     OW31096   2.376   4.281   9.930  0.0790 -0.3923  0.1455
 6487SOL    HW131097   2.374   4.250  10.021 -1.8425 -0.4620  0.0810
 6487SOL    HW231098   2.464   4.255   9.902 -0.1761 -1.9308  0.7867
 6488SOL     OW31099   2.528   3.994   6.066  0.7037  0.2393  0.3947
 6488SOL    HW131100   2.493   3.989   6.155  0.6122  2.1437  0.4762
 6488SOL    HW231101   2.575   3.912   6.056 -0.4190 -0.1304 -1.7456
 6489SOL     OW31102   2.634   1.340   6.064  0.2505 -0.0371  0.1996
 6489SOL    HW131103   2.721   1.366   6.094 -0.4373 -0.2400  2.3780
 6489SOL    HW231104   2.643   1.345   5.969  3.6777  2.0341  0.6253
 6490SOL     OW31105   4.452   4.048   7.365 -0.2498  0.4793  0.0400
 6490SOL    HW131106   4.442   4.087   7.278  1.2823 -2.4482 -1.4195
 6490SOL    HW231107   4.418   4.117   7.422 -0.7541 -0.7500  1.2256
 6491SOL     OW31108   1.651   1.814   4.126  0.0893  0.0751 -0.0153
 6491SOL    HW131109   1.676   1.896   4.085  0.2859  0.2964  0.5418
 6491SOL    HW231110   1.689   1.838   4.211 -0.5171 -0.3658  0.3879
 6492SOL     OW31111   0.991   3.125  11.667 -0.2955  0.9142  0.6832
 6492SOL    HW131112   1.048   3.161  11.735  0.1194  1.2178  0.1711
 6492SOL    HW231113   1.062   3.094  11.612  1.6687  2.7660  2.1429
 6493SOL     OW31114   3.642   1.067  12.991 -0.2447 -0.8796 -0.3267
 6493SOL    HW131115   3.695   0.988  12.979  0.0512 -0.7482  0.1545
 6493SOL    HW231116   3.560   1.038  12.950 -1.0831 -0.2245  0.8865
 6494SOL     OW31117   4.716   1.395  11.816 -0.1533 -0.7093 -0.3147
 6494SOL    HW131118   0.009   1.471  11.766  0.4306 -0.1035  0.9598
 6494SOL    HW231119   4.624   1.419  11.825  0.9763  3.1354  0.6369
 6495SOL     OW31120   1.311   2.343   8.069  0.2817 -0.1674  0.3420
 6495SOL    HW131121   1.305   2.424   8.018 -1.1815 -0.9798 -0.7586
 6495SOL    HW231122   1.219   2.341   8.095  0.1738  2.2137  0.1785
 6496SOL     OW31123   2.223   2.993  12.572 -0.4596 -1.0283 -0.2122
 6496SOL    HW131124   2.150   3.006  12.632 -0.3066 -1.5781  0.0975
 6496SOL    HW231125   2.231   3.078  12.530  1.4372 -0.4996  1.2255
 6497SOL     OW31126   1.802   1.799   0.292 -0.0694 -0.3351  0.2204
 6497SOL    HW131127   1.803   1.877   0.349  0.2258 -0.3960  0.2958
 6497SOL    HW231128   1.897   1.790   0.286 -0.2248  0.0471 -2.8767
 6498SOL     OW31129   2.134   0.998   4.177 -0.4644 -0.4066 -0.4827
 6498SOL    HW131130   2.227   0.980   4.168 -0.2397  0.5604  0.0068
 6498SOL    HW231131   2.092   0.911   4.174  0.7360 -1.0663  1.5663
 6499SOL     OW31132   0.543   4.449   6.720 -0.6614 -0.2233 -0.5618
 6499SOL    HW131133   0.628   4.416   6.692 -0.2734 -0.2065  0.5787
 6499SOL    HW231134   0.545   4.426   6.813 -0.7831  1.5513 -0.1246
 6500SOL     OW31135   4.561   1.760   2.497  0.1929  0.2324 -0.6331
 6500SOL    HW131136   4.523   1.747   2.584 -1.3359  2.6992 -0.9370
 6500SOL    HW231137   4.537   1.681   2.449  0.0309 -0.0892 -0.0333
 6501SOL     OW31138   4.730   1.998   9.144 -0.5627 -0.1301  0.0506
 6501SOL    HW131139   0.060   1.929   9.152 -0.4615 -0.0698 -0.2347
 6501SOL    HW231140   4.725   1.999   9.048  1.7147 -0.1035 -0.0558
 6502SOL     OW31141   2.509   0.522   6.597  0.0810  0.3159 -0.4335
 6502SOL    HW131142   2.495   0.491   6.687 -2.1144 -1.4004 -1.3447
 6502SOL    HW231143   2.604   0.523   6.598  0.1107 -0.8831 -3.5504
 6503SOL     OW31144   4.434   2.259   9.717 -0.0552  0.3127 -0.2133
 6503SOL    HW131145   4.396   2.210   9.645 -0.4897  0.8065 -0.3237
 6503SOL    HW231146   4.495   2.308   9.662 -0.8608 -0.7426 -2.0529
 6504SOL     OW31147   3.535   3.371   6.273  0.2446 -0.2940 -0.4646
 6504SOL    HW131148   3.579   3.317   6.339  2.7014 -0.2022 -2.0015
 6504SOL    HW231149   3.443   3.354   6.294  0.2291  1.0899  0.5756
 6505SOL     OW31150   1.016   4.069   3.239  0.2095 -0.1613  0.1701
 6505SOL    HW131151   0.967   4.144   3.274  0.6818  0.3330 -0.2449
 6505SOL    HW231152   1.042   4.104   3.155 -0.5700  2.0194  0.8484
 6506SOL     OW31153   1.836   0.304   9.130  0.2546 -0.0365  0.6746
 6506SOL    HW131154   1.770   0.250   9.087  0.4866  0.1533  0.0700
 6506SOL    HW231155   1.786   0.384   9.146 -1.0624 -0.4964 -1.1090
 6507SOL     OW31156   4.555   3.098   5.578  0.5393 -0.1499  0.1188
 6507SOL    HW131157   4.595   3.099   5.665  1.9743  1.3206 -0.5565
 6507SOL    HW231158   4.569   3.008   5.549  1.5510 -0.2443  0.9001
 6508SOL     OW31159   1.408   0.636  17.669 -0.8402  0.8001  0.0006
 6508SOL    HW131160   1.493   0.596  17.650 -1.2255  0.3122 -0.6879
 6508SOL    HW231161   1.378   0.671  17.585  0.1262  0.1855 -0.6074
 6509SOL     OW31162   0.065   1.976   2.985 -0.2120  0.1825  0.2127
 6509SOL    HW131163   0.011   1.898   2.999  0.9501 -0.3672  1.5317
 6509SOL    HW231164   4.728   2.038   2.991 -0.3044  0.1884 -0.9642
 6510SOL     OW31165   2.531   0.206   8.435 -0.2365 -0.1985  0.4104
 6510SOL    HW131166   2.478   0.129   8.458  0.3010 -1.3518 -2.2326
 6510SOL    HW231167   2.566   0.229   8.521 -1.5398  4.0260 -0.2030
 6511SOL     OW31168   3.172   1.841   7.435 -0.0422  0.1851  0.0164
 6511SOL    HW131169   3.148   1.855   7.343  1.3425  4.0228  0.2649
 6511SOL    HW231170   3.102   1.894   7.474  2.1197  1.9483  1.4604
 6512SOL     OW31171   1.374   2.095   3.679  0.6405  0.0948 -0.5713
 6512SOL    HW131172   1.328   2.156   3.620 -2.2722  0.6442  2.2283
 6512SOL    HW231173   1.407   2.027   3.621  1.8910 -0.2517  0.5666
 6513SOL     OW31174   2.750   0.898   5.336 -0.0574 -0.5283  0.2136
 6513SOL    HW131175   2.697   0.976   5.351  0.5290 -0.1194  0.1208
 6513SOL    HW231176   2.738   0.849   5.418 -0.7081 -0.0420  0.4080
 6514SOL     OW31177   0.675   3.599   2.048  0.2466  0.4431 -0.1027
 6514SOL    HW131178   0.694   3.670   2.110  0.7622 -1.9232  2.4408
 6514SOL    HW231179   0.644   3.648   1.971  1.2339  1.1731 -0.0357
 6515SOL     OW31180   4.338   4.014  17.208  0.8673  0.4352  0.2957
 6515SOL    HW131181   4.257   3.982  17.247  0.5261  2.6477  1.4118
 6515SOL    HW231182   4.409   3.958  17.239 -0.2116 -0.0178  1.9685
 6516SOL     OW31183   3.602   1.504  14.127 -0.2340 -0.1096  0.0204
 6516SOL    HW131184   3.559   1.521  14.211  0.5236 -0.9824  0.5794
 6516SOL    HW231185   3.682   1.459  14.155 -1.1778 -0.7684  1.6253
 6517SOL     OW31186   2.166   2.429   3.477 -0.2771  0.3859  0.1082
 6517SOL    HW131187   2.167   2.498   3.411 -1.1862 -0.0094 -0.3200
 6517SOL    HW231188   2.248   2.448   3.523  0.0070 -0.8772  0.1255
 6518SOL     OW31189   3.855   4.327   3.934 -0.3811 -0.1070 -0.3110
 6518SOL    HW131190   3.816   4.307   3.849 -0.6409  0.2720 -0.2815
 6518SOL    HW231191   3.945   4.296   3.925  0.7341  3.0042 -0.0191
 6519SOL     OW31192   1.780   3.045   8.724 -0.3528 -0.5140  0.4391
 6519SOL    HW131193   1.747   3.128   8.759 -0.4587 -0.7189  0.8312
 6519SOL    HW231194   1.864   3.048   8.769 -0.1168 -2.3569  0.1278
 6520SOL     OW31195   2.753   1.963   3.030  0.1521  0.4514 -0.4244
 6520SOL    HW131196   2.685   1.970   3.098  1.9611 -0.9698  1.5229
 6520SOL    HW231197   2.830   1.981   3.084 -0.2358  1.5856 -0.2392
 6521SOL     OW31198   2.577   3.561  13.181 -0.1829  0.2801  0.4483
 6521SOL    HW131199   2.521   3.575  13.257  1.1919  0.0842  1.5027
 6521SOL    HW231200   2.653   3.612  13.206  1.1742 -1.6572  0.2651
 6522SOL     OW31201   2.648   1.073  15.542 -0.0045 -0.1912 -0.2597
 6522SOL    HW131202   2.664   1.052  15.450 -0.0315 -0.5152 -0.1902
 6522SOL    HW231203   2.730   1.060  15.590 -0.4652  1.7314  1.0206
 6523SOL     OW31204   3.952   1.507   1.537  0.2217 -0.4610 -0.9303
 6523SOL    HW131205   3.952   1.550   1.452 -2.0958  1.1040 -0.1350
 6523SOL    HW231206   4.012   1.436   1.513  1.5328  0.6326 -0.8971
 6524SOL     OW31207   0.507   4.319   3.562 -0.1265 -1.2996 -0.2826
 6524SOL    HW131208   0.584   4.263   3.567  1.2193  0.6030  0.2169
 6524SOL    HW231209   0.440   4.262   3.601 -1.0812  0.9126  1.3864
 6525SOL     OW31210   1.151   0.688   3.661 -0.2863  0.3587 -0.0056
 6525SOL    HW131211   1.068   0.735   3.660 -0.1301  0.6563  2.1247
 6525SOL    HW231212   1.141   0.593   3.664 -0.5035  0.3276 -1.4310
 6526SOL     OW31213   0.888   3.758  14.303  0.1821 -0.0136  0.6594
 6526SOL    HW131214   0.974   3.737  14.339  0.9540  0.0634 -1.1281
 6526SOL    HW231215   0.858   3.673  14.272 -2.1400  1.3709 -0.8435
 6527SOL     OW31216   0.921   0.491   3.771  0.3547  0.0244  0.1961
 6527SOL    HW131217   0.911   0.408   3.725  3.2610 -0.0182 -0.3532
 6527SOL    HW231218   0.984   0.464   3.838  0.4553  0.1756  0.1631
 6528SOL     OW31219   4.213   0.911   8.572 -0.8335  0.4499  0.7008
 6528SOL    HW131220   4.242   0.987   8.623  2.3098 -0.2568 -0.0554
 6528SOL    HW231221   4.217   0.841   8.636 -0.7737  0.7356  1.0102
 6529SOL     OW31222   3.347   3.608   2.721 -0.1071  0.6976  0.6989
 6529SOL    HW131223   3.427   3.595   2.671  0.1309  0.7078  1.0769
 6529SOL    HW231224   3.319   3.694   2.689  2.1090  2.3472  3.1391
 6530SOL     OW31225   2.965   3.644   4.686  0.6744 -0.0066 -0.5927
 6530SOL    HW131226   2.898   3.701   4.648 -0.1518 -1.8177 -1.8814
 6530SOL    HW231227   3.009   3.606   4.610 -2.4342 -0.9339 -1.9455
 6531SOL     OW31228   1.601   4.410   8.019  0.3425 -0.2709 -0.0430
 6531SOL    HW131229   1.652   4.428   8.098  0.5745  0.7708 -0.4379
 6531SOL    HW231230   1.519   4.384   8.061  0.9830 -0.4287  1.1067
 6532SOL     OW31231   2.928   3.076   8.157 -0.1131  0.0859 -0.2475
 6532SOL    HW131232   2.834   3.069   8.176 -0.2262  0.9473 -0.5046
 6532SOL    HW231233   2.933   3.170   8.142 -1.1124  0.1770 -0.0119
 6533SOL     OW31234   0.749   1.348   3.226  0.1142  0.1017 -0.2534
 6533SOL    HW131235   0.719   1.261   3.253 -1.6586  1.1468  1.1748
 6533SOL    HW231236   0.701   1.357   3.143 -0.6635  1.5045  0.3440
 6534SOL     OW31237   1.924   3.032   1.762  0.1265  0.0870 -0.1706
 6534SOL    HW131238   1.940   3.091   1.835  0.2481  0.0944 -0.2037
 6534SOL    HW231239   1.844   2.987   1.789  1.3695 -1.2260  1.3087
 6535SOL     OW31240   3.033   1.571   1.758  0.5519 -0.3900  0.5920
 6535SOL    HW131241   3.109   1.596   1.809  1.4977  0.6909 -1.3347
 6535SOL    HW231242   2.996   1.660   1.754  1.2414 -0.2015 -1.6731
 6536SOL     OW31243   1.116   1.575   8.112 -0.1823  0.3401 -0.3429
 6536SOL    HW131244   1.161   1.540   8.035  0.3205 -0.5509  0.3511
 6536SOL    HW231245   1.096   1.664   8.084  3.0479  0.7214 -1.4660
 6537SOL     OW31246   4.015   0.632   5.228 -0.1733  0.5682  0.3057
 6537SOL    HW131247   4.060   0.693   5.286 -2.2963  0.2573  2.2962
 6537SOL    HW231248   3.961   0.585   5.292 -0.2528 -0.5084 -0.5403
 6538SOL     OW31249   3.337   0.990   2.356 -0.1998  0.0944  0.1057
 6538SOL    HW131250   3.320   1.026   2.269 -2.8209 -1.3261  0.0390
 6538SOL    HW231251   3.260   0.936   2.376 -0.0315 -0.0022  0.5063
 6539SOL     OW31252   2.515   0.659  16.453 -0.4573 -0.9680 -0.7705
 6539SOL    HW131253   2.538   0.567  16.461  1.9493 -0.4653 -1.9741
 6539SOL    HW231254   2.578   0.699  16.513 -1.8800  0.1872 -0.0631
 6540SOL     OW31255   0.655   4.291  10.912 -0.1381 -0.3070  0.2862
 6540SOL    HW131256   0.698   4.269  10.830 -0.3351 -0.6815  0.2785
 6540SOL    HW231257   0.669   4.215  10.970  1.3382 -0.3724 -0.1709
 6541SOL     OW31258   2.125   1.359  15.298 -0.0326 -0.5072 -0.1010
 6541SOL    HW131259   2.066   1.285  15.310  3.0815 -2.7232  1.5764
 6541SOL    HW231260   2.174   1.372  15.380 -0.7291  1.6520 -0.0164
 6542SOL     OW31261   1.889   0.268   9.593  0.3068 -0.0347  0.1476
 6542SOL    HW131262   1.893   0.363   9.594 -0.7635  0.0185 -0.2836
 6542SOL    HW231263   1.936   0.243   9.673 -0.4911 -0.4148  0.4940
 6543SOL     OW31264   3.806   4.106   4.416 -0.3582 -0.2531 -0.0477
 6543SOL    HW131265   3.891   4.131   4.455 -0.8861  0.5279  0.6071
 6543SOL    HW231266   3.812   4.012   4.433 -0.7736 -0.2394  0.1674
 6544SOL     OW31267   1.393   1.784   4.064  0.6126  0.3414 -0.0319
 6544SOL    HW131268   1.488   1.786   4.070  0.5082  4.0453  0.1058
 6544SOL    HW231269   1.365   1.864   4.108 -1.2135 -0.4956  0.3436
 6545SOL     OW31270   3.537   0.200  15.798 -0.2283  0.4124  0.4820
 6545SOL    HW131271   3.457   0.206  15.745  0.2672  0.3814 -0.2741
 6545SOL    HW231272   3.541   0.296  15.801  0.1610  0.3772  1.1608
 6546SOL     OW31273   3.719   2.226   3.718 -0.0339  0.2187  0.1717
 6546SOL    HW131274   3.757   2.163   3.780  1.8642 -0.2779 -1.5014
 6546SOL    HW231275   3.758   2.193   3.637 -2.4365 -0.8759 -0.5247
 6547SOL     OW31276   0.001   4.029   4.527  1.1092 -0.3582  0.5731
 6547SOL    HW131277   4.668   3.963   4.540  0.3288  0.3384 -0.0076
 6547SOL    HW231278   4.714   4.081   4.450 -2.2034 -0.9026  1.1998
 6548SOL     OW31279   0.009   1.552  15.086 -0.0654 -0.1771 -0.7588
 6548SOL    HW131280   4.705   1.485  15.031  2.0038 -0.7501 -1.5514
 6548SOL    HW231281   4.725   1.525  15.175 -0.6015  2.1812 -0.1495
 6549SOL     OW31282   1.621   1.019  14.795 -0.5712  0.3594 -0.2305
 6549SOL    HW131283   1.677   1.094  14.813  0.5396 -0.2833 -0.9362
 6549SOL    HW231284   1.534   1.058  14.797  0.7512  3.2892 -0.7280
 6550SOL     OW31285   2.807   1.465   8.774  0.1640 -0.1957 -0.4964
 6550SOL    HW131286   2.892   1.472   8.819 -0.4587  1.0018  0.5082
 6550SOL    HW231287   2.836   1.439   8.687  1.1250 -4.7485  1.2049
 6551SOL     OW31288   0.426   4.033   5.752  0.0860  0.1665 -0.4096
 6551SOL    HW131289   0.425   3.994   5.839  2.8686 -1.7327 -1.2296
 6551SOL    HW231290   0.460   3.959   5.702  2.9285  1.1678  0.0488
 6552SOL     OW31291   3.077   1.514  17.055 -0.6431  0.3397 -0.0433
 6552SOL    HW131292   3.082   1.426  17.091 -1.4380 -0.1453 -1.1271
 6552SOL    HW231293   3.054   1.510  16.962  1.1870  0.9869 -0.5294
 6553SOL     OW31294   2.714   4.099  14.887  0.1205 -0.1495 -0.1381
 6553SOL    HW131295   2.724   4.012  14.847 -2.3261 -0.5311  0.1396
 6553SOL    HW231296   2.619   4.107  14.884  0.1498  0.1931 -0.1184
 6554SOL     OW31297   2.955   2.949   8.734 -0.4096  0.1090 -0.1504
 6554SOL    HW131298   2.985   2.888   8.801  1.4946 -0.9491 -1.9720
 6554SOL    HW231299   2.995   3.030   8.766 -0.0444 -0.4042  0.6742
 6555SOL     OW31300   4.111   0.419   9.310  0.4412  0.0667 -0.0819
 6555SOL    HW131301   4.205   0.420   9.328  0.4890  3.4171 -0.3765
 6555SOL    HW231302   4.119   0.385   9.221 -0.0001 -0.9760  0.2776
 6556SOL     OW31303   4.679   0.745   3.782  0.0892  0.1185  0.0709
 6556SOL    HW131304   4.634   0.781   3.858  0.1903  0.6469 -0.1146
 6556SOL    HW231305   0.011   0.809   3.757  1.5397 -0.5953  2.2271
 6557SOL     OW31306   0.606   3.714   4.933 -0.6284  0.0109 -0.9374
 6557SOL    HW131307   0.551   3.770   4.879 -1.7222  0.6952  0.8695
 6557SOL    HW231308   0.549   3.637   4.937 -0.1765 -0.3711 -1.8476
 6558SOL     OW31309   3.608   4.338   8.887 -0.1901 -0.2809  0.3229
 6558SOL    HW131310   3.654   4.421   8.896  1.7521 -1.4092  0.8615
 6558SOL    HW231311   3.630   4.283   8.962 -0.4783  0.6854  1.1071
 6559SOL     OW31312   2.392   1.333  17.067  0.2382 -0.3625  0.3328
 6559SOL    HW131313   2.396   1.421  17.103  0.0407 -0.0277 -0.4666
 6559SOL    HW231314   2.317   1.336  17.008  1.3549  1.4846 -0.9809
 6560SOL     OW31315   1.736   3.075   5.089 -0.2896 -0.4930  0.4573
 6560SOL    HW131316   1.650   3.071   5.131  0.7013 -0.1611  2.5134
 6560SOL    HW231317   1.740   2.985   5.056 -1.6813 -0.4924  0.2936
 6561SOL     OW31318   3.716   0.851   6.037  0.0801  0.2054  0.1616
 6561SOL    HW131319   3.730   0.781   6.100 -0.0194 -2.2120 -2.4743
 6561SOL    HW231320   3.752   0.924   6.086  1.7329 -1.7188  1.8122
 6562SOL     OW31321   2.065   0.342   0.591 -0.8664 -0.2479  0.7729
 6562SOL    HW131322   1.975   0.344   0.558 -0.4926 -0.5031 -0.2804
 6562SOL    HW231323   2.116   0.374   0.516  0.2760 -2.3275  0.6490
 6563SOL     OW31324   0.119   2.424  14.175  0.2423  0.0735 -0.2562
 6563SOL    HW131325   0.091   2.410  14.084 -1.1819  0.2683  0.1553
 6563SOL    HW231326   0.186   2.493  14.170 -1.3710  1.7338  1.0069
 6564SOL     OW31327   3.252   1.232   4.540 -0.5333 -0.2302  0.4804
 6564SOL    HW131328   3.196   1.199   4.470 -1.1655  0.0325  0.8670
 6564SOL    HW231329   3.209   1.207   4.622 -2.4572 -0.5624 -0.6469
 6565SOL     OW31330   2.846   2.070   3.793  0.0913  0.2384 -0.6621
 6565SOL    HW131331   2.835   2.157   3.833 -1.2931 -0.4844  0.5123
 6565SOL    HW231332   2.901   2.024   3.856 -0.3575 -0.0632 -0.4922
 6566SOL     OW31333   0.403   3.151   8.345 -0.8303 -0.0565 -0.5112
 6566SOL    HW131334   0.385   3.059   8.362  0.7198 -0.2599  0.0034
 6566SOL    HW231335   0.479   3.175   8.396 -0.4760 -0.6654 -0.7504
 6567SOL     OW31336   1.909   0.843  14.504  0.4954  0.0669 -0.2344
 6567SOL    HW131337   1.845   0.845  14.433  0.3771 -0.7313 -0.1496
 6567SOL    HW231338   1.903   0.931  14.541 -0.6503 -0.2387  0.3167
 6568SOL     OW31339   2.737   1.079   6.136 -0.2568  0.5059 -0.4176
 6568SOL    HW131340   2.709   1.049   6.222 -1.8007 -0.4082 -1.2484
 6568SOL    HW231341   2.697   1.163   6.117  0.2021  0.4896 -1.4835
 6569SOL     OW31342   0.107   4.027   4.776 -0.4716  0.0033  0.0762
 6569SOL    HW131343   0.095   3.935   4.797 -0.9238  0.3443  1.3134
 6569SOL    HW231344   0.067   4.034   4.689  2.0795 -0.3373 -1.1014
 6570SOL     OW31345   0.184   3.272   8.015 -0.4979 -0.0677  0.3966
 6570SOL    HW131346   0.166   3.365   8.020 -1.3625 -0.1127 -1.6392
 6570SOL    HW231347   0.279   3.282   8.010 -0.4552  0.9293  3.3377
 6571SOL     OW31348   4.228   1.938   2.542 -0.1759 -0.5681 -0.1992
 6571SOL    HW131349   4.274   1.919   2.623  0.6302  1.8140 -0.0939
 6571SOL    HW231350   4.240   1.859   2.490 -1.1912 -0.8840  0.0685
 6572SOL     OW31351   2.143   2.682   6.144 -0.1792  0.6736  0.3250
 6572SOL    HW131352   2.057   2.725   6.146 -0.8603 -0.8350  2.7922
 6572SOL    HW231353   2.114   2.592   6.158  1.5268  0.0442 -0.2573
 6573SOL     OW31354   2.462   2.821   3.357 -0.4000  0.4755  0.7530
 6573SOL    HW131355   2.536   2.881   3.359  1.5357 -1.8980  0.1237
 6573SOL    HW231356   2.419   2.847   3.276  1.7460  2.4021  0.2530
 6574SOL     OW31357   0.683   3.240   6.808  0.2801  0.1727 -0.2887
 6574SOL    HW131358   0.772   3.206   6.814 -0.0079 -0.5637 -0.1850
 6574SOL    HW231359   0.660   3.203   6.723 -1.0812 -0.2432  0.2418
 6575SOL     OW31360   3.246   0.422   9.405 -0.4739 -0.3704  0.0508
 6575SOL    HW131361   3.167   0.458   9.445 -0.7260  0.0833 -0.8526
 6575SOL    HW231362   3.297   0.500   9.384  0.7988 -0.7215  1.7716
 6576SOL     OW31363   3.630   3.587  12.114 -0.4123  0.1036 -0.4365
 6576SOL    HW131364   3.655   3.586  12.022 -0.8335  0.2238 -0.5518
 6576SOL    HW231365   3.537   3.566  12.107 -0.0244 -1.6675 -0.2317
 6577SOL     OW31366   1.182   1.873   8.417  0.5753 -0.2082 -0.3159
 6577SOL    HW131367   1.145   1.872   8.329  2.7185 -2.0592 -1.2321
 6577SOL    HW231368   1.247   1.942   8.404 -3.3411  3.4044 -0.2238
 6578SOL     OW31369   2.171   0.652   5.272  0.3438 -0.2345 -0.3750
 6578SOL    HW131370   2.161   0.738   5.231 -2.3373  0.0612  0.9140
 6578SOL    HW231371   2.263   0.626   5.265  0.9359  1.9633 -0.8399
 6579SOL     OW31372   3.967   3.057  11.492 -0.0413  0.8007 -0.7957
 6579SOL    HW131373   4.002   2.988  11.435  0.5266 -0.3585  0.9791
 6579SOL    HW231374   3.947   3.126  11.428 -0.9028 -3.0234 -4.7087
 6580SOL     OW31375   3.918   4.227   5.350 -0.2906  0.3929  0.1698
 6580SOL    HW131376   3.845   4.252   5.406 -0.5219  1.2703 -0.5185
 6580SOL    HW231377   3.990   4.246   5.410  1.0547  0.3623 -1.4002
 6581SOL     OW31378   1.132   4.527  10.285  0.7161 -0.8733 -0.5214
 6581SOL    HW131379   1.163   4.458  10.344  1.5677  0.4157  0.5418
 6581SOL    HW231380   1.201   4.567  10.232 -0.2723 -0.1641 -1.2703
 6582SOL     OW31381   2.908   0.537   8.537  0.1676 -0.1002 -0.4080
 6582SOL    HW131382   2.951   0.497   8.612 -0.5092  0.6496  0.3695
 6582SOL    HW231383   2.980   0.573   8.484  0.5463 -1.2657 -0.6838
 6583SOL     OW31384   2.663   3.666  11.135  0.0637  0.2654  0.1004
 6583SOL    HW131385   2.702   3.581  11.112  0.0227  0.4774 -0.7601
 6583SOL    HW231386   2.672   3.654  11.230  1.2447 -0.7933 -0.1527
 6584SOL     OW31387   3.718   4.221   5.538 -0.4552 -0.1513 -0.4417
 6584SOL    HW131388   3.642   4.167   5.515  0.8151 -2.3652  0.5583
 6584SOL    HW231389   3.670   4.304   5.535 -0.9592 -0.4359 -0.2707
 6585SOL     OW31390   3.141   2.209  16.570 -0.5530 -0.2963 -0.2677
 6585SOL    HW131391   3.148   2.241  16.480  1.2324 -0.8768 -0.3399
 6585SOL    HW231392   3.081   2.271  16.611 -0.1824 -1.2602  1.7339
 6586SOL     OW31393   0.825   1.202   4.597 -0.0119 -0.2581 -1.0103
 6586SOL    HW131394   0.828   1.204   4.501 -2.2048 -0.4879 -1.0810
 6586SOL    HW231395   0.897   1.144   4.621  1.0577  1.6843  0.4697
 6587SOL     OW31396   3.778   2.213   3.419 -0.3017  0.0409 -0.3873
 6587SOL    HW131397   3.860   2.261   3.410  0.5502 -0.8245  2.7786
 6587SOL    HW231398   3.814   2.125   3.410  1.7303  0.7469  0.8272
 6588SOL     OW31399   3.854   2.956   8.174  0.4082  0.7151  0.5854
 6588SOL    HW131400   3.871   3.024   8.239  1.6862 -1.6471  2.7227
 6588SOL    HW231401   3.927   2.965   8.113 -1.8424 -0.3163 -2.2314
 6589SOL     OW31402   1.587   1.915   6.853  1.0772 -0.6026  0.1342
 6589SOL    HW131403   1.566   2.009   6.848  1.5043 -0.3952  2.1450
 6589SOL    HW231404   1.592   1.880   6.764  0.8592 -0.8069  0.2047
 6590SOL     OW31405   2.444   2.145   7.101 -0.2761 -0.0790 -0.2205
 6590SOL    HW131406   2.384   2.070   7.109 -2.2919  1.1847 -3.6700
 6590SOL    HW231407   2.381   2.215   7.117  1.2129  1.2311 -0.1729
 6591SOL     OW31408   0.831   2.527  17.576 -0.0687  0.0676  0.6231
 6591SOL    HW131409   0.761   2.555  17.516 -0.1493  2.0454  1.6231
 6591SOL    HW231410   0.891   2.602  17.576 -0.3476  0.3013 -0.4638
 6592SOL     OW31411   1.940   4.423   4.713  0.1050  0.0318 -0.1557
 6592SOL    HW131412   1.938   4.419   4.809  0.5352  0.1743 -0.1367
 6592SOL    HW231413   1.863   4.372   4.691 -0.4839  0.5448  0.7485
 6593SOL     OW31414   1.516   0.198  16.320  0.9327 -0.3653 -0.1411
 6593SOL    HW131415   1.496   0.136  16.390  0.3264 -1.3211 -1.1641
 6593SOL    HW231416   1.470   0.154  16.248  1.0366 -0.2732 -0.2645
 6594SOL     OW31417   0.666   0.973   8.000 -0.2299  0.0402 -0.5300
 6594SOL    HW131418   0.632   1.052   8.042  0.6885 -0.1214  0.5326
 6594SOL    HW231419   0.700   1.014   7.920  1.5307 -2.3010 -0.9785
 6595SOL     OW31420   0.339   1.906   6.810 -0.6689 -0.2268 -0.9259
 6595SOL    HW131421   0.328   1.951   6.893 -0.0349  0.3580 -1.1589
 6595SOL    HW231422   0.370   1.823   6.846 -0.5352 -0.1597 -0.8851
 6596SOL     OW31423   3.379   0.240   7.244  0.0149  0.4777  0.6471
 6596SOL    HW131424   3.349   0.197   7.324 -1.1349  0.7528  0.3632
 6596SOL    HW231425   3.306   0.300   7.224 -0.2374 -0.5604 -1.4322
 6597SOL     OW31426   4.423   4.539   7.774 -0.2471  0.1058  0.2078
 6597SOL    HW131427   4.513   4.571   7.770 -0.2745  0.4758  2.6169
 6597SOL    HW231428   4.405   4.517   7.683  1.2162 -0.1089 -0.0273
 6598SOL     OW31429   4.039   3.866  17.002 -0.2403 -0.5508 -0.0710
 6598SOL    HW131430   3.996   3.902  17.080 -1.4723  0.2504 -1.1135
 6598SOL    HW231431   4.068   3.945  16.957  1.2686 -0.2988  1.3642
 6599SOL     OW31432   0.044   0.475   4.371 -0.6204 -0.3438 -0.2304
 6599SOL    HW131433   0.028   0.510   4.284  0.6687  2.8025  0.7860
 6599SOL    HW231434   4.695   0.494   4.410 -0.6348 -1.1176  0.1164
 6600SOL     OW31435   4.504   3.401   1.276 -0.8861 -0.4046 -0.0053
 6600SOL    HW131436   4.530   3.446   1.357 -0.0132  1.8514 -1.5508
 6600SOL    HW231437   4.583   3.354   1.250 -0.3245 -0.6445  2.1132
 6601SOL     OW31438   3.402   1.535   8.738  0.4237  0.2461 -0.6137
 6601SOL    HW131439   3.347   1.613   8.739  0.5886  0.2884  2.9970
 6601SOL    HW231440   3.472   1.566   8.681  2.5837 -1.0896  1.3102
 6602SOL     OW31441   1.565   2.040   2.084  0.0586  0.5061 -0.7615
 6602SOL    HW131442   1.570   2.094   2.163 -0.6471  1.2765 -1.2359
 6602SOL    HW231443   1.472   2.015   2.088 -0.1393  1.2418 -0.7474
 6603SOL     OW31444   1.626   2.031   5.863  0.0648 -0.0766 -0.0380
 6603SOL    HW131445   1.715   2.050   5.834 -0.6103 -1.2641 -2.9078
 6603SOL    HW231446   1.648   2.013   5.955  1.2332  0.4054 -0.2289
 6604SOL     OW31447   0.808   3.682  16.065  0.6875 -0.3966  0.4729
 6604SOL    HW131448   0.810   3.774  16.037 -1.2098  0.3768  2.8262
 6604SOL    HW231449   0.802   3.691  16.160 -2.1188 -0.5054  0.2994
 6605SOL     OW31450   1.044   0.488   2.748 -0.5320 -0.2539  0.4441
 6605SOL    HW131451   1.036   0.524   2.837  0.1741 -2.4606  1.3879
 6605SOL    HW231452   0.952   0.500   2.721 -0.1450 -2.7526 -1.8741
 6606SOL     OW31453   3.537   1.048   6.593 -0.7603 -0.1815 -0.1777
 6606SOL    HW131454   3.469   1.115   6.607  0.2983  0.6329  1.0868
 6606SOL    HW231455   3.498   1.009   6.514  1.2625 -1.0194 -0.7434
 6607SOL     OW31456   3.011   4.110   0.928  0.5321  0.4371 -0.2550
 6607SOL    HW131457   2.940   4.157   0.883 -2.3741 -1.8686  1.9274
 6607SOL    HW231458   3.053   4.192   0.954  0.1133  0.4713  0.3302
 6608SOL     OW31459   2.723   4.388  15.808  0.6924  0.2246  0.2016
 6608SOL    HW131460   2.781   4.431  15.871 -0.0575  0.8588  0.4566
 6608SOL    HW231461   2.744   4.433  15.726 -0.0735  2.3352  1.1534
 6609SOL     OW31462   2.307   3.271  17.391 -0.5152 -0.1917 -0.6765
 6609SOL    HW131463   2.351   3.280  17.307 -2.1292  0.7325 -1.4259
 6609SOL    HW231464   2.342   3.188  17.423  1.2152  0.5965 -0.5521
 6610SOL     OW31465   2.899   1.101   8.823  0.2951  0.2775 -0.0300
 6610SOL    HW131466   2.862   1.012   8.829  0.0688  0.4859  1.7836
 6610SOL    HW231467   2.835   1.156   8.868 -2.7930 -2.0450 -1.5340
 6611SOL     OW31468   1.897   3.520  10.985  0.7009  0.0385  0.0059
 6611SOL    HW131469   1.840   3.560  11.050  0.7578  0.9829 -0.5123
 6611SOL    HW231470   1.841   3.530  10.908  0.5735 -0.4934  0.0322
 6612SOL     OW31471   2.663   1.460   1.860 -0.3934  0.0655 -0.0164
 6612SOL    HW131472   2.743   1.471   1.912  0.7765 -0.3994 -1.6903
 6612SOL    HW231473   2.605   1.502   1.924 -0.2174 -0.6484  0.6117
 6613SOL     OW31474   0.643   4.279  11.279 -0.3246 -0.2516  0.1813
 6613SOL    HW131475   0.565   4.323  11.244  0.3886 -0.0862 -1.1664
 6613SOL    HW231476   0.695   4.358  11.294  0.1574 -0.1812 -1.9416
 6614SOL     OW31477   0.007   3.554   2.488 -0.3965 -0.0891 -0.0779
 6614SOL    HW131478   0.072   3.564   2.557 -1.1349  0.6785  0.5172
 6614SOL    HW231479   4.701   3.470   2.510  1.6594 -0.6988  1.4479
 6615SOL     OW31480   2.401   3.013   5.181  0.4259 -0.4681  0.6710
 6615SOL    HW131481   2.389   3.014   5.276  0.4157  2.1915  0.6450
 6615SOL    HW231482   2.371   2.925   5.156 -0.7016 -0.9905  3.8789
 6616SOL     OW31483   3.472   3.319   1.680 -0.2160  0.6480 -0.1847
 6616SOL    HW131484   3.530   3.362   1.742  1.4556  0.4142 -1.5952
 6616SOL    HW231485   3.535   3.315   1.608 -0.7840 -2.0642 -0.5604
 6617SOL     OW31486   4.018   1.241   6.045 -0.3274  0.0942  0.5340
 6617SOL    HW131487   4.004   1.163   6.098 -0.3343 -0.7501 -0.7274
 6617SOL    HW231488   3.951   1.240   5.977  0.8585  1.7958 -0.6947
 6618SOL     OW31489   1.977   0.590   4.216 -0.3531 -0.2003 -0.1916
 6618SOL    HW131490   2.049   0.608   4.156 -0.1010 -2.7743 -0.6299
 6618SOL    HW231491   2.002   0.657   4.280 -0.2628 -1.4825  1.0962
 6619SOL     OW31492   2.199   1.394  14.715 -0.3519 -0.0019  0.1049
 6619SOL    HW131493   2.213   1.452  14.790  2.6181 -2.0133  1.1057
 6619SOL    HW231494   2.278   1.340  14.723  1.2891  2.4878  0.8043
 6620SOL     OW31495   3.353   0.754  14.323 -0.0742  0.4657  0.3144
 6620SOL    HW131496   3.348   0.704  14.404 -1.1706 -1.2940 -0.8547
 6620SOL    HW231497   3.426   0.728  14.267 -1.1015  0.0325 -0.8039
 6621SOL     OW31498   2.091   4.681  17.496 -0.4782 -0.0608  0.5404
 6621SOL    HW131499   2.011   4.715  17.536 -0.8985  0.0998 -0.4266
 6621SOL    HW231500   2.154   4.725  17.553  0.5131  0.4903 -0.9786
 6622SOL     OW31501   1.551   1.449   5.141 -0.0036 -0.0895 -0.0521
 6622SOL    HW131502   1.624   1.394   5.169  1.4355  1.9904  0.2654
 6622SOL    HW231503   1.493   1.381   5.105  1.1898  0.4758 -3.0490
 6623SOL     OW31504   4.151   3.043   3.128 -0.6294 -0.2891  0.5890
 6623SOL    HW131505   4.246   3.037   3.143 -0.5601 -1.7528 -0.3720
 6623SOL    HW231506   4.161   3.107   3.058 -2.1193 -0.6372  0.0763
 6624SOL     OW31507   0.049   0.890   5.192 -0.0266  0.0172  0.6204
 6624SOL    HW131508   4.701   0.846   5.180 -0.3084  0.5695  0.5598
 6624SOL    HW231509   0.081   0.919   5.107 -0.1825  1.0839  0.9278
 6625SOL     OW31510   3.907   2.135   5.499  0.5493  0.0703  0.2385
 6625SOL    HW131511   3.915   2.081   5.420  0.7847  0.0772  0.2577
 6625SOL    HW231512   3.995   2.135   5.535 -0.6567  0.0141  3.1607
 6626SOL     OW31513   1.832   3.602  10.003 -0.3412  0.9759 -0.3566
 6626SOL    HW131514   1.848   3.510   9.982  2.4678  1.3294  0.1894
 6626SOL    HW231515   1.746   3.622   9.968 -0.4693 -1.3981 -1.3770
 6627SOL     OW31516   0.767   0.211   4.772  0.2545  0.3707 -0.1905
 6627SOL    HW131517   0.835   0.251   4.826  0.1669 -0.4441  0.5231
 6627SOL    HW231518   0.822   0.228   4.695 -0.4116 -0.3281 -0.8260
 6628SOL     OW31519   0.568   0.404   4.792 -0.7619  0.1878  0.0876
 6628SOL    HW131520   0.580   0.495   4.820 -0.4276 -0.7467  2.9853
 6628SOL    HW231521   0.653   0.367   4.815 -1.5280  0.1344  2.7811
 6629SOL     OW31522   2.329   3.525  11.858  0.1789 -0.5908  0.3162
 6629SOL    HW131523   2.372   3.606  11.830 -0.4891 -0.5955 -0.7287
 6629SOL    HW231524   2.260   3.536  11.792 -0.4991  0.8768  1.2740
 6630SOL     OW31525   0.838   1.886   6.581  0.6631  0.4479  0.0003
 6630SOL    HW131526   0.742   1.890   6.587  0.7111  0.8608  0.5075
 6630SOL    HW231527   0.868   1.954   6.641 -0.5714 -0.6360  1.8453
 6631SOL     OW31528   3.695   2.982   6.568  0.0125  0.3278  0.4199
 6631SOL    HW131529   3.638   2.931   6.626  0.4716 -0.0347  0.5537
 6631SOL    HW231530   3.745   2.921   6.513 -0.9402  0.9918 -1.1841
 6632SOL     OW31531   3.601   4.656   4.823 -0.1425 -0.4757  0.1967
 6632SOL    HW131532   3.650   4.650   4.741  0.0957  2.1466  0.1445
 6632SOL    HW231533   3.533   4.589   4.823 -0.6421  0.0380 -0.3390
 6633SOL     OW31534   3.551   1.774   5.720 -0.2009 -0.4955 -0.0479
 6633SOL    HW131535   3.471   1.761   5.771  1.1788 -2.8694  1.4978
 6633SOL    HW231536   3.512   1.788   5.634  1.9311  0.3898 -0.8593
 6634SOL     OW31537   3.224   3.411   5.918 -0.5294  0.0982  0.0437
 6634SOL    HW131538   3.290   3.412   5.848 -1.6331  0.1742 -1.0000
 6634SOL    HW231539   3.222   3.503   5.943 -0.4017 -0.0813  0.7030
 6635SOL     OW31540   2.007   1.954   6.452 -0.0481 -0.5251  0.5789
 6635SOL    HW131541   2.054   1.942   6.370  2.8683 -1.0883  2.3620
 6635SOL    HW231542   2.001   2.049   6.463 -0.2361 -0.4629 -0.0671
 6636SOL     OW31543   2.226   4.717  10.595  0.4759 -0.8295 -0.3583
 6636SOL    HW131544   2.244   0.068  10.629 -1.0771 -0.5305 -0.3433
 6636SOL    HW231545   2.294   4.703  10.528 -1.6304  0.6272 -2.8072
 6637SOL     OW31546   0.681   4.377   8.099 -0.0946  0.2279 -0.0666
 6637SOL    HW131547   0.604   4.369   8.043 -1.2854  3.1242  1.1681
 6637SOL    HW231548   0.647   4.431   8.171 -2.3801  1.3313 -1.9620
 6638SOL     OW31549   2.431   4.403   6.356 -0.0424 -0.1411 -0.2978
 6638SOL    HW131550   2.485   4.368   6.286 -2.1829 -3.7418 -0.1472
 6638SOL    HW231551   2.489   4.408   6.431  0.0058  1.1647 -0.4120
 6639SOL     OW31552   1.706   3.338   8.767 -0.1760  0.4289 -0.4380
 6639SOL    HW131553   1.770   3.367   8.702  0.3750  2.1380  0.8819
 6639SOL    HW231554   1.747   3.352   8.853 -0.7749 -1.6670  0.1904
 6640SOL     OW31555   0.642   3.846   7.579  0.4168 -0.6465 -0.5649
 6640SOL    HW131556   0.581   3.788   7.533  1.1191 -1.5917 -0.3077
 6640SOL    HW231557   0.721   3.841   7.524  0.7318 -2.1615  0.0299
 6641SOL     OW31558   1.396   0.684   1.607  0.1012 -0.1207 -0.3950
 6641SOL    HW131559   1.353   0.760   1.645  1.0787  1.1176 -1.7370
 6641SOL    HW231560   1.425   0.729   1.528 -0.6497 -1.1059 -1.2321
 6642SOL     OW31561   4.575   1.037   4.380  0.1209 -0.4301  0.3678
 6642SOL    HW131562   4.513   0.966   4.365 -0.9938  0.4404  0.8766
 6642SOL    HW231563   4.550   1.097   4.310 -0.9331 -3.6114 -1.9658
 6643SOL     OW31564   4.336   1.530  15.483  0.1220 -0.4730  0.2134
 6643SOL    HW131565   4.386   1.611  15.473  0.2877 -0.7909 -1.6062
 6643SOL    HW231566   4.355   1.475  15.406  2.6691 -0.7396  1.0196
 6644SOL     OW31567   4.342   2.900   4.300  0.0787 -0.1281  0.6872
 6644SOL    HW131568   4.269   2.839   4.293 -0.5832  0.8693 -1.0800
 6644SOL    HW231569   4.408   2.838   4.330  0.5524 -0.0199 -0.1248
 6645SOL     OW31570   3.593   4.602   6.282 -0.1169 -0.3411 -0.4414
 6645SOL    HW131571   3.539   4.585   6.359 -0.4354  0.7682 -0.4191
 6645SOL    HW231572   3.535   4.574   6.212  0.9884 -1.9984 -0.6872
 6646SOL     OW31573   3.079   4.544   2.763  0.5868  0.3163 -0.0973
 6646SOL    HW131574   3.103   4.634   2.741 -0.1348  0.6938  0.6463
 6646SOL    HW231575   3.052   4.549   2.854  1.0703  0.0435  0.0644
 6647SOL     OW31576   4.153   2.553   3.241  0.3139  0.2157  0.0980
 6647SOL    HW131577   4.166   2.636   3.288 -0.1690  0.3011  0.0756
 6647SOL    HW231578   4.238   2.510   3.254  1.1969  1.4641 -1.6240
 6648SOL     OW31579   2.463   3.422   3.244 -0.0286  0.1836 -0.4792
 6648SOL    HW131580   2.535   3.477   3.212 -0.3151  0.2677 -0.9869
 6648SOL    HW231581   2.433   3.394   3.158  1.6467  1.9270 -1.6456
 6649SOL     OW31582   3.486   3.989  12.752 -0.1371  0.0869  0.6141
 6649SOL    HW131583   3.406   3.964  12.798 -1.2636 -1.9636 -2.4627
 6649SOL    HW231584   3.481   4.083  12.734  0.0536  0.0232  0.2206
 6650SOL     OW31585   4.348   0.049  14.197 -0.1174  0.1769  0.1364
 6650SOL    HW131586   4.307   0.104  14.130  1.8573  1.7142  0.2219
 6650SOL    HW231587   4.311   4.698  14.177  1.0955  0.3737 -2.8963
 6651SOL     OW31588   1.815   3.579   7.613 -0.1089  0.0948  0.4626
 6651SOL    HW131589   1.763   3.529   7.676 -1.3004  0.4399 -0.2474
 6651SOL    HW231590   1.888   3.605   7.669 -0.0929 -2.0608  1.4661
 6652SOL     OW31591   4.024   3.207   4.495  0.2817  0.0902 -0.5735
 6652SOL    HW131592   4.092   3.199   4.428  2.6113 -0.4551  1.8203
 6652SOL    HW231593   3.986   3.120   4.484  1.3871 -0.2376 -1.8334
 6653SOL     OW31594   0.406   1.433  13.147 -0.4019 -0.8760  0.3593
 6653SOL    HW131595   0.477   1.370  13.160 -0.1833 -0.7303 -0.1521
 6653SOL    HW231596   0.442   1.505  13.200  0.0310 -0.3026 -0.7261
 6654SOL     OW31597   0.312   1.958   0.053 -0.2468  0.3436 -0.0524
 6654SOL    HW131598   0.299   2.047   0.019 -2.1931 -0.4465 -1.4078
 6654SOL    HW231599   0.395   1.966   0.100 -0.3077 -0.6116  0.2156
 6655SOL     OW31600   0.220   4.508   2.873  0.1988 -0.0890 -0.2483
 6655SOL    HW131601   0.180   4.589   2.843 -1.4282 -0.6655  0.3493
 6655SOL    HW231602   0.185   4.459   2.799 -1.1123  0.8918 -0.2802
 6656SOL     OW31603   1.552   0.380   7.735  0.2695  0.4496 -0.2037
 6656SOL    HW131604   1.588   0.292   7.744  0.3106  0.2850 -1.9574
 6656SOL    HW231605   1.511   0.376   7.648 -1.8410  2.0586  0.7281
 6657SOL     OW31606   2.906   0.654   2.049 -0.8457  0.0981 -0.0187
 6657SOL    HW131607   2.997   0.658   2.019 -0.9552 -1.2775 -0.5305
 6657SOL    HW231608   2.893   0.560   2.061 -1.9009 -0.0251 -2.1371
 6658SOL     OW31609   3.475   1.214   0.530  0.2530  0.3063 -0.0897
 6658SOL    HW131610   3.550   1.167   0.495 -0.9605 -2.2260  0.7003
 6658SOL    HW231611   3.511   1.277   0.592 -1.9451 -1.3928  2.9550
 6659SOL     OW31612   1.292   2.176   2.819  0.5367 -0.1796  0.5295
 6659SOL    HW131613   1.284   2.111   2.888 -0.0788 -0.9469 -0.2656
 6659SOL    HW231614   1.376   2.219   2.835  1.1202 -0.7231 -1.0529
 6660SOL     OW31615   4.411   2.325   6.560  0.0709 -0.9876 -0.6385
 6660SOL    HW131616   4.434   2.250   6.504  1.5734 -0.3881 -0.8288
 6660SOL    HW231617   4.447   2.397   6.507  2.7732 -2.6389 -1.0444
 6661SOL     OW31618   2.982   0.830   8.964  0.1780 -0.4341 -0.2040
 6661SOL    HW131619   3.020   0.743   8.971 -0.8071 -0.5327  3.8159
 6661SOL    HW231620   2.890   0.805   8.957 -0.3837  1.1943  1.3332
 6662SOL     OW31621   4.218   3.309   8.036  0.1653  0.2738 -0.3530
 6662SOL    HW131622   4.302   3.263   8.036  0.0232  0.0133  0.5051
 6662SOL    HW231623   4.196   3.312   8.129 -3.0481 -0.2884 -1.0866
 6663SOL     OW31624   0.066   1.355   4.293  0.2326 -0.0616 -0.1845
 6663SOL    HW131625   0.078   1.337   4.386  0.7441  2.0515  0.1565
 6663SOL    HW231626   4.711   1.380   4.279 -0.1888 -1.7229 -0.4439
 6664SOL     OW31627   3.106   2.849   2.634  1.2536 -0.0499 -0.1175
 6664SOL    HW131628   3.070   2.775   2.586 -0.6135  0.5252  0.3818
 6664SOL    HW231629   3.101   2.813   2.723 -4.6781 -2.8910 -1.5681
 6665SOL     OW31630   2.092   1.011  16.939  0.1195 -0.0039  0.0181
 6665SOL    HW131631   2.037   1.072  16.988 -1.3993  0.4444 -2.2510
 6665SOL    HW231632   2.087   1.063  16.858  0.4234  2.3992  1.5203
 6666SOL     OW31633   2.009   0.284   2.379  0.3647 -0.5710 -0.2352
 6666SOL    HW131634   2.031   0.204   2.331  1.3064 -0.8298  0.6359
 6666SOL    HW231635   2.055   0.280   2.462 -0.4327  0.6384  0.2704
 6667SOL     OW31636   1.529   3.675   2.083 -0.0184 -0.0472  0.0024
 6667SOL    HW131637   1.543   3.724   2.002  0.9255 -0.7496 -0.2552
 6667SOL    HW231638   1.436   3.655   2.080 -0.2481  0.6417  2.2560
 6668SOL     OW31639   3.076   2.966   6.419 -0.5023 -0.0655  0.2604
 6668SOL    HW131640   3.130   3.008   6.352 -0.4197  1.9860  1.5886
 6668SOL    HW231641   2.996   3.020   6.418 -1.9112 -2.1858 -0.8569
 6669SOL     OW31642   1.407   1.039   4.913 -0.1273  0.3958 -0.0684
 6669SOL    HW131643   1.465   0.979   4.961 -0.5486 -0.1341 -0.2268
 6669SOL    HW231644   1.320   1.001   4.923  0.1278 -0.0543  0.4472
 6670SOL     OW31645   3.049   2.004   3.612 -0.3603  0.4262 -0.2949
 6670SOL    HW131646   2.970   2.015   3.665 -0.8882  0.4508 -1.0817
 6670SOL    HW231647   3.043   1.912   3.588  0.0598  0.1562  0.6495
 6671SOL     OW31648   0.247   0.737   7.201 -0.1677 -0.1536  0.4821
 6671SOL    HW131649   0.196   0.753   7.121  0.4418 -0.3468  0.0599
 6671SOL    HW231650   0.279   0.826   7.217  1.0005 -0.3184 -0.9816
 6672SOL     OW31651   1.575   4.595  10.993 -0.1874  0.6252 -0.5415
 6672SOL    HW131652   1.669   4.604  10.977  0.0505  1.0611  1.1390
 6672SOL    HW231653   1.539   4.545  10.919 -2.7841  0.7441  0.6423
 6673SOL     OW31654   2.402   0.883   7.585 -0.3605  0.0681 -0.1209
 6673SOL    HW131655   2.365   0.967   7.612 -1.1336 -0.4633  0.5002
 6673SOL    HW231656   2.367   0.867   7.497  0.4749  1.9425 -0.7883
 6674SOL     OW31657   2.646   0.274   9.403  0.5034 -0.0211 -0.1662
 6674SOL    HW131658   2.585   0.274   9.476 -1.9742 -0.1469 -2.2184
 6674SOL    HW231659   2.720   0.234   9.448 -0.5686 -4.2762 -2.0951
 6675SOL     OW31660   3.592   1.412   1.544 -0.0374  0.6029 -0.3184
 6675SOL    HW131661   3.636   1.402   1.628 -0.9734 -0.6051  0.0360
 6675SOL    HW231662   3.659   1.390   1.479 -0.7201  1.6517 -1.3744
 6676SOL     OW31663   2.950   4.620   4.681  0.4175 -0.1118  0.2403
 6676SOL    HW131664   2.941   4.556   4.752 -2.2373  0.4298  0.3769
 6676SOL    HW231665   2.912   4.701   4.716 -3.0896 -1.9383  0.5929
 6677SOL     OW31666   3.684   1.719   1.698 -0.2090 -0.5732  0.5040
 6677SOL    HW131667   3.700   1.635   1.741  0.9102  0.0547  1.3215
 6677SOL    HW231668   3.691   1.772   1.777  1.0596 -0.0277  0.0264
 6678SOL     OW31669   3.893   0.018   5.863 -0.3312  0.0229  0.0965
 6678SOL    HW131670   3.799   0.027   5.879  0.1075  2.6858  1.1600
 6678SOL    HW231671   3.906   4.659   5.863  4.9822  0.7264 -0.1006
 6679SOL     OW31672   1.240   0.405   8.445 -0.7756  0.0053  0.1514
 6679SOL    HW131673   1.237   0.482   8.388  1.0782  1.2919  1.7635
 6679SOL    HW231674   1.197   0.450   8.518  0.2343  0.1041  0.6944
 6680SOL     OW31675   2.877   2.823  12.113 -0.0922  0.2360 -0.4036
 6680SOL    HW131676   2.854   2.767  12.039  2.4906  0.7504 -1.5998
 6680SOL    HW231677   2.910   2.760  12.176  2.3558  2.4349  0.5060
 6681SOL     OW31678   2.377   4.210   8.318 -0.1372 -0.4614 -0.4765
 6681SOL    HW131679   2.421   4.199   8.234  0.1155 -0.9319 -0.2762
 6681SOL    HW231680   2.427   4.286   8.350  0.7971 -0.8422 -1.0410
 6682SOL     OW31681   1.091   3.639  11.709 -0.2136 -0.6134  0.0106
 6682SOL    HW131682   1.013   3.647  11.653 -0.6537  0.2195  0.7315
 6682SOL    HW231683   1.115   3.732  11.716  1.0814 -0.7860 -2.0307
 6683SOL     OW31684   3.294   2.795   5.124  0.0686  0.1628 -0.9348
 6683SOL    HW131685   3.246   2.859   5.177 -1.0121 -1.2639 -0.1877
 6683SOL    HW231686   3.369   2.788   5.183 -0.1955 -2.4124 -0.9140
 6684SOL     OW31687   0.767   0.285  12.971  0.2542 -0.3316 -0.1576
 6684SOL    HW131688   0.833   0.302  12.904 -0.7245 -0.7270 -1.2323
 6684SOL    HW231689   0.757   0.190  12.976 -1.9992  0.0056  1.7177
 6685SOL     OW31690   3.409   4.298   0.490  0.2078  0.4032  0.1931
 6685SOL    HW131691   3.358   4.261   0.561 -0.7748 -0.0231 -0.7347
 6685SOL    HW231692   3.464   4.219   0.484  1.4302  1.2334  0.3863
 6686SOL     OW31693   3.357   4.377   7.543 -0.2527 -0.0214  0.0135
 6686SOL    HW131694   3.348   4.426   7.626 -0.8925 -2.0756  1.1469
 6686SOL    HW231695   3.339   4.288   7.571 -1.1783  0.9044  2.4253
 6687SOL     OW31696   2.430   3.795  13.110 -0.2449 -0.0625  0.3334
 6687SOL    HW131697   2.447   3.702  13.122 -1.9048 -0.0156  3.2290
 6687SOL    HW231698   2.337   3.797  13.134 -0.3260  0.1046  0.0085
 6688SOL     OW31699   0.786   4.676   5.571  0.3082 -0.5888 -0.7597
 6688SOL    HW131700   0.772   4.610   5.639  2.6679  0.8228  1.1157
 6688SOL    HW231701   0.789   4.624   5.491 -1.2053 -1.5469 -0.1804
 6689SOL     OW31702   1.561   2.197  10.238 -0.4046 -0.1458  0.1649
 6689SOL    HW131703   1.526   2.113  10.267  1.9478 -1.9148 -2.2345
 6689SOL    HW231704   1.485   2.238  10.196  0.6307 -0.3275 -1.8474
 6690SOL     OW31705   1.283   0.574   6.908  0.0732  0.0934  0.4580
 6690SOL    HW131706   1.198   0.577   6.953  0.2519  0.0250  0.8054
 6690SOL    HW231707   1.272   0.636   6.836  0.7978 -0.4490 -0.1177
 6691SOL     OW31708   4.336   3.123  12.830 -0.3340 -0.1918  0.4689
 6691SOL    HW131709   4.410   3.080  12.787  0.0231 -0.1045  0.9900
 6691SOL    HW231710   4.384   3.176  12.894  0.0505  0.9557 -0.7702
 6692SOL     OW31711   0.966   2.271   0.974  0.1146  0.1194  0.2766
 6692SOL    HW131712   0.985   2.296   1.064  2.2218 -1.1600  0.1987
 6692SOL    HW231713   0.872   2.282   0.962  0.2929 -0.1618 -1.4376
 6693SOL     OW31714   4.588   1.470   5.549  0.3458  0.1186 -0.3599
 6693SOL    HW131715   4.675   1.511   5.549 -0.1350  1.1079 -3.2721
 6693SOL    HW231716   4.574   1.483   5.643  0.2745 -1.7285 -0.1161
 6694SOL     OW31717   3.028   2.763   8.943 -0.6190 -0.8687 -0.0466
 6694SOL    HW131718   2.988   2.682   8.913 -0.7407 -1.6684  2.2128
 6694SOL    HW231719   3.109   2.737   8.988  0.6165  0.5710 -1.4288
 6695SOL     OW31720   0.100   1.646   2.323 -0.2005 -0.0534 -0.2539
 6695SOL    HW131721   0.152   1.713   2.367  1.0578 -1.3547  0.2528
 6695SOL    HW231722   0.023   1.637   2.379 -0.7693 -1.8799 -1.2927
 6696SOL     OW31723   2.386   4.202  10.199  0.5358 -0.8788 -0.2854
 6696SOL    HW131724   2.338   4.136  10.249  0.7034 -0.1986  0.7860
 6696SOL    HW231725   2.371   4.287  10.243  1.7356 -1.5042  1.3560
 6697SOL     OW31726   2.116   4.261   8.399  0.5197 -0.1928 -0.0057
 6697SOL    HW131727   2.208   4.249   8.373  0.6737 -1.0066  0.9143
 6697SOL    HW231728   2.098   4.348   8.363 -0.7683  0.8283  3.1206
 6698SOL     OW31729   4.096   2.088   9.172  0.2561  0.1418 -0.0101
 6698SOL    HW131730   4.170   2.085   9.232 -1.1720 -0.9015  1.6828
 6698SOL    HW231731   4.027   2.113   9.232 -0.7502 -1.5884 -0.4624
 6699SOL     OW31732   4.392   0.614   8.331 -0.7681  0.4212  0.4113
 6699SOL    HW131733   4.471   0.662   8.358 -1.0995  1.2318 -0.0757
 6699SOL    HW231734   4.432   0.534   8.297  0.4988  2.0071 -1.8569
 6700SOL     OW31735   1.584   2.253  13.671  0.1277  0.7060  0.5299
 6700SOL    HW131736   1.548   2.237  13.584  1.8607 -0.0535 -0.0437
 6700SOL    HW231737   1.594   2.348  13.659  0.9402  0.4860 -0.4854
 6701SOL     OW31738   0.449   2.306   4.650  0.0313  0.7620  0.3020
 6701SOL    HW131739   0.442   2.391   4.694  1.0699  1.9491 -1.8112
 6701SOL    HW231740   0.383   2.310   4.581  1.4851 -1.2516 -1.2001
 6702SOL     OW31741   2.184   0.257   1.823 -0.6854 -0.3846 -0.7640
 6702SOL    HW131742   2.110   0.318   1.821  0.2306  0.8280  2.5195
 6702SOL    HW231743   2.248   0.328   1.826 -1.5305  0.3684 -0.6703
 6703SOL     OW31744   1.288   1.667   0.028 -0.0241  0.1570 -0.4247
 6703SOL    HW131745   1.198   1.671  17.738 -0.2169 -2.3204 -0.1338
 6703SOL    HW231746   1.329   1.732  17.713 -0.4228 -0.6340 -1.6032
 6704SOL     OW31747   4.361   1.092  15.068 -0.1039  0.1016  0.2225
 6704SOL    HW131748   4.419   1.167  15.077  1.2639 -0.8783 -0.3559
 6704SOL    HW231749   4.296   1.135  15.013 -1.4571 -0.6021  1.2593
 6705SOL     OW31750   1.382   1.430   5.596  0.1596 -0.0352  0.0463
 6705SOL    HW131751   1.308   1.375   5.620  0.0713 -0.6592 -1.7010
 6705SOL    HW231752   1.448   1.364   5.575 -0.3798 -0.5552 -0.0143
 6706SOL     OW31753   3.927   4.390  16.551 -0.2990 -0.1215 -0.2838
 6706SOL    HW131754   3.897   4.334  16.480  0.7098 -1.6875  0.5334
 6706SOL    HW231755   3.849   4.443  16.569  0.4501  0.7028  0.5390
 6707SOL     OW31756   1.253   3.772  15.920 -0.5198  1.0075 -0.2487
 6707SOL    HW131757   1.218   3.820  15.845 -1.4986 -2.6310 -2.1346
 6707SOL    HW231758   1.174   3.731  15.956 -0.1539 -1.0643 -1.7635
 6708SOL     OW31759   3.264   4.262  14.059 -0.6803 -0.3505  0.2366
 6708SOL    HW131760   3.353   4.228  14.061 -1.6216 -2.7681  0.3717
 6708SOL    HW231761   3.242   4.272  13.966 -1.7649  0.9600  0.6345
 6709SOL     OW31762   0.663   4.193   9.043  0.1459  0.8970  0.5084
 6709SOL    HW131763   0.725   4.229   9.107  0.4445  1.7603 -0.2620
 6709SOL    HW231764   0.584   4.197   9.096  0.1413 -0.4006  0.6032
 6710SOL     OW31765   4.581   2.967  12.120 -0.6830  0.6802 -0.3425
 6710SOL    HW131766   4.551   3.051  12.156  0.4711  0.7880  0.3355
 6710SOL    HW231767   4.523   2.964  12.043  0.4802 -0.0734 -1.1821
 6711SOL     OW31768   3.393   2.598   2.063 -0.2741  0.6816  0.1248
 6711SOL    HW131769   3.427   2.669   2.008  0.4554  0.0143 -0.2840
 6711SOL    HW231770   3.315   2.639   2.100 -1.6000 -1.2185 -0.5807
 6712SOL     OW31771   3.864   1.821   7.802  0.4962  0.0865 -0.1701
 6712SOL    HW131772   3.815   1.739   7.802  0.3474  0.1774  0.7382
 6712SOL    HW231773   3.797   1.870   7.754  1.0507 -2.3620 -3.4196
 6713SOL     OW31774   0.816   0.362  11.561  0.3572 -0.1118 -0.4397
 6713SOL    HW131775   0.773   0.360  11.647  5.2604  0.6330  2.0348
 6713SOL    HW231776   0.909   0.353  11.584  0.6187  0.2613 -1.3490
 6714SOL     OW31777   3.700   2.257  15.807 -0.1740  0.2327 -0.2019
 6714SOL    HW131778   3.711   2.194  15.878 -0.3394 -0.4812 -0.8128
 6714SOL    HW231779   3.776   2.314  15.819  1.7358 -1.6450 -3.3678
 6715SOL     OW31780   3.880   1.021   7.221  0.3720  0.3496 -0.5227
 6715SOL    HW131781   3.860   1.103   7.267 -0.5493 -1.6099  2.5616
 6715SOL    HW231782   3.950   0.995   7.280  0.5328  2.4823  0.2366
 6716SOL     OW31783   0.936   0.528  12.398 -0.3353  0.2061 -0.1370
 6716SOL    HW131784   0.965   0.437  12.396  0.3286  0.4088  0.5691
 6716SOL    HW231785   1.024   0.565  12.399 -0.2308 -0.0664  0.7147
 6717SOL     OW31786   4.169   0.950  10.111 -0.2734 -0.0550 -0.1366
 6717SOL    HW131787   4.230   1.022  10.103 -0.7974  0.2690 -1.2945
 6717SOL    HW231788   4.110   0.985  10.178 -1.5464 -1.0673 -0.7223
 6718SOL     OW31789   4.709   2.141  12.951  0.1471 -0.5051 -0.6749
 6718SOL    HW131790   4.652   2.150  13.028  2.4903 -3.1234  1.3788
 6718SOL    HW231791   0.060   2.155  12.989 -0.1859 -1.1529  0.3263
 6719SOL     OW31792   2.073   2.614  10.223  0.3925  0.2835  0.0262
 6719SOL    HW131793   2.117   2.647  10.301  2.0453  1.5540 -1.4462
 6719SOL    HW231794   1.982   2.633  10.243  0.6334  3.0947 -1.5443
 6720SOL     OW31795   1.695   1.727   7.007  0.4333 -0.5126  0.4748
 6720SOL    HW131796   1.632   1.790   6.972  3.2585  1.5486 -0.9420
 6720SOL    HW231797   1.658   1.696   7.089 -2.9825  3.6445  0.4733
 6721SOL     OW31798   2.886   3.350   3.745 -0.1448  0.6724  0.0729
 6721SOL    HW131799   2.951   3.337   3.676 -0.5795  1.1422 -0.4221
 6721SOL    HW231800   2.914   3.439   3.768 -0.6111  0.9758 -0.5289
 6722SOL     OW31801   0.680   1.815  17.052 -0.1203 -0.3327 -0.4226
 6722SOL    HW131802   0.767   1.791  17.019 -1.4747 -2.7620 -2.2085
 6722SOL    HW231803   0.705   1.799  17.143  0.0092  2.6470  0.0851
 6723SOL     OW31804   0.041   0.977   9.317  0.2943 -0.0414  0.0285
 6723SOL    HW131805   0.070   0.889   9.293 -0.9833 -0.3469 -0.3775
 6723SOL    HW231806   0.042   0.971   9.413 -1.5231 -1.7393 -0.0405
 6724SOL     OW31807   2.849   3.078  11.393  0.2740 -0.5857 -0.3056
 6724SOL    HW131808   2.755   3.087  11.403  0.2702 -1.3893  0.4712
 6724SOL    HW231809   2.883   3.158  11.432 -0.9038  0.8072 -2.1637
 6725SOL     OW31810   3.094   1.938  16.361  0.1276  0.1963  0.3852
 6725SOL    HW131811   3.138   1.994  16.298  0.3517 -1.5686 -1.0099
 6725SOL    HW231812   3.106   1.857  16.312 -0.2264 -0.3583  1.2020
 6726SOL     OW31813   3.707   3.123   2.952 -0.1537 -0.1467 -0.1074
 6726SOL    HW131814   3.749   3.117   3.037  0.5831  0.1857 -0.4473
 6726SOL    HW231815   3.623   3.162   2.975 -0.3695 -0.4660 -0.3478
 6727SOL     OW31816   0.243   2.006   3.810 -0.0517 -0.0540  0.2465
 6727SOL    HW131817   0.213   1.939   3.872  1.8468 -0.4323  0.7448
 6727SOL    HW231818   0.334   2.018   3.836 -0.9581  2.9308  2.0165
 6728SOL     OW31819   0.637   3.500   3.128 -0.1735 -0.4854  0.4298
 6728SOL    HW131820   0.718   3.515   3.177  0.0123  1.2088 -0.3752
 6728SOL    HW231821   0.578   3.510   3.202  1.3057  0.2950  1.5145
 6729SOL     OW31822   2.078   0.699   1.789  0.8406 -0.2853 -0.0244
 6729SOL    HW131823   2.080   0.621   1.733  0.5807 -0.2522 -0.0809
 6729SOL    HW231824   2.161   0.742   1.772  0.9487 -1.5024 -2.5444
 6730SOL     OW31825   3.964   1.039   4.056  0.5198  0.4404 -0.3641
 6730SOL    HW131826   4.044   1.049   4.107  0.4544 -2.4020  0.3348
 6730SOL    HW231827   3.982   0.951   4.022 -2.7715 -1.1103  1.8775
 6731SOL     OW31828   2.793   3.543   6.742  0.3625 -0.3497  0.0651
 6731SOL    HW131829   2.834   3.586   6.817 -1.5163  0.1998  0.8002
 6731SOL    HW231830   2.708   3.587   6.741  1.5935  1.9144 -1.9594
 6732SOL     OW31831   0.603   3.206  15.297 -0.2309 -0.2517 -0.6386
 6732SOL    HW131832   0.692   3.184  15.270 -0.0614 -0.1715 -0.1384
 6732SOL    HW231833   0.571   3.133  15.350  1.8574  0.1214  1.1475
 6733SOL     OW31834   0.964   4.375   6.028  0.2830 -0.0584  0.1289
 6733SOL    HW131835   0.907   4.384   6.104  0.4076 -1.8451  0.4318
 6733SOL    HW231836   0.922   4.299   5.987 -1.4089  0.2306  1.3159
 6734SOL     OW31837   2.142   4.439  17.565  0.2610 -0.2437 -1.2032
 6734SOL    HW131838   2.114   4.524  17.532 -1.8033 -0.5915 -0.3230
 6734SOL    HW231839   2.235   4.448  17.543  0.0250  0.7808 -1.8006
 6735SOL     OW31840   0.955   1.670   0.434  0.0474  0.1030 -0.0737
 6735SOL    HW131841   0.871   1.649   0.474 -0.4130  1.3918 -0.3328
 6735SOL    HW231842   0.934   1.721   0.355  0.5809  0.8803  0.2905
 6736SOL     OW31843   1.261   2.625   2.213  0.1392 -0.3544 -0.1866
 6736SOL    HW131844   1.231   2.588   2.129 -3.3347  0.2528  0.7834
 6736SOL    HW231845   1.184   2.659   2.258  0.6632 -1.4713  1.5184
 6737SOL     OW31846   2.935   0.774   5.017 -0.1579  0.1585 -0.0995
 6737SOL    HW131847   2.871   0.710   4.984 -1.5354  0.6406  1.6472
 6737SOL    HW231848   2.932   0.752   5.110 -1.0643  1.6132  0.2197
 6738SOL     OW31849   0.441   4.494  15.761  0.3015  0.2034  0.4843
 6738SOL    HW131850   0.382   4.565  15.736  0.1411 -0.5245 -1.1707
 6738SOL    HW231851   0.508   4.487  15.692 -0.2394 -1.7394  0.1576
 6739SOL     OW31852   0.773   0.524   6.919 -0.1577  0.3803  0.1669
 6739SOL    HW131853   0.815   0.456   6.867  1.1645  1.3232  0.0258
 6739SOL    HW231854   0.737   0.587   6.858  3.0610  1.1681 -0.9047
 6740SOL     OW31855   2.218   3.832   8.078  0.0498  0.3530  0.0335
 6740SOL    HW131856   2.167   3.913   8.081 -0.8505 -0.2899  2.1476
 6740SOL    HW231857   2.227   3.805   8.169 -1.2945 -2.8599 -0.7777
 6741SOL     OW31858   3.177   0.237  11.403  0.3837  0.0570  0.2275
 6741SOL    HW131859   3.144   0.313  11.451 -1.0473 -1.2445  1.2883
 6741SOL    HW231860   3.219   0.192  11.476 -0.3801  1.5715  1.5863
 6742SOL     OW31861   3.166   3.819   3.581 -0.0992 -0.3057 -0.2802
 6742SOL    HW131862   3.149   3.815   3.487  1.2798 -2.6809 -0.4287
 6742SOL    HW231863   3.224   3.743   3.584 -0.0215 -0.2758 -0.9059
 6743SOL     OW31864   4.669   1.222   3.275 -0.1385  0.0412  0.2718
 6743SOL    HW131865   4.573   1.215   3.282 -0.3699  0.7586 -1.9546
 6743SOL    HW231866   4.684   1.306   3.319 -0.7544 -0.8327  2.1530
 6744SOL     OW31867   4.456   3.784  11.135  0.0092 -0.0534  0.3210
 6744SOL    HW131868   4.483   3.710  11.189 -1.0991  0.5745  1.7371
 6744SOL    HW231869   4.386   3.828  11.183 -0.0209  0.3217 -0.0738
 6745SOL     OW31870   4.124   1.889   8.161  0.4873  0.4190  0.0273
 6745SOL    HW131871   4.134   1.796   8.179  1.2540  0.0405 -2.3859
 6745SOL    HW231872   4.069   1.919   8.233 -2.0265  0.0536 -1.7373
 6746SOL     OW31873   4.409   3.996   0.484  0.0659  0.2733 -0.1928
 6746SOL    HW131874   4.326   3.959   0.513 -0.1236  1.0786  0.2695
 6746SOL    HW231875   4.444   3.933   0.420 -0.7281 -0.0480 -0.3057
 6747SOL     OW31876   3.649   1.469   6.368  0.0108 -0.2219 -0.1696
 6747SOL    HW131877   3.648   1.375   6.381  0.1657 -0.2540 -0.3885
 6747SOL    HW231878   3.633   1.503   6.456  1.2180  0.5579 -0.2474
 6748SOL     OW31879   0.749   2.683   3.176 -0.0699  0.5839  0.4183
 6748SOL    HW131880   0.756   2.588   3.167  0.3762  0.7849 -1.5116
 6748SOL    HW231881   0.831   2.700   3.222  0.0858  0.5973  0.1428
 6749SOL     OW31882   1.712   0.966   5.949  0.5666 -0.9411 -0.6686
 6749SOL    HW131883   1.739   0.961   6.041 -1.1499  3.6783  0.1061
 6749SOL    HW231884   1.797   0.953   5.909  0.9764 -1.2440  0.2935
 6750SOL     OW31885   3.287   1.342   3.256  0.2855  0.6985  0.4849
 6750SOL    HW131886   3.317   1.297   3.176  2.3092  0.7146  1.2463
 6750SOL    HW231887   3.356   1.313   3.314  0.9064 -1.9141 -1.5292
 6751SOL     OW31888   0.451   3.354   7.986 -0.4298 -0.2739 -0.2751
 6751SOL    HW131889   0.520   3.419   7.996  0.1721 -1.1675  1.2337
 6751SOL    HW231890   0.496   3.282   8.030 -0.2634  0.3131  0.5062
 6752SOL     OW31891   3.082   3.558  11.034 -0.2867  0.0597  0.2979
 6752SOL    HW131892   3.111   3.507  11.109 -0.9964 -1.9985 -0.8323
 6752SOL    HW231893   3.136   3.511  10.972 -0.4191  1.6294 -1.0187
 6753SOL     OW31894   4.562   0.875   0.469  0.2667  0.7939  0.2294
 6753SOL    HW131895   4.602   0.930   0.537 -0.1108 -0.2048  1.2563
 6753SOL    HW231896   4.560   0.945   0.404  1.3025  1.0947  0.5129
 6754SOL     OW31897   2.618   4.099   4.697  0.2586  0.2733  0.2459
 6754SOL    HW131898   2.637   4.191   4.680  0.4728  0.5420  1.8719
 6754SOL    HW231899   2.545   4.090   4.636  0.8686  2.8605 -0.8880
 6755SOL     OW31900   4.717   4.159   0.365 -0.3564 -0.1237 -0.1845
 6755SOL    HW131901   0.057   4.101   0.358 -0.4399 -0.4733  1.8072
 6755SOL    HW231902   4.678   4.177   0.279  3.7079 -0.5531 -2.1308
 6756SOL     OW31903   1.475   1.590  11.345 -0.1928  0.9519  0.0969
 6756SOL    HW131904   1.497   1.680  11.367  0.0076  0.7417  0.7655
 6756SOL    HW231905   1.496   1.583  11.252 -0.5921 -0.7172  0.1242
 6757SOL     OW31906   4.277   4.453   4.462  0.6169 -0.4036  0.2542
 6757SOL    HW131907   4.248   4.503   4.539  0.7761 -0.9293  0.6569
 6757SOL    HW231908   4.297   4.368   4.501  2.0788 -1.4650 -2.8217
 6758SOL     OW31909   2.475   1.918  16.553  0.0615 -0.4596  0.2228
 6758SOL    HW131910   2.506   1.939  16.465  0.3337  1.2451  0.7126
 6758SOL    HW231911   2.394   1.870  16.537 -0.5765  0.6651  0.1019
 6759SOL     OW31912   1.224   2.481   8.593  0.4734  0.2368 -0.4873
 6759SOL    HW131913   1.134   2.511   8.581  0.2101  0.0530  1.0747
 6759SOL    HW231914   1.263   2.568   8.585  2.6743 -0.5679  1.2488
 6760SOL     OW31915   1.271   0.870  15.044  0.2719 -0.3059  0.2571
 6760SOL    HW131916   1.261   0.782  15.081 -1.8096  0.0044  0.4189
 6760SOL    HW231917   1.214   0.915  15.106 -1.1265  0.7524 -1.8090
 6761SOL     OW31918   4.568   3.354  15.821 -0.0792 -0.2925 -0.3430
 6761SOL    HW131919   4.598   3.444  15.835  0.0883 -0.1470 -1.6572
 6761SOL    HW231920   4.480   3.348  15.858 -0.2637 -0.7133 -0.8656
 6762SOL     OW31921   3.255   4.594   7.062 -0.4773 -0.1866  0.0898
 6762SOL    HW131922   3.272   4.501   7.076  2.5204  0.0890 -1.6115
 6762SOL    HW231923   3.252   4.625   7.153 -0.8037  0.3876 -0.1187
 6763SOL     OW31924   0.509   1.009   5.601  0.0704 -0.5510  0.2732
 6763SOL    HW131925   0.419   1.012   5.567  0.2162 -0.2828 -0.0904
 6763SOL    HW231926   0.549   1.076   5.546  2.0322 -2.9806 -1.2131
 6764SOL     OW31927   1.698   0.328   4.350 -0.4130 -0.0530  0.2177
 6764SOL    HW131928   1.698   0.387   4.275  2.6087 -0.5570 -0.1816
 6764SOL    HW231929   1.769   0.267   4.331 -0.2435  0.5617 -1.1294
 6765SOL     OW31930   2.702   1.265   8.055  0.6265 -0.2035  0.2087
 6765SOL    HW131931   2.793   1.274   8.082  0.4411 -1.1826  1.1505
 6765SOL    HW231932   2.688   1.176   8.089 -1.3809 -0.5443 -1.4745
 6766SOL     OW31933   2.501   2.249   3.109  0.5217  0.0210  0.0612
 6766SOL    HW131934   2.537   2.338   3.111  1.5391 -0.3754 -0.4584
 6766SOL    HW231935   2.575   2.200   3.145  0.2345 -2.2025 -2.4087
 6767SOL     OW31936   3.861   1.745  16.671  0.5381  0.2171 -0.1241
 6767SOL    HW131937   3.810   1.724  16.749 -1.0627  2.4510 -0.5710
 6767SOL    HW231938   3.901   1.658  16.657 -1.1122 -0.6234  0.3819
 6768SOL     OW31939   2.309   2.839   0.925 -0.0793  0.0812 -0.3045
 6768SOL    HW131940   2.266   2.877   1.001 -0.0494 -1.0014  0.2532
 6768SOL    HW231941   2.241   2.796   0.873 -0.1505 -0.7108  0.4537
 6769SOL     OW31942   1.463   1.628  17.288  0.1668 -0.0516  0.0279
 6769SOL    HW131943   1.493   1.718  17.282  1.7027 -0.5024  1.0941
 6769SOL    HW231944   1.372   1.635  17.260  0.0493  0.4031  0.5381
 6770SOL     OW31945   1.107   2.549   6.728  0.1861 -0.2992 -0.3275
 6770SOL    HW131946   1.145   2.491   6.662  1.3409 -2.0349  1.8705
 6770SOL    HW231947   1.082   2.481   6.791  0.4160 -0.1059 -0.0282
 6771SOL     OW31948   1.612   3.059   5.382 -0.3487 -0.1429  0.4253
 6771SOL    HW131949   1.549   3.067   5.454  0.2125  0.0047  0.9058
 6771SOL    HW231950   1.666   3.139   5.384  2.3828 -1.9863  1.1661
 6772SOL     OW31951   0.538   1.204   7.761  0.0959  0.0077  0.3386
 6772SOL    HW131952   0.570   1.242   7.843 -2.7963  2.3887  0.3432
 6772SOL    HW231953   0.617   1.150   7.757 -0.2872 -0.5257  0.0284
 6773SOL     OW31954   0.088   0.600  13.199 -0.0988  0.2062 -0.3208
 6773SOL    HW131955   0.054   0.677  13.245  2.2651 -0.3327  2.3070
 6773SOL    HW231956   0.180   0.620  13.187 -0.2234  0.8798 -0.1224
 6774SOL     OW31957   4.111   3.937   4.694 -0.2772  0.3167  0.2964
 6774SOL    HW131958   4.108   3.930   4.599 -0.2926 -1.2849  0.4171
 6774SOL    HW231959   4.188   3.884   4.714 -0.8496 -1.0897 -1.2347
 6775SOL     OW31960   0.592   1.671  11.403 -0.9923  0.1524  0.1164
 6775SOL    HW131961   0.638   1.613  11.343  0.4487  1.3556  0.0612
 6775SOL    HW231962   0.649   1.748  11.398 -0.2989 -0.3642  0.1599
 6776SOL     OW31963   4.264   0.620   1.754  0.6246 -0.4112 -0.1602
 6776SOL    HW131964   4.286   0.558   1.685  1.5472 -0.4794  0.1925
 6776SOL    HW231965   4.332   0.687   1.749 -0.8053  0.9080 -1.5370
 6777SOL     OW31966   0.084   0.623   2.234 -0.0951 -0.1635 -0.1953
 6777SOL    HW131967   0.045   0.623   2.321  1.8569 -0.0328  0.6688
 6777SOL    HW231968   0.061   0.536   2.202 -0.4167 -0.1170 -0.0902
 6778SOL     OW31969   4.303   3.603  16.215  0.2152  0.1104  0.1536
 6778SOL    HW131970   4.385   3.607  16.165 -1.5775  0.7621 -2.7154
 6778SOL    HW231971   4.256   3.547  16.155  3.4548 -0.4903 -1.8112
 6779SOL     OW31972   2.301   0.494   3.253 -0.0375  0.1275 -0.5433
 6779SOL    HW131973   2.308   0.539   3.338 -1.7904  1.1585 -0.9644
 6779SOL    HW231974   2.208   0.497   3.230 -0.6811 -1.8716  1.8109
 6780SOL     OW31975   0.805   0.020   1.394  0.0842  0.3284 -0.3553
 6780SOL    HW131976   0.879   0.072   1.426  2.2878 -2.0805 -1.5509
 6780SOL    HW231977   0.808   4.688   1.462 -0.0265  3.1490  2.5145
 6781SOL     OW31978   3.210   2.702   7.796  0.0851 -0.5931  0.0949
 6781SOL    HW131979   3.154   2.761   7.745  0.3612 -0.6324 -0.2598
 6781SOL    HW231980   3.236   2.757   7.869 -0.2658  1.9258 -1.6606
 6782SOL     OW31981   3.520   1.038   4.723 -0.0326  0.2170 -0.0032
 6782SOL    HW131982   3.593   1.000   4.772 -0.4630  0.8340  1.1205
 6782SOL    HW231983   3.518   0.981   4.646  0.7613 -0.6339  0.6121
 6783SOL     OW31984   2.928   2.807   2.323  0.3408 -0.0349  0.0624
 6783SOL    HW131985   2.860   2.822   2.388 -1.0441 -0.0125 -1.4154
 6783SOL    HW231986   2.883   2.759   2.254  4.3213 -1.7116 -1.4065
 6784SOL     OW31987   0.661   1.083   0.018  0.4108 -0.2018 -0.4860
 6784SOL    HW131988   0.674   1.053   0.108  0.7327 -1.9059 -1.0858
 6784SOL    HW231989   0.583   1.138   0.025  1.3428  1.0836 -0.2788
 6785SOL     OW31990   1.080   0.733   5.059  0.2427  0.0268 -0.5219
 6785SOL    HW131991   1.115   0.822   5.056 -2.4612  1.0626 -1.3276
 6785SOL    HW231992   1.111   0.701   4.974 -1.7461 -2.0449 -0.4514
 6786SOL     OW31993   0.416   1.488   0.010  0.3397 -0.1416  0.2631
 6786SOL    HW131994   0.449   1.490   0.100 -1.0783 -0.7869  0.8057
 6786SOL    HW231995   0.345   1.550   0.027 -0.0542 -0.0116 -1.8196
 6787SOL     OW31996   2.911   0.266   7.331  0.4023  0.3630 -0.1717
 6787SOL    HW131997   2.885   0.273   7.422  0.3346  1.1951 -0.2565
 6787SOL    HW231998   2.934   0.173   7.339 -0.0366  0.5043  2.4696
 6788SOL     OW31999   4.553   4.199   1.420 -0.9305 -0.5522  0.4606
 6788SOL    HW132000   4.522   4.250   1.345  2.4382 -0.8202 -1.0885
 6788SOL    HW232001   4.470   4.186   1.466  0.4667 -0.3015  3.0231
 6789SOL     OW32002   1.743   2.984   7.742 -0.2341  0.4421 -0.3697
 6789SOL    HW132003   1.808   2.979   7.672  0.2302  1.1898  0.0076
 6789SOL    HW232004   1.780   3.046   7.805  1.1000 -0.2888 -0.4249
 6790SOL     OW32005   2.509   1.422   5.047 -0.3354 -0.8118 -0.0846
 6790SOL    HW132006   2.554   1.499   5.083 -1.5951  0.1570 -0.5742
 6790SOL    HW232007   2.508   1.450   4.955  2.7691  1.4471  0.5235
 6791SOL     OW32008   1.257   1.477   4.618 -0.9003  0.1777  0.1186
 6791SOL    HW132009   1.352   1.468   4.629 -0.5936  2.4368 -0.7665
 6791SOL    HW232010   1.244   1.431   4.535 -3.4181  0.7521  0.1795
 6792SOL     OW32011   1.759   3.992   6.619  0.2043 -0.0518  0.1783
 6792SOL    HW132012   1.710   4.043   6.683  1.2724  1.1349  0.0655
 6792SOL    HW232013   1.845   3.972   6.658  0.7096 -0.1483 -0.9879
 6793SOL     OW32014   0.667   1.707   5.164 -0.0500 -0.3785  0.6330
 6793SOL    HW132015   0.690   1.744   5.248 -1.6986  1.7262  0.1536
 6793SOL    HW232016   0.591   1.659   5.196 -1.8642  1.5284 -0.8538
 6794SOL     OW32017   0.006   2.998   1.084 -0.3011 -0.1313  0.1205
 6794SOL    HW132018   4.669   3.061   1.087 -0.4701 -0.2329 -1.5101
 6794SOL    HW232019   4.692   2.917   1.078  1.6085 -1.1988 -1.3440
 6795SOL     OW32020   3.352   4.404   2.985  0.3540  0.3393 -0.5802
 6795SOL    HW132021   3.387   4.458   2.914  2.5153 -0.3417 -0.0469
 6795SOL    HW232022   3.263   4.436   2.999  0.1020  0.3860 -2.2796
 6796SOL     OW32023   4.105   3.575  12.776 -0.2036 -0.4459  0.2189
 6796SOL    HW132024   4.106   3.545  12.867  2.0874 -0.5348  0.1477
 6796SOL    HW232025   4.035   3.520  12.740 -0.3029  0.8735 -1.5844
 6797SOL     OW32026   0.499   1.777   7.787 -0.1711  0.3801  0.4348
 6797SOL    HW132027   0.529   1.866   7.767  0.1824 -0.3517 -2.3718
 6797SOL    HW232028   0.584   1.737   7.805 -1.4369 -1.9350  1.1735
 6798SOL     OW32029   1.678   2.381   0.250 -0.3615  0.6959 -0.2528
 6798SOL    HW132030   1.728   2.458   0.222  0.6863 -0.6273 -2.0204
 6798SOL    HW232031   1.600   2.425   0.283  0.2846  2.3790 -0.9269
 6799SOL     OW32032   4.039   4.713   7.529  0.2235  0.1567  0.8820
 6799SOL    HW132033   4.005   4.661   7.602  0.7743 -1.6556 -0.1282
 6799SOL    HW232034   4.128   4.682   7.509  0.2297 -0.1536  1.3869
 6800SOL     OW32035   3.981   1.047  10.660 -0.5866  0.6570  0.8424
 6800SOL    HW132036   4.000   1.091  10.743 -0.1138  2.7239 -0.3636
 6800SOL    HW232037   3.909   1.101  10.627  0.0305  1.7136  1.2355
 6801SOL     OW32038   0.057   3.221   1.470  0.3019 -0.1672  0.6542
 6801SOL    HW132039   4.715   3.272   1.493  0.0415 -0.3322  0.1384
 6801SOL    HW232040   0.103   3.211   1.553 -0.6818 -3.3311  0.7971
 6802SOL     OW32041   2.083   2.710   0.199  0.1717 -0.5156  0.0474
 6802SOL    HW132042   2.171   2.695   0.165  0.1580 -0.0545 -0.1876
 6802SOL    HW232043   2.098   2.746   0.287 -0.1461  1.7302 -0.8183
 6803SOL     OW32044   4.360   0.027   4.109  0.1705 -0.4882  0.2691
 6803SOL    HW132045   4.427   0.054   4.046  2.0619 -2.2638  1.4978
 6803SOL    HW232046   4.297   0.098   4.102  1.2990  0.3593 -1.2653
 6804SOL     OW32047   0.949   0.851   5.645 -0.0661  0.3228  0.4675
 6804SOL    HW132048   1.003   0.822   5.572 -0.5360 -1.2948  0.7535
 6804SOL    HW232049   1.004   0.862   5.723 -1.8313 -1.1949  1.9256
 6805SOL     OW32050   3.726   0.098   6.213 -0.0310  0.1537 -0.0298
 6805SOL    HW132051   3.688   0.013   6.236  2.1063 -0.2946  1.8826
 6805SOL    HW232052   3.810   0.087   6.259 -1.2923 -0.2633  2.1904
 6806SOL     OW32053   1.785   3.593   2.460  0.1032  0.0544 -0.0382
 6806SOL    HW132054   1.779   3.677   2.507  0.8587  0.1127 -0.0417
 6806SOL    HW232055   1.873   3.608   2.426  0.1838 -0.9766 -0.2668
 6807SOL     OW32056   3.354   1.738  17.202 -0.3254  0.1906 -0.2952
 6807SOL    HW132057   3.343   1.785  17.119 -2.1201  2.1001  1.0068
 6807SOL    HW232058   3.297   1.787  17.262 -0.2564  0.2189 -0.2527
 6808SOL     OW32059   0.091   1.153   3.082 -0.1162 -1.0756 -0.0721
 6808SOL    HW132060   0.063   1.068   3.050 -1.3519 -0.4598 -0.6112
 6808SOL    HW232061   0.023   1.173   3.146  1.6181  1.4925  0.9851
 6809SOL     OW32062   2.419   2.083   7.859  0.1100 -0.6684 -0.8184
 6809SOL    HW132063   2.387   2.006   7.907 -0.7274  0.1664 -0.0444
 6809SOL    HW232064   2.336   2.129   7.853  0.4774 -0.2088 -2.2781
 6810SOL     OW32065   0.814   0.104  10.422 -0.5819 -0.2264 -0.0032
 6810SOL    HW132066   0.762   0.042  10.474  0.8153  2.0077  3.9994
 6810SOL    HW232067   0.743   0.134  10.364 -0.2146 -0.1494 -0.4092
 6811SOL     OW32068   1.421   1.290   1.985  0.0148  0.2349  0.0407
 6811SOL    HW132069   1.480   1.365   1.996  0.3548 -0.0862  0.3899
 6811SOL    HW232070   1.359   1.316   1.917 -2.5826 -0.4011  2.1874
 6812SOL     OW32071   0.274   2.831   7.871  0.2091  0.9373  0.0118
 6812SOL    HW132072   0.342   2.896   7.889  1.4329 -0.0786 -0.9206
 6812SOL    HW232073   0.200   2.882   7.904  0.3186  1.0431  0.0911
 6813SOL     OW32074   0.177   2.662   7.693 -0.0687 -0.3007  0.4100
 6813SOL    HW132075   0.116   2.630   7.760  0.2439 -0.8618  0.4267
 6813SOL    HW232076   0.227   2.730   7.739  0.4801 -1.9126  2.2016
 6814SOL     OW32077   2.579   1.533  12.958 -0.0908  0.2369 -0.4253
 6814SOL    HW132078   2.674   1.525  12.949  0.3374  1.3302  3.0736
 6814SOL    HW232079   2.553   1.540  12.866 -1.1805  1.5732 -0.0055
 6815SOL     OW32080   1.938   3.446   1.716  0.1728 -0.4037  0.2459
 6815SOL    HW132081   1.994   3.374   1.688  0.2372  0.0452 -0.7969
 6815SOL    HW232082   1.979   3.448   1.802 -0.7155 -0.0484  0.6613
 6816SOL     OW32083   3.916   0.564   6.817 -0.3987 -0.4415 -0.3006
 6816SOL    HW132084   3.857   0.548   6.891 -0.1395  0.6459  0.1540
 6816SOL    HW232085   3.964   0.632   6.865  0.9245 -0.1794 -1.9946
 6817SOL     OW32086   3.677   0.051   8.473  0.4073  0.2903  0.1451
 6817SOL    HW132087   3.674   0.146   8.469 -0.8573  0.2138 -0.4138
 6817SOL    HW232088   3.583   0.034   8.477  0.3199  0.5808 -0.6819
 6818SOL     OW32089   1.915   4.346   6.368  0.0645  0.3744 -0.0772
 6818SOL    HW132090   1.943   4.406   6.299  0.4598  0.2254 -0.0448
 6818SOL    HW232091   1.970   4.370   6.442 -0.0323 -0.3512  0.2241
 6819SOL     OW32092   2.648   0.678  12.391 -0.3663  0.2729  0.5224
 6819SOL    HW132093   2.665   0.767  12.360  0.2214  0.4227  1.2603
 6819SOL    HW232094   2.671   0.678  12.484 -0.2888 -1.4182  0.5031
 6820SOL     OW32095   2.511   4.430  17.252 -0.0432 -0.5874  0.2949
 6820SOL    HW132096   2.520   4.465  17.341  0.2840  0.9451 -0.3320
 6820SOL    HW232097   2.442   4.365  17.264  0.3356 -0.7617  1.5058
 6821SOL     OW32098   3.612   1.800  17.651  0.2354 -0.3752 -0.1892
 6821SOL    HW132099   3.628   1.706  17.655  1.7141 -0.0594  1.0371
 6821SOL    HW232100   3.579   1.798  17.561 -0.3213  2.2975 -0.0655
 6822SOL     OW32101   1.154   0.196  12.906 -0.0406 -1.0378 -0.3999
 6822SOL    HW132102   1.169   0.291  12.904 -0.7203 -0.9132  0.5820
 6822SOL    HW232103   1.218   0.172  12.839  1.3321 -1.1653  0.9654
 6823SOL     OW32104   1.102   1.703   4.657 -0.1649  0.2010  1.0722
 6823SOL    HW132105   1.014   1.681   4.686 -0.6224  0.4825 -0.0904
 6823SOL    HW232106   1.157   1.625   4.665 -1.1255 -0.5326  0.5530
 6824SOL     OW32107   4.339   3.794  11.395 -0.3121 -0.2331 -0.6582
 6824SOL    HW132108   4.259   3.751  11.362 -0.5454  0.0494 -0.4539
 6824SOL    HW232109   4.313   3.883  11.419 -1.9468 -1.0282  0.5486
 6825SOL     OW32110   0.113   0.811   2.914 -0.6180 -0.8128 -0.5291
 6825SOL    HW132111   0.075   0.804   3.001  0.4581  1.3762  0.1111
 6825SOL    HW232112   0.194   0.859   2.934 -0.7376 -0.4355 -0.9543
 6826SOL     OW32113   3.151   1.513   7.094  0.0375  0.3174  0.4196
 6826SOL    HW132114   3.212   1.551   7.157  0.2393  1.0293 -0.2058
 6826SOL    HW232115   3.077   1.573   7.103 -0.4055 -0.2626  0.6675
 6827SOL     OW32116   4.112   3.493   4.952 -0.1751  0.0658  0.1841
 6827SOL    HW132117   4.043   3.491   5.017 -1.2603 -1.8257 -1.0281
 6827SOL    HW232118   4.185   3.450   4.998  0.7305  2.7032  1.2024
 6828SOL     OW32119   2.665   3.468   9.814 -0.4921 -0.2572 -0.0328
 6828SOL    HW132120   2.619   3.442   9.733  0.3449 -3.2082  0.4565
 6828SOL    HW232121   2.587   3.478   9.869 -0.6094  0.4406 -0.3238
 6829SOL     OW32122   4.285   2.858  13.197 -0.4427 -0.2198 -0.2454
 6829SOL    HW132123   4.277   2.952  13.183 -0.3976  0.1651  2.2641
 6829SOL    HW232124   4.374   2.843  13.164 -0.2421  1.0388 -0.2564
 6830SOL     OW32125   2.413   3.532   9.506  0.4836 -0.1981  0.3323
 6830SOL    HW132126   2.422   3.467   9.576  0.1978 -0.2760  0.2989
 6830SOL    HW232127   2.428   3.473   9.433  0.3499 -0.7898  0.7759
 6831SOL     OW32128   2.087   0.381   0.005  0.3357  0.1970 -0.4758
 6831SOL    HW132129   2.140   0.376   0.085  0.6214 -0.3629 -0.6963
 6831SOL    HW232130   2.012   0.335   0.045  0.2671  0.6481 -0.0863
 6832SOL     OW32131   1.455   4.569   1.422  0.5298  0.2422  0.5122
 6832SOL    HW132132   1.480   4.620   1.499 -2.8833 -0.3521  2.0256
 6832SOL    HW232133   1.492   4.482   1.436 -3.7987 -1.8564 -1.0189
 6833SOL     OW32134   0.452   1.545   2.662  0.4416 -0.4628 -0.1215
 6833SOL    HW132135   0.382   1.608   2.678 -0.2234 -1.6062  1.4906
 6833SOL    HW232136   0.453   1.553   2.567  0.4883 -2.2393 -0.2630
 6834SOL     OW32137   2.301   1.028   3.412 -0.6244  0.7164  0.2771
 6834SOL    HW132138   2.386   1.071   3.418 -0.9364  1.5350 -1.0668
 6834SOL    HW232139   2.332   0.953   3.362 -0.0285  0.2614  1.3371
 6835SOL     OW32140   1.576   4.223   7.791 -0.5273 -0.4480  0.4078
 6835SOL    HW132141   1.621   4.254   7.712  0.3560  0.4968  1.2749
 6835SOL    HW232142   1.601   4.282   7.862 -0.9367  1.3970 -0.9700
 6836SOL     OW32143   3.244   2.515  12.459  0.1826  0.6208  0.3760
 6836SOL    HW132144   3.176   2.546  12.519 -0.1575 -2.4094  1.5581
 6836SOL    HW232145   3.223   2.581  12.393 -1.6061  0.3686  0.6953
 6837SOL     OW32146   0.883   4.339   9.145 -0.2954  0.2965 -0.2309
 6837SOL    HW132147   0.884   4.415   9.204 -1.6312  1.0293 -1.1501
 6837SOL    HW232148   0.951   4.369   9.084 -0.1067  0.7342  0.1896
 6838SOL     OW32149   1.144   1.249   0.073  0.4012  0.8179  0.2238
 6838SOL    HW132150   1.217   1.301   0.107  0.6648 -0.0106  0.9133
 6838SOL    HW232151   1.193   1.176   0.036 -1.7135 -1.7268  2.4009
 6839SOL     OW32152   3.392   3.036   7.659  0.4481 -0.0097 -0.7274
 6839SOL    HW132153   3.436   3.097   7.599  0.0271  1.4643  0.4839
 6839SOL    HW232154   3.393   3.083   7.742 -3.3070 -0.9836 -0.1340
 6840SOL     OW32155   1.326   3.330   3.373 -0.4316  0.2159  0.1840
 6840SOL    HW132156   1.395   3.270   3.342  0.9542  0.9056  1.9373
 6840SOL    HW232157   1.252   3.283   3.335  1.1367 -2.2595  0.1545
 6841SOL     OW32158   0.121   1.514  12.287 -0.2974 -0.2638  0.0160
 6841SOL    HW132159   0.160   1.456  12.222 -0.4504 -0.6855  0.3026
 6841SOL    HW232160   0.136   1.595  12.238 -0.0386  0.0700  0.6530
 6842SOL     OW32161   2.734   3.719   6.454 -0.5033  0.4245 -0.4251
 6842SOL    HW132162   2.755   3.807   6.485 -0.3068  0.3030 -0.2096
 6842SOL    HW232163   2.818   3.675   6.472 -0.4994 -0.9026 -3.5068
 6843SOL     OW32164   1.474   1.739  10.840 -0.0639 -0.2617 -0.0865
 6843SOL    HW132165   1.397   1.782  10.879 -0.3721 -0.6327 -0.2864
 6843SOL    HW232166   1.546   1.779  10.888  1.4963 -0.8793 -1.9277
 6844SOL     OW32167   3.846   3.660   1.806 -0.4562 -0.1060  0.0790
 6844SOL    HW132168   3.903   3.715   1.752 -1.3184  0.2486 -0.4799
 6844SOL    HW232169   3.845   3.719   1.882 -0.8098  2.2182 -1.7242
 6845SOL     OW32170   2.549   1.055  14.614  0.3028 -0.2340 -0.3469
 6845SOL    HW132171   2.544   1.079  14.522 -1.5022 -1.0454 -0.4655
 6845SOL    HW232172   2.635   1.014  14.611  0.9296  1.2361 -2.0651
 6846SOL     OW32173   1.952   0.360   8.630  0.1340  0.5863  0.7617
 6846SOL    HW132174   1.997   0.378   8.712  2.4948  0.4013 -0.4895
 6846SOL    HW232175   1.866   0.386   8.661  0.1107  0.2130  1.0107
 6847SOL     OW32176   1.035   2.007   3.616  0.1052 -0.6131 -0.3167
 6847SOL    HW132177   0.982   1.930   3.635 -0.0243 -0.7292 -1.1658
 6847SOL    HW232178   0.986   2.044   3.542  1.4863  0.5419 -0.6461
 6848SOL     OW32179   3.060   2.167   3.409 -0.0691 -0.4865 -0.1774
 6848SOL    HW132180   3.054   2.119   3.491 -0.6307  0.1520  0.1492
 6848SOL    HW232181   3.150   2.200   3.411 -0.6166  1.0261 -0.7330
 6849SOL     OW32182   2.591   1.198   8.514 -0.2777  0.1778  0.0441
 6849SOL    HW132183   2.565   1.106   8.512  1.4889 -0.3183 -0.1212
 6849SOL    HW232184   2.570   1.228   8.602 -2.4873  0.2592 -0.5215
 6850SOL     OW32185   3.569   3.688   6.908 -0.1022 -0.1522  0.3035
 6850SOL    HW132186   3.536   3.719   6.824  0.4123  1.1495  0.5890
 6850SOL    HW232187   3.553   3.762   6.966 -1.1717  2.0405 -2.7883
 6851SOL     OW32188   3.865   4.712   1.274  0.1239  0.1846 -0.1535
 6851SOL    HW132189   3.774   4.723   1.300  0.0130  0.0202 -0.4653
 6851SOL    HW232190   3.908   0.044   1.327 -0.1663 -1.2365  1.8538
 6852SOL     OW32191   4.297   1.789   8.731 -0.2744 -0.2616  0.0465
 6852SOL    HW132192   4.246   1.807   8.810  0.4237 -2.4469  0.9968
 6852SOL    HW232193   4.290   1.693   8.729  1.3806 -0.3848 -0.2301
 6853SOL     OW32194   2.229   4.302   3.812  0.0897 -0.1669 -0.0759
 6853SOL    HW132195   2.242   4.235   3.746 -1.6008 -0.9095  0.3410
 6853SOL    HW232196   2.196   4.258   3.891  0.9380  3.5788  2.3732
 6854SOL     OW32197   1.582   3.005   9.892 -0.5197  0.1763 -0.3216
 6854SOL    HW132198   1.501   3.055   9.878 -1.5458 -0.9432  1.5501
 6854SOL    HW232199   1.549   2.941   9.955  1.9644  0.5191  1.3035
 6855SOL     OW32200   2.404   1.262   5.246  0.0988 -0.2544 -0.2086
 6855SOL    HW132201   2.482   1.249   5.299  2.2198  0.6172 -3.0750
 6855SOL    HW232202   2.442   1.289   5.162  0.6370 -0.1090  0.0868
 6856SOL     OW32203   0.923   3.707  13.100  0.4620  0.9952  0.1544
 6856SOL    HW132204   0.910   3.643  13.030  1.2873 -0.7173  1.5678
 6856SOL    HW232205   0.839   3.752  13.099 -0.6429 -1.0204  1.1269
 6857SOL     OW32206   1.683   4.553   6.384 -0.3587 -0.2569 -0.1250
 6857SOL    HW132207   1.684   4.549   6.480  1.2699 -3.1140 -0.2827
 6857SOL    HW232208   1.655   4.462   6.375  0.1610 -0.5200  0.9454
 6858SOL     OW32209   3.018   4.188   6.772  0.5324  1.0960 -0.9105
 6858SOL    HW132210   2.995   4.271   6.729  0.5147  1.1198 -0.8542
 6858SOL    HW232211   2.933   4.162   6.807  1.0887 -0.1460 -0.4720
 6859SOL     OW32212   0.090   0.519   3.091  0.0290  0.4169 -0.2367
 6859SOL    HW132213   4.730   0.518   3.086  0.0779  0.6446 -1.2179
 6859SOL    HW232214   0.098   0.613   3.112  0.8795  0.7375 -2.0505
 6860SOL     OW32215   0.107   3.855   8.910  0.4525 -0.0145  0.4249
 6860SOL    HW132216   0.045   3.924   8.934  1.6188  1.2175 -0.0706
 6860SOL    HW232217   0.095   3.830   8.818  1.4032  1.9498 -0.2535
 6861SOL     OW32218   0.256   1.526   4.223  0.8611 -0.1146 -0.3141
 6861SOL    HW132219   0.322   1.490   4.283  0.3589  0.1254  0.3800
 6861SOL    HW232220   0.190   1.463   4.252 -0.2004 -0.4833 -3.5454
 6862SOL     OW32221   0.115   3.373   5.596 -0.2504  0.0855  0.0104
 6862SOL    HW132222   0.151   3.461   5.583 -1.8312  0.5488 -1.1720
 6862SOL    HW232223   0.126   3.363   5.691  2.5932 -2.0109 -0.5367
 6863SOL     OW32224   4.163   3.293   3.728 -0.0546 -0.1131  0.5341
 6863SOL    HW132225   4.142   3.313   3.819  3.6616  2.0520  0.8911
 6863SOL    HW232226   4.249   3.333   3.729 -0.0292 -0.2030  1.6944
 6864SOL     OW32227   2.083   2.022   0.479  0.2721  0.0955  0.2996
 6864SOL    HW132228   2.139   1.944   0.486  0.3552  0.5227  4.3951
 6864SOL    HW232229   2.025   2.012   0.404  0.6937  0.9316 -0.1455
 6865SOL     OW32230   2.292   3.664   7.876  0.2981  0.0461  0.0946
 6865SOL    HW132231   2.277   3.696   7.964  3.0603  1.8619 -0.1025
 6865SOL    HW232232   2.375   3.708   7.859  0.7364 -1.1939 -1.0170
 6866SOL     OW32233   1.471   2.225   7.282  0.1691  0.4227  0.5498
 6866SOL    HW132234   1.546   2.171   7.258  1.4050  3.1804 -1.7589
 6866SOL    HW232235   1.454   2.197   7.372 -3.1005  0.3475 -0.0871
 6867SOL     OW32236   4.284   0.037   6.924 -0.3287 -0.0855 -0.1924
 6867SOL    HW132237   4.204   4.723   6.942  0.3811 -1.3775 -0.6198
 6867SOL    HW232238   4.353   4.707   6.915 -0.3119 -0.1945  0.7457
 6868SOL     OW32239   3.758   2.752   9.535 -0.0161 -0.6399  0.4205
 6868SOL    HW132240   3.677   2.796   9.562 -0.9562 -0.8428 -2.1427
 6868SOL    HW232241   3.744   2.735   9.442 -0.8817 -0.1816  0.4689
 6869SOL     OW32242   3.252   2.154   8.620  0.1864  0.3299  0.2679
 6869SOL    HW132243   3.249   2.133   8.527  1.0296 -1.7327  0.7164
 6869SOL    HW232244   3.167   2.117   8.643  1.3334 -1.2967  1.8127
 6870SOL     OW32245   0.797   3.276   2.800 -0.1146  0.2029  0.0665
 6870SOL    HW132246   0.867   3.334   2.830 -0.3671 -0.5773  2.1462
 6870SOL    HW232247   0.811   3.194   2.847 -1.2827  0.6710  1.2020
 6871SOL     OW32248   3.855   3.045   5.400  0.4260 -0.4344 -0.1619
 6871SOL    HW132249   3.807   3.003   5.328 -1.4586  1.7937 -0.1995
 6871SOL    HW232250   3.828   3.137   5.403 -0.3963 -0.7789  2.7943
 6872SOL     OW32251   4.647   0.916  17.288  0.2419  0.6355 -0.2362
 6872SOL    HW132252   4.696   0.880  17.361  0.9422  1.8979 -0.0755
 6872SOL    HW232253   4.627   0.836  17.240 -1.9804  0.1874  1.4498
 6873SOL     OW32254   0.519   3.467   1.578 -0.3431 -0.2681  0.0398
 6873SOL    HW132255   0.471   3.407   1.635 -0.6544 -0.9705 -0.9635
 6873SOL    HW232256   0.497   3.546   1.626  0.3695  0.3616 -0.6784
 6874SOL     OW32257   3.046   4.114   4.972  0.0335 -0.2073  0.5205
 6874SOL    HW132258   3.011   4.025   4.965  0.5030 -0.4457  1.2113
 6874SOL    HW232259   3.140   4.111   4.954  0.2549 -1.2844  1.8707
 6875SOL     OW32260   0.497   3.593   7.504 -0.1017  0.1613  0.1929
 6875SOL    HW132261   0.415   3.638   7.484 -0.3136 -0.1539  0.3575
 6875SOL    HW232262   0.531   3.594   7.414 -1.9347 -1.6309 -0.5142
 6876SOL     OW32263   3.224   3.115   5.251 -0.5903  0.3548 -0.2502
 6876SOL    HW132264   3.186   3.047   5.307 -0.0879  0.0176 -0.3114
 6876SOL    HW232265   3.314   3.099   5.282 -0.5187  1.0268 -0.1126
 6877SOL     OW32266   1.108   2.261   5.172  0.4047  0.0369  0.0399
 6877SOL    HW132267   1.076   2.180   5.132 -0.5137 -0.2710  1.4260
 6877SOL    HW232268   1.124   2.321   5.099 -2.4036  1.1010  0.3190
 6878SOL     OW32269   1.693   4.210   5.054 -0.6917  0.0327 -0.2964
 6878SOL    HW132270   1.658   4.196   5.142  0.2876  1.6461  0.3481
 6878SOL    HW232271   1.614   4.205   5.000 -0.6376 -1.2042 -0.2679
 6879SOL     OW32272   3.558   3.992   5.793 -0.0059 -0.6409 -0.2485
 6879SOL    HW132273   3.471   3.971   5.826 -0.3341  0.7104 -0.2865
 6879SOL    HW232274   3.564   3.936   5.715 -0.3920 -0.9980 -0.0195
 6880SOL     OW32275   4.534   1.415   6.867  0.3764 -0.7149 -0.2417
 6880SOL    HW132276   4.477   1.466   6.925  1.9735 -0.9239  1.5250
 6880SOL    HW232277   4.614   1.429   6.918 -0.0169  1.0277 -0.0797
 6881SOL     OW32278   2.691   0.780  15.369 -0.4528  0.1859  0.0256
 6881SOL    HW132279   2.680   0.860  15.317 -0.0359  0.6104  0.5819
 6881SOL    HW232280   2.604   0.769  15.405 -0.5307 -0.3940 -0.3379
 6882SOL     OW32281   4.390   2.354   8.088  0.0241 -0.4759 -0.4290
 6882SOL    HW132282   4.320   2.301   8.127  0.2788  0.0498  0.7281
 6882SOL    HW232283   4.460   2.350   8.152  1.6254  3.4970 -1.9808
 6883SOL     OW32284   3.272   1.041   3.830  0.0766  0.3308  0.7320
 6883SOL    HW132285   3.290   1.025   3.738  2.0940  1.4220  0.9468
 6883SOL    HW232286   3.310   0.958   3.858  0.8220  0.8823  1.3490
 6884SOL     OW32287   0.283   1.858   2.422  0.0787  0.3675 -0.0999
 6884SOL    HW132288   0.367   1.861   2.375  0.8139  0.0612  1.1980
 6884SOL    HW232289   0.280   1.930   2.485  0.6034 -0.3197  0.6983
 6885SOL     OW32290   4.413   4.689   4.368 -0.6108 -0.4815  0.0067
 6885SOL    HW132291   4.368   4.606   4.384 -1.6085  0.0055 -0.2872
 6885SOL    HW232292   4.404   4.709   4.274 -1.9080 -1.2848 -0.0503
 6886SOL     OW32293   0.676   2.115   4.022  0.2911  0.2117 -0.2767
 6886SOL    HW132294   0.677   2.050   4.092 -0.0492  0.6937  0.1713
 6886SOL    HW232295   0.771   2.111   4.010  0.7075  1.0905  2.8021
 6887SOL     OW32296   0.937   2.869   1.607  0.2222  0.1248 -0.6230
 6887SOL    HW132297   0.848   2.863   1.643  0.3731  0.5657 -0.1704
 6887SOL    HW232298   0.965   2.779   1.624  0.7118  0.5046  0.6174
 6888SOL     OW32299   2.726   4.711  11.431 -0.3760 -0.2936 -0.1593
 6888SOL    HW132300   2.772   4.668  11.502 -2.9139  0.5330  1.9943
 6888SOL    HW232301   2.681   0.043  11.482 -0.8377  1.2735 -2.6168
 6889SOL     OW32302   3.317   3.206  15.660 -0.6099  0.2701 -0.3051
 6889SOL    HW132303   3.265   3.277  15.698  2.3921  1.3067  1.7905
 6889SOL    HW232304   3.364   3.253  15.591 -1.6528 -1.4423 -2.1778
 6890SOL     OW32305   3.750   3.698   0.082  0.0390  0.4586  0.1751
 6890SOL    HW132306   3.734   3.733   0.169  0.1668 -1.8949  1.1450
 6890SOL    HW232307   3.722   3.764   0.018  0.9779  0.5124 -0.1785
 6891SOL     OW32308   3.430   2.886   9.355  1.0042 -0.7235 -0.7007
 6891SOL    HW132309   3.360   2.951   9.369  0.5205 -1.3330 -0.3156
 6891SOL    HW232310   3.490   2.936   9.299  0.7277 -0.9628 -1.2158
 6892SOL     OW32311   4.116   0.296   7.519 -0.2511  0.3744  0.2421
 6892SOL    HW132312   4.098   0.205   7.494 -1.1738  0.7971 -0.6458
 6892SOL    HW232313   4.032   0.332   7.488  0.3050 -0.0744 -1.8236
 6893SOL     OW32314   0.583   0.650   2.913 -0.4520 -0.0592 -0.0135
 6893SOL    HW132315   0.604   0.556   2.911  0.2005  0.0950 -0.2132
 6893SOL    HW232316   0.651   0.687   2.969  2.0070 -0.8689 -2.4728
 6894SOL     OW32317   2.413   2.739   4.088  0.0835 -0.0407 -0.2411
 6894SOL    HW132318   2.443   2.823   4.053  1.9256 -0.7882 -0.4460
 6894SOL    HW232319   2.319   2.755   4.093  0.2501  0.9320 -0.0625
 6895SOL     OW32320   0.036   1.436  11.273 -0.9535 -0.5165  0.0798
 6895SOL    HW132321   4.679   1.446  11.253 -1.1415  0.6331  1.5658
 6895SOL    HW232322   0.039   1.353  11.320  1.6104  0.6897  2.0383
 6896SOL     OW32323   3.613   0.825   2.291 -1.0710  0.3939  0.0134
 6896SOL    HW132324   3.613   0.842   2.197  0.6470 -1.3271 -0.2984
 6896SOL    HW232325   3.520   0.806   2.304 -0.3547 -0.7541  3.3976
 6897SOL     OW32326   4.512   1.828  11.798  0.2483 -0.4929 -0.2714
 6897SOL    HW132327   4.505   1.742  11.756  0.9365 -1.3181  1.2763
 6897SOL    HW232328   4.545   1.881  11.726 -0.8766  1.9333  0.9819
 6898SOL     OW32329   3.547   2.097   3.103 -0.1521  0.2160 -0.2418
 6898SOL    HW132330   3.525   2.124   3.014 -0.5665  0.0652 -0.1865
 6898SOL    HW232331   3.571   2.179   3.146 -0.6297 -0.4506  1.2991
 6899SOL     OW32332   3.313   3.692   5.947  0.4526  0.4097 -0.2253
 6899SOL    HW132333   3.405   3.667   5.940  0.5326  1.0661 -1.5548
 6899SOL    HW232334   3.326   3.785   5.929  2.0964  0.0097 -1.1452
 6900SOL     OW32335   1.094   0.407   1.517 -0.2775  0.0057 -0.6441
 6900SOL    HW132336   1.119   0.324   1.476  1.5099  0.6520 -0.8463
 6900SOL    HW232337   1.144   0.407   1.598  0.4799 -0.6581 -1.1067
 6901SOL     OW32338   4.131   3.560   7.981  0.1982 -0.0202 -0.3730
 6901SOL    HW132339   4.144   3.466   7.994  0.7546  0.1515  0.3095
 6901SOL    HW232340   4.205   3.603   8.023  0.8041  0.3320 -1.7809
 6902SOL     OW32341   3.960   0.034   6.330  0.1030 -0.1859  0.1308
 6902SOL    HW132342   4.026   0.035   6.260  0.4127 -0.2111  0.4217
 6902SOL    HW232343   4.015   0.079   6.395 -0.8216 -0.5374  1.1555
 6903SOL     OW32344   1.742   0.107  10.084  0.5767 -0.1940 -0.3875
 6903SOL    HW132345   1.708   0.166  10.017  0.4768  2.0509  1.6404
 6903SOL    HW232346   1.832   0.106  10.053  0.6490  1.9858 -0.2472
 6904SOL     OW32347   3.356   3.111  12.379  0.0755  0.7505  0.4721
 6904SOL    HW132348   3.338   3.174  12.310  1.2459  1.1689  0.5491
 6904SOL    HW232349   3.386   3.174  12.445 -0.1843  1.3043  0.0580
 6905SOL     OW32350   1.013   2.706   2.083 -0.0276 -0.0670  0.4215
 6905SOL    HW132351   1.015   2.801   2.066  1.6960 -0.1034  0.4210
 6905SOL    HW232352   1.059   2.676   2.004 -1.8501 -2.9892  0.4715
 6906SOL     OW32353   2.428   3.290   5.586  0.5916  0.2828 -0.2634
 6906SOL    HW132354   2.358   3.353   5.603  0.0142 -0.9153  1.7342
 6906SOL    HW232355   2.472   3.333   5.512 -1.7304  0.3318 -1.6054
 6907SOL     OW32356   3.846   2.068   3.928  0.3533  0.2966 -0.0853
 6907SOL    HW132357   3.813   2.096   4.013 -2.3711 -0.7208 -0.8141
 6907SOL    HW232358   3.906   2.142   3.917 -0.0455  0.4722 -1.0027
 6908SOL     OW32359   0.860   3.732   7.449  0.4111  0.0593 -0.0622
 6908SOL    HW132360   0.879   3.679   7.526  1.0570 -0.0604 -0.3026
 6908SOL    HW232361   0.841   3.659   7.391 -0.8554 -0.9912  1.6505
 6909SOL     OW32362   0.965   1.834  11.931  0.5445  0.0556 -0.0591
 6909SOL    HW132363   0.885   1.841  11.983  0.6241 -0.9217  0.1956
 6909SOL    HW232364   0.994   1.747  11.959  0.6633  0.0691 -0.1423
 6910SOL     OW32365   0.649   1.207   0.749 -0.1680  0.0702  0.1899
 6910SOL    HW132366   0.657   1.226   0.842  1.5812  2.0815 -0.3601
 6910SOL    HW232367   0.728   1.159   0.723  0.1351 -0.1024  1.4734
 6911SOL     OW32368   0.527   1.992   8.141  0.3884  0.6476 -0.1557
 6911SOL    HW132369   0.539   2.073   8.190 -1.3027  0.5401  0.4518
 6911SOL    HW232370   0.433   1.976   8.151  0.4599  0.9774  1.0094
 6912SOL     OW32371   4.162   1.058  10.452 -0.3048  0.3212  0.0934
 6912SOL    HW132372   4.107   1.030  10.525 -0.4467  1.0737  0.2789
 6912SOL    HW232373   4.118   1.142  10.435  1.0077  0.6033 -1.9192
 6913SOL     OW32374   0.410   3.577   6.259 -0.1894 -0.0748  0.0222
 6913SOL    HW132375   0.450   3.572   6.346  0.6691  1.9925 -0.2439
 6913SOL    HW232376   0.363   3.496   6.242 -1.4830  0.8982 -1.0712
 6914SOL     OW32377   2.573   1.521   8.574 -0.6115 -0.6863 -0.0043
 6914SOL    HW132378   2.527   1.488   8.498  2.0179 -0.1671 -1.8192
 6914SOL    HW232379   2.653   1.469   8.566 -0.1714  0.3293 -2.0433
 6915SOL     OW32380   1.326   2.483   5.833 -0.7662  0.0149 -0.8035
 6915SOL    HW132381   1.328   2.389   5.815  0.9010 -0.1978  0.4398
 6915SOL    HW232382   1.257   2.485   5.899  0.5551 -1.7041  0.6477
 6916SOL     OW32383   1.660   1.779   6.176  0.2841  0.6072  0.4532
 6916SOL    HW132384   1.633   1.765   6.085 -0.1953  0.3643  0.6345
 6916SOL    HW232385   1.623   1.704   6.221  2.1093 -0.9787 -0.6875
 6917SOL     OW32386   0.761   0.168   6.815  0.0024 -0.1066 -0.0119
 6917SOL    HW132387   0.685   0.206   6.772 -0.1798  0.8803  1.1660
 6917SOL    HW232388   0.829   0.224   6.777  1.3672 -1.9729 -0.3155
 6918SOL     OW32389   3.181   1.818   6.208 -0.2887  0.2335 -0.1007
 6918SOL    HW132390   3.189   1.727   6.181  0.6265 -0.1312  1.3924
 6918SOL    HW232391   3.131   1.803   6.288 -0.9333 -1.0257 -0.7404
 6919SOL     OW32392   1.438   4.127   4.164 -0.0580  0.1714  0.2738
 6919SOL    HW132393   1.358   4.179   4.173 -0.4408 -0.4368  0.3517
 6919SOL    HW232394   1.451   4.136   4.069 -1.6926  2.3925  0.2612
 6920SOL     OW32395   4.302   1.337   5.061  0.1976 -0.1438 -0.3189
 6920SOL    HW132396   4.353   1.262   5.092  2.5680 -0.5960 -5.2904
 6920SOL    HW232397   4.272   1.379   5.141 -0.6554 -0.9961 -0.1899
 6921SOL     OW32398   1.188   1.653  13.232 -0.4392 -0.1570  0.1813
 6921SOL    HW132399   1.223   1.686  13.150  0.2541  0.0383  0.5510
 6921SOL    HW232400   1.115   1.715  13.236 -0.7505 -0.6654  2.4619
 6922SOL     OW32401   0.033   2.229   7.051 -0.0031 -0.2507 -0.0164
 6922SOL    HW132402   4.698   2.292   7.038 -0.8800 -1.1557  0.3912
 6922SOL    HW232403   0.075   2.289   7.113 -0.6784 -1.6121  1.7406
 6923SOL     OW32404   1.419   1.480  16.945  0.3425  0.3741  0.6578
 6923SOL    HW132405   1.372   1.453  17.024 -0.9893  2.3813  0.5619
 6923SOL    HW232406   1.372   1.438  16.873  2.7701  1.9987 -1.8799
 6924SOL     OW32407   3.294   3.799   2.308  0.2885  0.1679 -0.3315
 6924SOL    HW132408   3.361   3.743   2.267  0.8969  0.0085  0.8763
 6924SOL    HW232409   3.218   3.789   2.250 -0.5425  2.1175  0.4244
 6925SOL     OW32410   2.232   2.337  11.002  0.0447 -0.4287  0.1631
 6925SOL    HW132411   2.300   2.379  11.055 -0.5882  0.5357  0.2159
 6925SOL    HW232412   2.160   2.399  11.013  2.0242  1.7948  0.6019
 6926SOL     OW32413   2.550   0.372  14.603 -0.4952 -0.6909 -0.3484
 6926SOL    HW132414   2.475   0.345  14.655 -0.4390 -2.7558 -1.3282
 6926SOL    HW232415   2.505   0.425  14.536 -0.0469 -1.1889 -1.0412
 6927SOL     OW32416   4.587   3.627   8.570 -0.0033 -0.7226  0.2526
 6927SOL    HW132417   4.518   3.563   8.554 -1.0564  0.8048 -1.3742
 6927SOL    HW232418   4.562   3.685   8.498 -1.2462  1.1994  2.2287
 6928SOL     OW32419   2.410   0.247   1.472  0.0689  0.2936  0.0130
 6928SOL    HW132420   2.390   0.168   1.422 -1.8799  1.1144 -0.4830
 6928SOL    HW232421   2.416   0.210   1.560 -1.3081 -1.1352 -0.5022
 6929SOL     OW32422   4.106   4.237   9.434  0.0531  0.1588  0.0413
 6929SOL    HW132423   4.152   4.193   9.362 -0.0062  2.0326 -1.1456
 6929SOL    HW232424   4.154   4.318   9.451  0.6485  0.4084 -2.7434
 6930SOL     OW32425   3.260   3.656  12.224  0.4256  0.1002 -0.2368
 6930SOL    HW132426   3.225   3.718  12.288  4.5036  2.5011 -0.3176
 6930SOL    HW232427   3.179   3.607  12.208  0.3823  0.3683 -0.8431
 6931SOL     OW32428   1.237   0.864   7.117  0.4691  0.1314 -0.2384
 6931SOL    HW132429   1.269   0.796   7.176 -1.4701 -0.2800  0.3593
 6931SOL    HW232430   1.174   0.809   7.071  1.5074 -0.4016 -1.0226
 6932SOL     OW32431   0.448   4.578   5.127  0.1269 -0.3186 -0.2392
 6932SOL    HW132432   0.396   4.571   5.047 -0.3945 -0.5266  0.1165
 6932SOL    HW232433   0.417   4.666   5.148  0.4439 -0.2523 -0.0476
 6933SOL     OW32434   3.072   0.376  17.353 -0.1637 -0.1230 -0.8238
 6933SOL    HW132435   2.979   0.356  17.342 -0.3746  0.0376  0.6619
 6933SOL    HW232436   3.073   0.377  17.449  2.0809 -3.1956 -0.8460
 6934SOL     OW32437   3.495   0.321   6.940 -0.6132  0.2613  0.6080
 6934SOL    HW132438   3.518   0.297   6.850 -2.6312 -0.9393  0.3901
 6934SOL    HW232439   3.543   0.255   6.990 -0.7090  1.4663  2.2929
 6935SOL     OW32440   0.910   0.753   5.293  0.1927  0.4551  0.0786
 6935SOL    HW132441   0.978   0.736   5.357  0.6160 -1.6839 -0.9294
 6935SOL    HW232442   0.972   0.758   5.220  0.3280 -0.5712  0.1212
 6936SOL     OW32443   2.092   4.032   5.825  0.3620 -0.4439  0.3455
 6936SOL    HW132444   2.159   4.055   5.889 -0.6528 -1.2870  1.7022
 6936SOL    HW232445   2.032   4.103   5.844  0.5900 -0.3565  0.7312
 6937SOL     OW32446   0.545   2.961  15.714 -0.2017  0.1697 -0.1017
 6937SOL    HW132447   0.451   2.954  15.733  0.0065 -2.6687 -0.1407
 6937SOL    HW232448   0.542   2.979  15.620  1.5327 -1.8318 -0.5401
 6938SOL     OW32449   0.575   0.849   4.700 -0.2807 -0.1704  0.1218
 6938SOL    HW132450   0.525   0.902   4.762 -0.6617 -0.4006  0.0121
 6938SOL    HW232451   0.510   0.785   4.672 -0.4815 -0.1018  0.4317
 6939SOL     OW32452   1.938   1.489   0.579  0.0574 -0.3464  0.3292
 6939SOL    HW132453   2.015   1.490   0.522  1.1825 -0.7432  1.8452
 6939SOL    HW232454   1.875   1.530   0.519 -0.7449  1.9719  2.7725
 6940SOL     OW32455   4.186   4.196   4.915 -0.0818  0.3649 -0.3864
 6940SOL    HW132456   4.132   4.272   4.890 -0.6824 -0.5781 -1.9792
 6940SOL    HW232457   4.267   4.232   4.951  0.8874 -2.2161 -0.0239
 6941SOL     OW32458   2.010   1.635  17.416  0.8644  0.6086  0.3882
 6941SOL    HW132459   1.959   1.587  17.350 -0.1251 -0.7829  2.1664
 6941SOL    HW232460   1.945   1.648  17.484 -0.2796 -0.9114 -0.4065
 6942SOL     OW32461   2.621   0.736   4.027  0.1549  0.0825  0.1176
 6942SOL    HW132462   2.554   0.674   4.057 -2.2128  1.7860 -1.6049
 6942SOL    HW232463   2.695   0.729   4.086 -1.2890  0.5122  1.9895
 6943SOL     OW32464   4.202   3.192   0.125 -0.4383 -0.2312 -0.1430
 6943SOL    HW132465   4.158   3.249   0.062 -1.2048 -0.3713  0.2537
 6943SOL    HW232466   4.191   3.241   0.207 -0.3443  0.4834 -0.5573
 6944SOL     OW32467   3.812   4.511   0.152  0.0251 -0.1914  0.4794
 6944SOL    HW132468   3.791   4.542   0.064 -1.5108  0.1129  0.9471
 6944SOL    HW232469   3.784   4.586   0.203 -0.7088  0.4027 -0.7920
 6945SOL     OW32470   2.561   4.729   5.024  0.6394  0.0907  0.8458
 6945SOL    HW132471   2.485   4.673   5.041  1.1607 -0.8329  0.1611
 6945SOL    HW232472   2.587   4.683   4.945  0.1011  0.3828  0.4985
 6946SOL     OW32473   3.914   2.471   4.189 -0.3110 -0.5030  0.1116
 6946SOL    HW132474   3.910   2.506   4.278 -1.1826 -1.4010  0.4176
 6946SOL    HW232475   4.008   2.469   4.172 -0.4666 -0.3681 -0.7799
 6947SOL     OW32476   1.441   0.463   5.033  0.4892  0.4040 -0.0366
 6947SOL    HW132477   1.366   0.500   5.081  0.2814  2.8044 -2.2152
 6947SOL    HW232478   1.480   0.543   4.998  0.7953  0.8934  1.4164
 6948SOL     OW32479   0.632   1.816   7.455 -0.3531  0.3011 -0.0776
 6948SOL    HW132480   0.619   1.879   7.384 -1.0662  0.3732  0.1187
 6948SOL    HW232481   0.725   1.827   7.476 -0.0447 -0.6142 -0.9722
 6949SOL     OW32482   4.148   2.821   8.198  0.1332 -0.4906 -0.1163
 6949SOL    HW132483   4.103   2.855   8.120 -4.7957 -0.7855  2.6054
 6949SOL    HW232484   4.202   2.751   8.162  0.7374  0.4840 -1.1167
 6950SOL     OW32485   4.597   3.350   5.519  0.1451  0.0679  0.3686
 6950SOL    HW132486   4.588   3.255   5.529  0.1062  0.0347  0.0312
 6950SOL    HW232487   4.692   3.357   5.527  0.2033 -0.0332 -0.2303
 6951SOL     OW32488   0.954   2.285  17.700  0.1662 -0.7570 -0.4639
 6951SOL    HW132489   0.916   2.366  17.666 -0.2675 -0.7189  0.1012
 6951SOL    HW232490   1.013   2.260  17.629 -0.8296 -0.5214 -1.3664
 6952SOL     OW32491   4.496   2.331   7.821  0.4728 -0.3567  0.5584
 6952SOL    HW132492   4.447   2.249   7.808  2.1731 -1.3402  0.3195
 6952SOL    HW232493   4.459   2.364   7.903  1.5468  0.8530  0.5429
 6953SOL     OW32494   3.278   1.501   8.438  0.6190 -0.3137 -0.4358
 6953SOL    HW132495   3.309   1.447   8.511 -1.3216 -0.7451  0.0715
 6953SOL    HW232496   3.293   1.589   8.471  0.1652  0.1145 -1.3900
 6954SOL     OW32497   0.910   2.209   1.501  0.1841  0.1192  1.1150
 6954SOL    HW132498   0.929   2.159   1.422 -1.2311 -0.6063  1.2443
 6954SOL    HW232499   0.853   2.279   1.471 -0.9881 -1.4370 -0.2046
 6955SOL     OW32500   2.860   2.680   0.143  0.0519  0.5145  0.0809
 6955SOL    HW132501   2.917   2.689   0.219 -2.6889 -0.6089  2.2512
 6955SOL    HW232502   2.920   2.618   0.102  0.0626  0.5679  0.0153
 6956SOL     OW32503   1.991   2.101   8.028 -0.3906 -0.1534 -0.1636
 6956SOL    HW132504   2.033   2.182   8.057 -0.0367 -1.2290  2.2959
 6956SOL    HW232505   2.070   2.047   8.029  0.0120  0.4234 -0.7006
 6957SOL     OW32506   4.590   1.156   2.808 -0.2926  0.2519 -0.2056
 6957SOL    HW132507   4.572   1.155   2.902  0.4492 -0.8039 -0.0664
 6957SOL    HW232508   4.592   1.061   2.798 -0.2797  0.2737 -0.4131
 6958SOL     OW32509   0.944   3.565   7.676  0.6557 -0.1093  0.3764
 6958SOL    HW132510   0.884   3.607   7.738  1.7022 -3.1973  3.4957
 6958SOL    HW232511   1.022   3.620   7.679  1.4474 -1.2752  1.0966
 6959SOL     OW32512   3.271   1.178  12.046 -0.5131 -0.3151 -0.2466
 6959SOL    HW132513   3.292   1.267  12.076 -1.7208  0.4343 -1.5921
 6959SOL    HW232514   3.235   1.134  12.123 -0.9528 -0.0149 -0.2749
 6960SOL     OW32515   4.691   4.477   9.245 -0.4420  0.1637  0.4359
 6960SOL    HW132516   4.634   4.433   9.308  0.3176  2.1196  2.4585
 6960SOL    HW232517   0.010   4.534   9.298  0.0177  0.5477 -0.4473
 6961SOL     OW32518   0.597   2.418   7.716  0.1170  0.0069  0.6242
 6961SOL    HW132519   0.667   2.482   7.702  1.7694 -1.4723  2.1771
 6961SOL    HW232520   0.603   2.421   7.811  0.0078  0.2358  0.6216
 6962SOL     OW32521   4.417   1.945   3.539  0.3561  0.6956  0.0332
 6962SOL    HW132522   4.428   1.902   3.624 -0.6655 -0.1919 -0.2770
 6962SOL    HW232523   4.327   1.920   3.519 -0.1700 -0.2070  3.4796
 6963SOL     OW32524   3.555   2.614  11.788  0.0598 -0.8552 -0.2660
 6963SOL    HW132525   3.617   2.646  11.722  0.1082 -2.1169 -0.8319
 6963SOL    HW232526   3.587   2.524  11.799  1.2228 -0.3656  0.4253
 6964SOL     OW32527   3.010   3.613  13.125 -0.8026  0.1072 -0.0087
 6964SOL    HW132528   3.033   3.559  13.201  2.2522 -0.1320 -1.1372
 6964SOL    HW232529   3.006   3.704  13.156 -0.4166 -0.0220  0.4274
 6965SOL     OW32530   2.168   0.430  14.770 -0.0766 -0.5779  0.1540
 6965SOL    HW132531   2.098   0.396  14.826 -0.0149  0.5104  0.8936
 6965SOL    HW232532   2.240   0.392  14.819 -1.0988 -1.6651  0.8234
 6966SOL     OW32533   3.935   3.112   6.923 -0.1650 -0.0831  0.0122
 6966SOL    HW132534   3.900   3.037   6.972 -2.1059  1.2857  0.7596
 6966SOL    HW232535   3.853   3.143   6.883  0.6083  1.0793 -0.6597
 6967SOL     OW32536   3.355   3.103   4.328 -0.5575  0.2546 -0.1509
 6967SOL    HW132537   3.271   3.150   4.336  0.1917  1.1812  2.3132
 6967SOL    HW232538   3.317   3.018   4.304  1.5823 -0.8083  0.2894
 6968SOL     OW32539   2.173   2.599   7.922  0.1331  0.0222 -0.2263
 6968SOL    HW132540   2.249   2.556   7.883  0.3875 -0.5426  0.9162
 6968SOL    HW232541   2.204   2.689   7.910  0.6173 -0.1286 -0.1270
 6969SOL     OW32542   3.107   2.625  10.275  0.6082 -0.6187  0.2148
 6969SOL    HW132543   3.150   2.664  10.199  2.0279 -0.7225  0.9454
 6969SOL    HW232544   3.019   2.610  10.242  0.0165 -1.4831  2.1562
 6970SOL     OW32545   0.343   0.914   3.272 -0.2335  0.5710  0.0910
 6970SOL    HW132546   0.413   0.854   3.298  0.2006  0.6273 -0.9672
 6970SOL    HW232547   0.387   0.941   3.191 -1.7954  0.6808 -0.7244
 6971SOL     OW32548   3.221   0.598   3.322  0.0105 -0.9095 -0.1335
 6971SOL    HW132549   3.252   0.565   3.406  2.3801  1.2873 -0.1679
 6971SOL    HW232550   3.257   0.686   3.320 -2.3967  0.1074  0.4496
 6972SOL     OW32551   2.474   3.027   6.054 -0.2616  0.0816  0.2922
 6972SOL    HW132552   2.457   3.121   6.042  2.4751  1.0809  3.9649
 6972SOL    HW232553   2.392   2.989   6.024  0.6776 -0.2125 -1.8736
 6973SOL     OW32554   3.123   3.236   2.608  0.1447 -0.2106 -0.9080
 6973SOL    HW132555   3.172   3.259   2.529  0.5884  0.7976 -0.3293
 6973SOL    HW232556   3.110   3.327   2.634  0.5617 -1.0574  2.2385
 6974SOL     OW32557   0.141   3.913   3.021  0.7910 -0.0983  0.0918
 6974SOL    HW132558   0.208   3.980   3.017  0.0086  0.7658  1.3718
 6974SOL    HW232559   0.174   3.870   2.942  0.8121 -0.6414  0.3925
 6975SOL     OW32560   2.527   0.871   4.515 -0.0832 -0.5190 -0.1185
 6975SOL    HW132561   2.557   0.882   4.605  1.9525 -0.8561 -0.7574
 6975SOL    HW232562   2.444   0.822   4.515  1.3278 -2.9176  0.7310
 6976SOL     OW32563   2.854   0.515  15.090  0.5579 -0.0137  0.1924
 6976SOL    HW132564   2.776   0.564  15.065 -1.7629 -2.4216  2.7480
 6976SOL    HW232565   2.827   0.423  15.085 -0.1378  0.2847 -1.6057
 6977SOL     OW32566   0.818   3.326   8.997  0.5230  0.3007 -0.4404
 6977SOL    HW132567   0.899   3.363   9.032  0.6444 -0.5520  0.1634
 6977SOL    HW232568   0.839   3.349   8.906 -0.0575 -0.0184 -0.6593
 6978SOL     OW32569   0.636   0.222   1.525 -0.4867  0.0274  1.5266
 6978SOL    HW132570   0.667   0.154   1.466  1.9355  3.0553 -0.6605
 6978SOL    HW232571   0.696   0.294   1.505 -1.6031  0.5283  0.0419
 6979SOL     OW32572   0.579   3.165   5.189  0.5205  0.1761  0.2379
 6979SOL    HW132573   0.536   3.087   5.153  0.9847  0.1413 -0.2373
 6979SOL    HW232574   0.637   3.116   5.247  0.2757 -2.0616 -1.3921
 6980SOL     OW32575   3.672   2.206   6.548  0.5830  0.2395 -0.1970
 6980SOL    HW132576   3.660   2.281   6.490  2.1417  0.1725 -0.6113
 6980SOL    HW232577   3.582   2.173   6.540  0.2071  0.9113  1.1961
 6981SOL     OW32578   3.930   3.779   6.975 -0.0672  0.3671 -0.2070
 6981SOL    HW132579   3.868   3.844   6.943  0.4868  0.8095 -0.3878
 6981SOL    HW232580   4.012   3.827   6.968 -0.1042  0.1702 -1.9549
 6982SOL     OW32581   2.145   3.576  17.604  0.4177  0.1304 -0.1925
 6982SOL    HW132582   2.069   3.601  17.657  1.2468  2.0276  0.0925
 6982SOL    HW232583   2.177   3.501  17.654 -0.6783 -2.6933 -3.7090
 6983SOL     OW32584   2.038   0.669  15.185 -0.6825 -0.0835  0.5619
 6983SOL    HW132585   1.970   0.732  15.159 -1.3041 -0.6457  0.8180
 6983SOL    HW232586   2.042   0.623  15.101  1.7336 -1.2540  1.3386
 6984SOL     OW32587   4.583   3.438  12.083 -0.0198  0.2597  0.0817
 6984SOL    HW132588   4.637   3.458  12.007  0.0383  1.1167  0.3434
 6984SOL    HW232589   4.531   3.519  12.084 -1.5631 -0.7287 -0.3878
 6985SOL     OW32590   3.320   3.158  16.161  0.3964 -0.4087 -0.1754
 6985SOL    HW132591   3.293   3.244  16.193  2.3066  0.5535 -1.1217
 6985SOL    HW232592   3.375   3.178  16.085 -0.8110 -0.2139 -0.9975
 6986SOL     OW32593   3.353   3.258   8.484 -0.0441  0.7313  0.1156
 6986SOL    HW132594   3.380   3.294   8.569  2.2341 -0.3186 -0.1581
 6986SOL    HW232595   3.257   3.258   8.489  0.0718  1.1477  2.5814
 6987SOL     OW32596   3.327   0.637   4.259 -0.2548 -0.0444 -0.2976
 6987SOL    HW132597   3.333   0.592   4.175 -2.3323 -0.3189 -0.2914
 6987SOL    HW232598   3.343   0.728   4.235 -1.4661  0.2011 -0.1389
 6988SOL     OW32599   2.566   3.606   2.968  0.5476 -0.0964  0.3257
 6988SOL    HW132600   2.612   3.616   3.052 -1.2958  0.0432  1.3272
 6988SOL    HW232601   2.591   3.519   2.939  2.7196  0.7179 -0.2428
 6989SOL     OW32602   0.436   2.849  13.263  0.4737  0.5934  0.4247
 6989SOL    HW132603   0.387   2.930  13.269  0.6446  0.5873  1.9419
 6989SOL    HW232604   0.424   2.805  13.348 -1.0919 -0.0778 -0.1487
 6990SOL     OW32605   0.226   1.103  13.847  0.8744  0.9891 -0.0668
 6990SOL    HW132606   0.277   1.169  13.893  1.9357 -1.0871  1.7510
 6990SOL    HW232607   0.244   1.019  13.890  0.2148  1.7338  1.6783
 6991SOL     OW32608   2.499   0.799   8.163  0.1482  0.3577 -0.9427
 6991SOL    HW132609   2.504   0.763   8.074  0.7120 -0.0107 -0.7621
 6991SOL    HW232610   2.415   0.760   8.189 -0.8022  2.3684 -0.9830
 6992SOL     OW32611   2.121   3.069   6.670 -0.0665 -0.4664 -0.5247
 6992SOL    HW132612   2.169   3.126   6.729 -1.2066  0.7413 -0.7437
 6992SOL    HW232613   2.184   2.999   6.656 -0.2243 -0.6605 -0.2576
 6993SOL     OW32614   1.690   1.413  16.941 -0.1569 -0.0872  0.3816
 6993SOL    HW132615   1.728   1.472  16.876 -0.1634 -0.0192  0.4388
 6993SOL    HW232616   1.596   1.427  16.925 -0.3089 -1.1574  0.3713
 6994SOL     OW32617   3.421   0.233   4.303  0.3673  0.2347 -0.0669
 6994SOL    HW132618   3.458   0.147   4.323 -1.4166 -0.4653  0.1907
 6994SOL    HW232619   3.328   0.218   4.317  0.4194  0.9566  1.0389
 6995SOL     OW32620   0.317   3.128   9.392  0.1972 -0.1825  0.2075
 6995SOL    HW132621   0.335   3.148   9.484 -3.4912 -0.4320  0.9594
 6995SOL    HW232622   0.392   3.166   9.346  0.3297  0.8805  1.3043
 6996SOL     OW32623   3.721   2.560   3.153 -0.0888 -0.2484  0.5502
 6996SOL    HW132624   3.774   2.626   3.197 -0.6621  0.0059  0.8552
 6996SOL    HW232625   3.670   2.616   3.094  0.8070  0.0110  0.0153
 6997SOL     OW32626   1.845   0.640  11.996  0.1001  0.8974  0.3410
 6997SOL    HW132627   1.923   0.636  12.052  1.2786 -0.5354 -1.3831
 6997SOL    HW232628   1.867   0.564  11.941 -1.2810 -0.4513  1.6391
 6998SOL     OW32629   4.236   3.437   6.884 -0.2917 -0.6741 -0.2224
 6998SOL    HW132630   4.266   3.527   6.867  0.3059 -0.6036  1.2006
 6998SOL    HW232631   4.144   3.463   6.891 -0.9328 -3.0478  0.0234
 6999SOL     OW32632   1.819   1.170   1.024 -0.5251 -0.5450  0.4390
 6999SOL    HW132633   1.735   1.198   0.987 -1.3078 -1.5201  1.4491
 6999SOL    HW232634   1.818   1.237   1.092 -0.4645  0.3289 -0.4223
 7000SOL     OW32635   3.613   1.808   6.153  0.1053  0.1319 -0.6195
 7000SOL    HW132636   3.559   1.887   6.158 -0.1712 -0.1329  0.5550
 7000SOL    HW232637   3.698   1.829   6.192  0.8468 -2.1566 -1.0109
 7001SOL     OW32638   1.271   3.127   7.921 -0.4393  0.3987  0.1669
 7001SOL    HW132639   1.293   3.207   7.873 -2.0236 -0.4686 -2.0276
 7001SOL    HW232640   1.185   3.150   7.956 -0.6982  0.1194 -0.2805
 7002SOL     OW32641   2.544   2.785   8.858  0.1577  0.0516  0.6297
 7002SOL    HW132642   2.616   2.734   8.820  1.0789  2.6990 -1.1530
 7002SOL    HW232643   2.524   2.733   8.937 -0.8812  1.4093  1.2500
 7003SOL     OW32644   2.869   2.126   9.723 -0.4666 -0.8681 -0.1791
 7003SOL    HW132645   2.908   2.140   9.636  0.1833 -0.7723  0.1259
 7003SOL    HW232646   2.914   2.193   9.775 -1.4742 -0.8578  0.6592
 7004SOL     OW32647   2.022   4.548  10.017 -0.4312 -0.5107  0.5722
 7004SOL    HW132648   2.061   4.580  10.098 -1.6302  2.1639  0.0849
 7004SOL    HW232649   1.979   4.473  10.060  0.5310 -0.2550  1.9833
 7005SOL     OW32650   0.496   2.002   3.102 -0.5418 -0.5007 -0.0895
 7005SOL    HW132651   0.500   1.950   3.021  0.3559 -1.6464  0.7017
 7005SOL    HW232652   0.567   1.959   3.149 -0.7909  0.4584  1.1407
 7006SOL     OW32653   1.777   1.201   0.551 -0.2567  0.2261  0.3870
 7006SOL    HW132654   1.712   1.272   0.553  0.2745  0.7757 -1.7084
 7006SOL    HW232655   1.858   1.249   0.536 -0.2391 -0.2644 -1.0783
 7007SOL     OW32656   0.900   4.526   3.835  0.9765 -0.1584  0.2999
 7007SOL    HW132657   0.937   4.612   3.814 -0.8404  0.1170 -1.7080
 7007SOL    HW232658   0.827   4.533   3.774 -0.7895 -3.3006  2.0526
 7008SOL     OW32659   0.009   0.409   8.813  0.2298  0.5355  0.0325
 7008SOL    HW132660   0.077   0.455   8.764 -0.3932  0.9314 -0.4654
 7008SOL    HW232661   0.062   0.331   8.832  2.2881  1.4801 -1.8108
 7009SOL     OW32662   4.642   4.087   3.934  0.0414 -0.3311 -0.3416
 7009SOL    HW132663   4.719   4.054   3.887 -0.0718  1.7306 -1.9916
 7009SOL    HW232664   4.689   4.154   3.984 -0.4037 -0.8846  0.8121
 7010SOL     OW32665   3.313   4.219   4.627 -0.0539 -0.1896 -0.2823
 7010SOL    HW132666   3.293   4.257   4.541  0.9350 -0.1050 -0.4735
 7010SOL    HW232667   3.295   4.295   4.683  0.5822  1.0538 -1.7510
 7011SOL     OW32668   4.492   0.170   5.678  0.1558 -0.0528 -0.2539
 7011SOL    HW132669   4.545   0.152   5.756 -0.8151 -1.7457  0.0051
 7011SOL    HW232670   4.523   0.260   5.667 -3.0170  1.3621  2.0096
 7012SOL     OW32671   0.993   4.634   8.582  0.0153 -0.6785  0.2374
 7012SOL    HW132672   0.909   4.632   8.537  0.4825 -0.3800 -0.6544
 7012SOL    HW232673   1.048   4.627   8.504  1.5777 -0.2732  1.2845
 7013SOL     OW32674   3.599   0.366   5.752  0.4758 -0.4417  0.0740
 7013SOL    HW132675   3.618   0.454   5.722  3.0076 -0.7809  0.7003
 7013SOL    HW232676   3.667   0.364   5.819 -1.2101 -0.3527  1.7876
 7014SOL     OW32677   1.556   2.593   7.606 -0.8247  0.5293  0.4651
 7014SOL    HW132678   1.632   2.536   7.592 -1.0301 -0.1778  2.1806
 7014SOL    HW232679   1.505   2.530   7.657  0.6518 -1.0467  0.0049
 7015SOL     OW32680   1.989   4.201   2.706  0.5942  0.0974 -0.1045
 7015SOL    HW132681   1.899   4.219   2.732  0.6020  1.1565 -0.8041
 7015SOL    HW232682   1.991   4.200   2.610 -0.1681 -0.2750 -0.1084
 7016SOL     OW32683   1.220   0.570   8.680 -0.3956 -0.3415 -0.4799
 7016SOL    HW132684   1.237   0.662   8.700  0.3844 -1.2285  2.8599
 7016SOL    HW232685   1.138   0.545   8.724  1.5190  0.9421  3.7931
 7017SOL     OW32686   0.629   3.822   1.366  0.2871 -0.0761  0.0189
 7017SOL    HW132687   0.717   3.816   1.402  0.5845  0.4153 -0.6558
 7017SOL    HW232688   0.636   3.756   1.297 -0.6009  0.8443 -0.9526
 7018SOL     OW32689   1.105   3.960   2.287 -0.2258  0.0488  0.1641
 7018SOL    HW132690   1.154   4.033   2.247 -1.8494 -0.4964 -2.8480
 7018SOL    HW232691   1.016   3.996   2.286 -0.8407 -1.4871 -0.3782
 7019SOL     OW32692   1.691   4.158  14.668 -0.0820 -0.3526  0.0174
 7019SOL    HW132693   1.660   4.069  14.652 -2.3737  0.0499  2.1422
 7019SOL    HW232694   1.653   4.163  14.756 -0.8154 -0.5275 -0.2856
 7020SOL     OW32695   3.372   0.390   3.173 -0.5975  0.3152 -0.3584
 7020SOL    HW132696   3.300   0.435   3.218 -0.7211 -1.5914  1.3402
 7020SOL    HW232697   3.335   0.318   3.122  1.0587 -0.0562 -1.0285
 7021SOL     OW32698   3.695   0.715   4.612  0.0725  0.6171  0.3172
 7021SOL    HW132699   3.716   0.652   4.543 -2.9764  1.4288 -1.3221
 7021SOL    HW232700   3.782   0.753   4.626 -0.5101  2.0687  0.0332
 7022SOL     OW32701   2.968   1.649   2.585  0.4286 -0.5763 -0.4722
 7022SOL    HW132702   3.040   1.636   2.646 -0.2544  0.7581  0.6172
 7022SOL    HW232703   2.898   1.649   2.650  1.7177  2.8393  0.9102
 7023SOL     OW32704   1.759   2.025   6.144 -0.5596 -0.2939  0.3685
 7023SOL    HW132705   1.713   1.943   6.161 -0.3130 -0.7577 -1.1742
 7023SOL    HW232706   1.849   2.004   6.171 -0.7133 -0.1156  1.0156
 7024SOL     OW32707   1.229   2.956  12.485 -0.5703 -0.2268  0.4176
 7024SOL    HW132708   1.270   3.017  12.423 -1.4452 -1.4069 -1.3180
 7024SOL    HW232709   1.229   2.879  12.428  0.5683  0.5521 -0.6308
 7025SOL     OW32710   4.625   0.475   2.032 -0.6640 -0.1329  0.1514
 7025SOL    HW132711   4.600   0.431   1.951  1.0259  3.3359 -2.2599
 7025SOL    HW232712   4.641   0.562   1.996  3.5448 -0.0547  2.2139
 7026SOL     OW32713   1.870   2.249   3.423  0.2178  0.9607 -0.4638
 7026SOL    HW132714   1.952   2.216   3.385 -1.9544 -0.9956 -3.3783
 7026SOL    HW232715   1.821   2.168   3.414 -0.0600  1.2960 -1.9879
 7027SOL     OW32716   1.844   2.933   3.791 -0.0946  0.0731  0.1940
 7027SOL    HW132717   1.854   2.840   3.812 -1.2133  0.1360  1.0164
 7027SOL    HW232718   1.889   2.931   3.707 -0.6484  0.4849 -0.1119
 7028SOL     OW32719   2.384   2.639   2.753  0.1314 -0.1312  0.0527
 7028SOL    HW132720   2.355   2.650   2.844 -0.4130 -0.1507 -0.1141
 7028SOL    HW232721   2.430   2.556   2.763  0.8382  0.1280 -1.1405
 7029SOL     OW32722   4.251   4.418  12.223  0.4311  0.1928 -0.4966
 7029SOL    HW132723   4.201   4.464  12.156  1.0607  2.3911  0.5416
 7029SOL    HW232724   4.189   4.438  12.294 -0.7348  0.8021 -1.6972
 7030SOL     OW32725   4.535   0.979   5.532  0.0378 -0.0827  0.3778
 7030SOL    HW132726   4.547   1.035   5.455 -0.1363  0.0487  0.4466
 7030SOL    HW232727   4.498   1.050   5.585 -0.5565 -0.7834  0.9084
 7031SOL     OW32728   1.405   3.798   5.241 -0.3321 -0.5425  0.3619
 7031SOL    HW132729   1.391   3.892   5.245 -2.9868 -1.0124  1.5045
 7031SOL    HW232730   1.410   3.785   5.146 -0.9439 -2.0198  0.5261
 7032SOL     OW32731   3.750   2.598   2.377  0.3646 -0.1467  0.1130
 7032SOL    HW132732   3.682   2.576   2.441  0.0260  0.6944  0.0463
 7032SOL    HW232733   3.699   2.654   2.319  1.8873 -0.4588 -1.5141
 7033SOL     OW32734   1.901   3.973  14.732  0.2042 -0.4758 -0.4077
 7033SOL    HW132735   1.863   3.955  14.646 -1.4882 -0.5323  0.3518
 7033SOL    HW232736   1.889   4.068  14.730  1.0567 -0.3504  0.5437
 7034SOL     OW32737   4.494   0.350   1.792  0.6554 -0.2984 -0.4033
 7034SOL    HW132738   4.454   0.399   1.720 -1.2321 -2.1481 -0.6032
 7034SOL    HW232739   4.496   0.263   1.752  1.0654 -1.1167  1.3911
 7035SOL     OW32740   2.004   3.585   8.081  0.0848  0.1577  0.1063
 7035SOL    HW132741   1.930   3.636   8.116 -1.3061 -1.3131 -0.7015
 7035SOL    HW232742   2.074   3.650   8.089  0.2629 -0.1243  0.7669
 7036SOL     OW32743   4.419   2.388   2.572 -0.4517 -0.5213  0.0499
 7036SOL    HW132744   4.370   2.377   2.654  0.4123 -0.4929  0.5692
 7036SOL    HW232745   4.378   2.466   2.535 -1.1339 -0.3842  1.0896
 7037SOL     OW32746   2.986   0.004   1.556  0.1763 -0.2901 -0.0406
 7037SOL    HW132747   2.954   4.678   1.621  1.2718 -0.6265  0.1606
 7037SOL    HW232748   2.900   0.034   1.524 -0.0976 -1.5106 -0.4507
 7038SOL     OW32749   3.628   3.739   4.742 -0.0536  0.2629  0.4282
 7038SOL    HW132750   3.605   3.819   4.694 -0.4741  0.0257  0.2327
 7038SOL    HW232751   3.724   3.740   4.734  0.0157  2.7790  1.6525
 7039SOL     OW32752   2.184   0.390   2.560 -0.4928 -0.0972 -0.0190
 7039SOL    HW132753   2.233   0.380   2.641  0.3360 -0.0990 -0.5178
 7039SOL    HW232754   2.262   0.381   2.504  0.3593 -0.1441  1.1827
 7040SOL     OW32755   2.090   1.302  17.365 -0.0178  0.0157  0.0598
 7040SOL    HW132756   2.026   1.345  17.308  1.7335  2.9153  0.2934
 7040SOL    HW232757   2.041   1.223  17.388 -1.0495  0.9214  1.0135
 7041SOL     OW32758   1.789   1.704   4.602  0.0471  0.2726 -0.0434
 7041SOL    HW132759   1.707   1.709   4.553  0.5176 -0.4245 -0.9179
 7041SOL    HW232760   1.777   1.627   4.658 -0.1934  1.6213  1.7525
 7042SOL     OW32761   4.062   3.724   9.520 -0.5303  0.1207 -0.0610
 7042SOL    HW132762   4.119   3.796   9.493  0.8700 -0.2319  1.9226
 7042SOL    HW232763   4.126   3.653   9.512  0.8675  1.2405  1.1819
 7043SOL     OW32764   4.560   4.643   1.827  0.2553 -0.3756 -0.4904
 7043SOL    HW132765   4.544   4.715   1.767  0.0400  0.6505  0.7919
 7043SOL    HW232766   4.585   4.696   1.903 -2.0036 -0.8259  0.5642
 7044SOL     OW32767   1.904   0.868   3.713  0.6987  0.2338 -0.4321
 7044SOL    HW132768   1.853   0.944   3.684 -1.0809 -1.1822 -1.0109
 7044SOL    HW232769   1.975   0.906   3.765  1.6011  0.8594 -2.1161
 7045SOL     OW32770   1.580   4.530   6.059  0.0508  0.4910 -0.2204
 7045SOL    HW132771   1.561   4.437   6.065 -0.9812  0.7013 -0.3155
 7045SOL    HW232772   1.512   4.566   6.002 -0.3992  0.6626  0.4263
 7046SOL     OW32773   1.996   1.896   9.693  0.0636 -0.0320 -0.3123
 7046SOL    HW132774   1.901   1.893   9.702  0.0929 -1.5575 -0.4749
 7046SOL    HW232775   2.012   1.866   9.603  1.2389  0.6514 -0.3369
 7047SOL     OW32776   1.978   3.691   4.456 -0.2771 -0.1583  0.2542
 7047SOL    HW132777   1.920   3.618   4.434 -0.5670  0.6428 -1.5686
 7047SOL    HW232778   1.913   3.761   4.449  0.6742  0.9015  1.8173
 7048SOL     OW32779   1.566   2.326  15.214 -0.1986  0.0443  0.3973
 7048SOL    HW132780   1.565   2.260  15.284 -2.0247  1.3431  1.6010
 7048SOL    HW232781   1.489   2.314  15.158 -0.0420  0.3069  0.1256
 7049SOL     OW32782   0.838   3.562   6.168  0.6757 -0.4492 -0.3981
 7049SOL    HW132783   0.820   3.535   6.077 -1.0419  1.1501 -0.5290
 7049SOL    HW232784   0.889   3.485   6.195  0.1665 -1.3040 -1.8385
 7050SOL     OW32785   3.061   3.322   9.166 -0.3063 -0.5665 -0.0807
 7050SOL    HW132786   3.015   3.260   9.223 -2.1384  0.6915 -0.1863
 7050SOL    HW232787   3.147   3.280   9.164  0.5412  1.1905 -0.2232
 7051SOL     OW32788   1.166   1.479  16.849  0.1051  0.2190  0.0101
 7051SOL    HW132789   1.126   1.462  16.934 -1.5364  2.8378 -0.2409
 7051SOL    HW232790   1.095   1.444  16.794 -1.5990  1.3310  1.4992
 7052SOL     OW32791   2.970   0.124   9.086 -0.0339 -0.0793 -0.7211
 7052SOL    HW132792   2.879   0.127   9.057 -0.8204 -1.0265  1.6263
 7052SOL    HW232793   2.980   0.029   9.093 -0.0010  0.0546  1.0685
 7053SOL     OW32794   2.931   2.041  12.920  0.5360  0.3006  0.3090
 7053SOL    HW132795   2.842   2.028  12.888  0.0359 -2.5486  2.8541
 7053SOL    HW232796   2.960   1.951  12.936 -1.0543 -0.0100  1.5221
 7054SOL     OW32797   1.622   0.718   2.662 -0.1890  0.5541 -0.0813
 7054SOL    HW132798   1.634   0.624   2.671  0.8093  0.5046 -1.7944
 7054SOL    HW232799   1.662   0.715   2.575  1.7804 -1.2075  0.8984
 7055SOL     OW32800   0.658   1.481  17.103  0.0248 -0.3383 -0.3394
 7055SOL    HW132801   0.692   1.568  17.082  2.1852 -1.3058 -0.9382
 7055SOL    HW232802   0.669   1.481  17.198  1.5026 -0.2400 -0.4965
 7056SOL     OW32803   2.488   4.437   3.692 -0.6694  0.5700  0.1658
 7056SOL    HW132804   2.445   4.517   3.661 -1.1204  0.4213  0.4185
 7056SOL    HW232805   2.414   4.386   3.724  1.1925 -1.8926  0.5546
 7057SOL     OW32806   4.190   1.367   7.522  1.0778  0.2759  0.5007
 7057SOL    HW132807   4.122   1.410   7.574 -0.9478 -1.6569 -0.5476
 7057SOL    HW232808   4.204   1.280   7.561  0.6105 -0.1565 -0.3043
 7058SOL     OW32809   1.498   1.093   9.817  0.2466  0.2117 -0.6501
 7058SOL    HW132810   1.560   1.065   9.884 -1.3656  2.7361  1.8976
 7058SOL    HW232811   1.453   1.012   9.795  1.1128 -1.1046  2.4962
 7059SOL     OW32812   4.686   1.137   3.981 -0.0744 -0.2533 -0.1014
 7059SOL    HW132813   4.606   1.188   3.986 -0.4235 -0.6685 -1.3406
 7059SOL    HW232814   4.727   1.173   3.902 -0.5789  0.5708  0.0185
 7060SOL     OW32815   2.921   0.585   6.002  0.4108  0.3833 -0.0627
 7060SOL    HW132816   2.935   0.491   6.016  0.3686  0.2624 -0.8721
 7060SOL    HW232817   2.826   0.590   5.993  0.2932 -2.4569 -0.4005
 7061SOL     OW32818   1.442   3.302   6.718 -0.0377 -0.6775  0.3628
 7061SOL    HW132819   1.430   3.364   6.790  0.8424 -1.8913  1.5679
 7061SOL    HW232820   1.363   3.247   6.726 -1.2998  0.9928 -0.6473
 7062SOL     OW32821   1.751   0.339   0.841  0.7707 -0.8424  0.3012
 7062SOL    HW132822   1.777   0.390   0.764 -0.2102 -0.5595  0.1583
 7062SOL    HW232823   1.745   0.407   0.908  0.9105 -0.9231  0.3937
 7063SOL     OW32824   2.925   4.238   3.409  0.2773  0.0603 -0.7524
 7063SOL    HW132825   2.924   4.320   3.361  0.2483 -0.0627 -0.9605
 7063SOL    HW232826   2.959   4.266   3.494  0.4968 -2.9466  0.1361
 7064SOL     OW32827   4.393   0.402   9.291  0.5023 -0.7287 -0.2802
 7064SOL    HW132828   4.409   0.404   9.197 -1.9755 -1.4566 -0.6991
 7064SOL    HW232829   4.450   0.326   9.310 -1.1467 -1.6347  1.0715
 7065SOL     OW32830   1.757   0.177  16.150 -1.1932 -0.3818 -0.3069
 7065SOL    HW132831   1.808   0.253  16.179 -2.5098  0.5046 -0.3231
 7065SOL    HW232832   1.705   0.162  16.229  0.8241 -2.1909  0.6835
 7066SOL     OW32833   0.183   3.764   2.415  0.0840  0.4440  0.0545
 7066SOL    HW132834   0.257   3.724   2.460  0.6285  2.7546  1.1972
 7066SOL    HW232835   0.109   3.709   2.441  1.0561 -0.8632  0.0602
 7067SOL     OW32836   2.770   3.893  14.720 -0.1095 -0.2916  0.2768
 7067SOL    HW132837   2.703   3.836  14.758 -1.9252  1.8901  0.3688
 7067SOL    HW232838   2.734   3.901  14.631  0.0627  0.7210  0.2918
 7068SOL     OW32839   2.395   1.570   2.703  0.0960  0.1937 -0.0482
 7068SOL    HW132840   2.326   1.618   2.657  0.6849  0.9521 -0.1466
 7068SOL    HW232841   2.399   1.492   2.648  0.0701 -0.8747  1.4513
 7069SOL     OW32842   0.332   2.832   6.157  0.1106  0.4325 -0.3016
 7069SOL    HW132843   0.354   2.909   6.105  1.4653  0.8056  0.8392
 7069SOL    HW232844   0.310   2.769   6.089 -0.1760 -2.7596  2.7256
 7070SOL     OW32845   3.553   0.986   8.556 -0.0192  0.6643 -0.0283
 7070SOL    HW132846   3.645   0.960   8.558 -0.6478 -1.5458  0.1151
 7070SOL    HW232847   3.542   1.018   8.467 -1.1394  1.5138  0.4141
 7071SOL     OW32848   2.103   4.734   5.162 -0.1358  0.0533  0.1072
 7071SOL    HW132849   2.103   4.725   5.067 -1.1661 -0.4574  0.1468
 7071SOL    HW232850   2.126   4.647   5.195  2.4134 -0.3377 -2.7837
 7072SOL     OW32851   0.238   0.284  16.792 -0.3522 -0.3171 -0.0181
 7072SOL    HW132852   0.200   0.326  16.714 -2.3723  1.2838  1.8234
 7072SOL    HW232853   0.276   0.203  16.757  0.5581  0.0072  0.2472
 7073SOL     OW32854   2.531   1.601   5.928 -0.4582 -0.1625 -0.3430
 7073SOL    HW132855   2.613   1.595   5.977 -0.1476  1.3425 -0.6795
 7073SOL    HW232856   2.548   1.530   5.867 -0.3712 -1.4705  1.1899
 7074SOL     OW32857   2.006   0.191   8.081  0.5578 -0.1608 -0.1062
 7074SOL    HW132858   2.055   0.110   8.092  0.3620 -0.4588 -1.4736
 7074SOL    HW232859   1.940   0.166   8.017  0.7268 -0.6809 -0.0730
 7075SOL     OW32860   2.255   2.411   9.812 -0.2158 -0.4827 -0.1859
 7075SOL    HW132861   2.308   2.490   9.818  0.7196 -0.9693 -2.2389
 7075SOL    HW232862   2.222   2.412   9.722  0.3034 -1.0124 -0.3815
 7076SOL     OW32863   1.293   3.482   7.602  0.2081 -0.5917 -0.0655
 7076SOL    HW132864   1.320   3.459   7.691 -0.8132  1.5614  0.8014
 7076SOL    HW232865   1.269   3.393   7.576  0.3813 -0.6462 -0.0366
 7077SOL     OW32866   4.180   1.549   4.484 -0.4814 -0.2557  0.7162
 7077SOL    HW132867   4.161   1.455   4.485  0.1603 -0.3833  1.0471
 7077SOL    HW232868   4.271   1.551   4.515  0.6541  3.2785 -2.8625
 7078SOL     OW32869   0.579   2.168  11.209  0.6640  0.2980 -0.1891
 7078SOL    HW132870   0.636   2.121  11.148  2.3070  3.9250 -1.4645
 7078SOL    HW232871   0.509   2.199  11.152  1.8328  0.7826 -1.3627
 7079SOL     OW32872   2.242   0.344  17.525 -0.0162  0.2770 -0.2695
 7079SOL    HW132873   2.318   0.381  17.569  0.8898 -0.2475 -1.3860
 7079SOL    HW232874   2.182   0.334  17.599 -0.7745 -1.7167 -1.1355
 7080SOL     OW32875   0.034   1.539   2.632 -0.0700  0.3500  0.0171
 7080SOL    HW132876   4.727   1.506   2.711  1.5111 -0.7653  0.3998
 7080SOL    HW232877   0.088   1.468   2.597  0.1208  0.5746 -0.1422
 7081SOL     OW32878   2.494   1.322   3.704  1.3155  0.2831 -0.5449
 7081SOL    HW132879   2.569   1.314   3.763 -0.1036 -0.9447  1.0807
 7081SOL    HW232880   2.517   1.277   3.622 -2.2889 -1.6151 -0.5179
 7082SOL     OW32881   4.023   3.683   2.833  0.4048  0.1129  0.5736
 7082SOL    HW132882   4.074   3.715   2.759 -1.2305 -0.1431 -0.6719
 7082SOL    HW232883   4.054   3.740   2.904  2.9799  0.7098 -1.0199
 7083SOL     OW32884   2.701   0.390   3.774  0.1953  0.2428 -0.4378
 7083SOL    HW132885   2.703   0.403   3.679  0.9511 -0.4629 -0.5213
 7083SOL    HW232886   2.611   0.362   3.786  0.3471 -1.1584 -2.5833
 7084SOL     OW32887   0.394   2.688   9.160 -0.6185  0.2504 -0.4182
 7084SOL    HW132888   0.423   2.717   9.247  0.3636  0.0951 -0.6876
 7084SOL    HW232889   0.299   2.693   9.168 -0.5050  0.7271  0.7296
 7085SOL     OW32890   4.199   3.569  12.249  0.2964 -0.9534  0.5150
 7085SOL    HW132891   4.145   3.620  12.309  0.4838  1.2700 -1.2138
 7085SOL    HW232892   4.249   3.515  12.310 -2.2592 -2.0228  1.6552
 7086SOL     OW32893   1.039   0.317   7.124 -0.3838 -0.5474  0.3036
 7086SOL    HW132894   1.009   0.394   7.173 -0.3806 -0.0530 -0.4630
 7086SOL    HW232895   1.002   0.247   7.178  1.3929 -0.5698  1.5146
 7087SOL     OW32896   4.210   3.864   2.094  0.2000  0.2422  0.1964
 7087SOL    HW132897   4.187   3.929   2.027 -2.1807 -0.7384  0.0609
 7087SOL    HW232898   4.254   3.800   2.038  0.3816 -0.6355  1.3615
 7088SOL     OW32899   1.423   1.504   7.240  0.0114  0.0414 -0.2863
 7088SOL    HW132900   1.351   1.493   7.301 -0.6405  0.6826 -0.9457
 7088SOL    HW232901   1.388   1.516   7.152 -0.9061  1.5675  0.2877
 7089SOL     OW32902   0.946   1.663   8.405  0.1114  0.0227  0.2748
 7089SOL    HW132903   0.990   1.720   8.342  1.9942 -3.5073 -1.6476
 7089SOL    HW232904   0.991   1.579   8.392 -0.3230 -0.3976  1.5451
 7090SOL     OW32905   0.534   4.095   9.676  0.0368  0.4378 -0.5287
 7090SOL    HW132906   0.477   4.073   9.601  0.4594  0.0649 -0.7417
 7090SOL    HW232907   0.465   4.101   9.742 -0.9843  1.6146 -1.7057
 7091SOL     OW32908   2.912   1.523   6.561 -0.2203  0.2666 -0.4543
 7091SOL    HW132909   2.831   1.498   6.516 -1.0916  2.4341 -0.1083
 7091SOL    HW232910   2.894   1.484   6.646 -1.3952 -0.4224 -1.0069
 7092SOL     OW32911   1.549   1.897  17.328  0.4118  0.5558 -0.0328
 7092SOL    HW132912   1.631   1.937  17.299 -1.3632  2.3620 -2.5981
 7092SOL    HW232913   1.489   1.972  17.321 -0.3849  0.1727  2.8861
 7093SOL     OW32914   0.571   4.564  12.372  0.3553 -0.4588 -0.3343
 7093SOL    HW132915   0.586   4.650  12.411  0.5199 -1.5502  1.9799
 7093SOL    HW232916   0.488   4.582  12.328  0.5881 -1.2777 -1.1084
 7094SOL     OW32917   3.004   2.661   7.225  0.0797 -0.0689 -0.2493
 7094SOL    HW132918   3.053   2.716   7.286 -0.1073  0.7122 -0.8052
 7094SOL    HW232919   2.947   2.620   7.289  0.7670  1.1529  1.1497
 7095SOL     OW32920   1.862   3.473  15.683  0.2180 -0.2421  0.1251
 7095SOL    HW132921   1.769   3.449  15.675 -0.0510  0.6285  0.7087
 7095SOL    HW232922   1.868   3.498  15.775 -0.3314  1.0815 -0.1971
 7096SOL     OW32923   1.275   0.888   4.027  0.4380  0.1266 -0.3377
 7096SOL    HW132924   1.277   0.894   3.931 -0.2885 -1.9984 -0.4743
 7096SOL    HW232925   1.363   0.856   4.048 -0.0782 -1.2282 -0.2744
 7097SOL     OW32926   3.025   0.683   7.984 -0.0272  0.0605  0.4432
 7097SOL    HW132927   2.961   0.629   8.030  1.6274 -2.2961 -0.0442
 7097SOL    HW232928   3.003   0.677   7.891 -0.7270 -3.2739  0.8218
 7098SOL     OW32929   0.567   1.514   2.412 -1.0254 -0.1750  0.5665
 7098SOL    HW132930   0.654   1.512   2.453 -0.2959  2.9852 -0.7581
 7098SOL    HW232931   0.590   1.576   2.343  0.3317 -0.4666  0.7551
 7099SOL     OW32932   1.891   2.421  15.103  0.0489 -0.4142 -0.5440
 7099SOL    HW132933   1.848   2.355  15.050 -0.3722 -0.1177 -0.5681
 7099SOL    HW232934   1.865   2.409  15.194  1.8398  0.8842  0.1508
 7100SOL     OW32935   2.588   3.245  17.021 -0.7996 -0.0661 -0.0134
 7100SOL    HW132936   2.664   3.303  17.029  1.1299 -2.3415 -2.1447
 7100SOL    HW232937   2.528   3.279  17.088 -1.8573 -1.9599 -0.0140
 7101SOL     OW32938   0.674   4.545   1.515 -0.0501  0.1128 -0.1784
 7101SOL    HW132939   0.624   4.464   1.508  0.9592 -0.4435 -0.9481
 7101SOL    HW232940   0.705   4.549   1.606 -0.4391  1.5949 -0.1047
 7102SOL     OW32941   3.773   0.014   6.958 -0.1518 -0.0948  0.3593
 7102SOL    HW132942   3.680   0.025   6.979 -0.2688 -1.0513  0.3777
 7102SOL    HW232943   3.797   0.100   6.924  0.2537  0.1760  1.3251
 7103SOL     OW32944   1.727   0.219   7.159  0.5144  0.6003  0.0685
 7103SOL    HW132945   1.772   0.248   7.080 -3.8364  2.4193 -1.7836
 7103SOL    HW232946   1.674   0.144   7.132  0.1105  1.0948 -0.5407
 7104SOL     OW32947   1.858   1.197  11.948 -0.3968 -0.1245  0.1627
 7104SOL    HW132948   1.888   1.110  11.977 -2.5783 -0.7111  0.6580
 7104SOL    HW232949   1.794   1.180  11.879 -0.2578  1.5845 -0.3618
 7105SOL     OW32950   4.502   1.367   2.663  0.1733  0.0804 -0.7540
 7105SOL    HW132951   4.521   1.286   2.709  0.0965  0.0197 -0.8291
 7105SOL    HW232952   4.536   1.438   2.717  0.4004 -0.4919 -0.1444
 7106SOL     OW32953   3.453   1.262   1.244 -0.2110 -0.1907  0.4050
 7106SOL    HW132954   3.533   1.280   1.293  0.0717  1.9759 -0.8613
 7106SOL    HW232955   3.490   1.220   1.167  0.2292 -0.9023  1.0070
 7107SOL     OW32956   2.057   1.111  15.370 -0.1681  0.2915 -0.5597
 7107SOL    HW132957   2.143   1.070  15.381 -0.5830 -0.9407 -1.9343
 7107SOL    HW232958   2.023   1.092  15.457 -0.9080  0.2116 -0.8696
 7108SOL     OW32959   1.797   2.563   4.999 -0.1353  0.0487  0.3312
 7108SOL    HW132960   1.771   2.517   5.079 -0.4703 -0.8433 -0.2887
 7108SOL    HW232961   1.891   2.578   5.004 -0.3048  1.1257  0.4016
 7109SOL     OW32962   2.413   0.136   3.603  0.2148 -0.0141  0.6399
 7109SOL    HW132963   2.494   0.163   3.560  2.1041 -1.1145  3.4787
 7109SOL    HW232964   2.427   0.195   3.678  3.0640 -4.1444  3.3672
 7110SOL     OW32965   2.634   0.994   3.932  0.1848  0.0737 -0.0524
 7110SOL    HW132966   2.623   0.915   3.985  1.0726  0.6179  0.9520
 7110SOL    HW232967   2.652   1.057   4.002 -0.1700 -3.5068  3.2999
 7111SOL     OW32968   2.716   1.335   1.190  0.1132  0.3513 -0.3900
 7111SOL    HW132969   2.631   1.365   1.158 -0.0309  1.2709  0.8138
 7111SOL    HW232970   2.773   1.329   1.114 -0.0748 -2.5758 -0.3131
 7112SOL     OW32971   1.590   4.731  10.261  0.0307 -0.5497 -0.2167
 7112SOL    HW132972   1.659   0.030  10.205  0.1739 -0.3777  0.0686
 7112SOL    HW232973   1.515   0.001  10.201 -1.3948  0.6898  1.6650
 7113SOL     OW32974   1.514   2.581  14.248  0.0663  0.4060  0.2023
 7113SOL    HW132975   1.512   2.652  14.184  2.5499 -0.4772 -0.8588
 7113SOL    HW232976   1.595   2.543  14.214 -0.6434 -1.7527  0.9386
 7114SOL     OW32977   0.310   3.820   8.184 -0.3170 -0.1797 -0.6873
 7114SOL    HW132978   0.276   3.738   8.221  0.4534 -1.6637 -3.2510
 7114SOL    HW232979   0.344   3.797   8.098  1.0458 -1.5149  0.2130
 7115SOL     OW32980   2.277   2.601   8.224 -0.2421  0.3663  0.0869
 7115SOL    HW132981   2.273   2.653   8.143 -0.3759 -0.4923 -0.4619
 7115SOL    HW232982   2.216   2.644   8.284 -0.4494  0.6130 -0.2995
 7116SOL     OW32983   4.142   1.913   3.494 -0.9208 -0.2336 -0.0865
 7116SOL    HW132984   4.129   1.825   3.461  1.6433 -0.5944 -0.1349
 7116SOL    HW232985   4.054   1.939   3.524  0.1367  2.1157  1.0146
 7117SOL     OW32986   1.315   0.153   1.799 -0.1632 -0.3204  0.0573
 7117SOL    HW132987   1.383   0.221   1.796  0.1630 -0.6838 -0.8465
 7117SOL    HW232988   1.243   0.216   1.791  1.2875  1.1590 -1.5164
 7118SOL     OW32989   4.139   2.951   4.874  0.7788  0.1229  0.3217
 7118SOL    HW132990   4.050   2.980   4.855  0.7395 -1.5502 -2.1331
 7118SOL    HW232991   4.170   2.991   4.955  3.5397 -1.7110  0.1814
 7119SOL     OW32992   0.694   3.620   6.585 -0.0506  0.5230  0.0279
 7119SOL    HW132993   0.671   3.713   6.585 -0.2627  0.4656 -1.5711
 7119SOL    HW232994   0.608   3.584   6.564 -0.3514  0.3088  1.6255
 7120SOL     OW32995   0.546   0.304   5.105  0.5761  0.4410 -0.2613
 7120SOL    HW132996   0.555   0.399   5.111  1.6924  0.2097  1.6088
 7120SOL    HW232997   0.526   0.288   5.013  0.8164 -0.1326 -0.2096
 7121SOL     OW32998   0.756   0.043  10.819 -0.1591 -0.4692 -0.2143
 7121SOL    HW132999   0.835   0.018  10.867 -0.7465  1.5709  1.7984
 7121SOL    HW233000   0.792   0.106  10.757  2.3673 -1.4849  0.2122
 7122SOL     OW33001   0.877   4.431   6.811  0.1183  0.2843 -0.2044
 7122SOL    HW133002   0.817   4.501   6.833  0.7491  0.6632  0.2992
 7122SOL    HW233003   0.926   4.421   6.892  1.9001 -1.2670 -1.4401
 7123SOL     OW33004   2.330   3.994   8.476  0.0354 -0.0419  0.0094
 7123SOL    HW133005   2.391   3.923   8.457 -1.3954 -0.7995 -1.7573
 7123SOL    HW233006   2.350   4.064   8.414 -3.9656  1.4135  0.3743
 7124SOL     OW33007   1.649   1.773   0.600  0.0573  0.0272  0.1434
 7124SOL    HW133008   1.741   1.772   0.628  0.2044  0.2147 -0.3254
 7124SOL    HW233009   1.638   1.729   0.516  0.6979 -0.1785  0.1683
 7125SOL     OW33010   0.494   3.087  11.228 -0.0860  0.0732  0.0690
 7125SOL    HW133011   0.581   3.126  11.221 -0.0432 -0.1040 -0.3998
 7125SOL    HW233012   0.467   3.097  11.319 -0.5270 -2.4396  0.2170
 7126SOL     OW33013   2.991   2.481   4.130 -0.5060  0.3140 -0.1122
 7126SOL    HW133014   3.013   2.456   4.220 -0.2892  2.5298  0.4356
 7126SOL    HW233015   2.901   2.510   4.148 -0.1357  1.2677  0.1859
 7127SOL     OW33016   2.725   4.446   2.163  0.1011  0.4013 -0.0222
 7127SOL    HW133017   2.794   4.445   2.096 -0.4726  0.3936 -0.6138
 7127SOL    HW233018   2.679   4.365   2.140 -0.2939  0.1123  1.8094
 7128SOL     OW33019   4.431   3.705   5.486  0.4461  0.3598  0.3543
 7128SOL    HW133020   4.444   3.661   5.571 -1.7422  1.2696  1.1532
 7128SOL    HW233021   4.453   3.642   5.418 -1.7326 -0.2314  0.2109
 7129SOL     OW33022   1.791   2.347   2.748  0.2642  0.6010  0.0356
 7129SOL    HW133023   1.832   2.417   2.696 -1.3586  0.0546 -1.9879
 7129SOL    HW233024   1.860   2.282   2.766  0.4034  0.7439  0.0199
 7130SOL     OW33025   0.531   0.981   1.965 -0.3935 -0.4900  0.4327
 7130SOL    HW133026   0.539   0.974   1.870  1.4670  1.9824  0.4181
 7130SOL    HW233027   0.438   0.961   1.978 -0.7883  1.4215  0.5815
 7131SOL     OW33028   2.152   0.844   2.631 -0.2647 -0.0175  0.6274
 7131SOL    HW133029   2.218   0.821   2.697 -0.3348 -1.3775  0.2209
 7131SOL    HW233030   2.151   0.759   2.588  1.1509  0.5621 -0.5650
 7132SOL     OW33031   2.036   0.632   3.638  0.2533 -0.1778  0.1822
 7132SOL    HW133032   2.017   0.583   3.718  0.3673 -0.0827  0.2685
 7132SOL    HW233033   2.013   0.722   3.662 -2.9992 -0.6509 -1.1264
 7133SOL     OW33034   1.121   3.098   3.548  0.3435 -0.0737 -0.1188
 7133SOL    HW133035   1.040   3.106   3.498 -0.7921  1.5116  1.9555
 7133SOL    HW233036   1.196   3.087   3.490  1.2907 -1.1266  1.2986
 7134SOL     OW33037   1.683   4.517   0.945 -0.1680 -0.4355 -0.2537
 7134SOL    HW133038   1.719   4.605   0.933 -0.7649  0.1971  2.5344
 7134SOL    HW233039   1.749   4.475   1.001 -1.1771 -1.3669  0.2387
 7135SOL     OW33040   1.787   3.845   4.301 -0.0668 -0.6153  0.1104
 7135SOL    HW133041   1.732   3.802   4.236 -2.0302  1.7241  0.2013
 7135SOL    HW233042   1.735   3.922   4.325  0.0770 -0.5452  0.1960
 7136SOL     OW33043   3.033   2.515   9.291  0.7686 -1.0250 -0.6188
 7136SOL    HW133044   3.084   2.581   9.243 -0.1081  0.9164  1.0741
 7136SOL    HW233045   3.027   2.554   9.379  1.0097 -1.0693 -0.5822
 7137SOL     OW33046   4.042   0.263   6.762 -0.2858  0.2406 -0.4889
 7137SOL    HW133047   4.081   0.345   6.793 -1.9918  0.5957  0.7318
 7137SOL    HW233048   3.952   0.256   6.795 -0.2638  0.5485 -0.3591
 7138SOL     OW33049   0.337   3.299   7.737  0.9924 -0.5707 -0.1549
 7138SOL    HW133050   0.245   3.325   7.743  1.0013 -0.4192 -0.6541
 7138SOL    HW233051   0.368   3.311   7.826 -0.2311 -1.0079  0.3334
 7139SOL     OW33052   3.219   2.432   6.843  0.3703 -0.0321 -0.3598
 7139SOL    HW133053   3.147   2.415   6.903 -0.3455  1.7133 -0.6997
 7139SOL    HW233054   3.238   2.341   6.820 -0.9239 -0.2075 -0.7362
 7140SOL     OW33055   3.516   3.937   7.339 -0.2023  0.9845 -0.0548
 7140SOL    HW133056   3.524   4.033   7.331  1.0466  1.0614  2.0729
 7140SOL    HW233057   3.584   3.923   7.405  1.5241 -2.2309 -2.4950
 7141SOL     OW33058   4.118   1.879   7.887 -0.2568 -0.4048  0.0917
 7141SOL    HW133059   4.092   1.886   7.979 -0.7890 -2.3958  0.1038
 7141SOL    HW233060   4.040   1.833   7.854 -0.2423 -2.5921  3.1041
 7142SOL     OW33061   2.608   4.196  15.551  0.8139 -0.3725 -0.2037
 7142SOL    HW133062   2.556   4.120  15.527 -0.3890  1.5768 -3.7677
 7142SOL    HW233063   2.680   4.183  15.489  1.9083 -0.8049  1.1465
 7143SOL     OW33064   1.694   1.595   8.292 -0.1586  0.0214 -0.3080
 7143SOL    HW133065   1.690   1.538   8.215 -0.6843  1.0274 -1.0207
 7143SOL    HW233066   1.744   1.532   8.344 -1.1675 -0.3591  0.2074
 7144SOL     OW33067   3.187   1.389   3.949  0.2916 -0.3076  0.0632
 7144SOL    HW133068   3.235   1.358   3.873 -0.4306 -0.4812 -0.3174
 7144SOL    HW233069   3.256   1.429   4.003  0.5065 -0.2124 -0.2839
 7145SOL     OW33070   0.492   4.167   2.827 -0.1433 -0.1995  0.2179
 7145SOL    HW133071   0.481   4.260   2.850  0.8073  0.2219 -1.0095
 7145SOL    HW233072   0.474   4.170   2.733  1.6232 -1.4294 -0.1587
 7146SOL     OW33073   4.506   3.597   1.002  0.0002  0.2175 -0.0620
 7146SOL    HW133074   4.444   3.565   1.068 -3.2998  4.3353 -1.1982
 7146SOL    HW233075   4.468   3.540   0.934  0.3399  0.3145 -0.3393
 7147SOL     OW33076   4.189   0.269   8.634  0.7750 -0.4868  0.3613
 7147SOL    HW133077   4.285   0.273   8.636  0.8556 -2.0603 -0.4875
 7147SOL    HW233078   4.163   0.361   8.641  0.9534 -0.1497 -3.5419
 7148SOL     OW33079   3.807   0.155   4.665 -0.0430  0.0179  0.0747
 7148SOL    HW133080   3.772   0.076   4.623  0.7728 -0.3210  0.0389
 7148SOL    HW233081   3.723   0.194   4.692  0.6934  1.9503 -0.3974
 7149SOL     OW33082   0.748   1.181   4.326  0.3139  0.0278 -0.2608
 7149SOL    HW133083   0.813   1.111   4.320  1.5215  1.0568  0.8017
 7149SOL    HW233084   0.682   1.149   4.387 -0.3384  4.6414  1.5106
 7150SOL     OW33085   3.164   0.650   1.937 -0.2812  0.0693 -0.1088
 7150SOL    HW133086   3.248   0.620   1.971  0.1777  1.2921 -0.1727
 7150SOL    HW233087   3.151   0.608   1.852  1.3191  2.1478 -1.3701
 7151SOL     OW33088   0.917   3.411   8.772  0.5924 -0.6148 -0.0383
 7151SOL    HW133089   0.952   3.501   8.776  0.7172 -0.6949  0.6337
 7151SOL    HW233090   0.972   3.383   8.699 -1.0423  1.0539 -1.9305
 7152SOL     OW33091   4.623   1.102   5.270 -0.0459 -0.3481  0.1008
 7152SOL    HW133092   4.685   1.038   5.234  0.3377  0.8992 -1.4824
 7152SOL    HW233093   4.670   1.184   5.259 -0.7367  0.1051  0.5651
 7153SOL     OW33094   0.870   0.303  12.704 -0.2979  0.2053  0.0257
 7153SOL    HW133095   0.822   0.227  12.671 -0.6835 -0.3715  1.9053
 7153SOL    HW233096   0.959   0.285  12.674 -1.0472 -0.7132 -1.6394
 7154SOL     OW33097   0.587   2.016  10.468  0.3880 -0.0291 -0.0156
 7154SOL    HW133098   0.506   2.058  10.440 -0.6471 -1.3084  1.0836
 7154SOL    HW233099   0.585   2.034  10.562 -2.2016  1.2792 -0.3229
 7155SOL     OW33100   3.679   2.255   7.844 -0.2065 -0.2209 -0.3185
 7155SOL    HW133101   3.669   2.343   7.879  0.5416 -1.0858  2.1519
 7155SOL    HW233102   3.771   2.248   7.819 -0.1577  0.8944 -0.4123
 7156SOL     OW33103   2.284   0.687   2.815  0.1161  0.2575  0.1698
 7156SOL    HW133104   2.296   0.597   2.785  0.9760  0.2215  0.6177
 7156SOL    HW233105   2.304   0.667   2.907 -0.2265  0.3190  0.2583
 7157SOL     OW33106   2.739   1.699   1.303 -0.5594  0.2938  0.0502
 7157SOL    HW133107   2.749   1.793   1.289  1.4397 -0.0846 -1.1903
 7157SOL    HW233108   2.667   1.690   1.365 -1.2035 -4.1190 -1.3089
 7158SOL     OW33109   1.588   2.739  10.404  0.0305  0.3024 -0.1598
 7158SOL    HW133110   1.561   2.682  10.476  1.1458 -0.8769 -0.6708
 7158SOL    HW233111   1.591   2.825  10.447  0.9506  1.0489 -1.7074
 7159SOL     OW33112   3.008   4.396   5.724 -0.2681  0.2033  0.1306
 7159SOL    HW133113   3.036   4.330   5.660  1.9373  1.9245 -0.6820
 7159SOL    HW233114   2.916   4.377   5.739  0.6154 -1.8195  3.0220
 7160SOL     OW33115   0.630   3.363   3.420 -0.5947 -0.1676  0.3076
 7160SOL    HW133116   0.643   3.274   3.452 -0.9182 -0.5915 -0.7496
 7160SOL    HW233117   0.535   3.380   3.422 -0.1163  2.7146 -1.2606
 7161SOL     OW33118   4.171   0.688   9.805 -0.6839  0.5152  0.3824
 7161SOL    HW133119   4.217   0.705   9.887 -1.3311  0.0739  0.8309
 7161SOL    HW233120   4.131   0.773   9.788 -0.9862  0.6510  1.7709
 7162SOL     OW33121   0.721   2.826  11.381 -0.0042 -0.1009 -0.1140
 7162SOL    HW133122   0.677   2.867  11.456  1.1667 -0.9479  1.0387
 7162SOL    HW233123   0.808   2.799  11.412  0.3101  1.9970  0.8383
 7163SOL     OW33124   0.730   0.665   4.058 -0.0255  0.2231  0.2353
 7163SOL    HW133125   0.711   0.736   4.120  0.7961  0.6764 -0.0280
 7163SOL    HW233126   0.811   0.696   4.017 -0.7197  2.4263  0.5025
 7164SOL     OW33127   1.746   3.448   3.389 -0.7507  0.7671 -0.0167
 7164SOL    HW133128   1.798   3.480   3.315 -1.1888 -0.8321 -1.0168
 7164SOL    HW233129   1.702   3.527   3.418 -0.0943  0.7796  0.9641
 7165SOL     OW33130   1.984   1.690  13.284 -0.1011  0.0270  0.4802
 7165SOL    HW133131   2.021   1.777  13.275 -0.5385  0.1793  0.1602
 7165SOL    HW233132   2.057   1.641  13.244 -1.2428  1.3723 -3.2513
 7166SOL     OW33133   2.222   1.555   9.652 -0.5411 -0.2111  0.9413
 7166SOL    HW133134   2.179   1.609   9.586 -0.2313 -1.0756  0.0321
 7166SOL    HW233135   2.220   1.615   9.726 -3.4596  2.3030 -1.1733
 7167SOL     OW33136   4.084   3.490  16.361  0.2724 -0.2328  0.1044
 7167SOL    HW133137   4.078   3.553  16.433  0.1865  0.9534 -0.9459
 7167SOL    HW233138   4.173   3.507  16.329 -0.4997  1.2299 -1.2389
 7168SOL     OW33139   3.520   0.860   9.161  0.0802 -0.3088 -0.5366
 7168SOL    HW133140   3.590   0.909   9.119  0.1989  1.6845  1.9964
 7168SOL    HW233141   3.562   0.843   9.245  1.4427 -1.3490 -1.4283
 7169SOL     OW33142   1.125   0.335   3.531  0.1964  0.2819  0.1179
 7169SOL    HW133143   1.119   0.247   3.495  0.3500 -0.0776  0.9793
 7169SOL    HW233144   1.214   0.352   3.561 -0.0986 -0.1448  1.2136
 7170SOL     OW33145   1.069   1.284   0.726 -0.2367 -0.0340  0.8141
 7170SOL    HW133146   1.065   1.330   0.810  1.8745  1.0772  0.3019
 7170SOL    HW233147   1.097   1.349   0.662  2.3182 -1.0099  0.9501
 7171SOL     OW33148   0.418   1.293  15.217 -0.1453 -0.0449 -0.0068
 7171SOL    HW133149   0.510   1.316  15.222  0.2297 -1.6147  0.3459
 7171SOL    HW233150   0.418   1.198  15.205  0.3377  0.1633 -1.7047
 7172SOL     OW33151   2.170   2.161   3.565  0.4179  0.2683  0.2593
 7172SOL    HW133152   2.264   2.158   3.548  0.7949  1.1642  2.1627
 7172SOL    HW233153   2.143   2.240   3.518  0.6763 -0.3636 -0.9561
 7173SOL     OW33154   0.201   3.826   6.333 -0.5047 -0.4812  0.5406
 7173SOL    HW133155   0.198   3.860   6.243 -0.0652 -0.5264  0.5122
 7173SOL    HW233156   0.267   3.757   6.322  2.1122  2.1296 -0.1588
 7174SOL     OW33157   2.655   1.692   8.737  0.6034 -0.7883 -0.0561
 7174SOL    HW133158   2.734   1.641   8.752 -0.1956 -1.1064  3.0734
 7174SOL    HW233159   2.608   1.648   8.666 -2.8755  2.7212  0.0613
 7175SOL     OW33160   3.947   0.837   1.641 -0.0596  0.1107 -0.1259
 7175SOL    HW133161   4.014   0.903   1.622  0.0953  0.1825  0.6547
 7175SOL    HW233162   3.870   0.893   1.651 -0.0139 -0.0542  1.1087
 7176SOL     OW33163   3.543   1.097  16.040  1.0614  0.6135 -0.1706
 7176SOL    HW133164   3.545   1.016  15.988 -1.0250 -0.1376  0.8877
 7176SOL    HW233165   3.487   1.063  16.110  1.6092  1.3789  0.6305
 7177SOL     OW33166   3.504   3.908   7.048  0.6001  0.5200 -0.1140
 7177SOL    HW133167   3.513   3.905   7.144 -0.7358 -2.8181 -0.0707
 7177SOL    HW233168   3.560   3.982   7.028  1.6145 -0.2853 -0.2764
 7178SOL     OW33169   1.729   4.413  17.388 -0.9162  0.1073 -0.8135
 7178SOL    HW133170   1.666   4.355  17.345 -1.1371  0.6053 -1.1732
 7178SOL    HW233171   1.810   4.387  17.344 -0.0717 -0.6896  1.2290
 7179SOL     OW33172   2.759   0.911  12.338  0.0345  0.2335 -0.2881
 7179SOL    HW133173   2.767   0.937  12.246 -1.7423 -0.0844 -0.5221
 7179SOL    HW233174   2.789   0.987  12.388 -0.9110  1.4584 -1.5970
 7180SOL     OW33175   2.890   4.030  15.113 -0.0504  0.3376 -0.6734
 7180SOL    HW133176   2.826   4.043  15.044  0.2276  0.5485 -0.8899
 7180SOL    HW233177   2.972   4.047  15.068  1.1739 -0.1370  1.3579
 7181SOL     OW33178   2.092   3.501   5.121  0.2938 -0.3699 -0.0112
 7181SOL    HW133179   2.108   3.518   5.214  0.2691 -0.7420  0.0631
 7181SOL    HW233180   2.066   3.590   5.096 -0.1505 -0.3317  0.5765
 7182SOL     OW33181   1.678   4.551   4.425  0.2918  0.2053  0.6327
 7182SOL    HW133182   1.647   4.460   4.422  2.8417 -0.7193  2.9154
 7182SOL    HW233183   1.666   4.564   4.519 -0.9569  1.8814  0.2356
 7183SOL     OW33184   3.813   0.740  15.518  0.1669  0.0876 -0.5722
 7183SOL    HW133185   3.770   0.683  15.456  1.4785 -0.6669 -0.7954
 7183SOL    HW233186   3.904   0.711  15.518 -0.2214 -1.0550 -2.3726
 7184SOL     OW33187   4.350   4.660  10.277  0.1791 -0.4709  0.4182
 7184SOL    HW133188   4.381   4.731  10.333  1.3971 -1.1398  0.5850
 7184SOL    HW233189   4.436   4.629  10.248 -0.4893 -2.1161  0.2223
 7185SOL     OW33190   2.680   3.742   6.118 -0.3406 -0.5025 -0.5484
 7185SOL    HW133191   2.729   3.743   6.200 -1.2795 -0.9290  0.0258
 7185SOL    HW233192   2.643   3.654   6.129 -0.9739 -0.5388 -2.8221
 7186SOL     OW33193   3.867   1.453   1.793 -0.3012  0.5093 -0.0301
 7186SOL    HW133194   3.914   1.473   1.712 -0.0279 -2.2976 -0.5734
 7186SOL    HW233195   3.927   1.390   1.834 -0.0107  1.1054  0.4624
 7187SOL     OW33196   2.130   0.050   8.624 -0.1193 -0.2330  0.7070
 7187SOL    HW133197   2.115   0.059   8.529  0.9978 -0.9279  0.4685
 7187SOL    HW233198   2.057   0.098   8.664  1.1603  3.0068 -0.8337
 7188SOL     OW33199   4.466   4.553  17.416  0.4081 -0.2116 -0.5567
 7188SOL    HW133200   4.422   4.638  17.420  1.3952  0.1863  1.3854
 7188SOL    HW233201   4.551   4.579  17.450 -1.2876  2.4593  1.6296
 7189SOL     OW33202   2.050   0.713   8.126 -0.1667 -0.1748 -0.5914
 7189SOL    HW133203   2.004   0.631   8.107  0.8354 -1.0854  0.9617
 7189SOL    HW233204   2.128   0.702   8.072 -0.2968 -1.1196 -0.6026
 7190SOL     OW33205   2.353   3.167  12.980 -0.2711  0.1356  0.1672
 7190SOL    HW133206   2.299   3.185  13.057  0.9320  0.6268  0.8944
 7190SOL    HW233207   2.388   3.254  12.958 -1.8195  1.1926  1.8883
 7191SOL     OW33208   1.402   3.243   8.342  0.3691  0.0264 -0.2597
 7191SOL    HW133209   1.460   3.259   8.416  1.1440 -1.9825 -0.4149
 7191SOL    HW233210   1.433   3.302   8.273 -2.0516 -1.2197 -2.4560
 7192SOL     OW33211   3.384   0.732   3.921  0.0388  0.1206  0.1518
 7192SOL    HW133212   3.338   0.649   3.937  0.1711  0.0216  0.0186
 7192SOL    HW233213   3.453   0.728   3.988  0.7794 -2.3179 -0.7475
 7193SOL     OW33214   1.999   1.169  15.879 -0.5016 -0.1460  0.2676
 7193SOL    HW133215   2.008   1.118  15.798  3.2987 -1.2955  1.3923
 7193SOL    HW233216   2.082   1.142  15.919 -0.7666  1.8006  2.1107
 7194SOL     OW33217   4.177   3.172   8.816 -0.6891  0.0696  0.6465
 7194SOL    HW133218   4.222   3.090   8.796 -1.2597  0.0458 -0.5729
 7194SOL    HW233219   4.193   3.203   8.727  0.2983  1.7400  1.4116
 7195SOL     OW33220   2.661   4.570   8.561  0.0207 -0.5993 -0.0831
 7195SOL    HW133221   2.708   4.514   8.623  0.1715 -0.4452 -0.0574
 7195SOL    HW233222   2.628   4.637   8.621  1.5705 -1.6375  1.9530
 7196SOL     OW33223   1.224   1.107   5.927 -0.0288  0.1373 -0.1958
 7196SOL    HW133224   1.308   1.101   5.881  0.2686 -0.6289  0.4361
 7196SOL    HW233225   1.261   1.124   6.014 -0.2069  2.8519 -0.6635
 7197SOL     OW33226   0.911   4.625   8.827  0.0621  0.0042 -0.0331
 7197SOL    HW133227   0.890   4.713   8.859  2.6220  1.1353 -1.4856
 7197SOL    HW233228   0.924   4.632   8.733 -1.7158  2.9799 -0.0544
 7198SOL     OW33229   2.734   4.098   8.841  0.6041 -0.4212  0.2432
 7198SOL    HW133230   2.683   4.164   8.888 -2.2620 -0.9229 -2.1918
 7198SOL    HW233231   2.823   4.132   8.831  0.3060 -0.1029 -1.3510
 7199SOL     OW33232   1.354   0.057   4.685  0.2957 -0.1516  0.2315
 7199SOL    HW133233   1.326   4.706   4.657  2.0247  0.5210 -3.4890
 7199SOL    HW233234   1.339   0.056   4.780  1.1821 -2.0349  0.3414
 7200SOL     OW33235   0.022   2.038  12.711 -0.5698  0.6608 -0.2917
 7200SOL    HW133236   0.096   2.092  12.685 -0.6413  0.5503 -0.7439
 7200SOL    HW233237   0.006   2.062  12.802 -0.0792  0.8674 -0.2624
 7201SOL     OW33238   4.525   1.322  11.298  0.1382  0.0009 -0.1983
 7201SOL    HW133239   4.567   1.290  11.377 -2.0613  0.3807  1.1331
 7201SOL    HW233240   4.505   1.237  11.261  0.2550 -0.0095 -0.2376
 7202SOL     OW33241   2.440   4.030   8.035  0.3985 -0.5471  0.4020
 7202SOL    HW133242   2.346   4.017   8.040  0.1261  1.3347  0.2737
 7202SOL    HW233243   2.462   3.939   8.016 -2.0137 -0.9725 -0.2508
 7203SOL     OW33244   1.608   0.018   6.962  0.0948 -0.1680  0.1220
 7203SOL    HW133245   1.616   4.659   6.967  1.1375 -0.0814 -0.0009
 7203SOL    HW233246   1.671   0.047   6.895  0.7558 -0.9297  0.4137
 7204SOL     OW33247   0.310   1.122  10.704 -0.3275  0.3436 -0.5249
 7204SOL    HW133248   0.396   1.089  10.728 -0.4359 -0.1011 -0.7421
 7204SOL    HW233249   0.246   1.104  10.773 -1.0225  0.4669 -1.1349
 7205SOL     OW33250   3.574   3.384   7.696 -0.3996  0.2817  0.4795
 7205SOL    HW133251   3.547   3.326   7.625  0.7303 -1.0011  1.0834
 7205SOL    HW233252   3.558   3.327   7.771  0.1267  0.9609  1.1163
 7206SOL     OW33253   0.542   3.729  14.974 -0.1216 -0.1997  0.2672
 7206SOL    HW133254   0.548   3.725  15.069 -2.3788  1.4727  0.5069
 7206SOL    HW233255   0.489   3.650  14.965 -1.9168  1.0214 -0.0117
 7207SOL     OW33256   0.920   1.112   1.905  0.6431  1.0992  0.0723
 7207SOL    HW133257   0.843   1.165   1.921  0.5986  1.3330 -0.9185
 7207SOL    HW233258   0.950   1.093   1.994 -2.4139  1.0812  1.1026
 7208SOL     OW33259   1.448   1.039   4.548 -0.0096 -0.5295 -0.4534
 7208SOL    HW133260   1.434   1.117   4.602  0.1495  0.1678 -1.4055
 7208SOL    HW233261   1.377   0.980   4.573 -0.2357  0.4057  1.1052
 7209SOL     OW33262   0.388   0.947   8.362 -0.1783  0.0922 -0.0404
 7209SOL    HW133263   0.450   1.018   8.378  0.5934 -0.9684  1.6832
 7209SOL    HW233264   0.378   0.915   8.452  0.7559  3.0357  1.1068
 7210SOL     OW33265   4.109   2.863  13.715 -0.3609  0.3721  0.3468
 7210SOL    HW133266   4.187   2.812  13.739 -0.0695  0.2375 -0.8811
 7210SOL    HW233267   4.108   2.853  13.620  0.8161 -2.3970  0.6326
 7211SOL     OW33268   1.834   2.804   5.278 -0.0149  0.5369  0.3223
 7211SOL    HW133269   1.917   2.772   5.242 -1.5079 -1.1695 -1.6029
 7211SOL    HW233270   1.802   2.717   5.301 -1.3655  0.6586 -1.0972
 7212SOL     OW33271   3.250   2.767  12.766  0.4648 -0.3331  0.3125
 7212SOL    HW133272   3.226   2.832  12.700  2.3125  0.6982  0.6432
 7212SOL    HW233273   3.214   2.683  12.738 -0.8065 -0.0198  1.0038
 7213SOL     OW33274   0.554   3.686  15.232  0.0793 -0.1629  0.0770
 7213SOL    HW133275   0.631   3.719  15.277 -0.8951 -0.6842  2.1301
 7213SOL    HW233276   0.555   3.593  15.256  3.4349  0.0492  0.7366
 7214SOL     OW33277   3.138   1.140   4.036 -0.0146 -0.1128 -0.2987
 7214SOL    HW133278   3.150   1.234   4.021  0.5651 -0.3071 -1.0601
 7214SOL    HW233279   3.168   1.110   3.950 -1.7079 -4.3020  0.5975
 7215SOL     OW33280   3.059   1.989   7.666 -0.0783 -0.6353  0.0248
 7215SOL    HW133281   3.008   1.922   7.712 -1.3931 -1.4790 -2.6939
 7215SOL    HW233282   3.089   2.040   7.741  0.1936 -2.0928  0.9144
 7216SOL     OW33283   2.684   1.517  15.000  0.1310  0.1179 -0.7153
 7216SOL    HW133284   2.772   1.545  14.977  1.2240 -3.6742 -1.1975
 7216SOL    HW233285   2.625   1.526  14.925 -2.7343 -0.2114  1.4762
 7217SOL     OW33286   3.327   0.620  14.703 -0.4413 -0.0243 -0.0055
 7217SOL    HW133287   3.381   0.584  14.633  1.3322  1.0731  0.8138
 7217SOL    HW233288   3.297   0.540  14.746  1.4899  0.1002  1.5361
 7218SOL     OW33289   1.552   4.240   2.991 -0.1007 -0.4163  0.0850
 7218SOL    HW133290   1.573   4.197   3.073  0.8118  0.9010  0.5572
 7218SOL    HW233291   1.517   4.325   3.017  0.3743 -0.1295 -0.1932
 7219SOL     OW33292   1.440   3.879  10.226 -0.7166  0.1219 -0.3946
 7219SOL    HW133293   1.456   3.791  10.192 -0.7821  0.1735 -0.5583
 7219SOL    HW233294   1.475   3.940  10.161  1.0661  0.3575  0.8044
 7220SOL     OW33295   0.122   3.987   1.505 -0.2439  0.1921 -0.0447
 7220SOL    HW133296   0.190   3.948   1.451  0.7035  1.2089  0.4264
 7220SOL    HW233297   0.045   3.930   1.498  0.1056 -0.2683 -0.1413
 7221SOL     OW33298   2.920   3.281   7.581  0.1436  0.2072 -0.2018
 7221SOL    HW133299   3.003   3.257   7.538  0.0519  0.0823 -0.3087
 7221SOL    HW233300   2.953   3.354   7.633  1.1373  0.4927 -1.2224
 7222SOL     OW33301   4.278   3.338   1.928  0.2771  0.7370  0.2700
 7222SOL    HW133302   4.284   3.381   1.842 -0.1524 -1.2777 -0.7597
 7222SOL    HW233303   4.195   3.293   1.916 -0.3782  2.1990 -0.6998
 7223SOL     OW33304   0.183   1.062   4.668 -0.4803 -0.0094  0.6013
 7223SOL    HW133305   0.256   1.006   4.642 -1.9098 -1.0928 -1.0642
 7223SOL    HW233306   0.216   1.112   4.743  0.6758 -1.4905  1.0696
 7224SOL     OW33307   2.817   4.502   4.330 -0.5840  0.0328 -0.3090
 7224SOL    HW133308   2.813   4.407   4.316 -3.5724  0.1406 -0.1796
 7224SOL    HW233309   2.760   4.526   4.257  0.0516 -0.3351 -0.9217
 7225SOL     OW33310   0.090   2.874   3.114  0.9652 -0.4109  0.0466
 7225SOL    HW133311   0.012   2.885   3.060 -1.5065 -1.9210  3.2786
 7225SOL    HW233312   0.161   2.875   3.050  0.2216  1.2700 -0.7374
 7226SOL     OW33313   2.080   3.275   2.312 -0.1323  0.1160 -0.7969
 7226SOL    HW133314   2.064   3.366   2.288 -0.5867  0.2471  0.0161
 7226SOL    HW233315   2.030   3.276   2.393  0.0524 -2.1944 -0.6439
 7227SOL     OW33316   0.860   0.662   2.135  0.6553 -0.7306 -0.4507
 7227SOL    HW133317   0.835   0.754   2.125  1.1462 -0.7085 -1.4762
 7227SOL    HW233318   0.938   0.672   2.189 -1.7872  0.6027  2.8304
 7228SOL     OW33319   0.596   2.542   1.693  0.3933 -0.2500 -0.5948
 7228SOL    HW133320   0.636   2.628   1.677 -2.4236  0.8811 -1.5704
 7228SOL    HW233321   0.676   2.489   1.693  1.6141  1.5971 -0.7821
 7229SOL     OW33322   1.851   1.448   4.747  0.0455  0.7529 -0.8290
 7229SOL    HW133323   1.878   1.449   4.656 -0.0440 -0.2558 -0.8673
 7229SOL    HW233324   1.829   1.356   4.761 -1.9620  1.2966 -0.3413
 7230SOL     OW33325   1.551   2.560   4.369 -0.5636 -0.4720 -0.9982
 7230SOL    HW133326   1.570   2.624   4.301 -0.0682 -0.2002 -0.6007
 7230SOL    HW233327   1.617   2.492   4.367 -0.0708  0.0327 -1.7692
 7231SOL     OW33328   2.870   3.544   7.319 -0.4510 -0.3677 -0.1086
 7231SOL    HW133329   2.955   3.545   7.276 -0.9712  4.4748 -0.9622
 7231SOL    HW233330   2.832   3.585   7.241 -1.6254  0.2348  0.7741
 7232SOL     OW33331   2.371   1.724   3.862  0.0512 -0.0403  0.4779
 7232SOL    HW133332   2.330   1.747   3.945 -2.7210  1.6716 -1.3515
 7232SOL    HW233333   2.415   1.644   3.891  0.4467 -0.0786 -0.2272
 7233SOL     OW33334   2.068   0.604   9.086 -0.0661 -0.0026  0.1214
 7233SOL    HW133335   1.997   0.667   9.074  1.4093  1.5595 -0.4728
 7233SOL    HW233336   2.061   0.580   9.178 -2.0196 -2.0650 -0.5797
 7234SOL     OW33337   1.889   4.609   2.220  0.2091 -0.2558 -0.4823
 7234SOL    HW133338   1.796   4.618   2.199 -0.3873 -4.1185  0.5160
 7234SOL    HW233339   1.897   4.601   2.315  2.4855 -1.3440 -0.7619
 7235SOL     OW33340   2.183   2.298   8.103 -0.2151  0.4323 -0.3683
 7235SOL    HW133341   2.267   2.327   8.139 -0.4131  2.8593 -1.8725
 7235SOL    HW233342   2.118   2.328   8.166  1.3552  0.3831  1.2665
 7236SOL     OW33343   2.567   0.090  15.486 -0.0979  0.3687 -0.6647
 7236SOL    HW133344   2.615   0.126  15.560  0.2359  0.5049 -0.9469
 7236SOL    HW233345   2.552   4.732  15.500 -0.4022  0.4220 -0.6470
 7237SOL     OW33346   3.740   1.920   0.754 -0.3847  0.4179 -0.5606
 7237SOL    HW133347   3.672   1.986   0.763 -1.5691 -0.9625  0.7346
 7237SOL    HW233348   3.797   1.962   0.690  2.5419 -2.9158 -0.1966
 7238SOL     OW33349   4.394   1.067  15.632  0.0913  0.4654 -0.4912
 7238SOL    HW133350   4.410   1.085  15.539 -0.7913 -0.8234 -0.8967
 7238SOL    HW233351   4.378   1.153  15.671 -0.7315 -0.7696  1.8934
 7239SOL     OW33352   2.645   1.617   4.232 -0.3767 -0.2714  0.1282
 7239SOL    HW133353   2.659   1.569   4.313 -0.5065 -1.5419 -0.6029
 7239SOL    HW233354   2.652   1.710   4.252 -0.1781  0.1252 -1.7897
 7240SOL     OW33355   1.030   0.067   3.485  0.3311  0.0329  0.5599
 7240SOL    HW133356   1.042   0.028   3.571 -0.1526 -1.8793 -0.2282
 7240SOL    HW233357   0.942   0.102   3.494  1.3534  2.8475 -0.5220
 7241SOL     OW33358   0.255   0.460  15.641  0.4290  0.4209  0.2909
 7241SOL    HW133359   0.163   0.486  15.634  0.8555  1.2291 -2.6477
 7241SOL    HW233360   0.274   0.475  15.548  0.4655  1.2440  0.4271
 7242SOL     OW33361   2.686   0.467   3.487  0.1453  0.5453 -0.6623
 7242SOL    HW133362   2.765   0.519   3.499  1.4007 -1.6519  0.7886
 7242SOL    HW233363   2.625   0.539   3.499 -0.0928  0.0417  1.1782
 7243SOL     OW33364   1.297   0.840   8.674 -0.1604  0.5072 -0.0070
 7243SOL    HW133365   1.273   0.869   8.762  3.2597 -1.2948  1.5289
 7243SOL    HW233366   1.257   0.908   8.620  0.4877 -0.8833 -2.2211
 7244SOL     OW33367   2.043   4.683   9.774 -0.1405  0.4805 -0.6198
 7244SOL    HW133368   2.103   0.014   9.809  0.6132  0.7131 -2.3737
 7244SOL    HW233369   2.017   4.647   9.859 -1.2828 -2.2986 -2.1570
 7245SOL     OW33370   0.082   1.626   5.518  0.3051 -0.3189 -0.0060
 7245SOL    HW133371   0.043   1.695   5.572  0.0495 -1.7582  1.6462
 7245SOL    HW233372   0.175   1.635   5.539  0.4572 -4.8267  1.2904
 7246SOL     OW33373   0.620   4.129  16.026 -0.0548  0.1002 -0.2263
 7246SOL    HW133374   0.650   4.219  16.013 -0.6867 -0.2188 -3.9788
 7246SOL    HW233375   0.526   4.136  16.046 -0.1064 -0.0713 -0.4104
 7247SOL     OW33376   1.052   2.822   7.686 -0.2494  0.0947 -0.0546
 7247SOL    HW133377   1.105   2.743   7.679 -2.3240 -1.3468  0.5525
 7247SOL    HW233378   1.070   2.845   7.777  0.2776  2.6048 -0.7951
 7248SOL     OW33379   1.048   3.362   6.312 -0.5255 -0.3259  0.1176
 7248SOL    HW133380   1.016   3.272   6.310 -2.0435  0.1453  2.9493
 7248SOL    HW233381   1.073   3.381   6.222 -2.1173 -0.1161 -0.2685
 7249SOL     OW33382   0.752   3.262  11.657  0.3511 -0.0907 -0.2017
 7249SOL    HW133383   0.703   3.198  11.709 -0.0760 -0.6947 -1.3169
 7249SOL    HW233384   0.834   3.213  11.659  0.2103 -0.2267  1.7748
 7250SOL     OW33385   2.439   0.545   5.245 -0.5887 -0.8895  0.6042
 7250SOL    HW133386   2.447   0.515   5.335  0.8620  0.9608  1.0980
 7250SOL    HW233387   2.528   0.520   5.218 -0.5755  0.7170 -0.8738
 7251SOL     OW33388   1.145   1.009  15.232  0.3505 -0.5775  0.1261
 7251SOL    HW133389   1.169   1.078  15.294 -1.8509  0.4007 -0.0917
 7251SOL    HW233390   1.053   0.997  15.255  0.2459 -0.3517 -0.1814
 7252SOL     OW33391   1.577   3.135   6.264 -0.4236 -0.0606 -0.3148
 7252SOL    HW133392   1.618   3.152   6.349  1.7138 -1.1346 -1.1617
 7252SOL    HW233393   1.494   3.183   6.268 -1.0033 -0.9607 -1.6553
 7253SOL     OW33394   2.578   1.795   9.012  0.3150  0.1062 -0.3208
 7253SOL    HW133395   2.495   1.781   9.057 -0.6671 -0.0280 -2.1597
 7253SOL    HW233396   2.558   1.767   8.922  0.0390  1.8788 -0.8183
 7254SOL     OW33397   0.731   4.468  14.519 -0.2206  0.4172  0.4382
 7254SOL    HW133398   0.689   4.417  14.588 -0.3728  3.1092  2.3439
 7254SOL    HW233399   0.802   4.410  14.495  0.1940 -0.2447  3.3705
 7255SOL     OW33400   0.081   1.720  11.851  0.5010  0.0834  0.1937
 7255SOL    HW133401   0.168   1.699  11.818  0.6125 -2.4074  2.0561
 7255SOL    HW233402   0.051   1.776  11.779  0.4565  0.7553  0.7292
 7256SOL     OW33403   4.642   0.142   1.455  0.2829  0.8155 -0.1902
 7256SOL    HW133404   4.626   0.050   1.434 -0.1140  0.8171  0.0948
 7256SOL    HW233405   4.731   0.128   1.487  0.2409  1.5832  0.2753
 7257SOL     OW33406   0.662   4.196   7.831  0.6102 -0.6471  0.1863
 7257SOL    HW133407   0.622   4.153   7.906  0.9483 -1.1951  0.0527
 7257SOL    HW233408   0.736   4.246   7.866  2.0726 -2.1293 -0.8111
 7258SOL     OW33409   1.647   3.282   1.670  0.5213  0.3541  0.4869
 7258SOL    HW133410   1.701   3.322   1.603  0.1847  1.9892  1.1914
 7258SOL    HW233411   1.707   3.286   1.744  0.8769 -0.0657  0.2191
 7259SOL     OW33412   0.359   2.505   5.059  0.4184  0.2699 -0.4223
 7259SOL    HW133413   0.379   2.517   4.966 -0.4225  1.1063 -0.4979
 7259SOL    HW233414   0.334   2.413   5.053  1.3734  0.0951 -1.9392
 7260SOL     OW33415   1.389   2.980   4.459 -0.2533 -0.4555  0.8624
 7260SOL    HW133416   1.391   3.031   4.377 -2.3625 -0.6122  0.7116
 7260SOL    HW233417   1.316   3.013   4.512 -0.7935 -3.1685  1.7783
 7261SOL     OW33418   4.227   2.990   0.422  0.7602 -0.3052 -0.0619
 7261SOL    HW133419   4.301   2.944   0.462 -0.5653  0.5692  3.4358
 7261SOL    HW233420   4.168   3.005   0.496  1.7872 -0.4832  0.7923
 7262SOL     OW33421   1.905   4.238  14.846 -0.0871 -0.1296  0.3905
 7262SOL    HW133422   1.967   4.308  14.825  0.7316 -0.7578  0.7143
 7262SOL    HW233423   1.842   4.292  14.894 -1.5253  0.4189 -2.1249
 7263SOL     OW33424   0.807   0.479  17.667 -0.8677  0.0227 -0.1183
 7263SOL    HW133425   0.902   0.474  17.678 -0.8958 -1.9602 -0.8364
 7263SOL    HW233426   0.799   0.398  17.718 -3.3098  1.6074  2.0350
 7264SOL     OW33427   0.005   0.476   4.926  0.7630 -0.1468 -0.5869
 7264SOL    HW133428   4.705   0.413   4.990  1.7057  0.9174  0.9992
 7264SOL    HW233429   0.087   0.493   4.973 -0.1640  2.7259  0.0011
 7265SOL     OW33430   0.855   0.570  17.408 -0.1388 -0.2496  0.5013
 7265SOL    HW133431   0.834   0.509  17.478 -0.1055  0.5435  1.1895
 7265SOL    HW233432   0.876   0.519  17.329 -1.0353  1.7367 -1.0265
 7266SOL     OW33433   0.248   2.675   5.956  0.0279  0.0518  0.1473
 7266SOL    HW133434   0.216   2.739   5.893  2.5707  0.3821 -0.8181
 7266SOL    HW233435   0.330   2.651   5.913 -1.7814 -0.8519 -2.7931
 7267SOL     OW33436   4.112   0.109   1.913 -0.3306 -0.5956  0.2927
 7267SOL    HW133437   4.088   0.196   1.947 -0.7388 -0.6248  0.0843
 7267SOL    HW233438   4.207   0.120   1.911 -0.2910 -0.9610  0.2660
 7268SOL     OW33439   0.901   2.920  13.637  0.3551 -0.1466  1.0603
 7268SOL    HW133440   0.877   2.842  13.686 -2.0314 -0.6939 -0.9951
 7268SOL    HW233441   0.897   2.991  13.701 -1.8699  0.5091  0.1751
 7269SOL     OW33442   0.448   0.620   2.668  0.3168  0.2525 -0.1037
 7269SOL    HW133443   0.472   0.692   2.610  2.7826  1.7682  2.8183
 7269SOL    HW233444   0.493   0.636   2.750 -0.3517 -0.8225  0.4750
 7270SOL     OW33445   3.296   1.488  12.637 -0.7932 -0.8755  0.1560
 7270SOL    HW133446   3.332   1.499  12.725 -1.7595  2.1739  0.1977
 7270SOL    HW233447   3.207   1.521  12.650 -0.6212 -0.6585  0.7584
 7271SOL     OW33448   4.177   0.198  12.701 -0.1714 -0.0944  0.2403
 7271SOL    HW133449   4.256   0.173  12.749 -0.7997 -1.8275  0.3624
 7271SOL    HW233450   4.129   0.117  12.682  1.0321 -0.9755  0.9879
 7272SOL     OW33451   4.622   1.021   9.601  0.1046 -0.6539 -0.4475
 7272SOL    HW133452   4.583   1.075   9.532 -0.2090  1.6158  1.4739
 7272SOL    HW233453   4.609   1.067   9.684  1.2860  1.2936 -1.3366
 7273SOL     OW33454   2.117   2.944   9.572 -0.1698 -0.4032  0.2627
 7273SOL    HW133455   2.059   2.868   9.585 -0.6980  0.0966  0.8687
 7273SOL    HW233456   2.206   2.912   9.560 -0.2820 -0.1227 -1.2719
 7274SOL     OW33457   1.241   0.249   5.071 -0.3820  0.0969  0.0969
 7274SOL    HW133458   1.259   0.319   5.133  0.1236  1.2493 -1.3312
 7274SOL    HW233459   1.321   0.199   5.057 -0.3103  0.0922  0.5392
 7275SOL     OW33460   1.760   2.702  14.650  0.3125 -0.2072  0.0975
 7275SOL    HW133461   1.771   2.717  14.744  1.1601 -2.5111  0.3705
 7275SOL    HW233462   1.828   2.758  14.613 -0.5979  1.3434  0.7639
 7276SOL     OW33463   1.514   1.355   6.079  0.1827  0.5336 -0.0970
 7276SOL    HW133464   1.448   1.416   6.046  0.3238  1.1175  0.6770
 7276SOL    HW233465   1.461   1.287   6.120 -1.0993  0.0069 -2.6369
 7277SOL     OW33466   2.787   0.014   5.451  0.1440  0.3477 -0.3659
 7277SOL    HW133467   2.793   0.094   5.504 -0.4205 -0.0998  0.3650
 7277SOL    HW233468   2.703   0.012   5.405  0.3232  0.2087 -0.6895
 7278SOL     OW33469   0.657   3.429   5.582  0.4630 -0.3546  0.1532
 7278SOL    HW133470   0.649   3.339   5.615 -1.3895 -0.0453  0.5627
 7278SOL    HW233471   0.662   3.409   5.489 -1.0607  0.4783 -0.0942
 7279SOL     OW33472   3.410   3.346   2.767  0.5913 -0.0462 -0.0879
 7279SOL    HW133473   3.466   3.353   2.690  1.5727 -1.1022  0.5127
 7279SOL    HW233474   3.399   3.436   2.798  2.5287 -0.6015  2.2179
 7280SOL     OW33475   3.889   1.624  14.241 -0.3261  0.0667  0.3775
 7280SOL    HW133476   3.856   1.535  14.231  1.8418 -0.6678 -0.2676
 7280SOL    HW233477   3.972   1.608  14.285 -1.5845  0.3875  2.8874
 7281SOL     OW33478   3.384   2.217   7.698 -0.6648  0.4070 -0.3399
 7281SOL    HW133479   3.397   2.216   7.792  3.2486  0.6947 -0.8586
 7281SOL    HW233480   3.368   2.312   7.696 -0.1047  0.5238  0.7520
 7282SOL     OW33481   2.553   3.466  16.220  0.1004 -0.2615 -0.2610
 7282SOL    HW133482   2.618   3.532  16.198  0.1771 -0.6397 -1.1592
 7282SOL    HW233483   2.550   3.467  16.316  0.5356 -2.0163 -0.2231
 7283SOL     OW33484   4.255   2.522   9.002 -0.2239 -0.3969  0.2216
 7283SOL    HW133485   4.292   2.439   8.971  0.5855 -0.2706  0.8398
 7283SOL    HW233486   4.171   2.504   9.043 -1.4024  1.4917 -1.3207
 7284SOL     OW33487   2.326   0.249  13.591 -0.1063 -0.1894  0.7190
 7284SOL    HW133488   2.407   0.198  13.585 -0.5667 -0.7550 -0.5353
 7284SOL    HW233489   2.302   0.250  13.499  1.9941  1.0163  0.1794
 7285SOL     OW33490   0.446   2.718  13.513  0.3141 -0.2811 -0.4700
 7285SOL    HW133491   0.419   2.630  13.539 -0.7229 -0.4612 -2.1290
 7285SOL    HW233492   0.501   2.746  13.586 -0.3287 -0.5803  0.1244
 7286SOL     OW33493   1.937   2.034   8.846 -0.0430 -0.6370 -0.2552
 7286SOL    HW133494   1.992   1.987   8.782 -0.5894 -0.1073 -1.1137
 7286SOL    HW233495   1.990   2.066   8.919 -2.5973 -1.6313  2.0556
 7287SOL     OW33496   0.398   1.042   6.976 -0.2574  0.0047  0.1779
 7287SOL    HW133497   0.324   1.045   7.037 -1.7739 -1.6739 -1.5842
 7287SOL    HW233498   0.472   1.030   7.036 -1.2710 -0.9290  1.2636
 7288SOL     OW33499   1.490   3.009  12.913  0.0437  0.1180 -1.2148
 7288SOL    HW133500   1.431   3.008  12.837 -0.2765 -1.0851 -0.9358
 7288SOL    HW233501   1.430   2.970  12.976  0.3398  0.6010 -0.6269
 7289SOL     OW33502   3.812   1.784   1.032 -0.2785 -0.1720  0.3974
 7289SOL    HW133503   3.853   1.866   1.059 -1.3597 -0.1950  2.1175
 7289SOL    HW233504   3.796   1.816   0.943  3.9844  0.9335  0.0070
 7290SOL     OW33505   2.329   1.485   8.704  0.0871  0.5897 -0.5346
 7290SOL    HW133506   2.403   1.510   8.648 -1.2516  1.7203 -1.8177
 7290SOL    HW233507   2.333   1.551   8.773  0.8429  0.7866 -0.7655
 7291SOL     OW33508   3.866   0.823  16.332 -0.6094  0.1018  0.3431
 7291SOL    HW133509   3.951   0.784  16.313 -0.8569 -0.6660  0.7987
 7291SOL    HW233510   3.856   0.812  16.427  0.9386  1.3623  0.6295
 7292SOL     OW33511   0.215   4.548   5.635 -0.5325  0.4801 -0.3543
 7292SOL    HW133512   0.188   4.638   5.656  0.5439  0.8722 -0.6657
 7292SOL    HW233513   0.234   4.506   5.719 -2.8357  1.9470  0.8950
 7293SOL     OW33514   2.275   3.534   2.480  0.1686  0.1202  0.1194
 7293SOL    HW133515   2.264   3.590   2.556  0.5554  1.5360 -0.8555
 7293SOL    HW233516   2.313   3.457   2.523  0.4105 -0.5882 -1.3460
 7294SOL     OW33517   0.688   1.276   2.947 -0.3006  0.4441  0.3378
 7294SOL    HW133518   0.753   1.302   2.883  2.1525 -0.9805  2.2567
 7294SOL    HW233519   0.610   1.304   2.899 -1.9481 -2.5388  1.2349
 7295SOL     OW33520   2.223   3.040   4.919 -0.6272 -0.0178  0.0127
 7295SOL    HW133521   2.315   3.033   4.943  0.2005 -1.6862 -3.6954
 7295SOL    HW233522   2.198   3.129   4.943  2.3489  1.0494 -0.9320
 7296SOL     OW33523   2.270   2.371   6.134  0.0223 -0.6188 -0.2783
 7296SOL    HW133524   2.335   2.439   6.151 -0.4237 -0.7687  2.0550
 7296SOL    HW233525   2.316   2.288   6.144  1.9869  0.6650  1.3198
 7297SOL     OW33526   1.682   2.922   4.449 -1.0524 -0.0803  0.8049
 7297SOL    HW133527   1.642   2.885   4.370 -0.5632  0.1325  0.4555
 7297SOL    HW233528   1.607   2.922   4.508 -1.7088  0.2689 -0.0244
 7298SOL     OW33529   3.155   4.486  12.442  0.3988 -0.2093  0.3408
 7298SOL    HW133530   3.229   4.481  12.381 -0.3714  1.5162 -0.7350
 7298SOL    HW233531   3.136   4.580  12.448 -0.4256 -0.3565  0.0563
 7299SOL     OW33532   3.540   4.187   4.333 -0.1624  0.3406  0.2496
 7299SOL    HW133533   3.542   4.170   4.239 -0.8652  1.5297  0.0243
 7299SOL    HW233534   3.631   4.164   4.353  0.1930 -0.1027 -1.9086
 7300SOL     OW33535   3.873   3.774  11.747 -0.0614 -0.1166  0.3195
 7300SOL    HW133536   3.835   3.698  11.792  1.0688 -0.8563  0.0320
 7300SOL    HW233537   3.925   3.813  11.817  2.2938 -2.0433 -0.3260
 7301SOL     OW33538   4.344   3.762   8.474  0.2127  0.5872 -0.2812
 7301SOL    HW133539   4.260   3.731   8.440 -0.1140 -0.7108  1.7051
 7301SOL    HW233540   4.338   3.723   8.562  1.2509  0.1697 -0.3921
 7302SOL     OW33541   1.242   4.430   2.752 -0.0591 -0.8854  0.0154
 7302SOL    HW133542   1.166   4.478   2.786  0.0619  0.8038 -2.1155
 7302SOL    HW233543   1.303   4.503   2.741 -0.9537 -0.3543 -1.3311
 7303SOL     OW33544   2.425   4.029   9.007  0.3520  0.2117  1.0439
 7303SOL    HW133545   2.471   3.959   9.053 -0.4433  0.9163  2.8950
 7303SOL    HW233546   2.495   4.095   9.001  0.6726 -0.4401 -2.8515
 7304SOL     OW33547   0.012   2.457  12.540  0.5232  0.8582 -0.5327
 7304SOL    HW133548   4.732   2.450  12.634 -2.4589 -2.4458 -1.2386
 7304SOL    HW233549   0.101   2.491  12.540  0.6777  0.4380  1.4153
 7305SOL     OW33550   2.303   4.113   5.979  0.5485  0.2295 -0.0606
 7305SOL    HW133551   2.274   4.181   6.039  1.0715  0.9215 -0.5905
 7305SOL    HW233552   2.393   4.089   6.001  0.0327  1.2168  3.1138
 7306SOL     OW33553   0.985   4.711  10.958 -0.0071 -0.0462  0.1778
 7306SOL    HW133554   1.060   0.018  10.998  0.4382 -0.8267  0.1813
 7306SOL    HW233555   1.020   4.624  10.940 -2.6271 -0.5764 -2.4390
 7307SOL     OW33556   2.518   1.671  16.690  0.2480 -0.2578 -0.0058
 7307SOL    HW133557   2.533   1.614  16.614 -0.6067  1.0409 -1.1610
 7307SOL    HW233558   2.512   1.760  16.654 -0.7127  0.4289  1.8525
 7308SOL     OW33559   2.893   2.991   4.734  0.1845 -0.3639  0.3193
 7308SOL    HW133560   2.889   2.956   4.823 -0.3749 -0.9623  0.0678
 7308SOL    HW233561   2.806   3.013   4.700 -0.5312 -0.3206  2.1956
 7309SOL     OW33562   3.817   1.335  16.368  0.2471 -0.2863  0.1819
 7309SOL    HW133563   3.835   1.384  16.448 -1.7648 -0.3547  0.6775
 7309SOL    HW233564   3.885   1.269  16.359  1.0115  0.7441 -1.4541
 7310SOL     OW33565   3.598   1.923   4.845  0.0376  0.2996 -0.4088
 7310SOL    HW133566   3.652   1.849   4.822 -0.3924 -0.5796  1.4027
 7310SOL    HW233567   3.657   1.991   4.813 -0.9185  1.5842  0.4998
 7311SOL     OW33568   2.811   4.393   2.825 -0.3406  0.8508  0.3614
 7311SOL    HW133569   2.777   4.308   2.797  1.0510  0.0098  1.2348
 7311SOL    HW233570   2.845   4.378   2.913 -0.2391 -1.9996 -0.1671
 7312SOL     OW33571   1.773   2.228   7.423  0.1810  1.2583  0.3451
 7312SOL    HW133572   1.787   2.299   7.361  0.3446  0.8094 -0.1401
 7312SOL    HW233573   1.771   2.270   7.509  1.6289  1.8452  0.0966
 7313SOL     OW33574   2.352   4.281   8.803 -0.2917 -0.2997 -0.2035
 7313SOL    HW133575   2.323   4.190   8.798 -1.7737  0.2144 -1.0134
 7313SOL    HW233576   2.431   4.276   8.857  0.3405  0.8172 -1.0313
 7314SOL     OW33577   2.698   3.103  12.966  0.1464  0.4401  0.3527
 7314SOL    HW133578   2.698   3.198  12.973  1.7193  0.5169 -0.5159
 7314SOL    HW233579   2.685   3.076  13.057  2.3025  0.3966  0.6393
 7315SOL     OW33580   2.688   2.012  15.627  0.1425  0.7012 -0.6449
 7315SOL    HW133581   2.745   1.948  15.585  0.0695  0.4356 -0.3455
 7315SOL    HW233582   2.605   1.993  15.582 -1.5650  2.6333  1.6594
 7316SOL     OW33583   2.213   3.085   8.936 -0.0103  0.3908 -0.3926
 7316SOL    HW133584   2.294   3.098   8.887  0.3962  1.0814  0.4510
 7316SOL    HW233585   2.169   3.165   8.906 -2.5400 -2.2504 -3.6935
 7317SOL     OW33586   0.392   0.974   9.178  0.0982  0.0942  0.1335
 7317SOL    HW133587   0.382   1.064   9.212 -0.1443 -0.0900  0.5522
 7317SOL    HW233588   0.328   0.936   9.239  1.1786 -1.8696  0.0342
 7318SOL     OW33589   3.828   4.576   1.563 -0.4785 -0.5568  0.1008
 7318SOL    HW133590   3.748   4.594   1.515 -0.9246  2.0617  1.7897
 7318SOL    HW233591   3.876   4.525   1.498 -2.9340 -0.3940 -1.8502
 7319SOL     OW33592   4.250   2.635   7.833 -0.7627 -0.0768 -0.1157
 7319SOL    HW133593   4.278   2.571   7.767 -1.7085  0.6257 -1.1767
 7319SOL    HW233594   4.327   2.692   7.835 -0.4271 -0.5500  0.3706
 7320SOL     OW33595   2.658   3.638  12.895  0.7269 -0.1267 -0.0533
 7320SOL    HW133596   2.573   3.677  12.876  0.7551 -1.0088 -1.9542
 7320SOL    HW233597   2.651   3.650  12.990  0.2564 -0.5795 -0.0322
 7321SOL     OW33598   3.760   0.573  17.073  0.4101 -0.8993 -0.2462
 7321SOL    HW133599   3.825   0.559  17.004  1.1587 -2.7362  0.8341
 7321SOL    HW233600   3.828   0.615  17.125 -2.1614  1.6703  1.0346
 7322SOL     OW33601   2.896   0.717   3.443 -0.1516 -0.2248 -0.4596
 7322SOL    HW133602   2.936   0.698   3.358  1.1345 -0.6773  0.2360
 7322SOL    HW233603   2.816   0.766   3.423 -1.6284 -2.1755  0.7540
 7323SOL     OW33604   2.545   1.660   1.480  0.0349  0.3818  0.0429
 7323SOL    HW133605   2.540   1.580   1.531  1.3986 -0.2878 -0.8592
 7323SOL    HW233606   2.508   1.727   1.537 -2.8343 -1.0538 -0.1096
 7324SOL     OW33607   3.198   2.995   8.263  0.4380  0.0265  0.0269
 7324SOL    HW133608   3.107   3.022   8.252  1.2245  2.5665 -0.1024
 7324SOL    HW233609   3.247   3.077   8.258  0.3829 -0.0192 -1.3471
 7325SOL     OW33610   3.699   3.733  11.352 -0.8591  0.0934 -0.2262
 7325SOL    HW133611   3.712   3.660  11.292  0.2926 -1.2371  1.6736
 7325SOL    HW233612   3.775   3.718  11.408 -1.1031  0.9324  0.3393
 7326SOL     OW33613   3.185   1.752   8.784 -0.4457  0.2015 -0.5920
 7326SOL    HW133614   3.132   1.811   8.731  0.4754  0.6316 -1.0321
 7326SOL    HW233615   3.201   1.802   8.864 -1.4946 -0.1906 -0.1415
 7327SOL     OW33616   0.891   4.039   6.918  0.0984 -0.3191  0.2407
 7327SOL    HW133617   0.955   4.110   6.923 -1.1925  0.7743  1.7247
 7327SOL    HW233618   0.941   3.976   6.866  0.7076  1.8417 -1.8065
 7328SOL     OW33619   1.181   1.751  16.715 -0.1104 -0.0075  0.1303
 7328SOL    HW133620   1.236   1.722  16.642  0.4709  0.4103  0.4045
 7328SOL    HW233621   1.183   1.677  16.776 -0.1380  1.2891  1.6966
 7329SOL     OW33622   1.131   4.520   3.015 -0.4447 -0.0420 -0.5576
 7329SOL    HW133623   1.108   4.510   3.107  0.6802  1.2568 -0.1387
 7329SOL    HW233624   1.219   4.482   3.014 -0.0584  0.9066 -2.2959
 7330SOL     OW33625   2.799   2.259   3.191 -0.1196 -0.1853 -0.4204
 7330SOL    HW133626   2.855   2.185   3.214 -0.2094  0.1274  0.7687
 7330SOL    HW233627   2.789   2.298   3.278  1.1052 -0.0999 -0.3302
 7331SOL     OW33628   3.636   0.982  16.422  0.2766 -0.2906  0.3304
 7331SOL    HW133629   3.668   0.918  16.358  0.7778  1.8216 -1.5280
 7331SOL    HW233630   3.680   0.945  16.498 -0.7404 -0.3708  0.8864
 7332SOL     OW33631   1.327   2.105   6.968 -0.5050 -0.2013  0.1413
 7332SOL    HW133632   1.257   2.050   6.932 -1.2495  1.5725 -1.1561
 7332SOL    HW233633   1.384   2.118   6.892 -1.1202  0.1540 -0.2712
 7333SOL     OW33634   2.888   1.515   4.924  0.0356 -0.1182 -0.1760
 7333SOL    HW133635   2.884   1.493   5.017 -0.0500  1.7077  0.2532
 7333SOL    HW233636   2.894   1.611   4.930 -1.0727 -0.1746  1.7673
 7334SOL     OW33637   1.870   3.984   2.975 -0.0772  0.0062  0.1769
 7334SOL    HW133638   1.780   3.952   2.966  0.0108 -0.4923  1.0796
 7334SOL    HW233639   1.927   3.914   2.942  0.4016  0.6803 -0.4390
 7335SOL     OW33640   0.075   1.552   6.186  0.7612  0.2579 -1.1262
 7335SOL    HW133641   0.068   1.563   6.091 -2.4949 -1.0815 -1.0201
 7335SOL    HW233642   0.107   1.638   6.213 -1.0452  0.1101  1.5355
 7336SOL     OW33643   0.817   4.355   8.827  0.4079 -0.1688  0.4501
 7336SOL    HW133644   0.807   4.450   8.834 -2.5563 -0.3483 -1.1584
 7336SOL    HW233645   0.769   4.322   8.902  2.3297 -0.3637  1.5781
 7337SOL     OW33646   0.639   2.626   2.660  0.4999 -0.4952  0.6034
 7337SOL    HW133647   0.570   2.635   2.726 -2.8710  0.3823 -3.0626
 7337SOL    HW233648   0.709   2.673   2.706  1.1849 -1.6857  0.7727
 7338SOL     OW33649   0.970   3.529  11.180  0.5462 -0.1842  0.0859
 7338SOL    HW133650   1.059   3.560  11.165 -0.6896  2.0211 -2.8139
 7338SOL    HW233651   0.965   3.447  11.132 -1.4262  0.6031 -1.0976
 7339SOL     OW33652   2.060   0.091   5.754  0.0238 -0.0145 -0.1857
 7339SOL    HW133653   1.965   0.085   5.739  0.4087  0.0671 -2.6018
 7339SOL    HW233654   2.104   0.014   5.717  4.8093  1.6908  1.9766
 7340SOL     OW33655   1.433   4.165   1.748  0.4378 -0.6792 -0.1638
 7340SOL    HW133656   1.359   4.192   1.802  0.8961 -0.1359  0.2035
 7340SOL    HW233657   1.493   4.148   1.820  0.0846 -0.8495  0.0890
 7341SOL     OW33658   0.005   4.405  17.656 -0.3329  0.2597 -0.2122
 7341SOL    HW133659   4.648   4.423  17.648 -0.7858 -2.3657 -0.8469
 7341SOL    HW233660   0.010   4.338  17.724 -0.9410  0.6288  0.1974
 7342SOL     OW33661   4.455   2.364   4.845 -0.5681 -0.2009 -0.2491
 7342SOL    HW133662   4.368   2.346   4.881 -0.3346 -0.1108  0.3520
 7342SOL    HW233663   4.511   2.309   4.900 -1.1908 -2.6970 -2.0920
 7343SOL     OW33664   4.650   3.904  10.970  0.1110  0.0407  0.7336
 7343SOL    HW133665   4.697   3.964  11.027  0.8228 -0.1079  0.3048
 7343SOL    HW233666   4.589   3.864  11.031  0.1430 -3.2442 -1.3494
 7344SOL     OW33667   4.460   3.642  10.880 -0.0916  0.2819  0.3843
 7344SOL    HW133668   4.448   3.706  10.950  0.3695  1.7553 -0.8807
 7344SOL    HW233669   4.411   3.684  10.809  1.1599 -0.5723 -0.9814
 7345SOL     OW33670   0.174   3.352  11.856 -0.6690 -0.2452 -0.1019
 7345SOL    HW133671   0.174   3.426  11.916  1.2142  1.1507 -1.8248
 7345SOL    HW233672   0.208   3.390  11.775 -1.4536 -0.1679 -0.4020
 7346SOL     OW33673   2.718   4.647   2.796  0.1245 -0.0037 -0.2667
 7346SOL    HW133674   2.741   4.555   2.805  2.5133  0.4088 -2.1920
 7346SOL    HW233675   2.715   4.662   2.702 -1.0818 -0.4471 -0.3020
 7347SOL     OW33676   1.007   4.267   2.538 -0.0539  0.3427  0.1774
 7347SOL    HW133677   1.089   4.313   2.554  0.1673  0.3001 -0.8860
 7347SOL    HW233678   0.968   4.307   2.460  1.8833  0.9478 -0.4622
 7348SOL     OW33679   3.979   4.083   5.851 -0.5918  0.6958 -0.0198
 7348SOL    HW133680   3.917   4.049   5.787  1.3170 -1.8273 -0.5302
 7348SOL    HW233681   3.942   4.046   5.931  2.6518 -0.5360  0.9088
 7349SOL     OW33682   0.369   0.711   8.655 -0.2490  0.6147  0.5433
 7349SOL    HW133683   0.277   0.726   8.677 -0.3245 -0.5456  1.0287
 7349SOL    HW233684   0.361   0.689   8.562  1.5295 -0.8916  0.7241
 7350SOL     OW33685   1.844   1.053   9.955 -0.1985 -0.1639  0.3435
 7350SOL    HW133686   1.893   0.972   9.968 -1.9035 -1.1470  0.5459
 7350SOL    HW233687   1.762   1.024   9.993 -1.8184  2.4346 -1.1460
 7351SOL     OW33688   2.354   4.164   3.231  0.0772  0.2706  0.1985
 7351SOL    HW133689   2.424   4.117   3.187 -1.3809  0.2296 -2.0630
 7351SOL    HW233690   2.337   4.245   3.182  0.4660  0.4381  0.3380
 7352SOL     OW33691   0.220   1.724  15.072 -0.2619 -0.8244 -0.5047
 7352SOL    HW133692   0.139   1.675  15.083  0.3161 -2.1637 -2.2593
 7352SOL    HW233693   0.200   1.806  15.118  1.1635 -0.6404 -0.1938
 7353SOL     OW33694   4.626   4.522   2.134  0.1048  0.0002 -0.1957
 7353SOL    HW133695   4.548   4.482   2.096 -0.5017  1.5448 -0.5760
 7353SOL    HW233696   4.622   4.605   2.087  1.1799  0.8275  1.1939
 7354SOL     OW33697   1.530   3.934   7.479  0.2836  0.2839  0.0441
 7354SOL    HW133698   1.507   3.880   7.555  0.2385  1.0482  0.5736
 7354SOL    HW233699   1.582   3.872   7.429  1.6954  2.4605 -1.1826
 7355SOL     OW33700   1.044   3.776   3.123  0.0253  0.6466  0.5609
 7355SOL    HW133701   1.135   3.767   3.093 -0.3401 -0.1349 -0.3174
 7355SOL    HW233702   1.038   3.868   3.147  2.9423  1.2921 -1.1974
 7356SOL     OW33703   3.209   4.684   4.096 -0.2622 -0.0192 -0.2307
 7356SOL    HW133704   3.270   4.612   4.109 -0.1781  0.3967  1.6756
 7356SOL    HW233705   3.180   4.714   4.182 -0.2749  1.6684 -0.8272
 7357SOL     OW33706   2.231   1.878   6.194 -0.1138 -0.9419 -0.3128
 7357SOL    HW133707   2.147   1.853   6.155 -0.3834  0.0162 -0.3309
 7357SOL    HW233708   2.286   1.805   6.166  1.1652 -0.5778  1.3177
 7358SOL     OW33709   2.127   0.017   6.051  0.5340  0.2046  0.4124
 7358SOL    HW133710   2.183   4.675   6.056 -0.2323 -0.2365  1.9686
 7358SOL    HW233711   2.128   0.045   5.959  0.4049 -0.8898  0.0743
 7359SOL     OW33712   1.111   3.731   7.152 -0.0659 -0.2481  0.1114
 7359SOL    HW133713   1.141   3.657   7.205  1.7999 -1.7509 -3.0438
 7359SOL    HW233714   1.018   3.713   7.163  0.4515 -2.6349  0.6006
 7360SOL     OW33715   0.347   2.141  10.436 -0.5458 -0.2898 -0.2997
 7360SOL    HW133716   0.366   2.157  10.343 -0.7423 -0.0528 -0.2966
 7360SOL    HW233717   0.297   2.060  10.442  1.5208 -1.5420  0.0688
 7361SOL     OW33718   3.333   1.717   5.911  0.1940 -0.4453 -0.8299
 7361SOL    HW133719   3.319   1.802   5.951  1.9889 -0.7055  0.3440
 7361SOL    HW233720   3.260   1.667   5.948  0.9483 -0.5635  0.4888
 7362SOL     OW33721   3.514   3.357   9.450  0.4908 -0.0539  0.1917
 7362SOL    HW133722   3.567   3.278   9.451  1.2626  0.4560 -0.1990
 7362SOL    HW233723   3.501   3.366   9.355 -3.9908  0.8117  0.8898
 7363SOL     OW33724   1.013   1.296   3.129  0.1569 -0.4238 -0.2515
 7363SOL    HW133725   0.931   1.342   3.144  0.9648  1.1335 -0.5436
 7363SOL    HW233726   0.986   1.205   3.120  2.1083 -1.0836  0.4335
 7364SOL     OW33727   2.680   0.663   4.789  0.7162  0.2411 -0.3179
 7364SOL    HW133728   2.667   0.758   4.787  0.8361  0.2986  2.8566
 7364SOL    HW233729   2.749   0.659   4.723  2.6885 -1.0791  1.8370
 7365SOL     OW33730   0.534   0.898   0.215 -0.1188  0.2936 -0.0504
 7365SOL    HW133731   0.503   0.818   0.173 -1.3532  0.4410  0.5753
 7365SOL    HW233732   0.556   0.873   0.305 -1.5411 -3.0436 -0.6260
 7366SOL     OW33733   0.121   3.571  16.132 -0.2708  0.3017  0.1317
 7366SOL    HW133734   0.108   3.481  16.160  0.0154  0.5063  0.9325
 7366SOL    HW233735   0.217   3.563  16.132 -0.2210  0.9749  1.4920
 7367SOL     OW33736   0.485   1.709   8.065  0.5259  0.2407  0.3028
 7367SOL    HW133737   0.479   1.700   7.970 -1.1311  1.0913  0.3346
 7367SOL    HW233738   0.423   1.777   8.092 -1.5574 -1.5586  0.0235
 7368SOL     OW33739   1.308   3.448   9.793 -0.0607 -0.2431  0.2058
 7368SOL    HW133740   1.299   3.355   9.811 -0.4066 -0.0249  1.1803
 7368SOL    HW233741   1.238   3.459   9.730  3.0198 -1.0073 -3.3542
 7369SOL     OW33742   4.217   1.489   5.270 -0.6791  0.5039 -0.4472
 7369SOL    HW133743   4.270   1.537   5.334 -0.9616 -1.4012  1.2067
 7369SOL    HW233744   4.152   1.557   5.252 -0.1197  0.9601 -0.7861
 7370SOL     OW33745   0.516   2.111  15.926  0.2046 -0.1965 -0.1742
 7370SOL    HW133746   0.598   2.116  15.878  1.2918 -1.5665  1.5458
 7370SOL    HW233747   0.463   2.088  15.850 -1.2144 -1.4588  1.1708
 7371SOL     OW33748   2.426   1.992   0.303  0.2581 -0.3772 -0.3106
 7371SOL    HW133749   2.521   1.999   0.298  0.4352 -0.2964  3.0036
 7371SOL    HW233750   2.408   1.977   0.395  1.7219 -0.6018 -0.0568
 7372SOL     OW33751   2.782   0.206  16.461  0.0952  1.1335  0.4748
 7372SOL    HW133752   2.818   0.119  16.478  0.9936  0.9456 -2.3938
 7372SOL    HW233753   2.849   0.224  16.394  0.1263  0.5256  0.3427
 7373SOL     OW33754   3.474   4.080  13.432 -0.0281  0.2256  0.2476
 7373SOL    HW133755   3.460   4.093  13.338  0.7166  0.0715  0.1154
 7373SOL    HW233756   3.562   4.116  13.436  0.7939 -1.8854  1.2912
 7374SOL     OW33757   4.445   2.098   9.144  0.2382  0.5918 -0.4319
 7374SOL    HW133758   4.536   2.124   9.157  0.3243  0.0238  0.1399
 7374SOL    HW233759   4.456   2.006   9.122  1.0664  1.0746 -2.0087
 7375SOL     OW33760   2.126   4.161   9.791  0.3189 -0.3970  0.0945
 7375SOL    HW133761   2.060   4.201   9.734 -2.6547 -1.2214  2.9177
 7375SOL    HW233762   2.180   4.233   9.823  1.8160 -1.6202  0.3226
 7376SOL     OW33763   4.641   1.261   4.766 -0.2705 -0.1304 -0.0935
 7376SOL    HW133764   4.545   1.258   4.763 -0.2496  0.5225 -1.2117
 7376SOL    HW233765   4.664   1.253   4.674  0.5637 -1.1503  0.1993
 7377SOL     OW33766   1.133   0.793   4.436 -0.3524  0.1148  0.1761
 7377SOL    HW133767   1.179   0.794   4.519  0.4945 -2.5058 -0.2516
 7377SOL    HW233768   1.204   0.818   4.376  0.7468 -2.3630  0.4479
 7378SOL     OW33769   4.675   3.676  15.282 -0.3691  0.5720  0.0155
 7378SOL    HW133770   0.034   3.690  15.281 -0.4298  0.9633 -0.2994
 7378SOL    HW233771   4.648   3.759  15.242  1.1301  0.7270 -0.6927
 7379SOL     OW33772   1.685   0.892  15.020 -0.1934 -0.2576 -0.5850
 7379SOL    HW133773   1.645   0.924  14.939 -1.0451 -1.0480 -0.4736
 7379SOL    HW233774   1.733   0.974  15.030 -1.7689  0.7212 -0.9651
 7380SOL     OW33775   0.638   0.907   4.198  0.2216 -0.1147 -0.0204
 7380SOL    HW133776   0.646   0.920   4.292  1.1512 -1.3671  0.0821
 7380SOL    HW233777   0.568   0.842   4.199 -0.4574  0.6072 -1.3417
 7381SOL     OW33778   4.014   2.924   6.489 -0.1665 -0.1670  0.4303
 7381SOL    HW133779   4.032   3.013   6.520 -1.0910  0.3166 -0.4228
 7381SOL    HW233780   4.016   2.940   6.395 -1.1690  1.8753  0.7615
 7382SOL     OW33781   2.582   3.717   6.776 -0.2058 -0.6012  0.3403
 7382SOL    HW133782   2.577   3.757   6.689  1.8885  4.0940  2.3637
 7382SOL    HW233783   2.592   3.793   6.833  1.4759  0.9654 -2.0152
 7383SOL     OW33784   3.822   3.655   5.111 -0.0722  0.0486 -0.2220
 7383SOL    HW133785   3.811   3.726   5.175 -0.7477 -1.2651  1.1155
 7383SOL    HW233786   3.907   3.685   5.078  0.8263 -2.1411  0.1261
 7384SOL     OW33787   1.030   3.872   4.345  0.4367  0.1177  0.0465
 7384SOL    HW133788   1.059   3.938   4.408  0.7515  0.8111 -0.8277
 7384SOL    HW233789   1.109   3.832   4.309 -0.0809 -0.9196  0.0705
 7385SOL     OW33790   0.445   4.527  10.686  0.2944 -0.2707 -0.0896
 7385SOL    HW133791   0.354   4.516  10.658  0.0823  0.4787  0.2971
 7385SOL    HW233792   0.490   4.450  10.654 -0.5962  0.1668 -2.3660
 7386SOL     OW33793   2.497   4.446   7.096  0.4556 -0.3775 -0.3004
 7386SOL    HW133794   2.467   4.488   7.015  1.1346  1.8528  0.6251
 7386SOL    HW233795   2.542   4.515   7.144  1.4590 -0.6769 -0.7991
 7387SOL     OW33796   2.598   2.786  14.994  0.2904  0.4461 -0.8267
 7387SOL    HW133797   2.668   2.818  14.937  0.0175 -2.0949 -2.5394
 7387SOL    HW233798   2.585   2.859  15.055  0.6767 -0.3475  0.2017
 7388SOL     OW33799   2.552   0.585   7.277 -0.4652 -0.3226  0.7339
 7388SOL    HW133800   2.635   0.590   7.229  0.1645  2.4280  2.1100
 7388SOL    HW233801   2.583   0.612   7.364 -0.1147  3.5252 -0.5961
 7389SOL     OW33802   0.224   0.017   7.152 -0.0402  0.0175 -0.4301
 7389SOL    HW133803   0.192   0.019   7.062 -0.3059  1.6489 -0.3007
 7389SOL    HW233804   0.274   0.098   7.155  0.1222 -0.1075  0.2795
 7390SOL     OW33805   4.439   1.396  17.449 -0.2117 -0.1618  0.0562
 7390SOL    HW133806   4.459   1.394  17.543 -1.5881  0.1205  0.3513
 7390SOL    HW233807   4.345   1.380  17.442 -0.2807  0.6268 -0.7237
 7391SOL     OW33808   0.572   3.484   9.360  0.3112  0.1901  0.6365
 7391SOL    HW133809   0.562   3.492   9.265  1.2089  0.2714  0.5524
 7391SOL    HW233810   0.511   3.543   9.405  0.8291 -1.6421  3.7898
 7392SOL     OW33811   4.207   0.131   3.809 -0.1097 -0.1478  0.3073
 7392SOL    HW133812   4.202   0.182   3.889 -0.2867 -0.3131  0.4005
 7392SOL    HW233813   4.221   0.204   3.749 -1.5963 -0.8354 -0.8924
 7393SOL     OW33814   0.947   0.548   7.239  0.2577  0.7183 -0.0346
 7393SOL    HW133815   0.856   0.526   7.218  1.1587 -1.7112 -1.4673
 7393SOL    HW233816   0.946   0.570   7.332 -2.0534  0.0889  0.0940
 7394SOL     OW33817   0.795   2.167   9.255  0.0425 -0.2111  0.2541
 7394SOL    HW133818   0.831   2.235   9.313 -0.6246 -1.1598  1.8006
 7394SOL    HW233819   0.834   2.194   9.172  0.1854 -1.4266 -0.0754
 7395SOL     OW33820   4.487   3.592   6.228  0.1096 -0.8829 -0.5283
 7395SOL    HW133821   4.509   3.616   6.318 -1.6999 -2.1460  0.2478
 7395SOL    HW233822   4.567   3.627   6.187  0.3899  0.7628  1.4119
 7396SOL     OW33823   4.062   2.310  15.402 -0.0998  0.2316  0.1551
 7396SOL    HW133824   4.000   2.263  15.459  0.0677 -0.1820 -0.0030
 7396SOL    HW233825   4.019   2.368  15.340  1.1110  0.2483 -0.6527
 7397SOL     OW33826   4.403   3.594   8.098  0.2638 -0.7001  0.2959
 7397SOL    HW133827   4.435   3.666   8.044  0.5696 -1.2954 -0.3209
 7397SOL    HW233828   4.442   3.519   8.052  1.1262  0.8500 -1.4869
 7398SOL     OW33829   0.829   4.082  11.742  0.7923  0.0773  0.2257
 7398SOL    HW133830   0.825   4.051  11.833 -0.2970 -0.8904 -0.1503
 7398SOL    HW233831   0.746   4.129  11.738  0.8199  0.0598 -0.5494
 7399SOL     OW33832   3.599   2.741   2.190 -0.2448 -0.0630 -0.0401
 7399SOL    HW133833   3.686   2.757   2.155  1.0044 -3.3279  1.6174
 7399SOL    HW233834   3.552   2.781   2.117 -0.0299 -0.7607 -0.5590
 7400SOL     OW33835   3.807   0.724  11.425  0.3167  0.1677  0.3272
 7400SOL    HW133836   3.719   0.694  11.448  0.5353 -0.4191  0.4110
 7400SOL    HW233837   3.833   0.777  11.500  1.9633  0.4575 -0.4650
 7401SOL     OW33838   4.117   0.730   6.150  0.3818 -0.4871 -0.2224
 7401SOL    HW133839   4.167   0.811   6.162 -0.5569  0.4161 -2.5530
 7401SOL    HW233840   4.140   0.692   6.235 -0.8241 -2.4996 -0.7902
 7402SOL     OW33841   0.355   1.544  12.907 -0.6268 -0.6859 -0.2306
 7402SOL    HW133842   0.348   1.464  12.854  0.7642  0.2830 -1.8884
 7402SOL    HW233843   0.384   1.508  12.991 -2.6472 -0.9779  0.3442
 7403SOL     OW33844   3.312   3.113   3.514  0.2537 -0.2791  0.0744
 7403SOL    HW133845   3.371   3.040   3.495  0.7712  0.3288 -0.6442
 7403SOL    HW233846   3.306   3.153   3.428  1.3941 -1.7840 -0.7036
 7404SOL     OW33847   2.277   0.433  17.017  0.5203 -0.1097 -0.3551
 7404SOL    HW133848   2.218   0.376  16.967 -1.0331  2.0332 -0.9925
 7404SOL    HW233849   2.347   0.458  16.957 -0.0258 -1.6106 -1.6049
 7405SOL     OW33850   3.656   4.573   2.553 -1.0318  0.3056 -0.0223
 7405SOL    HW133851   3.741   4.561   2.511 -0.5857  1.2366  0.6134
 7405SOL    HW233852   3.609   4.497   2.517 -1.1538  0.9290 -1.1755
 7406SOL     OW33853   3.254   0.042   7.945  0.4315 -0.3131  0.0169
 7406SOL    HW133854   3.280   0.016   7.857  2.2228 -0.9141  0.7198
 7406SOL    HW233855   3.297   0.127   7.949  1.2916 -0.8409  2.3831
 7407SOL     OW33856   2.460   1.538   4.480 -0.8394  0.3142 -0.1568
 7407SOL    HW133857   2.448   1.500   4.567  1.6621 -2.9529 -1.2061
 7407SOL    HW233858   2.522   1.609   4.494 -0.9203  0.1918  0.8233
 7408SOL     OW33859   0.606   0.449  11.127 -0.0483  0.1704 -0.7526
 7408SOL    HW133860   0.624   0.393  11.051  0.0395  0.9961 -1.3384
 7408SOL    HW233861   0.681   0.404  11.166 -1.9412 -2.5662 -0.2089
 7409SOL     OW33862   1.887   1.130   2.030  0.1535 -0.1141 -0.1841
 7409SOL    HW133863   1.818   1.072   2.061 -1.9312  1.7841 -1.2930
 7409SOL    HW233864   1.968   1.088   2.060 -0.5974 -1.1813  0.3550
 7410SOL     OW33865   2.517   4.532   9.435  0.2607  0.5525 -0.1844
 7410SOL    HW133866   2.557   4.616   9.414 -1.9508  1.9117  1.0714
 7410SOL    HW233867   2.599   4.484   9.441  0.2644  0.7877  1.6064
 7411SOL     OW33868   2.907   0.362   0.128 -0.0237  0.3860 -0.1252
 7411SOL    HW133869   2.863   0.291   0.174  4.5514 -1.4185  1.4874
 7411SOL    HW233870   2.867   0.361   0.041 -0.2343 -0.5926 -0.0112
 7412SOL     OW33871   3.747   0.244   5.509  0.6079  0.3739  0.5222
 7412SOL    HW133872   3.695   0.254   5.589 -0.0894  1.1280 -0.0251
 7412SOL    HW233873   3.685   0.216   5.443  2.4555 -3.2600  0.3159
 7413SOL     OW33874   1.642   0.845   8.610  0.7293 -0.4130  0.1266
 7413SOL    HW133875   1.683   0.769   8.566 -1.1248 -0.9010 -0.7635
 7413SOL    HW233876   1.563   0.849   8.557  1.3774  1.2930 -0.6966
 7414SOL     OW33877   4.230   0.825   6.540  0.3839  0.0447 -0.4808
 7414SOL    HW133878   4.180   0.756   6.496 -0.9928  0.5687  0.2384
 7414SOL    HW233879   4.290   0.783   6.600  1.2830 -0.4242 -1.7072
 7415SOL     OW33880   0.165   1.784   9.147 -0.0463 -0.4046 -0.3183
 7415SOL    HW133881   0.247   1.753   9.109 -0.3932 -2.7388  0.8485
 7415SOL    HW233882   0.183   1.750   9.235 -1.3883 -0.7531 -0.1806
 7416SOL     OW33883   1.683   3.595   5.500  0.3642 -0.0966  0.1276
 7416SOL    HW133884   1.612   3.627   5.444  1.5685 -0.4138 -1.5738
 7416SOL    HW233885   1.655   3.637   5.582  1.9331  0.1690  0.5310
 7417SOL     OW33886   2.905   0.693   1.718  0.0514  0.2584 -0.2650
 7417SOL    HW133887   2.961   0.720   1.646  0.7349  1.5058  0.7389
 7417SOL    HW233888   2.947   0.735   1.793 -0.3234 -1.1482  0.7401
 7418SOL     OW33889   2.692   3.870   4.270 -0.0476  0.3162  0.0473
 7418SOL    HW133890   2.654   3.852   4.356  1.3615  1.3946  0.8985
 7418SOL    HW233891   2.648   3.805   4.216  1.8053  0.0307 -1.1327
 7419SOL     OW33892   1.625   3.611   1.809 -0.5165  0.5330  0.3806
 7419SOL    HW133893   1.713   3.646   1.796  0.5749 -0.4101  4.9490
 7419SOL    HW233894   1.567   3.684   1.789  0.6161  1.3300  0.0559
 7420SOL     OW33895   0.246   3.107   4.094  0.7682  0.1987 -0.1917
 7420SOL    HW133896   0.277   3.017   4.106 -1.5941 -0.4520  1.0754
 7420SOL    HW233897   0.175   3.090   4.033  0.2091 -1.9800  1.0433
 7421SOL     OW33898   1.560   4.164   6.748 -0.1678 -0.4797  0.1785
 7421SOL    HW133899   1.532   4.249   6.783  0.3982 -0.4698  0.5927
 7421SOL    HW233900   1.489   4.103   6.769  1.3821 -2.0297  0.8551
 7422SOL     OW33901   3.540   2.173   5.902  0.5691  0.2617 -0.5383
 7422SOL    HW133902   3.559   2.267   5.895  0.7988  0.2799  0.4219
 7422SOL    HW233903   3.628   2.142   5.921 -0.1327 -0.2834  1.7334
 7423SOL     OW33904   0.620   1.827  14.359  0.1847 -0.0734  0.4740
 7423SOL    HW133905   0.698   1.880  14.372  0.9018 -1.0920  0.2967
 7423SOL    HW233906   0.605   1.807  14.452 -2.9553 -2.4978 -0.5713
 7424SOL     OW33907   3.823   1.695   0.371 -0.0012  0.3591  0.0977
 7424SOL    HW133908   3.822   1.668   0.279 -0.6851  0.3030  0.1267
 7424SOL    HW233909   3.746   1.752   0.374 -0.9902 -1.1154  2.4375
 7425SOL     OW33910   4.580   2.513   0.669 -0.2071 -0.6261  0.3830
 7425SOL    HW133911   4.507   2.491   0.728 -1.7604 -1.0500 -1.6886
 7425SOL    HW233912   4.657   2.482   0.715 -0.1350  1.3256  1.5933
 7426SOL     OW33913   2.257   1.641   7.684 -0.0382 -0.0331  0.0460
 7426SOL    HW133914   2.258   1.552   7.648  1.3057  0.1741 -0.4317
 7426SOL    HW233915   2.162   1.648   7.682 -0.0594 -0.3234  0.0266
 7427SOL     OW33916   1.555   4.263   6.102 -0.3111 -0.2678  0.3001
 7427SOL    HW133917   1.636   4.216   6.085  1.5111  3.1006 -0.2341
 7427SOL    HW233918   1.507   4.188   6.137  0.4162 -0.9907 -0.2614
 7428SOL     OW33919   0.972   0.933   3.310 -0.1188  0.4260 -0.1952
 7428SOL    HW133920   0.947   1.018   3.345 -2.2858  0.3585 -1.5973
 7428SOL    HW233921   0.942   0.874   3.380  1.6389  0.6961  0.7765
 7429SOL     OW33922   2.837   3.975   6.538  0.2732 -0.4095  0.0438
 7429SOL    HW133923   2.909   4.005   6.594  0.1586  2.8205 -1.5519
 7429SOL    HW233924   2.844   4.037   6.465 -2.8308  0.1944  0.2550
 7430SOL     OW33925   0.960   2.355   2.269  0.4156 -0.1923 -0.1842
 7430SOL    HW133926   0.875   2.359   2.226 -0.2900 -2.3971  0.9836
 7430SOL    HW233927   0.982   2.270   2.230  0.5006  0.4157 -1.4348
 7431SOL     OW33928   2.972   2.297   4.339 -0.0283  0.0555  0.0355
 7431SOL    HW133929   2.904   2.249   4.292  0.0378 -0.1765  0.1726
 7431SOL    HW233930   3.015   2.227   4.389  1.1542  1.2817  0.7328
 7432SOL     OW33931   2.975   2.236   5.909  0.0640 -0.2416  0.1844
 7432SOL    HW133932   2.993   2.175   5.838  2.4666 -0.0466  0.6498
 7432SOL    HW233933   2.986   2.325   5.876  1.2543 -0.9187 -1.2153
 7433SOL     OW33934   1.282   3.903   3.108  0.4847  0.1165  0.3777
 7433SOL    HW133935   1.215   3.959   3.066  0.6042 -0.5121 -0.6436
 7433SOL    HW233936   1.344   3.909   3.036  1.4654 -0.0112  1.2177
 7434SOL     OW33937   2.070   0.291  16.909  0.3384  0.1748 -0.4182
 7434SOL    HW133938   2.082   0.231  16.983 -3.5980 -0.3343 -0.1760
 7434SOL    HW233939   1.975   0.284  16.896  0.3720  1.0890 -1.2024
 7435SOL     OW33940   2.921   3.162   9.350 -0.1362 -0.3983 -0.2154
 7435SOL    HW133941   2.944   3.117   9.431 -0.3478  1.3991  0.8495
 7435SOL    HW233942   2.923   3.091   9.286 -1.3448  0.2393 -0.9658
 7436SOL     OW33943   3.714   3.819   4.201 -0.7281  0.6577 -0.0804
 7436SOL    HW133944   3.757   3.746   4.157 -0.9044 -0.8223  2.2028
 7436SOL    HW233945   3.650   3.770   4.252  1.0712 -0.1886  1.3309
 7437SOL     OW33946   4.302   1.899   5.299  0.7307  0.2370  0.4249
 7437SOL    HW133947   4.254   1.845   5.362 -1.8659  0.7732 -1.0955
 7437SOL    HW233948   4.243   1.897   5.224  1.7770  1.5485 -0.4349
 7438SOL     OW33949   4.731   1.867  11.273  0.8048  1.0755  0.2077
 7438SOL    HW133950   4.663   1.818  11.229  1.7079 -0.0736  0.0832
 7438SOL    HW233951   0.056   1.795  11.293  0.8186  0.2007 -2.9776
 7439SOL     OW33952   0.801   3.222   3.784  0.0504 -0.2238 -0.0238
 7439SOL    HW133953   0.790   3.241   3.878 -1.0980 -1.3427  0.0682
 7439SOL    HW233954   0.890   3.255   3.777  0.3888 -1.6162 -2.1060
 7440SOL     OW33955   2.730   0.388   5.914 -0.1883  0.6103  0.1602
 7440SOL    HW133956   2.724   0.303   5.957 -0.8618  0.5795  0.0034
 7440SOL    HW233957   2.651   0.388   5.860 -0.5242  1.6439  0.6498
 7441SOL     OW33958   3.367   3.180   3.778  0.5422 -0.2862 -0.6982
 7441SOL    HW133959   3.352   3.194   3.684  0.1898 -0.9670 -0.7432
 7441SOL    HW233960   3.387   3.086   3.782  2.1554  0.1287  1.0111
 7442SOL     OW33961   3.073   2.005   6.688 -0.4063  0.0960  0.2492
 7442SOL    HW133962   3.108   2.049   6.611  1.6694 -0.2689  0.9788
 7442SOL    HW233963   2.996   2.060   6.700 -0.2321  0.3378  0.2518
 7443SOL     OW33964   3.966   0.188   5.654  0.2009 -0.1085 -0.2623
 7443SOL    HW133965   3.940   0.134   5.728 -2.4111 -1.5025 -2.1752
 7443SOL    HW233966   3.883   0.196   5.606 -0.7718  0.0293  1.4385
 7444SOL     OW33967   0.653   3.766   2.566 -0.4758  0.4809 -0.5655
 7444SOL    HW133968   0.642   3.839   2.626 -0.0686 -1.3853  1.7885
 7444SOL    HW233969   0.726   3.713   2.599  1.0797  1.4744 -2.4060
 7445SOL     OW33970   4.703   2.539   6.817 -0.5297  0.2255  0.4814
 7445SOL    HW133971   0.036   2.598   6.787 -0.6498  1.0134  1.7877
 7445SOL    HW233972   4.630   2.598   6.836 -0.4579  0.9205 -1.3575
 7446SOL     OW33973   4.045   1.413  12.178 -0.5147  0.1538 -0.1910
 7446SOL    HW133974   4.113   1.473  12.148  1.1272 -1.9900 -0.8355
 7446SOL    HW233975   4.095   1.362  12.242 -1.2553  0.0791  0.3292
 7447SOL     OW33976   3.867   3.510   8.743  0.7359  0.2159  0.3262
 7447SOL    HW133977   3.867   3.421   8.707 -0.5605 -0.0524  1.0081
 7447SOL    HW233978   3.918   3.503   8.823  2.5278 -0.9177 -0.8979
 7448SOL     OW33979   1.318   2.037   3.051  0.4328 -0.0448 -0.1344
 7448SOL    HW133980   1.373   2.112   3.075  0.1771  0.2237 -0.3765
 7448SOL    HW233981   1.292   2.005   3.137 -1.1843  0.6890 -0.3375
 7449SOL     OW33982   1.656   3.875   7.875 -0.2911  0.2478 -0.2028
 7449SOL    HW133983   1.611   3.934   7.935  0.5274 -0.0612  0.7109
 7449SOL    HW233984   1.616   3.890   7.790  0.6673  0.1647 -0.6717
 7450SOL     OW33985   0.112   4.417   6.256 -0.2838  0.0819 -0.1326
 7450SOL    HW133986   0.018   4.397   6.247 -0.1387 -0.6033 -0.0883
 7450SOL    HW233987   0.106   4.509   6.231 -0.3333  0.5272  1.4729
 7451SOL     OW33988   0.307   4.292   6.095  0.2976 -0.0279  0.7210
 7451SOL    HW133989   0.236   4.310   6.156  0.1502  3.1148 -0.3720
 7451SOL    HW233990   0.388   4.308   6.143  0.4406 -0.1974  0.5368
 7452SOL     OW33991   3.981   2.684   6.636  0.1742 -0.0412 -0.2008
 7452SOL    HW133992   3.942   2.721   6.715 -0.6248 -0.3477 -0.4496
 7452SOL    HW233993   3.998   2.767   6.593 -1.1391  1.5261  2.2960
 7453SOL     OW33994   4.502   0.489   1.001  0.2004  0.1167  0.1323
 7453SOL    HW133995   4.586   0.483   1.046  0.2087  1.8528  0.3538
 7453SOL    HW233996   4.461   0.550   1.061  0.3610  1.0480 -0.7040
 7454SOL     OW33997   3.306   3.279   3.313  0.6093  0.4855  0.2579
 7454SOL    HW133998   3.401   3.269   3.323  0.7022  0.1719 -0.9154
 7454SOL    HW233999   3.296   3.369   3.282  0.7281 -0.4249 -2.3902
 7455SOL     OW34000   3.293   3.778   4.342  0.1647  0.4061  0.1127
 7455SOL    HW134001   3.263   3.686   4.342  0.2088  0.3913 -0.3674
 7455SOL    HW234002   3.387   3.761   4.337  0.0756 -0.7222  2.0398
 7456SOL     OW34003   2.749   1.974   1.273  0.0562  0.3976  0.1510
 7456SOL    HW134004   2.694   2.044   1.238  0.1909 -0.3226 -1.5277
 7456SOL    HW234005   2.806   2.019   1.335 -0.4217  0.9277  0.2026
 7457SOL     OW34006   0.238   3.238   6.968  0.2129  0.3386  0.1229
 7457SOL    HW134007   0.258   3.217   6.877  1.0326  0.5586  0.2537
 7457SOL    HW234008   0.319   3.210   7.009  0.4697  2.2327  0.9155
 7458SOL     OW34009   1.730   1.006   1.415  0.1233  0.1486 -0.3575
 7458SOL    HW134010   1.823   0.989   1.432 -0.1149  0.1104  0.9222
 7458SOL    HW234011   1.701   1.020   1.505  0.4471  3.7945 -0.8190
 7459SOL     OW34012   2.074   0.437   7.282 -0.3060  0.0546  0.8245
 7459SOL    HW134013   1.999   0.379   7.265 -1.1113  2.0239 -2.2274
 7459SOL    HW234014   2.074   0.482   7.198  0.6082  2.4070  2.0770
 7460SOL     OW34015   2.364   2.757   0.272 -0.3262  0.3699  0.6204
 7460SOL    HW134016   2.310   2.745   0.350  0.8466 -3.6711  0.8348
 7460SOL    HW234017   2.440   2.811   0.294  0.9408 -0.5422 -1.4980
 7461SOL     OW34018   0.796   3.764   4.032 -0.5666  0.5309  0.2387
 7461SOL    HW134019   0.721   3.705   4.021 -1.1703  1.2501  0.4971
 7461SOL    HW234020   0.844   3.774   3.949 -1.1054  0.7852 -0.0403
 7462SOL     OW34021   1.486   1.583   8.675  0.8234  0.5475 -0.0561
 7462SOL    HW134022   1.513   1.671   8.650  0.0290  1.2616  1.5676
 7462SOL    HW234023   1.428   1.566   8.601  1.7849  0.7870 -0.8617
 7463SOL     OW34024   0.631   0.002   3.928 -1.1289  0.3919 -0.6620
 7463SOL    HW134025   0.722   0.020   3.906 -1.3647  3.1848  0.6726
 7463SOL    HW234026   0.624   4.655   3.880  2.2568 -0.1885 -0.1882
 7464SOL     OW34027   4.606   2.334   3.469  0.2019 -0.0901  0.3714
 7464SOL    HW134028   4.616   2.249   3.425  0.1733  0.0897  0.0250
 7464SOL    HW234029   4.697   2.342   3.496  1.2862 -0.1131 -3.3552
 7465SOL     OW34030   0.023   0.055  15.710  0.1557  0.1457  0.2987
 7465SOL    HW134031   0.033   4.696  15.705 -0.5051  0.1344 -0.8877
 7465SOL    HW234032   0.093   0.087  15.767 -0.6593 -1.0743  1.9832
 7466SOL     OW34033   0.444   3.890   7.328 -0.1727 -0.2219  1.2450
 7466SOL    HW134034   0.539   3.882   7.325 -0.2583 -1.4400  1.6353
 7466SOL    HW234035   0.436   3.984   7.340  0.1830 -0.1929  1.2530
 7467SOL     OW34036   3.087   2.358  10.739 -0.0225 -0.4354 -0.6247
 7467SOL    HW134037   3.021   2.421  10.769 -0.8480 -0.8006 -1.7157
 7467SOL    HW234038   3.084   2.291  10.807 -2.8189  2.1091  1.7493
 7468SOL     OW34039   4.514   3.393   2.850 -0.4653 -0.3753 -0.4430
 7468SOL    HW134040   4.573   3.339   2.798  1.4737  2.4883 -1.1968
 7468SOL    HW234041   4.424   3.379   2.820 -0.8195  0.8512  0.0301
 7469SOL     OW34042   4.256   1.105   5.958  0.2595  0.1779 -0.8145
 7469SOL    HW134043   4.288   1.186   5.919  1.5274  0.2143  0.3054
 7469SOL    HW234044   4.185   1.139   6.012  0.4583  1.5539 -1.4418
 7470SOL     OW34045   1.483   1.317   4.163  0.1078  0.6845  0.7159
 7470SOL    HW134046   1.436   1.400   4.156 -0.5010  0.3293  0.5839
 7470SOL    HW234047   1.520   1.328   4.251 -0.3704  0.2745  0.9656
 7471SOL     OW34048   2.730   0.822   8.852  0.3049  0.3005 -0.1145
 7471SOL    HW134049   2.714   0.771   8.773  2.7573 -0.7987  0.0982
 7471SOL    HW234050   2.645   0.864   8.863  0.2630  0.1037  0.3365
 7472SOL     OW34051   3.803   3.026   9.920 -0.3344  0.3894 -0.0299
 7472SOL    HW134052   3.747   2.949   9.911 -0.1606  0.3405 -0.6996
 7472SOL    HW234053   3.805   3.045  10.014 -0.5820 -1.7197  0.4043
 7473SOL     OW34054   2.685   0.531   7.687 -0.0901 -0.1348  0.7085
 7473SOL    HW134055   2.623   0.458   7.689 -1.8933  1.4743  2.6490
 7473SOL    HW234056   2.643   0.594   7.629  0.7814 -0.4328 -0.2441
 7474SOL     OW34057   1.841   4.641  11.117  0.2499 -0.2369 -0.6178
 7474SOL    HW134058   1.790   4.718  11.143  1.0300 -0.4418  1.5076
 7474SOL    HW234059   1.819   4.576  11.184  1.0316  0.2446  0.0933
 7475SOL     OW34060   2.601   2.882   7.922 -0.7723 -0.4623 -0.1307
 7475SOL    HW134061   2.583   2.810   7.862 -0.7789  0.6340 -1.4355
 7475SOL    HW234062   2.634   2.947   7.859 -0.9340 -0.1201  0.1384
 7476SOL     OW34063   0.254   2.507   8.736 -0.3440 -0.4026  0.1184
 7476SOL    HW134064   0.221   2.476   8.651 -3.3349 -2.1278  1.9068
 7476SOL    HW234065   0.268   2.422   8.777 -2.2922 -0.3251  0.9174
 7477SOL     OW34066   1.437   0.195   8.338 -0.3663 -0.4018 -0.0914
 7477SOL    HW134067   1.475   0.250   8.268  0.6296  0.2500  0.9598
 7477SOL    HW234068   1.358   0.243   8.361  0.2916  0.3298  0.6581
 7478SOL     OW34069   4.515   1.376   8.393  0.2249 -0.0477  0.1611
 7478SOL    HW134070   4.461   1.430   8.451 -1.4851 -0.7350 -0.7870
 7478SOL    HW234071   4.478   1.416   8.314  2.0716 -1.3445 -1.3619
 7479SOL     OW34072   0.944   3.313  11.026  0.8070 -0.1587 -0.2847
 7479SOL    HW134073   0.944   3.374  10.952  1.0178  0.5036  0.2554
 7479SOL    HW234074   1.032   3.277  11.015  0.4517 -1.7258  1.9839
 7480SOL     OW34075   1.929   1.793  15.305  0.5299  0.0305  0.3132
 7480SOL    HW134076   1.843   1.754  15.291  0.2199 -0.0909  2.6450
 7480SOL    HW234077   1.891   1.881  15.305  2.3733  0.8445  2.8998
 7481SOL     OW34078   0.575   0.915   7.474  0.7720  0.5305 -0.3264
 7481SOL    HW134079   0.641   0.849   7.493  1.4131  1.0910 -0.6152
 7481SOL    HW234080   0.526   0.932   7.554 -0.2603  0.6095 -0.9675
 7482SOL     OW34081   0.778   2.835  17.612 -0.9153  0.2383  0.1058
 7482SOL    HW134082   0.849   2.878  17.661 -1.4349  2.2387 -0.9026
 7482SOL    HW234083   0.709   2.897  17.636 -0.9962  0.2535 -0.1768
 7483SOL     OW34084   4.587   2.680   3.320  0.2038 -0.2147 -0.5513
 7483SOL    HW134085   4.541   2.682   3.405 -0.8774  0.4865 -1.1478
 7483SOL    HW234086   4.666   2.628   3.334 -0.2742 -0.2689  1.9983
 7484SOL     OW34087   3.130   2.039  13.821 -0.0583 -0.3143  0.2347
 7484SOL    HW134088   3.066   2.002  13.882  0.6267 -2.0777 -0.0927
 7484SOL    HW234089   3.147   1.961  13.769  2.3658  0.4116 -0.0422
 7485SOL     OW34090   4.601   4.403  10.646  0.4906  1.0181 -0.4989
 7485SOL    HW134091   4.507   4.387  10.638  0.5466  0.4734 -0.0090
 7485SOL    HW234092   4.603   4.393  10.741  2.4125 -1.4893 -0.8164
 7486SOL     OW34093   2.602   4.467   4.130 -0.2735 -0.7224 -0.2362
 7486SOL    HW134094   2.518   4.493   4.094  0.3404  2.4957  0.6441
 7486SOL    HW234095   2.624   4.397   4.069  2.5764 -1.1362  1.2514
 7487SOL     OW34096   3.859   4.322   1.355  0.5094 -0.0402  0.3567
 7487SOL    HW134097   3.776   4.291   1.319  0.3086 -0.7590  1.4313
 7487SOL    HW234098   3.902   4.237   1.357 -1.1967 -0.9646 -1.5805
 7488SOL     OW34099   0.748   3.987   3.716  0.4819 -0.2825 -0.4790
 7488SOL    HW134100   0.675   3.937   3.680  1.1116 -0.8788 -0.9284
 7488SOL    HW234101   0.818   3.923   3.704  1.0103 -0.0616  1.4509
 7489SOL     OW34102   1.619   3.028   6.729  0.0605  1.0112 -0.1255
 7489SOL    HW134103   1.711   3.027   6.757  0.3047  0.2523 -0.9554
 7489SOL    HW234104   1.628   2.987   6.643  1.3902 -0.2625  0.6026
 7490SOL     OW34105   0.712   3.033   2.051 -0.0762  0.2453 -0.5469
 7490SOL    HW134106   0.682   3.093   2.120  0.5530 -0.3060  0.2184
 7490SOL    HW234107   0.643   3.058   1.989 -0.1651  0.5231 -0.3386
 7491SOL     OW34108   1.719   2.291  17.188  0.5448  0.7987 -0.1431
 7491SOL    HW134109   1.764   2.294  17.104 -0.7285 -1.4147 -0.9007
 7491SOL    HW234110   1.625   2.290  17.168  0.8743  0.5128 -1.6557
 7492SOL     OW34111   2.775   1.674   8.006 -0.0979 -0.8452  0.5395
 7492SOL    HW134112   2.756   1.748   8.064 -0.9542 -0.6762  0.0353
 7492SOL    HW234113   2.860   1.646   8.039 -0.6738 -1.7245  1.2799
 7493SOL     OW34114   0.521   0.659   0.050 -0.2774 -0.4454  0.1498
 7493SOL    HW134115   0.450   0.619   0.000  1.4299 -2.4729 -0.6679
 7493SOL    HW234116   0.591   0.680  17.730 -3.0662 -0.3199 -2.9867
 7494SOL     OW34117   4.065   2.261  12.482 -0.1385 -0.2688 -0.6245
 7494SOL    HW134118   4.078   2.259  12.577  0.9319 -0.3343 -0.7785
 7494SOL    HW234119   4.012   2.182  12.472 -0.0369 -0.4181  0.0368
 7495SOL     OW34120   1.990   3.585   7.330  0.2254  0.1190  0.3428
 7495SOL    HW134121   2.029   3.633   7.403 -1.7552  0.0272  1.4958
 7495SOL    HW234122   1.897   3.609   7.336 -0.1574 -1.0766 -0.7652
 7496SOL     OW34123   2.170   3.706  13.042  0.1947 -0.7245  0.3454
 7496SOL    HW134124   2.109   3.746  13.103  1.5105  1.1884  0.4079
 7496SOL    HW234125   2.103   3.655  12.997  0.0089  1.1187 -1.4644
 7497SOL     OW34126   1.903   2.736  17.338 -0.3086 -0.0870  0.4305
 7497SOL    HW134127   1.876   2.668  17.276  0.2974  1.4347 -1.5118
 7497SOL    HW234128   1.852   2.717  17.416  0.6585 -1.2977  0.7686
 7498SOL     OW34129   1.786   2.683  15.687  0.2850 -0.3824 -0.5014
 7498SOL    HW134130   1.698   2.647  15.670 -0.9179  1.6210  1.5331
 7498SOL    HW234131   1.835   2.683  15.604  0.9218  1.9945 -0.0937
 7499SOL     OW34132   3.753   4.633   4.579  0.5852  0.1168  0.2129
 7499SOL    HW134133   3.827   4.592   4.535  1.2992  2.4357 -0.7074
 7499SOL    HW234134   3.695   4.558   4.567  3.4844 -2.0022 -0.6071
 7500SOL     OW34135   1.260   3.414   8.866  0.1060 -0.6255 -0.6032
 7500SOL    HW134136   1.302   3.356   8.929  1.8953 -1.0335 -2.1601
 7500SOL    HW234137   1.224   3.348   8.806 -0.0868  0.4749 -1.7066
 7501SOL     OW34138   4.348   3.552  14.658 -0.4215 -0.2261 -0.2510
 7501SOL    HW134139   4.367   3.459  14.665  0.9696 -0.0420 -1.3602
 7501SOL    HW234140   4.317   3.571  14.746 -1.4011 -0.4688 -0.5484
 7502SOL     OW34141   3.011   4.176   4.325  0.3528 -0.2416  0.3360
 7502SOL    HW134142   3.012   4.094   4.276 -0.9852 -1.4334  2.3185
 7502SOL    HW234143   2.919   4.185   4.351  0.1831  0.6707 -0.5792
 7503SOL     OW34144   0.366   0.534   5.747 -1.0345  0.2409  0.2491
 7503SOL    HW134145   0.354   0.445   5.778  0.8070 -0.8526 -2.2203
 7503SOL    HW234146   0.418   0.515   5.669 -2.6016 -2.7682 -0.0684
 7504SOL     OW34147   3.311   0.691   6.116 -0.1147  0.0274  0.9566
 7504SOL    HW134148   3.382   0.677   6.179  0.5575  0.7206  0.3413
 7504SOL    HW234149   3.251   0.629   6.157  0.1808  0.0537  1.4381
 7505SOL     OW34150   3.148   0.940  14.681 -0.8234  0.3853  0.5270
 7505SOL    HW134151   3.119   0.859  14.723 -1.1695  0.4292  0.3701
 7505SOL    HW234152   3.111   1.004  14.742 -0.4469 -0.9872  2.2156
 7506SOL     OW34153   0.683   1.054   3.789  0.0861  0.5905  0.4365
 7506SOL    HW134154   0.689   1.004   3.871  0.1308  0.6929  0.4956
 7506SOL    HW234155   0.762   1.029   3.741 -0.3592 -2.4680  1.2400
 7507SOL     OW34156   3.490   3.661   6.190  0.3773 -0.4273  0.0401
 7507SOL    HW134157   3.528   3.682   6.104 -0.4704  1.4499  0.1135
 7507SOL    HW234158   3.497   3.566   6.202 -0.9409 -0.4773  0.3877
 7508SOL     OW34159   3.125   2.676   8.320  0.2749 -0.0153 -0.0514
 7508SOL    HW134160   3.158   2.746   8.376  0.5219  0.2430 -0.5157
 7508SOL    HW234161   3.032   2.699   8.317  0.7500  1.4686 -3.9714
 7509SOL     OW34162   2.132   0.849   6.201 -0.0907 -0.2412 -0.2628
 7509SOL    HW134163   2.145   0.941   6.180 -3.3439  0.9781  3.1390
 7509SOL    HW234164   2.064   0.824   6.138 -1.6355 -1.0609  1.7405
 7510SOL     OW34165   1.305   0.898   3.743  0.2418 -0.9232  0.3222
 7510SOL    HW134166   1.355   0.937   3.671 -2.0091  2.4046  0.5587
 7510SOL    HW234167   1.284   0.812   3.706 -1.6744  1.1257 -3.4416
 7511SOL     OW34168   2.676   3.235   3.860  0.3465  0.2567 -1.5943
 7511SOL    HW134169   2.622   3.201   3.788 -0.5685 -1.2587 -0.2162
 7511SOL    HW234170   2.752   3.270   3.815  2.4684  1.5065  2.9577
 7512SOL     OW34171   0.695   3.730  16.320 -0.2130  0.6139  0.3988
 7512SOL    HW134172   0.691   3.749  16.414 -0.5324  1.1941  0.2672
 7512SOL    HW234173   0.631   3.794  16.288  2.0381  1.9264 -1.4051
 7513SOL     OW34174   1.948   0.527   5.176 -0.1365  0.4008 -0.7541
 7513SOL    HW134175   2.040   0.548   5.189 -0.5046  1.3890  0.1827
 7513SOL    HW234176   1.953   0.435   5.148 -2.8278 -0.2328  0.7988
 7514SOL     OW34177   0.632   3.926   5.503 -0.6159  0.2393  0.1643
 7514SOL    HW134178   0.678   3.849   5.470 -0.5278  1.1502 -1.8653
 7514SOL    HW234179   0.562   3.927   5.438 -0.0657 -0.8857 -0.4346
 7515SOL     OW34180   3.738   0.003  16.362 -0.1142 -0.7870  0.6228
 7515SOL    HW134181   3.707   0.002  16.453  0.9147  1.9567  1.0282
 7515SOL    HW234182   3.682   0.066  16.317  2.2479 -0.3798 -1.7288
 7516SOL     OW34183   0.277   4.423  13.140 -0.1005  0.1955  0.2257
 7516SOL    HW134184   0.321   4.358  13.195 -0.4188 -0.7972 -0.6863
 7516SOL    HW234185   0.201   4.447  13.194 -0.9177 -0.1316 -0.7715
 7517SOL     OW34186   3.417   1.920  10.445 -0.3013  0.3817 -0.5030
 7517SOL    HW134187   3.350   1.920  10.378  2.2387  2.8905 -3.0560
 7517SOL    HW234188   3.442   2.012  10.455 -0.1226  0.2695  0.1267
 7518SOL     OW34189   2.159   0.174   7.486 -0.3548 -0.5027  0.4837
 7518SOL    HW134190   2.100   0.156   7.413  1.1853 -3.7129  0.0294
 7518SOL    HW234191   2.196   0.255   7.451 -1.5291 -1.1577 -2.3156
 7519SOL     OW34192   2.969   3.249   4.476 -0.1239  0.2003  0.3422
 7519SOL    HW134193   2.874   3.249   4.465 -0.1006  1.8766  0.2192
 7519SOL    HW234194   2.991   3.163   4.512  0.2358 -0.9465 -2.6089
 7520SOL     OW34195   3.600   4.525   3.910 -0.2163  0.3755 -0.0854
 7520SOL    HW134196   3.636   4.495   3.827  2.3140 -1.5644  1.6927
 7520SOL    HW234197   3.513   4.484   3.911  0.0639 -0.2053  1.1345
 7521SOL     OW34198   3.424   4.126   7.800 -0.4386 -0.1121 -0.2708
 7521SOL    HW134199   3.398   4.204   7.848  0.3180  0.4740 -0.8052
 7521SOL    HW234200   3.394   4.058   7.860 -1.3458  1.8877  1.5078
 7522SOL     OW34201   3.074   1.041   7.565 -0.2017 -0.3831 -0.0081
 7522SOL    HW134202   3.080   1.058   7.659 -0.0640 -2.2715  0.3313
 7522SOL    HW234203   3.155   1.070   7.524 -1.4271  1.4515 -1.1279
 7523SOL     OW34204   0.148   3.221   3.142 -0.2656 -0.1036  0.2295
 7523SOL    HW134205   0.218   3.179   3.192  0.7650 -0.0385 -1.1807
 7523SOL    HW234206   0.087   3.237   3.214 -0.1723  2.7048 -0.3149
 7524SOL     OW34207   3.574   0.846   3.727 -0.5601  0.1184 -0.6153
 7524SOL    HW134208   3.593   0.917   3.789  1.0504 -2.0539  1.3526
 7524SOL    HW234209   3.501   0.810   3.778 -0.7117  0.9786 -0.2298
 7525SOL     OW34210   3.888   3.834   8.297 -0.4733 -0.4644  0.0094
 7525SOL    HW134211   3.822   3.777   8.336  1.6327 -1.5264  2.0035
 7525SOL    HW234212   3.877   3.796   8.210  2.2084 -1.0088 -0.1203
 7526SOL     OW34213   2.146   2.362   2.488 -0.2708  0.5467 -0.2538
 7526SOL    HW134214   2.127   2.280   2.442 -0.7845  1.1149 -1.0480
 7526SOL    HW234215   2.214   2.394   2.429 -0.0969 -1.3235 -1.0661
 7527SOL     OW34216   3.775   0.289   7.195  0.7162 -0.2655  0.1304
 7527SOL    HW134217   3.830   0.218   7.228  0.2379 -0.6936  0.0203
 7527SOL    HW234218   3.831   0.359   7.162 -1.3185  0.9072 -0.8363
 7528SOL     OW34219   2.632   0.851  12.020 -0.3869  0.2445  0.1037
 7528SOL    HW134220   2.579   0.913  11.968  0.6039  1.1321  0.1511
 7528SOL    HW234221   2.697   0.915  12.048  0.1091 -0.5584  0.7678
 7529SOL     OW34222   2.895   3.718   5.261 -0.5349  0.2059  0.3972
 7529SOL    HW134223   2.914   3.807   5.289 -0.0749  1.0192 -2.4948
 7529SOL    HW234224   2.984   3.686   5.276 -1.2930 -0.9422  2.5145
 7530SOL     OW34225   2.690   2.164   4.353 -0.5088  0.2415  0.9972
 7530SOL    HW134226   2.686   2.234   4.418 -0.5828  0.5136  0.7068
 7530SOL    HW234227   2.616   2.191   4.298 -0.5849  2.2239  2.0447
 7531SOL     OW34228   3.448   2.545  15.452  0.0828 -0.6014  0.2266
 7531SOL    HW134229   3.414   2.513  15.535 -2.0995 -0.9064 -0.7827
 7531SOL    HW234230   3.402   2.627  15.437 -0.1135 -0.1374  3.3880
 7532SOL     OW34231   1.345   1.510   7.846 -0.7330 -0.7808 -0.4647
 7532SOL    HW134232   1.313   1.441   7.788  0.5858 -1.7970  0.0148
 7532SOL    HW234233   1.378   1.462   7.921  2.0302  0.7822 -0.6713
 7533SOL     OW34234   0.687   2.886   2.448 -0.3315  0.2443  0.1253
 7533SOL    HW134235   0.641   2.850   2.524  1.1519  0.6037  1.1956
 7533SOL    HW234236   0.705   2.807   2.397 -2.4328  1.2445 -2.2273
 7534SOL     OW34237   0.039   0.215   7.426  0.2951 -0.1551  0.5437
 7534SOL    HW134238   0.053   0.237   7.334 -1.1905 -0.7450  0.1722
 7534SOL    HW234239   4.696   0.262   7.452 -1.5726 -3.5792  1.1143
 7535SOL     OW34240   4.338   0.462   2.052  0.1992 -0.9911 -0.0315
 7535SOL    HW134241   4.314   0.554   2.060 -0.4708 -1.2364  0.8322
 7535SOL    HW234242   4.427   0.487   2.026  0.8118 -0.9557  2.1188
 7536SOL     OW34243   0.298   4.001   2.331  0.4452  0.4974 -0.0854
 7536SOL    HW134244   0.259   4.018   2.245 -0.3887 -0.7932  0.0288
 7536SOL    HW234245   0.262   3.918   2.362  0.6450  0.3567 -0.2258
 7537SOL     OW34246   4.314   2.974   3.524 -0.3183  0.2405 -0.1289
 7537SOL    HW134247   4.376   3.034   3.483  1.7585 -2.0253 -0.3532
 7537SOL    HW234248   4.236   3.028   3.513  0.4286  0.9878 -1.7951
 7538SOL     OW34249   1.585   2.568   8.230 -0.0156 -0.0566  0.3556
 7538SOL    HW134250   1.618   2.629   8.164 -2.0302  0.6238 -0.0292
 7538SOL    HW234251   1.647   2.588   8.300  2.9067  0.3180 -2.3449
 7539SOL     OW34252   1.277   0.267   2.062  0.6592  0.7810  0.5537
 7539SOL    HW134253   1.339   0.244   1.993 -2.0805  0.1175 -1.6833
 7539SOL    HW234254   1.262   0.178   2.095  0.9772  0.4860 -0.0975
 7540SOL     OW34255   2.370   3.030   8.608  0.2743  0.0343 -0.0756
 7540SOL    HW134256   2.436   2.963   8.592 -0.0032 -0.0781 -0.7491
 7540SOL    HW234257   2.403   3.072   8.688  1.7668 -0.8354 -0.2398
 7541SOL     OW34258   4.045   2.177   6.079 -0.1195  0.2836  0.0044
 7541SOL    HW134259   3.977   2.167   6.145 -1.1225  3.1342 -0.6139
 7541SOL    HW234260   4.126   2.171   6.131 -2.0972  0.6773  3.1097
 7542SOL     OW34261   4.628   0.304   7.700  0.2515 -0.0859 -0.2576
 7542SOL    HW134262   4.554   0.306   7.640 -0.2632  1.5507  0.4373
 7542SOL    HW234263   4.587   0.234   7.750 -2.2595  3.5815  2.8237
 7543SOL     OW34264   0.362   2.415   7.610  0.1446 -0.1046  0.5297
 7543SOL    HW134265   0.456   2.404   7.626  0.7501  3.7089 -0.4175
 7543SOL    HW234266   0.341   2.425   7.703 -0.7455 -0.9043  0.4094
 7544SOL     OW34267   2.327   4.649   5.828 -0.1304  0.3695  0.1651
 7544SOL    HW134268   2.418   4.680   5.828  0.0802 -0.2649  2.9318
 7544SOL    HW234269   2.337   4.559   5.796 -0.3484  1.0770 -1.8685
 7545SOL     OW34270   2.371   1.035  17.109 -0.1105  0.7170 -0.0373
 7545SOL    HW134271   2.440   1.037  17.176 -1.8617 -0.7710  1.7818
 7545SOL    HW234272   2.357   1.129  17.096  2.8537  1.2992  0.8682
 7546SOL     OW34273   0.090   1.838   3.971  0.2790 -0.1080 -0.3755
 7546SOL    HW134274   0.143   1.820   4.049  1.7116  0.2865 -1.2684
 7546SOL    HW234275   0.092   1.755   3.923 -3.4734 -0.5485  0.2248
 7547SOL     OW34276   4.111   1.693  16.978 -0.1960  0.5466  0.2223
 7547SOL    HW134277   4.134   1.659  16.892  1.2478  0.1452  0.7633
 7547SOL    HW234278   4.038   1.753  16.964 -0.7962  0.2325  1.9974
 7548SOL     OW34279   1.632   0.626   5.491  0.6260 -0.1399  0.1301
 7548SOL    HW134280   1.718   0.660   5.467  1.8032 -2.3151  1.3171
 7548SOL    HW234281   1.666   0.559   5.549  2.2474  0.4954 -0.0686
 7549SOL     OW34282   0.309   0.758   5.864 -0.7236 -0.5517 -0.2591
 7549SOL    HW134283   0.360   0.704   5.805  0.8495  0.4002  0.2217
 7549SOL    HW234284   0.220   0.757   5.829 -1.0781  0.5210  0.5800
 7550SOL     OW34285   4.003   4.181   4.590  0.5981 -0.2121 -0.0282
 7550SOL    HW134286   4.090   4.220   4.595  1.1140 -1.3804  0.1301
 7550SOL    HW234287   4.007   4.110   4.654  0.9058  0.3612  0.5875
 7551SOL     OW34288   2.856   4.447   6.367  0.6102  0.0349 -0.0798
 7551SOL    HW134289   2.775   4.478   6.326 -0.2518  0.4757  1.9429
 7551SOL    HW234290   2.893   4.530   6.398 -0.9248  0.4269  0.7253
 7552SOL     OW34291   3.202   0.447  15.815  0.0344 -0.1742  0.0453
 7552SOL    HW134292   3.295   0.466  15.825  0.2977 -1.6279  0.2997
 7552SOL    HW234293   3.214   0.354  15.797 -0.3926 -0.7354  2.7328
 7553SOL     OW34294   1.356   0.574   7.522  0.4933 -0.5001 -0.0228
 7553SOL    HW134295   1.336   0.481   7.514 -0.9524  0.0689 -2.9379
 7553SOL    HW234296   1.349   0.599   7.430  1.3118  1.0875  0.3391
 7554SOL     OW34297   1.007   2.501   8.864  0.5867  0.0844 -0.4748
 7554SOL    HW134298   0.999   2.516   8.958 -0.9347 -0.7508 -0.4699
 7554SOL    HW234299   1.087   2.448   8.862  0.1609 -0.5591 -0.3890
 7555SOL     OW34300   2.873   2.703   7.010  0.5601  0.2387  0.2859
 7555SOL    HW134301   2.875   2.608   6.997 -2.3510 -0.0339  1.6965
 7555SOL    HW234302   2.938   2.713   7.080  0.1552  1.3888  0.4966
 7556SOL     OW34303   2.482   3.646   5.601  0.7061  0.1457 -0.0354
 7556SOL    HW134304   2.409   3.643   5.663 -0.4810 -0.2917 -1.4448
 7556SOL    HW234305   2.544   3.598   5.655 -0.3300 -1.2233 -0.0674
 7557SOL     OW34306   0.967   0.441   2.365  0.3484 -0.1631  0.4990
 7557SOL    HW134307   0.951   0.402   2.451  1.9793 -0.8301  0.5016
 7557SOL    HW234308   0.960   0.359   2.317  1.1433 -0.1937  0.4281
 7558SOL     OW34309   2.072   4.173   7.104 -0.8474 -0.0540 -0.3648
 7558SOL    HW134310   2.102   4.093   7.147 -0.7137  0.1295 -0.1190
 7558SOL    HW234311   2.142   4.227   7.140 -1.6136  2.1049 -2.1471
 7559SOL     OW34312   3.800   0.899   8.537  0.2437  0.1252 -0.1046
 7559SOL    HW134313   3.867   0.929   8.475  0.8961 -2.4064 -0.6530
 7559SOL    HW234314   3.806   0.813   8.496 -1.6562  0.3161 -0.7564
 7560SOL     OW34315   1.610   3.266   3.274  0.0096 -0.2145 -0.6530
 7560SOL    HW134316   1.658   3.186   3.296 -1.5418 -0.2374  2.6261
 7560SOL    HW234317   1.648   3.329   3.335 -2.4440  0.5621  0.0668
 7561SOL     OW34318   2.062   2.908   3.599  0.3542  0.7975 -0.0075
 7561SOL    HW134319   2.124   2.980   3.587  2.4982 -1.1086 -0.3372
 7561SOL    HW234320   2.012   2.896   3.518  0.7642  0.4399 -0.2038
 7562SOL     OW34321   3.397   1.994   6.205 -0.2216  0.0272 -0.5934
 7562SOL    HW134322   3.348   2.057   6.153  0.2759 -0.0734 -1.1893
 7562SOL    HW234323   3.331   1.927   6.221 -0.6043  0.8921  1.4986
 7563SOL     OW34324   4.525   0.395   9.008 -0.1312  0.1932 -0.3650
 7563SOL    HW134325   4.532   0.300   9.010 -0.1451  0.1572 -2.6044
 7563SOL    HW234326   4.593   0.415   8.944  0.1128 -2.0470 -0.8198
 7564SOL     OW34327   3.008   2.332   7.957 -0.6487  0.0764 -0.4206
 7564SOL    HW134328   2.978   2.348   8.047 -0.8509  0.4868 -0.5582
 7564SOL    HW234329   3.071   2.404   7.950  0.1641 -0.7763 -1.7738
 7565SOL     OW34330   3.969   3.353   6.090 -0.2707  0.6731 -0.0016
 7565SOL    HW134331   4.060   3.366   6.115  0.5355  0.0147 -2.5663
 7565SOL    HW234332   3.969   3.391   6.001  1.3156 -0.3837 -0.4508
 7566SOL     OW34333   3.005   1.115   8.318 -0.2147  0.0969  0.3585
 7566SOL    HW134334   2.974   1.205   8.326 -0.7823  0.0025 -0.7704
 7566SOL    HW234335   2.994   1.078   8.406  1.9083 -1.6587 -0.1075
 7567SOL     OW34336   1.651   0.967   9.300  0.2202  0.1109  0.0323
 7567SOL    HW134337   1.564   0.947   9.264 -0.2784  2.0105  0.2131
 7567SOL    HW234338   1.633   1.016   9.380  3.3412  0.7737  0.3101
 7568SOL     OW34339   1.825   0.642   8.506  0.4092  0.1830 -0.2561
 7568SOL    HW134340   1.867   0.646   8.592  0.4050  1.8182 -0.3346
 7568SOL    HW234341   1.887   0.689   8.450 -1.2888  1.6531 -0.9158
 7569SOL     OW34342   4.493   2.360   8.411  0.2894  0.2107  0.0821
 7569SOL    HW134343   4.550   2.353   8.335  0.0853  2.2840 -0.2474
 7569SOL    HW234344   4.548   2.301   8.464  0.1481 -0.5293 -0.5950
 7570SOL     OW34345   1.874   4.010   4.991 -0.3443 -0.2021 -0.3525
 7570SOL    HW134346   1.810   4.079   5.010 -0.9384 -0.9563  0.4061
 7570SOL    HW234347   1.937   4.060   4.939  0.2597  0.1743  0.7327
 7571SOL     OW34348   1.449   1.686   7.626  0.2256 -0.1927 -0.1040
 7571SOL    HW134349   1.543   1.667   7.625 -0.0251 -1.4084 -0.5542
 7571SOL    HW234350   1.414   1.634   7.698 -1.1591  1.1585  0.1985
 7572SOL     OW34351   4.595   3.325  16.120  0.3246  0.4096 -0.3945
 7572SOL    HW134352   4.546   3.406  16.112  0.4134  0.5899  0.9725
 7572SOL    HW234353   4.650   3.344  16.044  0.2047  4.1835  0.4665
 7573SOL     OW34354   2.924   3.878   4.983  0.3686  0.4319 -0.2488
 7573SOL    HW134355   2.954   3.846   4.898 -1.4563 -2.1685  0.0486
 7573SOL    HW234356   2.934   3.800   5.038  0.0371  0.4316 -0.1863
 7574SOL     OW34357   1.475   1.932   3.506  0.2177  0.1831  0.1422
 7574SOL    HW134358   1.457   1.839   3.518 -1.8698  0.5216 -0.2576
 7574SOL    HW234359   1.569   1.929   3.490  0.0597 -0.6514 -0.6126
 7575SOL     OW34360   1.759   3.842   9.070  0.1923  0.5058  0.3285
 7575SOL    HW134361   1.699   3.896   9.122  2.3032 -0.7650  4.1597
 7575SOL    HW234362   1.847   3.871   9.095 -0.5470  1.8482  1.3848
 7576SOL     OW34363   2.032   0.144  12.162  0.1939  0.6909  0.5660
 7576SOL    HW134364   2.080   0.148  12.245  0.3588 -0.5226  0.5227
 7576SOL    HW234365   2.085   0.087  12.106  0.7848  2.7387 -0.9709
 7577SOL     OW34366   2.601   1.727   2.499 -0.0444  0.0972  0.0437
 7577SOL    HW134367   2.628   1.699   2.586  2.5066  1.6663 -0.2382
 7577SOL    HW234368   2.670   1.792   2.486  0.9025 -0.7311  0.8401
 7578SOL     OW34369   1.440   4.222   2.756 -0.0053  0.9718  0.1535
 7578SOL    HW134370   1.360   4.275   2.758  1.1692  2.6278  3.9709
 7578SOL    HW234371   1.482   4.267   2.829  0.3563 -2.8673  2.2830
 7579SOL     OW34372   0.354   3.348   4.201 -0.3443  0.3162  0.6177
 7579SOL    HW134373   0.377   3.413   4.135 -4.2927  2.0987  0.9749
 7579SOL    HW234374   0.308   3.279   4.153  0.7389 -0.0680  0.1487
 7580SOL     OW34375   1.880   3.468   8.623  0.7901  0.0307  0.9124
 7580SOL    HW134376   1.924   3.497   8.543 -0.0722 -0.4803  0.2535
 7580SOL    HW234377   1.948   3.487   8.687  2.1228 -0.6594 -0.3036
 7581SOL     OW34378   0.402   3.984   8.901  0.0001 -0.1819 -0.2884
 7581SOL    HW134379   0.329   3.933   8.936 -1.1442  1.6482  0.0110
 7581SOL    HW234380   0.457   3.922   8.853 -1.1085 -1.1978 -0.2521
 7582SOL     OW34381   4.416   3.345   0.525 -0.0986  0.0415  0.4090
 7582SOL    HW134382   4.451   3.257   0.534 -0.4536 -0.3916 -2.5246
 7582SOL    HW234383   4.330   3.322   0.491  0.4203  1.0406 -1.5868
 7583SOL     OW34384   3.795   3.473   3.715 -0.6150 -0.7127 -0.5562
 7583SOL    HW134385   3.723   3.429   3.759 -1.0769 -0.6948 -1.3025
 7583SOL    HW234386   3.864   3.471   3.781 -0.1025 -0.8046 -1.0927
 7584SOL     OW34387   2.588   0.079   6.841  0.3060 -0.1208 -0.3582
 7584SOL    HW134388   2.587   0.084   6.746 -0.1658 -0.4655 -0.3743
 7584SOL    HW234389   2.679   0.100   6.860 -0.6030  2.1942  1.5000
 7585SOL     OW34390   1.423   0.750   2.281 -0.0415  1.1041  0.0683
 7585SOL    HW134391   1.487   0.811   2.318 -0.0262  1.6802 -0.9035
 7585SOL    HW234392   1.348   0.758   2.340 -0.5467  0.3241 -0.4672
 7586SOL     OW34393   2.349   4.200  12.385  0.1073 -0.5373  0.0153
 7586SOL    HW134394   2.376   4.111  12.408 -1.5967 -1.2726 -0.8152
 7586SOL    HW234395   2.266   4.185  12.339 -0.0199  0.0005  0.0731
 7587SOL     OW34396   1.382   2.428   6.404 -0.6600 -0.1861 -0.3100
 7587SOL    HW134397   1.384   2.409   6.497  0.0255  0.5617 -0.1724
 7587SOL    HW234398   1.391   2.522   6.385  0.6763  0.1665  2.0541
 7588SOL     OW34399   2.494   2.109   2.824 -0.1006  0.1812 -0.6434
 7588SOL    HW134400   2.504   2.127   2.918 -2.0074 -0.5322 -0.3111
 7588SOL    HW234401   2.570   2.157   2.790  0.5511 -1.0180 -0.9046
 7589SOL     OW34402   4.349   0.221   5.142  0.2384  0.3525 -0.0716
 7589SOL    HW134403   4.319   0.130   5.146 -0.5832  0.7272  2.5760
 7589SOL    HW234404   4.269   0.272   5.141  0.2795  0.4119 -0.2699
 7590SOL     OW34405   4.071   4.141   4.109 -0.4651  0.7092  0.5851
 7590SOL    HW134406   4.058   4.230   4.142 -1.7410 -0.2754  2.7359
 7590SOL    HW234407   4.079   4.081   4.183  1.7582  1.7059  1.1597
 7591SOL     OW34408   0.692   2.980   8.825 -0.3593  0.2848 -0.2427
 7591SOL    HW134409   0.675   3.065   8.866  0.3606  1.0232 -1.4633
 7591SOL    HW234410   0.685   2.909   8.889 -1.0882 -0.3110 -0.9749
 7592SOL     OW34411   0.990   1.282  17.599 -0.9471  0.4719  0.0736
 7592SOL    HW134412   1.049   1.278  17.674 -0.5142  0.6057 -0.2584
 7592SOL    HW234413   0.902   1.293  17.634 -1.5607 -2.3416 -0.5310
 7593SOL     OW34414   0.240   2.618   5.636 -0.6039  0.3063  0.2740
 7593SOL    HW134415   0.317   2.640   5.584  1.2818 -1.9945  2.1007
 7593SOL    HW234416   0.237   2.525   5.613  0.6121 -0.1525  2.0470
 7594SOL     OW34417   0.706   2.721   3.891 -0.1704 -0.4512 -0.1554
 7594SOL    HW134418   0.744   2.770   3.964 -0.1088 -0.3812 -0.2347
 7594SOL    HW234419   0.781   2.706   3.833  0.4911  0.7790  0.3821
 7595SOL     OW34420   3.591   1.240   4.550 -0.8311 -0.3831  0.2932
 7595SOL    HW134421   3.505   1.235   4.509 -0.1749  1.1814 -1.2555
 7595SOL    HW234422   3.564   1.205   4.635 -1.2912  0.5990  0.5480
 7596SOL     OW34423   4.359   0.765   2.017  0.4144  0.1670  0.3640
 7596SOL    HW134424   4.383   0.817   1.940 -0.4691  0.1389  0.0743
 7596SOL    HW234425   4.435   0.784   2.073  0.1965  0.4154  0.5792
 7597SOL     OW34426   0.917   0.295   4.581 -0.4886 -0.8216 -0.6393
 7597SOL    HW134427   0.838   0.275   4.530 -1.3923 -0.6948  0.7123
 7597SOL    HW234428   0.974   0.231   4.538 -0.6226 -1.7650  0.5760
 7598SOL     OW34429   4.081   4.014   7.032 -0.4071 -0.3085  0.2702
 7598SOL    HW134430   4.026   4.078   7.078 -3.0613 -1.3153 -1.5229
 7598SOL    HW234431   4.100   4.066   6.954  1.8667  0.2310  1.1937
 7599SOL     OW34432   4.718   3.847   8.015  0.6587  0.4050 -0.1397
 7599SOL    HW134433   0.020   3.898   7.943 -0.7589 -0.0761 -1.2207
 7599SOL    HW234434   0.015   3.890   8.094  0.4037 -2.3538  1.4431
 7600SOL     OW34435   0.140   4.200  10.266 -0.2468 -0.2587 -0.2637
 7600SOL    HW134436   0.123   4.288  10.233  3.0157  1.3275  2.2817
 7600SOL    HW234437   0.101   4.207  10.354  0.6792  0.9860  0.0470
 7601SOL     OW34438   2.720   0.986   1.984  0.4722 -0.3137 -0.6411
 7601SOL    HW134439   2.697   1.040   2.060 -1.3246  1.0513 -2.1473
 7601SOL    HW234440   2.730   1.058   1.922  1.3478 -0.4946 -0.7103
 7602SOL     OW34441   1.104   3.556   9.563  0.5073 -0.3545  0.0211
 7602SOL    HW134442   1.046   3.598   9.627  0.7512  0.5781 -0.3734
 7602SOL    HW234443   1.062   3.590   9.485  1.1391 -2.7541 -1.3676
 7603SOL     OW34444   1.202   1.384   8.710 -0.0256  0.4253 -0.2387
 7603SOL    HW134445   1.265   1.448   8.679  1.0900 -1.1393 -1.2160
 7603SOL    HW234446   1.122   1.421   8.671 -0.9507  1.3192  2.4906
 7604SOL     OW34447   4.734   3.504   0.660 -0.0444 -0.1209  0.0917
 7604SOL    HW134448   0.016   3.453   0.581 -1.4634 -0.0762 -0.2512
 7604SOL    HW234449   4.639   3.494   0.670  0.1883 -1.3123  1.0485
 7605SOL     OW34450   0.498   3.112   7.562  0.2025  0.5884  0.4520
 7605SOL    HW134451   0.443   3.134   7.636  0.7229  0.9382  0.7348
 7605SOL    HW234452   0.466   3.180   7.503  1.5875 -0.4292 -1.4983
 7606SOL     OW34453   2.296   3.335   6.425  0.2933 -0.1866 -0.3319
 7606SOL    HW134454   2.249   3.375   6.352  0.4882 -1.0227 -0.9142
 7606SOL    HW234455   2.308   3.408   6.485  2.2651 -1.5169  0.8717
 7607SOL     OW34456   2.746   4.096  15.338  0.6003 -0.2950  0.0320
 7607SOL    HW134457   2.811   4.047  15.389  0.4846  1.4422  1.8265
 7607SOL    HW234458   2.765   4.072  15.247  1.0288  0.3584 -0.0481
 7608SOL     OW34459   4.351   2.118   3.198  0.0064  0.5118  0.1704
 7608SOL    HW134460   4.441   2.148   3.193 -0.4061  1.8412  0.7818
 7608SOL    HW234461   4.302   2.194   3.168 -1.3524  0.0600  1.2096
 7609SOL     OW34462   3.617   1.063   0.868 -0.1009  0.1375  0.1411
 7609SOL    HW134463   3.600   1.149   0.907 -0.0376  1.0058 -1.7378
 7609SOL    HW234464   3.534   1.019   0.855 -0.8129  1.7157 -0.6728
 7610SOL     OW34465   3.696   4.309  15.760  0.1852  0.2693 -0.4947
 7610SOL    HW134466   3.727   4.218  15.757  1.2788  0.7282 -2.8950
 7610SOL    HW234467   3.616   4.304  15.812 -0.7949  1.5423 -1.8905
 7611SOL     OW34468   4.363   3.976   4.864  0.5991  0.0052  0.3984
 7611SOL    HW134469   4.291   4.039   4.869  2.9919  2.8220 -1.5585
 7611SOL    HW234470   4.335   3.916   4.934 -0.5838  0.8123  0.6214
 7612SOL     OW34471   2.595   2.492   3.063 -1.3246  0.2038  0.0543
 7612SOL    HW134472   2.512   2.537   3.053 -0.8637  0.7008 -1.5264
 7612SOL    HW234473   2.648   2.569   3.083 -0.9735 -0.4286  1.5318
 7613SOL     OW34474   4.175   1.626  12.027 -0.5713 -0.2860 -0.2490
 7613SOL    HW134475   4.112   1.682  12.072 -0.0845  1.1631 -1.3454
 7613SOL    HW234476   4.219   1.699  11.981 -1.2551 -0.9507 -1.9498
 7614SOL     OW34477   1.572   2.445   6.070  0.5676  0.3897  0.1342
 7614SOL    HW134478   1.502   2.448   6.005 -0.2723  0.7482  1.0535
 7614SOL    HW234479   1.531   2.480   6.149  2.7658  0.8614  1.0724
 7615SOL     OW34480   0.139   1.475   6.588 -0.3401 -0.0199 -0.0914
 7615SOL    HW134481   0.055   1.441   6.559 -0.3449  0.1495 -0.2720
 7615SOL    HW234482   0.111   1.517   6.669  1.8059  1.3460 -0.0396
 7616SOL     OW34483   2.015   4.138  14.263 -0.2106 -0.6116  0.3421
 7616SOL    HW134484   1.931   4.180  14.245  0.1987  1.7144  3.8172
 7616SOL    HW234485   2.078   4.210  14.257 -1.8171  0.7767  0.1973
 7617SOL     OW34486   2.186   1.664   5.498 -0.0066  0.3501  0.1551
 7617SOL    HW134487   2.138   1.693   5.420  0.2044  2.3882  0.7943
 7617SOL    HW234488   2.275   1.649   5.466 -0.6052 -0.8967 -0.9689
 7618SOL     OW34489   2.047   3.349  14.561  0.5584  0.1687 -0.3774
 7618SOL    HW134490   1.962   3.329  14.522  0.5550 -0.2389 -0.1611
 7618SOL    HW234491   2.095   3.405  14.501  0.0330 -0.2603 -1.1931
 7619SOL     OW34492   3.205   1.063   9.710 -0.0196 -0.1118 -0.1909
 7619SOL    HW134493   3.212   1.131   9.643  0.1414  1.2679  1.2368
 7619SOL    HW234494   3.276   1.002   9.691  0.2388 -0.1076  0.7869
 7620SOL     OW34495   1.822   0.818   7.790 -0.3023  0.1546 -0.0675
 7620SOL    HW134496   1.818   0.792   7.882 -0.1590  0.3625 -0.0034
 7620SOL    HW234497   1.882   0.756   7.749 -0.6136 -0.7487  0.8467
 7621SOL     OW34498   2.316   4.300   7.471 -0.5499  0.6541 -0.1022
 7621SOL    HW134499   2.259   4.227   7.448 -0.8497  0.7313  0.3893
 7621SOL    HW234500   2.354   4.275   7.555  1.7017 -0.0164 -1.3320
 7622SOL     OW34501   2.901   3.978   3.371  0.3927 -0.2164  0.2813
 7622SOL    HW134502   2.821   3.965   3.320  0.1259 -1.4536  1.0120
 7622SOL    HW234503   2.908   4.073   3.374 -3.0709  0.0417  0.3514
 7623SOL     OW34504   2.225   3.196   0.901  0.2993  0.3430  0.7242
 7623SOL    HW134505   2.153   3.243   0.857  1.7765 -0.1185 -2.1683
 7623SOL    HW234506   2.178   3.119   0.934  0.5146  0.6303  1.6791
 7624SOL     OW34507   2.040   1.567   7.533  0.2037 -0.4795  0.1186
 7624SOL    HW134508   2.042   1.631   7.462  0.9142 -0.8917 -0.2292
 7624SOL    HW234509   2.103   1.498   7.514 -2.2043 -1.9197 -2.5906
 7625SOL     OW34510   3.641   1.315   2.428  0.4883  0.5633  0.3850
 7625SOL    HW134511   3.670   1.251   2.363  0.4725 -0.6786  1.5926
 7625SOL    HW234512   3.576   1.269   2.481  1.2330 -0.9071  0.0332
 7626SOL     OW34513   0.725   3.163   1.708  0.1661 -0.2206 -0.2145
 7626SOL    HW134514   0.729   3.234   1.773 -1.9082  0.8198 -1.1971
 7626SOL    HW234515   0.815   3.164   1.678  0.2287 -2.0319 -0.1001
 7627SOL     OW34516   2.987   2.052   7.948 -0.0002  0.0677  0.0302
 7627SOL    HW134517   2.994   2.023   8.040  0.7673  0.4908  0.1050
 7627SOL    HW234518   2.970   2.145   7.966 -1.5495 -0.0727 -0.8019
 7628SOL     OW34519   4.395   3.965   3.872 -0.1347  0.5173 -0.4718
 7628SOL    HW134520   4.462   4.015   3.918 -0.3203 -1.5610  2.0002
 7628SOL    HW234521   4.416   3.875   3.894  4.0520  1.5182 -0.3274
 7629SOL     OW34522   2.924   1.665   7.193 -0.1328 -0.1004 -0.3837
 7629SOL    HW134523   2.879   1.680   7.109 -0.9835 -2.0131 -0.2818
 7629SOL    HW234524   2.871   1.600   7.239  0.9803 -0.9914 -0.3738
 7630SOL     OW34525   1.230   3.831   9.369 -0.2427  0.2527 -0.1666
 7630SOL    HW134526   1.154   3.773   9.364  0.6831 -1.0193  0.5694
 7630SOL    HW234527   1.212   3.900   9.305 -2.2977 -2.1590 -2.2081
 7631SOL     OW34528   1.629   1.508   2.667  0.3793  0.4801  0.0074
 7631SOL    HW134529   1.681   1.460   2.731 -0.7047 -0.4714  0.1545
 7631SOL    HW234530   1.697   1.524   2.601 -0.6028  0.2264 -1.0616
 7632SOL     OW34531   3.141   0.100   8.186 -0.3167  0.1830 -0.4492
 7632SOL    HW134532   3.200   0.060   8.121 -0.2504 -1.5919  0.6971
 7632SOL    HW234533   3.053   0.078   8.157 -0.3330  1.1629 -1.1307
 7633SOL     OW34534   0.451   0.832   3.890 -0.0627 -0.6189  0.4612
 7633SOL    HW134535   0.458   0.810   3.983 -1.1212  1.2468  0.9962
 7633SOL    HW234536   0.421   0.923   3.898 -1.7880 -1.3559  2.4610
 7634SOL     OW34537   2.546   3.469   7.756  0.0196  0.0777  0.5658
 7634SOL    HW134538   2.561   3.531   7.685 -0.0787 -0.8150 -0.2299
 7634SOL    HW234539   2.567   3.384   7.718 -0.8422  0.0774  0.0876
 7635SOL     OW34540   4.646   3.951   7.066  0.0718  0.1026  0.1655
 7635SOL    HW134541   4.682   3.975   6.980 -1.1657  0.9776 -0.0982
 7635SOL    HW234542   4.570   4.007   7.083  0.3607  1.0856 -1.8198
 7636SOL     OW34543   3.596   3.334   3.801 -0.2446 -0.4564  0.6759
 7636SOL    HW134544   3.522   3.390   3.778 -1.3324 -1.8673  0.7531
 7636SOL    HW234545   3.550   3.251   3.812 -0.8096 -0.2572 -0.2171
 7637SOL     OW34546   1.938   2.129   7.726 -0.0124  0.6186 -0.3244
 7637SOL    HW134547   1.843   2.122   7.732 -0.1952  3.0838 -0.4764
 7637SOL    HW234548   1.960   2.071   7.799 -1.8020  2.2540  1.5105
 7638SOL     OW34549   3.180   4.158   8.599  0.0664  0.1530 -0.1172
 7638SOL    HW134550   3.263   4.137   8.641 -2.0833 -2.9423  2.5954
 7638SOL    HW234551   3.210   4.234   8.548  1.1475  0.2956  0.7216
 7639SOL     OW34552   1.434   2.437   6.683  0.1136  0.0437  0.1856
 7639SOL    HW134553   1.517   2.483   6.692  1.0060 -1.3952 -0.6369
 7639SOL    HW234554   1.419   2.429   6.777 -0.6303  0.1474  0.0749
 7640SOL     OW34555   0.101   3.847  16.709 -0.3835 -0.4782  0.2966
 7640SOL    HW134556   0.041   3.832  16.636 -0.2118 -1.3105  0.3262
 7640SOL    HW234557   0.161   3.773  16.697 -1.1121 -0.8091 -1.3506
 7641SOL     OW34558   4.189   4.715  16.287  0.4300 -0.8388 -0.0163
 7641SOL    HW134559   4.134   4.701  16.364  0.0256 -1.5140 -0.4206
 7641SOL    HW234560   4.124   4.692  16.221  0.3415  2.0834 -0.9573
 7642SOL     OW34561   1.851   4.444   2.469  0.2638  0.1503 -0.0020
 7642SOL    HW134562   1.935   4.471   2.505 -0.2852  4.3030 -1.8484
 7642SOL    HW234563   1.851   4.351   2.494 -0.9088  0.3695  0.8006
 7643SOL     OW34564   1.794   1.926   3.737  0.3442 -0.1250  0.1374
 7643SOL    HW134565   1.755   1.839   3.726 -0.4361 -0.2236  3.6921
 7643SOL    HW234566   1.782   1.944   3.830  0.1983  1.1878 -0.1386
 7644SOL     OW34567   1.397   0.726   4.405  0.7513 -0.3489 -0.0219
 7644SOL    HW134568   1.442   0.758   4.327  0.9272  0.3741  0.3711
 7644SOL    HW234569   1.466   0.687   4.458 -1.1275  0.0881  2.8183
 7645SOL     OW34570   2.771   0.265   5.580 -0.0745 -0.4602 -0.4843
 7645SOL    HW134571   2.831   0.313   5.636  1.0799 -0.5409 -1.6432
 7645SOL    HW234572   2.766   0.314   5.498  1.1244  1.0189  0.3301
 7646SOL     OW34573   0.499   1.789   5.787 -0.7292  0.5822 -0.9887
 7646SOL    HW134574   0.422   1.816   5.838  0.1929 -1.1964  1.3101
 7646SOL    HW234575   0.557   1.864   5.796  1.0192 -0.7657 -1.0568
 7647SOL     OW34576   3.657   1.609   3.739  0.4215 -0.6127 -0.0045
 7647SOL    HW134577   3.667   1.641   3.828  0.3961 -0.1412 -0.1695
 7647SOL    HW234578   3.741   1.563   3.734  1.7889  1.8951  0.0510
 7648SOL     OW34579   3.596   1.275   5.045  0.0375  0.5117  0.4139
 7648SOL    HW134580   3.684   1.272   5.009 -0.8785  2.0405 -1.9501
 7648SOL    HW234581   3.623   1.309   5.131 -1.2080 -1.6568  1.6611
 7649SOL     OW34582   2.593   1.845   7.002  0.4293 -0.4650 -0.2337
 7649SOL    HW134583   2.538   1.817   6.929 -0.6636 -0.0258  0.4208
 7649SOL    HW234584   2.567   1.934   7.026  0.6846  0.0725 -1.9358
 7650SOL     OW34585   2.900   0.478   5.417  0.0447  0.3589  0.2234
 7650SOL    HW134586   2.921   0.561   5.375 -0.3970  0.4113  0.1004
 7650SOL    HW234587   2.910   0.507   5.508 -0.1882  1.9853 -0.2688
 7651SOL     OW34588   2.676   3.151   2.075  0.1550 -0.8518  0.3399
 7651SOL    HW134589   2.658   3.160   2.169 -2.3330 -2.1403 -0.0268
 7651SOL    HW234590   2.586   3.128   2.052 -0.0720  1.1718 -0.7879
 7652SOL     OW34591   0.881   2.376   9.412 -0.5553 -0.2019  0.5318
 7652SOL    HW134592   0.860   2.465   9.439  0.4867  0.3102 -0.3578
 7652SOL    HW234593   0.927   2.351   9.492 -0.9271  0.7491  1.0441
 7653SOL     OW34594   2.609   2.628   8.401 -0.0059  0.2558 -0.0170
 7653SOL    HW134595   2.534   2.573   8.381  0.4958 -1.2625  2.3102
 7653SOL    HW234596   2.572   2.707   8.440 -1.0744 -0.1033 -0.3154
 7654SOL     OW34597   2.835   3.703   7.926  0.2902 -0.3233 -0.4291
 7654SOL    HW134598   2.845   3.718   7.832 -0.7612 -1.8521 -0.7871
 7654SOL    HW234599   2.928   3.693   7.947  0.7018  0.2233 -1.9568
 7655SOL     OW34600   2.722   1.380   3.386  0.7939  0.1077 -0.8831
 7655SOL    HW134601   2.653   1.340   3.332 -2.3208  1.6796  1.9276
 7655SOL    HW234602   2.786   1.309   3.388  0.5081 -0.0336  2.2916
 7656SOL     OW34603   4.711   1.516   9.893 -0.2632  0.0295  0.3820
 7656SOL    HW134604   0.003   1.604   9.917  0.0479  0.2487 -0.7805
 7656SOL    HW234605   4.689   1.528   9.801 -1.2080 -2.8079  0.2144
 7657SOL     OW34606   1.784   2.265   6.023  0.0502  0.4226  0.2874
 7657SOL    HW134607   1.770   2.179   6.063  0.4634 -0.9440 -2.5538
 7657SOL    HW234608   1.704   2.313   6.046  0.2141  0.4306  0.8631
 7658SOL     OW34609   4.624   2.679   4.126  0.1956 -0.9324 -0.3731
 7658SOL    HW134610   4.571   2.669   4.047 -1.5448  1.7954  0.4481
 7658SOL    HW234611   4.712   2.656   4.097  0.4562 -1.7970  1.1284
 7659SOL     OW34612   1.118   2.412   2.508  0.2327 -0.6455 -0.5046
 7659SOL    HW134613   1.174   2.342   2.474  2.1409  0.9291 -0.5721
 7659SOL    HW234614   1.048   2.400   2.444 -0.7624  1.0617  0.2670
 7660SOL     OW34615   0.051   4.066   3.470 -0.3936  0.0932 -0.0679
 7660SOL    HW134616   0.011   4.010   3.537 -1.2641  1.2634  0.3917
 7660SOL    HW234617   0.003   4.148   3.484  0.5651  0.3500  1.7257
 7661SOL     OW34618   1.201   0.416   5.897 -0.7595  0.2055 -0.3145
 7661SOL    HW134619   1.282   0.401   5.945  0.4175  2.8937 -1.4987
 7661SOL    HW234620   1.168   0.477   5.963 -2.3215  0.5935 -1.4440
 7662SOL     OW34621   1.939   3.705   2.903 -0.0043 -0.3870 -0.4255
 7662SOL    HW134622   1.932   3.610   2.904 -0.1870 -0.4108 -4.2618
 7662SOL    HW234623   2.000   3.722   2.831 -0.0519 -2.3957 -0.9317
 7663SOL     OW34624   1.843   0.073   7.892 -0.6274  0.5981  0.2135
 7663SOL    HW134625   1.808   0.073   7.802  2.0078  0.4127 -0.8190
 7663SOL    HW234626   1.770   0.025   7.931 -0.8484  0.6132 -0.1705
 7664SOL     OW34627   2.867   3.198   2.330  0.0170 -0.5403  0.2922
 7664SOL    HW134628   2.781   3.214   2.369  0.1368 -0.6052  0.5849
 7664SOL    HW234629   2.887   3.125   2.388 -2.5951 -1.1776  0.3604
 7665SOL     OW34630   2.576   1.258  16.322  0.5466  0.0971  0.6237
 7665SOL    HW134631   2.591   1.167  16.299  0.0733 -0.2905  1.8268
 7665SOL    HW234632   2.516   1.281  16.251  0.4396  1.5656  1.1676
 7666SOL     OW34633   0.397   2.663  14.692 -0.0265 -0.2131  0.3508
 7666SOL    HW134634   0.333   2.666  14.621  1.1095  1.3457 -0.5852
 7666SOL    HW234635   0.418   2.756  14.695  1.5788 -0.6051  1.2749
 7667SOL     OW34636   3.984   2.013   7.562  0.3807 -0.2034 -0.6251
 7667SOL    HW134637   3.921   1.981   7.497  0.7672  0.7239 -1.4568
 7667SOL    HW234638   4.027   1.934   7.595  0.5454 -0.3201 -1.1153
 7668SOL     OW34639   2.139   3.060  14.345  0.4920 -0.4526  0.0202
 7668SOL    HW134640   2.133   3.155  14.359  1.9572 -0.3131 -0.3073
 7668SOL    HW234641   2.231   3.050  14.320  0.6088 -0.2850  0.3732
 7669SOL     OW34642   1.978   4.710   4.149  0.3656  0.3680 -0.2458
 7669SOL    HW134643   2.019   4.672   4.072 -0.9909  1.4500 -1.5072
 7669SOL    HW234644   1.942   0.053   4.108 -0.0769  0.6719  0.7195
 7670SOL     OW34645   4.147   1.437  17.090 -0.9260  0.0359 -0.3019
 7670SOL    HW134646   4.192   1.502  17.036  1.3206  0.3270  1.8787
 7670SOL    HW234647   4.067   1.486  17.112 -0.2839  1.7353 -1.7455
 7671SOL     OW34648   1.957   0.797  10.028  0.0487 -0.5079 -0.6505
 7671SOL    HW134649   2.038   0.771   9.982  1.0470  0.4910  0.5377
 7671SOL    HW234650   1.914   0.718  10.062 -1.1177  1.4514  2.3318
 7672SOL     OW34651   1.096   3.596   1.199 -0.2996 -0.1841  0.0344
 7672SOL    HW134652   1.163   3.529   1.185 -0.1124 -0.3988  1.9557
 7672SOL    HW234653   1.012   3.559   1.169  0.4126 -2.5031  0.9155
 7673SOL     OW34654   2.816   0.235   7.595 -0.4101 -0.1938  0.5858
 7673SOL    HW134655   2.819   0.329   7.614 -0.7974  0.1231 -0.8789
 7673SOL    HW234656   2.741   0.197   7.640 -2.0190  0.1506 -1.8451
 7674SOL     OW34657   2.858   3.644  12.431  0.3974  0.3695  0.3429
 7674SOL    HW134658   2.910   3.592  12.370  1.7185  2.1045 -0.0261
 7674SOL    HW234659   2.867   3.591  12.510  2.4407  1.2005  0.6546
 7675SOL     OW34660   2.445   3.492   0.720  0.0561 -0.6766  0.1070
 7675SOL    HW134661   2.523   3.481   0.666  0.1635  0.6248 -0.0103
 7675SOL    HW234662   2.434   3.402   0.751 -0.1329 -0.3980  0.8610
 7676SOL     OW34663   3.154   0.853   0.531 -0.4878  0.0669 -0.3888
 7676SOL    HW134664   3.183   0.944   0.524  2.1415 -0.7303  0.0461
 7676SOL    HW234665   3.146   0.850   0.627 -1.6730 -0.9351 -0.5223
 7677SOL     OW34666   1.787   0.063  17.242  0.1981 -0.0623  0.0532
 7677SOL    HW134667   1.844   4.730  17.208 -1.5013 -1.2933 -0.3392
 7677SOL    HW234668   1.785   0.125  17.170 -1.1293  0.3073  0.4068
 7678SOL     OW34669   0.062   4.091  15.397  0.1409  0.2389  0.4865
 7678SOL    HW134670   0.143   4.061  15.357  0.4949  1.2338  0.4612
 7678SOL    HW234671   0.005   4.034  15.346 -1.5170  0.4372  2.0764
 7679SOL     OW34672   0.764   3.587  15.833  0.6346 -0.4152  0.4675
 7679SOL    HW134673   0.742   3.605  15.924 -1.6030  2.1702 -0.5749
 7679SOL    HW234674   0.831   3.653  15.817 -0.8815  1.1807  0.7321
 7680SOL     OW34675   1.440   1.978   8.545  0.5461 -0.6015 -0.4902
 7680SOL    HW134676   1.476   1.901   8.502  1.7501 -0.1132 -0.3758
 7680SOL    HW234677   1.514   2.038   8.531  0.3999 -0.4580 -0.6496
 7681SOL     OW34678   3.740   4.573   8.991  0.1064 -0.0798  0.2398
 7681SOL    HW134679   3.753   4.638   8.922  2.5529 -0.7358  0.0945
 7681SOL    HW234680   3.755   4.627   9.069 -1.1256  0.1465  0.3290
 7682SOL     OW34681   0.361   2.013   2.017 -0.1532 -0.1090 -0.4266
 7682SOL    HW134682   0.274   2.047   2.034  0.4006  0.9198  0.3618
 7682SOL    HW234683   0.410   2.063   2.083  0.9694 -0.5094 -0.9474
 7683SOL     OW34684   0.258   0.808  10.707  0.2262  0.0272 -0.4917
 7683SOL    HW134685   0.248   0.835  10.615  0.4249  0.0146 -0.5172
 7683SOL    HW234686   0.330   0.860  10.743 -0.3703  1.5342 -1.4748
 7684SOL     OW34687   3.868   2.926   2.774  0.2261 -0.3825  0.7811
 7684SOL    HW134688   3.812   3.000   2.799 -0.0066 -0.8486  1.6270
 7684SOL    HW234689   3.808   2.864   2.732  0.7688 -0.1916 -0.2897
 7685SOL     OW34690   3.887   1.140   6.962  0.5419  0.3870  0.5257
 7685SOL    HW134691   3.824   1.210   6.975 -0.0347 -0.0028 -0.1837
 7685SOL    HW234692   3.889   1.105   7.051 -2.0014  0.0463  0.4564
 7686SOL     OW34693   1.336   2.172   2.502 -0.3233 -0.6097  0.1961
 7686SOL    HW134694   1.380   2.200   2.582 -0.9750 -1.3114  0.7924
 7686SOL    HW234695   1.268   2.115   2.539 -0.8944  1.0620  1.6902
 7687SOL     OW34696   0.173   4.477  12.727  0.0910  0.3723  0.4924
 7687SOL    HW134697   0.142   4.422  12.655  2.3353  0.5776 -0.6228
 7687SOL    HW234698   0.173   4.558  12.677  0.0481  1.1431  1.7370
 7688SOL     OW34699   2.049   2.809   4.912  0.4731  0.3182 -0.4542
 7688SOL    HW134700   2.065   2.733   4.968  0.9920  2.2304  2.0354
 7688SOL    HW234701   2.106   2.872   4.956 -0.8536  0.0665  1.6144
 7689SOL     OW34702   0.739   2.768   2.912 -0.3521  0.4777 -0.1202
 7689SOL    HW134703   0.748   2.767   3.007 -1.7577 -0.8402 -0.0098
 7689SOL    HW234704   0.644   2.762   2.904 -0.3193  1.1153 -0.9668
 7690SOL     OW34705   0.791   2.660   9.492  0.6048  0.4502 -0.3522
 7690SOL    HW134706   0.731   2.636   9.562  0.6960 -0.4191 -0.5691
 7690SOL    HW234707   0.870   2.667   9.546  0.1296  0.1394  0.3729
 7691SOL     OW34708   3.246   2.249   5.597 -0.2944  0.1241  0.4496
 7691SOL    HW134709   3.203   2.244   5.512 -0.4921  2.4034  0.4139
 7691SOL    HW234710   3.202   2.175   5.638 -1.6747  0.6681 -0.0426
 7692SOL     OW34711   2.533   0.105   3.960 -0.0152  0.2374 -0.1807
 7692SOL    HW134712   2.498   0.019   3.938 -0.2288  0.5172 -0.9472
 7692SOL    HW234713   2.591   0.078   4.031 -1.0464 -1.6058 -0.0614
 7693SOL     OW34714   3.572   0.072   6.720 -0.3470 -0.1911  0.9485
 7693SOL    HW134715   3.535   0.101   6.637  0.5347 -2.1531 -0.1205
 7693SOL    HW234716   3.572   4.713   6.710 -1.4846 -0.0628 -0.1835
 7694SOL     OW34717   4.383   2.259   1.890  0.1529 -0.2269  0.2441
 7694SOL    HW134718   4.327   2.186   1.916  1.5393 -1.8716 -1.3556
 7694SOL    HW234719   4.334   2.336   1.919 -2.1470 -1.1191 -1.2615
 7695SOL     OW34720   1.892   2.203   6.935  0.2048 -0.3689 -0.0027
 7695SOL    HW134721   1.836   2.264   6.983 -0.5238 -1.9857  1.2130
 7695SOL    HW234722   1.948   2.169   7.005  0.1836  0.9645  0.6771
 7696SOL     OW34723   1.065   3.900  11.096  0.0402  0.0251  0.0113
 7696SOL    HW134724   1.123   3.882  11.170 -0.8765 -3.7984 -0.1870
 7696SOL    HW234725   0.977   3.904  11.133  0.5084 -0.3078  1.1540
 7697SOL     OW34726   3.039   1.999   8.662  0.1806 -0.5855  0.1760
 7697SOL    HW134727   2.977   1.973   8.594  0.4501 -0.1980 -0.2201
 7697SOL    HW234728   2.985   2.028   8.735 -0.9683 -1.3776 -0.3486
 7698SOL     OW34729   1.021   2.507  13.012  0.2307  0.1123 -0.0782
 7698SOL    HW134730   0.982   2.594  13.017  0.1492  0.2755 -3.9550
 7698SOL    HW234731   0.960   2.462  12.953  0.7045 -1.0885  0.3522
 7699SOL     OW34732   2.416   0.083  13.353 -0.2684  0.1336  0.0364
 7699SOL    HW134733   2.471   0.091  13.431  2.2064  0.4907 -1.7165
 7699SOL    HW234734   2.431   0.174  13.325 -0.7254  1.1028  3.0229
 7700SOL     OW34735   2.135   4.376   0.097  0.0047 -0.5086  0.3684
 7700SOL    HW134736   2.073   4.433   0.144  0.4301 -0.1466  0.4892
 7700SOL    HW234737   2.143   4.426   0.015 -0.4985 -1.4056 -0.2278
 7701SOL     OW34738   1.298   0.301   3.897 -0.1981  0.0076  0.0894
 7701SOL    HW134739   1.210   0.334   3.916 -0.2527  0.4735 -0.9824
 7701SOL    HW234740   1.313   0.273   3.988  0.7803  0.3558  0.0336
 7702SOL     OW34741   3.406   3.869  16.861 -0.0050 -0.1147 -0.1179
 7702SOL    HW134742   3.331   3.846  16.916  0.2792 -2.4074 -0.6580
 7702SOL    HW234743   3.470   3.806  16.894  0.9662  2.1042  2.2017
 7703SOL     OW34744   3.148   0.684   4.515  0.1370 -0.0229  0.0219
 7703SOL    HW134745   3.159   0.762   4.460  2.0620  0.1696  0.6937
 7703SOL    HW234746   3.226   0.675   4.570 -0.3504 -0.3674  0.6543
 7704SOL     OW34747   4.590   2.910   4.578  0.3173 -0.1106 -0.0066
 7704SOL    HW134748   4.628   2.965   4.509  1.4604 -1.4875 -0.4781
 7704SOL    HW234749   4.591   2.830   4.525  0.8550  2.0513 -3.2591
 7705SOL     OW34750   4.155   0.957   3.656 -0.0635  0.3541 -0.1796
 7705SOL    HW134751   4.060   0.965   3.655 -0.1456 -0.8553 -1.7895
 7705SOL    HW234752   4.186   0.976   3.567  0.4459  1.0363  0.1400
 7706SOL     OW34753   0.621   2.734   7.142 -0.1210  0.9150  0.9227
 7706SOL    HW134754   0.532   2.748   7.109 -0.1873  0.6106  0.9669
 7706SOL    HW234755   0.670   2.784   7.077 -2.1157  1.5097 -0.1267
 7707SOL     OW34756   2.981   1.884  17.596  0.4435  0.7156  0.0346
 7707SOL    HW134757   2.957   1.801  17.637  3.6695  0.6457  1.7562
 7707SOL    HW234758   3.054   1.901  17.655  0.4267  0.2134  0.1999
 7708SOL     OW34759   1.427   3.156   7.153  0.0075  0.2236 -0.0717
 7708SOL    HW134760   1.450   3.248   7.162 -2.9683  0.9394  0.3013
 7708SOL    HW234761   1.333   3.174   7.143  0.4056  1.9785 -0.6853
 7709SOL     OW34762   1.826   4.485   1.550  0.0242 -0.2702  0.6958
 7709SOL    HW134763   1.799   4.541   1.623  1.2025 -1.5105  2.0648
 7709SOL    HW234764   1.742   4.451   1.520 -0.2865  0.9282  0.1801
 7710SOL     OW34765   1.872   0.215   3.048  0.1587 -0.3651  0.7393
 7710SOL    HW134766   1.850   0.246   3.137  0.6175  1.6632  0.1419
 7710SOL    HW234767   1.956   0.174   3.065 -0.4372 -2.2840 -0.9922
 7711SOL     OW34768   1.541   3.232   8.599  0.5558 -0.5757  0.4417
 7711SOL    HW134769   1.591   3.261   8.675 -1.1932  1.6385  0.7382
 7711SOL    HW234770   1.472   3.191   8.652 -1.3428 -0.3364 -1.8263
 7712SOL     OW34771   1.163   3.699   2.194 -0.0523  0.3922 -0.4276
 7712SOL    HW134772   1.188   3.659   2.277 -1.7651  1.3875  0.5741
 7712SOL    HW234773   1.115   3.771   2.236  0.4460  0.3428  0.2144
 7713SOL     OW34774   1.376   3.347  16.844  0.1174 -0.3864  0.0605
 7713SOL    HW134775   1.331   3.422  16.883  0.3995 -1.0259  1.6312
 7713SOL    HW234776   1.319   3.314  16.774  1.9293  0.1985 -1.6864
 7714SOL     OW34777   3.648   4.597  12.849 -0.9500  0.0266 -0.3175
 7714SOL    HW134778   3.638   4.662  12.919  1.2746  0.5354 -0.4612
 7714SOL    HW234779   3.728   4.626  12.805  0.1633 -0.6331  1.2379
 7715SOL     OW34780   4.280   3.753  11.722 -0.2732  0.2842  0.3254
 7715SOL    HW134781   4.358   3.718  11.677 -1.4567 -1.2122 -0.5584
 7715SOL    HW234782   4.214   3.690  11.694  0.3386  0.6773 -2.0040
 7716SOL     OW34783   1.224   2.177  10.670  0.4550 -0.4396  0.3049
 7716SOL    HW134784   1.289   2.212  10.609  0.6598  1.1569  1.4367
 7716SOL    HW234785   1.174   2.256  10.690  0.2695  0.1359 -2.3549
 7717SOL     OW34786   0.748   1.315   5.297 -0.2721  0.5149 -0.2694
 7717SOL    HW134787   0.834   1.281   5.272  0.4285  1.9460  0.1603
 7717SOL    HW234788   0.749   1.401   5.255  1.8408  0.2990 -0.6891
 7718SOL     OW34789   2.182   2.726   0.477 -0.6634 -0.3447  0.1629
 7718SOL    HW134790   2.116   2.766   0.533 -0.6188  0.2062 -0.1817
 7718SOL    HW234791   2.167   2.632   0.482  0.1982 -0.4215  1.3656
 7719SOL     OW34792   2.732   1.606   5.421 -0.9044 -0.5641 -0.0396
 7719SOL    HW134793   2.722   1.695   5.456  4.0856 -0.5734  1.4563
 7719SOL    HW234794   2.798   1.574   5.482  1.4647  3.1296 -0.6295
 7720SOL     OW34795   1.341   2.893  16.484  0.0333  0.2021  0.3920
 7720SOL    HW134796   1.423   2.851  16.459 -0.3934 -0.0303 -0.6114
 7720SOL    HW234797   1.353   2.917  16.576  1.8973 -0.1214  0.2137
 7721SOL     OW34798   1.284   3.636  17.715 -0.5331 -0.2638  0.5415
 7721SOL    HW134799   1.315   3.549  17.689 -1.0622 -0.3705  0.2421
 7721SOL    HW234800   1.279   3.672  17.626  0.1727  0.0343  0.6237
 7722SOL     OW34801   1.414   0.238   4.394 -0.3529 -0.1185 -0.0848
 7722SOL    HW134802   1.416   0.142   4.400  0.0774 -0.1080 -0.0683
 7722SOL    HW234803   1.506   0.258   4.413 -0.0931 -1.8407  0.4761
 7723SOL     OW34804   2.911   1.222   6.388  0.4840 -0.4021 -0.7666
 7723SOL    HW134805   2.842   1.280   6.420 -0.3124 -1.4848 -0.5366
 7723SOL    HW234806   2.866   1.137   6.383 -2.5561  1.1142  0.8149
 7724SOL     OW34807   0.804   0.570  14.354  0.1138  0.1735  0.4080
 7724SOL    HW134808   0.822   0.608  14.440 -0.0522 -1.4200  1.1507
 7724SOL    HW234809   0.848   0.632  14.296 -1.7279  0.2870 -0.8638
 7725SOL     OW34810   2.103   0.267   6.696 -0.3320 -0.2103  0.6723
 7725SOL    HW134811   2.162   0.331   6.737 -1.4582  1.4933 -0.3537
 7725SOL    HW234812   2.170   0.215   6.650  0.8386  0.3392  1.7469
 7726SOL     OW34813   0.714   4.661   4.239 -0.2802 -0.1753  0.5491
 7726SOL    HW134814   0.732   4.571   4.266 -0.8879  0.1474  2.0410
 7726SOL    HW234815   0.636   4.690   4.287  0.3740  0.1500  1.3997
 7727SOL     OW34816   0.826   1.414   1.415  0.3222  0.2083 -0.0648
 7727SOL    HW134817   0.813   1.423   1.510 -0.5921  0.3115 -0.1983
 7727SOL    HW234818   0.733   1.408   1.393  0.6771 -1.5134 -1.0844
 7728SOL     OW34819   3.454   3.081   5.359  0.5698  0.4792 -0.1840
 7728SOL    HW134820   3.471   2.987   5.345 -1.5240  0.2081 -0.8627
 7728SOL    HW234821   3.478   3.085   5.452 -1.3548 -0.7485  0.3596
 7729SOL     OW34822   3.080   0.697   8.394  0.3813 -0.7825  0.7469
 7729SOL    HW134823   3.027   0.729   8.321  1.6944  0.3117  0.2874
 7729SOL    HW234824   3.164   0.683   8.352  0.7863  2.9515  0.3293
 7730SOL     OW34825   0.416   2.391  14.839 -0.3458 -0.2966 -0.4102
 7730SOL    HW134826   0.435   2.478  14.806  0.5298  0.5428  2.2763
 7730SOL    HW234827   0.345   2.359  14.783 -1.3530 -0.3929  0.8954
 7731SOL     OW34828   4.581   4.218  14.641  0.6936 -0.4068 -0.4023
 7731SOL    HW134829   4.626   4.149  14.690 -1.9976 -2.8425 -1.3648
 7731SOL    HW234830   4.500   4.174  14.617 -0.7704  2.3599 -0.5909
 7732SOL     OW34831   0.932   3.371   1.431  0.4305  0.3245 -0.6299
 7732SOL    HW134832   0.950   3.303   1.496 -0.2033  0.0995 -0.6879
 7732SOL    HW234833   0.870   3.423   1.483  0.5543  0.3461 -0.5017
 7733SOL     OW34834   2.580   3.874   2.908  0.6629  0.4495 -0.2734
 7733SOL    HW134835   2.540   3.788   2.913  1.3112  0.2217  0.8523
 7733SOL    HW234836   2.504   3.929   2.889  1.2967  1.0929 -0.9621
 7734SOL     OW34837   0.139   4.011   8.498  0.0364  0.2359  0.0206
 7734SOL    HW134838   0.089   3.957   8.437 -1.2104  1.7765 -0.3436
 7734SOL    HW234839   0.158   3.942   8.562  1.6024 -0.0393 -0.7432
 7735SOL     OW34840   1.129   1.497   2.855 -0.1600 -0.1740 -0.0943
 7735SOL    HW134841   1.170   1.523   2.938  1.4632 -2.0566 -0.3050
 7735SOL    HW234842   1.144   1.403   2.865  0.5613 -0.3717 -3.2613
 7736SOL     OW34843   0.282   1.777  10.149  0.0408  0.1039  0.0191
 7736SOL    HW134844   0.325   1.726  10.080  1.5419 -1.3451  2.0221
 7736SOL    HW234845   0.207   1.812  10.101  1.7638  2.1100 -1.2022
 7737SOL     OW34846   2.987   3.806  14.381 -0.1139  0.1029 -0.0288
 7737SOL    HW134847   2.914   3.800  14.444 -1.4032 -0.0661 -1.5309
 7737SOL    HW234848   3.029   3.886  14.413 -0.1196  0.5887 -1.2281
 7738SOL     OW34849   3.343   4.199  11.243 -0.4979  0.1196  0.0439
 7738SOL    HW134850   3.301   4.242  11.169 -3.1113 -0.5617  1.1279
 7738SOL    HW234851   3.335   4.270  11.307  0.4508 -0.1045  0.4147
 7739SOL     OW34852   4.305   4.308   7.386 -0.0866  0.2536 -0.3693
 7739SOL    HW134853   4.251   4.354   7.321 -1.7132  0.3393  1.0659
 7739SOL    HW234854   4.239   4.254   7.429 -2.4300  3.0792 -0.3699
 7740SOL     OW34855   0.069   3.603   9.179 -0.2788 -0.4691 -0.0379
 7740SOL    HW134856   0.056   3.547   9.102 -2.1085 -2.8013  1.9306
 7740SOL    HW234857   0.006   3.575   9.246 -0.1845 -0.1022  0.1994
 7741SOL     OW34858   4.186   1.519  15.120 -0.2573 -0.3015 -0.1447
 7741SOL    HW134859   4.124   1.550  15.186 -0.7691 -0.5453 -0.5090
 7741SOL    HW234860   4.228   1.449  15.170 -2.4661 -1.3820  0.1743
 7742SOL     OW34861   3.015   3.878   8.846  0.0864  0.0602 -0.0144
 7742SOL    HW134862   2.944   3.814   8.848 -1.5571  1.7792 -2.6210
 7742SOL    HW234863   2.997   3.938   8.919  0.6414  0.6672 -0.3810
 7743SOL     OW34864   3.076   2.579  12.670 -0.5478  0.1623  0.0306
 7743SOL    HW134865   3.048   2.494  12.706  0.2561 -1.2296 -2.6664
 7743SOL    HW234866   3.011   2.632  12.718 -1.5176 -1.2969  0.3403
 7744SOL     OW34867   0.469   0.023   2.303  0.4227  0.1883  0.0921
 7744SOL    HW134868   0.547   0.076   2.319  0.0175  0.8104  0.0077
 7744SOL    HW234869   0.442   0.058   2.218 -0.2465 -2.4285 -0.7993
 7745SOL     OW34870   3.859   0.724  14.355 -0.5678 -0.3703  0.0151
 7745SOL    HW134871   3.800   0.649  14.355  1.1761 -1.7277 -2.4698
 7745SOL    HW234872   3.919   0.711  14.429 -0.7677  1.9288  0.6056
 7746SOL     OW34873   2.957   0.142  11.123  0.0782  0.3536 -0.0534
 7746SOL    HW134874   3.051   0.155  11.107  0.1738 -0.4101 -0.1424
 7746SOL    HW234875   2.926   0.114  11.037  1.4172 -0.2771 -0.3383
 7747SOL     OW34876   3.578   3.337   3.386 -0.2252  0.5494  0.4217
 7747SOL    HW134877   3.631   3.280   3.442  0.4353  1.4870  0.7508
 7747SOL    HW234878   3.645   3.363   3.324 -0.0711 -1.3460 -0.2059
 7748SOL     OW34879   0.615   0.837   8.784 -0.2353 -0.4993  0.2432
 7748SOL    HW134880   0.540   0.840   8.724 -0.3628  0.8214  0.4742
 7748SOL    HW234881   0.580   0.810   8.869 -0.7229 -2.9050 -0.7086
 7749SOL     OW34882   2.611   0.219   3.412 -0.8364 -0.2502 -0.2975
 7749SOL    HW134883   2.695   0.175   3.424 -1.0165 -0.2572  0.8799
 7749SOL    HW234884   2.634   0.311   3.406 -2.3571  0.0880 -0.9753
 7750SOL     OW34885   4.240   2.777   6.214 -0.7681  0.0311  0.1534
 7750SOL    HW134886   4.216   2.854   6.162 -0.1314 -0.4335 -0.8280
 7750SOL    HW234887   4.325   2.759   6.174 -0.4620  0.3307  0.6612
 7751SOL     OW34888   2.477   3.752   8.380 -0.1783  0.5295 -0.4971
 7751SOL    HW134889   2.490   3.679   8.319 -1.0522  1.3730 -1.7281
 7751SOL    HW234890   2.492   3.713   8.466  0.8898  0.5153 -0.6896
 7752SOL     OW34891   1.684   0.934   3.346 -0.5084 -0.1885  0.4484
 7752SOL    HW134892   1.625   0.945   3.272 -1.8669  1.0853  1.7056
 7752SOL    HW234893   1.767   0.915   3.303 -0.3205  2.8152 -0.5197
 7753SOL     OW34894   1.693   1.022   0.732 -0.0908  0.9124 -0.5460
 7753SOL    HW134895   1.648   1.086   0.787  1.9613  2.1668 -0.2944
 7753SOL    HW234896   1.710   1.076   0.655 -1.3280  2.7069  0.4383
 7754SOL     OW34897   1.758   3.012   4.046  0.2528  0.1201 -0.3374
 7754SOL    HW134898   1.779   3.003   3.953  0.2475 -1.2632 -0.2079
 7754SOL    HW234899   1.848   3.002   4.076  0.0669  1.0090  0.5169
 7755SOL     OW34900   1.026   0.206   8.408  0.2338  0.2325  0.3435
 7755SOL    HW134901   1.114   0.240   8.423 -0.0851  0.9297  0.6181
 7755SOL    HW234902   1.049   0.125   8.361 -0.9890  0.8190 -1.2742
 7756SOL     OW34903   1.512   1.000   5.756  0.6838  0.4285 -0.4795
 7756SOL    HW134904   1.580   1.011   5.824 -0.5326 -1.9070  1.1167
 7756SOL    HW234905   1.456   0.930   5.790  1.3104  0.5604  0.8591
 7757SOL     OW34906   2.595   4.324   6.141  0.8641 -0.2239 -0.1751
 7757SOL    HW134907   2.646   4.399   6.110  0.1494  1.3176  2.4187
 7757SOL    HW234908   2.614   4.251   6.082  0.3899 -1.5989  1.3856
 7758SOL     OW34909   4.120   3.108   2.254 -0.0096  0.0327 -0.3451
 7758SOL    HW134910   4.031   3.126   2.223  0.1760 -0.7546 -1.3676
 7758SOL    HW234911   4.118   3.095   2.348 -0.9792 -2.6081 -0.7190
 7759SOL     OW34912   0.863   0.455   8.045  0.1859 -0.2369 -0.0935
 7759SOL    HW134913   0.884   0.496   8.129 -2.2789 -1.4214  1.1010
 7759SOL    HW234914   0.876   0.527   7.984 -0.2214  0.1873  0.3321
 7760SOL     OW34915   3.599   1.662   9.859 -0.3344  0.1580 -0.3536
 7760SOL    HW134916   3.659   1.596   9.824 -2.0725 -2.3956  1.4682
 7760SOL    HW234917   3.634   1.666   9.948 -0.6169  1.5969 -0.3062
 7761SOL     OW34918   3.085   4.412  15.734 -0.0729 -0.0385 -0.0446
 7761SOL    HW134919   3.006   4.415  15.788 -0.5602  1.2442 -0.8519
 7761SOL    HW234920   3.040   4.384  15.654  0.7005  2.9773 -1.4979
 7762SOL     OW34921   1.839   2.883  10.759 -0.3696 -0.1744 -0.2648
 7762SOL    HW134922   1.882   2.966  10.783  0.1257 -0.4142 -0.3331
 7762SOL    HW234923   1.773   2.908  10.694 -0.6994 -3.5145 -1.2224
 7763SOL     OW34924   4.263   4.044   8.490 -0.1303 -1.0351 -0.0257
 7763SOL    HW134925   4.189   4.036   8.549  0.9509 -2.0715  1.2111
 7763SOL    HW234926   4.286   3.951   8.481  0.1246 -1.0904  1.1830
 7764SOL     OW34927   3.136   4.608   3.486 -0.2515  0.5195 -0.0544
 7764SOL    HW134928   3.082   4.545   3.534  0.1004 -1.1189 -1.8434
 7764SOL    HW234929   3.223   4.579   3.515 -0.1621 -0.5771 -1.4290
 7765SOL     OW34930   2.248   1.676  13.595  0.4196 -0.0473  0.3686
 7765SOL    HW134931   2.179   1.706  13.653  0.7391  3.1826 -0.9454
 7765SOL    HW234932   2.269   1.754  13.544  1.3639  0.4021  1.4412
 7766SOL     OW34933   1.430   2.625   5.390 -0.6263  0.2790 -0.3553
 7766SOL    HW134934   1.426   2.550   5.331  0.1640 -1.8765  2.2919
 7766SOL    HW234935   1.477   2.692   5.341  0.3912 -0.0760  0.1318
 7767SOL     OW34936   0.471   0.577   6.035 -1.0998 -0.0174 -0.2624
 7767SOL    HW134937   0.392   0.596   5.985 -1.5249  0.8352  0.7325
 7767SOL    HW234938   0.539   0.616   5.980 -1.9435 -0.6709 -1.7919
 7768SOL     OW34939   3.715   1.380   8.456 -0.0922  0.0414  0.1743
 7768SOL    HW134940   3.675   1.380   8.369  2.5077  0.1943 -1.0408
 7768SOL    HW234941   3.654   1.439   8.501  0.1003  0.9885 -0.8053
 7769SOL     OW34942   2.122   0.040   2.306 -0.3680  0.6602 -0.1704
 7769SOL    HW134943   2.196   0.060   2.249  1.4397  0.8002  2.2228
 7769SOL    HW234944   2.078   4.706   2.257  2.4454  1.2527 -3.5196
 7770SOL     OW34945   2.233   1.138   4.657 -0.0052  0.3765 -0.3646
 7770SOL    HW134946   2.154   1.154   4.607 -1.1176 -1.8737  0.6707
 7770SOL    HW234947   2.299   1.178   4.601 -1.0564  1.2038 -0.9878
 7771SOL     OW34948   1.197   2.716  12.346  0.1369  0.1499 -0.2470
 7771SOL    HW134949   1.195   2.739  12.253  2.0587  1.6504  0.0825
 7771SOL    HW234950   1.136   2.642  12.340  3.8068 -3.1569  3.4965
 7772SOL     OW34951   4.338   2.984   9.731 -0.9185  0.0562  0.1012
 7772SOL    HW134952   4.298   3.007   9.815 -2.3177  0.1679 -0.5853
 7772SOL    HW234953   4.296   2.900   9.714  1.3948 -1.0874  0.1061
 7773SOL     OW34954   3.248   2.990  15.291 -0.2769  0.0209  0.5809
 7773SOL    HW134955   3.292   2.947  15.217 -2.9107 -1.1210 -0.3260
 7773SOL    HW234956   3.255   3.083  15.269 -3.3758 -0.3151 -1.9103
 7774SOL     OW34957   0.708   0.944   6.830 -0.7457 -0.0239  0.0900
 7774SOL    HW134958   0.745   1.025   6.864 -0.1129 -0.0153 -0.6148
 7774SOL    HW234959   0.750   0.882   6.891 -1.8423 -0.8420  0.0173
 7775SOL     OW34960   2.522   1.307  11.112 -0.1351 -0.3502  0.1077
 7775SOL    HW134961   2.578   1.254  11.170  1.0048  0.2493 -0.4376
 7775SOL    HW234962   2.448   1.253  11.087 -1.2862  0.9512  0.7256
 7776SOL     OW34963   1.610   3.042   3.706  0.2671 -0.0590 -0.5858
 7776SOL    HW134964   1.556   2.975   3.747 -1.5108  1.0044 -1.2017
 7776SOL    HW234965   1.696   3.032   3.747  0.6296  3.5422 -0.4713
 7777SOL     OW34966   3.807   2.318   2.379 -0.3083  0.1145  0.4523
 7777SOL    HW134967   3.762   2.402   2.380 -0.0289  0.2743 -0.4378
 7777SOL    HW234968   3.796   2.295   2.287 -0.1950 -0.9090  0.6964
 7778SOL     OW34969   0.711   0.506  13.858  0.0381  0.5711  0.2295
 7778SOL    HW134970   0.713   0.523  13.764  2.0769 -1.0794 -0.0183
 7778SOL    HW234971   0.684   0.414  13.865 -3.1686  1.5088  0.4404
 7779SOL     OW34972   1.783   2.776  14.931 -0.2198  0.3074 -0.5774
 7779SOL    HW134973   1.805   2.855  14.883 -1.0253  1.0968  0.3341
 7779SOL    HW234974   1.693   2.784  14.965  0.5497 -2.6000  2.2530
 7780SOL     OW34975   4.670   1.872   9.409 -0.1341  0.4718 -0.2622
 7780SOL    HW134976   4.680   1.918   9.326  1.6203  0.2557 -0.1856
 7780SOL    HW234977   4.649   1.787   9.370 -0.5894 -0.2542  1.5586
 7781SOL     OW34978   0.372   4.676  11.664  0.2821 -0.3754 -0.4911
 7781SOL    HW134979   0.337   4.636  11.744 -0.5352  0.5429 -0.3903
 7781SOL    HW234980   0.449   4.723  11.697 -2.0288  1.7590  1.7980
 7782SOL     OW34981   1.578   1.105  11.381 -0.8274 -0.0136  0.1804
 7782SOL    HW134982   1.513   1.173  11.363 -0.5186 -0.4856 -2.6658
 7782SOL    HW234983   1.537   1.058  11.454 -0.8217  1.0232  0.8605
 7783SOL     OW34984   3.358   3.067   1.101 -0.2086 -0.4347  0.7694
 7783SOL    HW134985   3.275   3.115   1.096  1.2082  1.9911  0.2689
 7783SOL    HW234986   3.327   2.978   1.083  2.3446 -1.0556 -0.6628
 7784SOL     OW34987   3.805   0.342   6.000 -0.8607  0.1004 -0.2892
 7784SOL    HW134988   3.838   0.252   6.004 -3.9084 -0.8351  4.0744
 7784SOL    HW234989   3.883   0.396   5.992  1.1431 -2.5835  0.9011
 7785SOL     OW34990   2.869   2.931   8.470 -0.3248 -0.1319  0.6855
 7785SOL    HW134991   2.949   2.981   8.451 -0.2459 -0.4770  0.1233
 7785SOL    HW234992   2.851   2.951   8.562  0.1317  0.7663  0.5895
 7786SOL     OW34993   2.051   3.185   7.240  0.1107 -0.0925  0.1994
 7786SOL    HW134994   2.120   3.119   7.232  0.9376  0.7709  0.1661
 7786SOL    HW234995   1.975   3.128   7.228  0.9677 -1.0560 -0.5955
 7787SOL     OW34996   4.584   1.072   5.839 -0.1590 -0.0745  0.6327
 7787SOL    HW134997   4.554   1.143   5.783 -1.3415 -0.9196  0.1943
 7787SOL    HW234998   4.561   1.108   5.925  0.8410 -2.4204  1.8772
 7788SOL     OW34999   3.924   3.420   2.337 -0.0026  0.3572  0.5430
 7788SOL    HW135000   3.982   3.448   2.408  1.9495  0.1634 -0.9718
 7788SOL    HW235001   3.923   3.326   2.356 -0.2161  0.7457  2.4454
 7789SOL     OW35002   3.257   0.932   3.582 -0.3817 -0.5543  0.4749
 7789SOL    HW135003   3.204   0.859   3.613 -0.7544  0.4197  2.1240
 7789SOL    HW235004   3.307   0.889   3.512  0.4997 -0.1690  0.8722
 7790SOL     OW35005   0.068   0.154   8.409  0.2247  0.6223  0.1689
 7790SOL    HW135006   4.714   0.169   8.381 -0.1916 -0.5044  0.9122
 7790SOL    HW235007   0.115   0.143   8.326  1.5006  2.1203  0.6892
 7791SOL     OW35008   0.558   0.369  12.427  0.1037 -0.1043 -0.0750
 7791SOL    HW135009   0.477   0.339  12.470  1.6825 -3.2102  0.6783
 7791SOL    HW235010   0.529   0.448  12.381  0.9407 -0.7262 -1.6755
 7792SOL     OW35011   3.072   2.235   9.887 -0.2207  0.6561  0.1175
 7792SOL    HW135012   3.152   2.215   9.936  0.2620  0.3561 -0.8003
 7792SOL    HW235013   3.052   2.323   9.920 -0.5409  0.1695  1.2184
 7793SOL     OW35014   4.221   0.741  16.014  0.1161 -0.5205  0.5030
 7793SOL    HW135015   4.191   0.815  15.961 -1.2064 -1.4153 -0.0180
 7793SOL    HW235016   4.308   0.767  16.042  0.1562  0.0435 -0.1518
 7794SOL     OW35017   2.818   2.031   2.644  0.2435  0.2549  0.2261
 7794SOL    HW135018   2.781   2.117   2.662  0.2906  0.5662 -1.1468
 7794SOL    HW235019   2.774   2.017   2.560  1.7135 -2.3632 -0.1111
 7795SOL     OW35020   4.625   3.710   2.300 -0.2483 -0.3971 -0.3914
 7795SOL    HW135021   4.658   3.645   2.363  1.2673  1.5720  0.8346
 7795SOL    HW235022   4.641   3.791   2.348 -2.6033  0.5147 -1.1601
 7796SOL     OW35023   0.762   2.060  16.337 -0.0132 -0.1491  0.0039
 7796SOL    HW135024   0.743   1.999  16.267  1.2239  2.8170 -2.9123
 7796SOL    HW235025   0.706   2.042  16.413 -2.2322  0.2963 -1.5388
 7797SOL     OW35026   0.208   3.563   2.690  0.1516 -0.4592 -0.3123
 7797SOL    HW135027   0.216   3.552   2.785  1.3626  0.3697 -0.3154
 7797SOL    HW235028   0.290   3.604   2.663 -0.6013  1.2895  0.0389
 7798SOL     OW35029   4.574   3.179  14.798  0.4013 -0.2846  0.2804
 7798SOL    HW135030   4.491   3.210  14.761 -1.1297 -0.9375  3.0939
 7798SOL    HW235031   4.539   3.110  14.854  0.4467 -0.3839  0.1865
 7799SOL     OW35032   0.333   0.496   4.350 -0.1851 -0.1033  0.6402
 7799SOL    HW135033   0.259   0.506   4.410  0.7902 -0.9721  1.9775
 7799SOL    HW235034   0.393   0.442   4.402 -3.7359 -1.5584  3.2332
 7800SOL     OW35035   4.634   1.591  12.670  0.0171  0.1593  0.0104
 7800SOL    HW135036   4.682   1.673  12.658 -0.6655  0.5928  0.2671
 7800SOL    HW235037   4.629   1.567  12.577 -2.4315 -4.2661  1.2782
 7801SOL     OW35038   3.741   3.122   7.852 -0.4026 -0.0806  0.0114
 7801SOL    HW135039   3.780   3.188   7.795  0.3732 -1.3743 -0.9475
 7801SOL    HW235040   3.752   3.040   7.804 -0.2174 -0.0735  0.0415
 7802SOL     OW35041   3.784   4.370   1.817 -0.1328  0.2452 -0.1979
 7802SOL    HW135042   3.797   4.275   1.817  0.4909  0.3258 -1.0776
 7802SOL    HW235043   3.858   4.394   1.762  0.8432 -0.2964  0.8817
 7803SOL     OW35044   1.544   0.784  17.256  0.2637  0.3300  0.2726
 7803SOL    HW135045   1.575   0.743  17.176 -0.0439 -0.9419  0.8092
 7803SOL    HW235046   1.609   0.751  17.318  0.7218 -0.5181 -0.6795
 7804SOL     OW35047   0.569   4.056   8.037  0.3749  1.2121  0.6358
 7804SOL    HW135048   0.605   3.993   8.100 -0.8347 -2.1651 -2.0655
 7804SOL    HW235049   0.518   4.119   8.089 -0.9399  0.2371  0.5173
 7805SOL     OW35050   1.430   2.470   2.627 -0.0113  0.6416 -0.2556
 7805SOL    HW135051   1.416   2.552   2.675  0.4841  1.6592 -1.8500
 7805SOL    HW235052   1.500   2.419   2.668 -1.9594 -2.2281 -0.5270
 7806SOL     OW35053   3.701   3.734   7.829 -0.1134 -0.3506 -0.2382
 7806SOL    HW135054   3.788   3.763   7.803  0.2805 -3.4756 -2.4968
 7806SOL    HW235055   3.645   3.797   7.784  0.7108 -0.2366 -1.0832
 7807SOL     OW35056   1.193   3.606   5.496 -0.1850 -0.7102  0.2059
 7807SOL    HW135057   1.196   3.511   5.487  1.2349 -0.8544  2.1909
 7807SOL    HW235058   1.170   3.630   5.406 -0.7669 -2.5256 -0.1215
 7808SOL     OW35059   4.329   0.147   2.953  0.8801 -0.0825 -0.3884
 7808SOL    HW135060   4.379   0.224   2.982 -0.4263  1.0581 -1.1373
 7808SOL    HW235061   4.299   0.173   2.866  1.4508 -1.2454 -0.9288
 7809SOL     OW35062   4.453   2.992   6.195  0.0692  0.0101 -0.9164
 7809SOL    HW135063   4.400   3.025   6.268  1.2440 -0.0755 -0.0282
 7809SOL    HW235064   4.522   3.058   6.196  1.2340 -1.2249 -0.7437
 7810SOL     OW35065   3.524   3.524  12.390  0.0484  0.4203 -0.6402
 7810SOL    HW135066   3.576   3.588  12.341  2.5709 -0.0171  1.4078
 7810SOL    HW235067   3.465   3.482  12.329  0.0339  0.0594 -0.3772
 7811SOL     OW35068   0.676   3.988   8.626  0.3725 -1.1107  0.1730
 7811SOL    HW135069   0.582   4.003   8.611  1.1250  2.4924 -0.9117
 7811SOL    HW235070   0.677   3.894   8.606  0.0634 -0.5597 -2.4016
 7812SOL     OW35071   0.077   1.976  15.112  0.3065 -0.1606 -0.0145
 7812SOL    HW135072   0.026   2.023  15.046  0.2485 -0.8611 -0.4727
 7812SOL    HW235073   0.141   2.043  15.137 -0.4982  0.3827  0.5711
 7813SOL     OW35074   4.305   3.125  13.150  0.1168  0.0718  0.2176
 7813SOL    HW135075   4.247   3.168  13.213 -0.5832  0.6457 -0.8267
 7813SOL    HW235076   4.336   3.195  13.092  0.0400  1.9213  2.3986
 7814SOL     OW35077   2.724   2.980   6.150 -0.3122  0.1310  0.3833
 7814SOL    HW135078   2.630   2.975   6.131 -0.4726 -0.4079  1.3304
 7814SOL    HW235079   2.754   3.055   6.098 -1.9806  1.2539  1.0154
 7815SOL     OW35080   4.329   4.255   2.884  0.1830 -0.4254  0.2261
 7815SOL    HW135081   4.294   4.169   2.859 -1.3460  0.2274  0.0792
 7815SOL    HW235082   4.320   4.245   2.979 -0.9459  1.6995  0.3438
 7816SOL     OW35083   3.444   2.206  10.429  0.5530 -0.3386 -0.5022
 7816SOL    HW135084   3.532   2.235  10.405 -0.1694 -0.2764 -3.0490
 7816SOL    HW235085   3.401   2.235  10.349 -1.8365 -1.4639  0.3745
 7817SOL     OW35086   1.609   0.006   4.203 -0.1491 -0.7429 -0.0096
 7817SOL    HW135087   1.660   4.673   4.246 -0.2148  0.2602  1.6607
 7817SOL    HW235088   1.529   0.005   4.256  1.8992  0.9210  3.0983
 7818SOL     OW35089   0.940   2.641   7.939  0.6468  0.3480  0.1212
 7818SOL    HW135090   0.984   2.669   8.020  0.7169 -0.5815  0.3980
 7818SOL    HW235091   0.904   2.722   7.903  1.1252  0.6875  0.4002
 7819SOL     OW35092   0.259   4.505  10.935  0.4996  0.3676 -0.2383
 7819SOL    HW135093   0.260   4.409  10.932  2.4403  0.4007 -0.3116
 7819SOL    HW235094   0.349   4.533  10.920  0.7290  0.4931  1.3869
 7820SOL     OW35095   2.385   3.926   3.975  0.1809  0.8378  0.0410
 7820SOL    HW135096   2.335   3.944   4.055 -1.1582  0.0754 -0.6391
 7820SOL    HW235097   2.457   3.871   4.006  1.1747  1.6687 -0.7523
 7821SOL     OW35098   4.056   1.446  11.178  0.6970  0.4968 -0.0065
 7821SOL    HW135099   4.068   1.360  11.218  2.2781  0.3552 -0.7701
 7821SOL    HW235100   3.996   1.429  11.106  0.7016  0.0318  0.0972
 7822SOL     OW35101   2.270   4.448   6.773 -0.5324 -0.1981  0.2367
 7822SOL    HW135102   2.363   4.468   6.784 -0.5209  1.3708 -2.5832
 7822SOL    HW235103   2.222   4.521   6.813 -1.2855 -0.0751 -0.9020
 7823SOL     OW35104   0.605   0.860   5.019 -0.7287 -0.2761 -0.4880
 7823SOL    HW135105   0.521   0.903   5.004  0.6972  1.4978 -3.2390
 7823SOL    HW235106   0.595   0.836   5.111 -1.4774 -0.1763 -0.5492
 7824SOL     OW35107   2.680   0.002   9.362 -0.2378 -0.1399 -0.0396
 7824SOL    HW135108   2.767   0.009   9.401  0.1026  0.6001 -0.9271
 7824SOL    HW235109   2.663   0.096   9.361  0.5706  0.0042 -0.2905
 7825SOL     OW35110   4.566   3.108   2.035  0.0133  0.1565  0.3362
 7825SOL    HW135111   4.548   3.028   2.085 -1.4540  0.0440 -0.3824
 7825SOL    HW235112   4.506   3.174   2.067 -0.5967  0.4373 -1.3859
 7826SOL     OW35113   4.500   0.110   8.997 -0.1949  0.1255  0.2297
 7826SOL    HW135114   4.483   0.097   9.090 -0.2197  2.0526  0.4951
 7826SOL    HW235115   4.438   0.047   8.961  1.7394 -2.5741  1.6180
 7827SOL     OW35116   1.589   0.902   6.278 -0.4373 -0.4637  0.2038
 7827SOL    HW135117   1.677   0.915   6.312 -0.9597  2.0531  0.6107
 7827SOL    HW235118   1.586   0.968   6.209  2.3709  2.6210  3.0142
 7828SOL     OW35119   1.427   1.959   4.613 -0.0107  0.4357 -0.2020
 7828SOL    HW135120   1.449   1.886   4.555 -1.4552  0.6007 -0.9570
 7828SOL    HW235121   1.378   1.915   4.683  1.0131  0.0290  0.2539
 7829SOL     OW35122   4.559   0.627  14.909  0.2874  0.3896  0.1912
 7829SOL    HW135123   4.484   0.651  14.964  0.0919 -0.7733  0.4253
 7829SOL    HW235124   4.528   0.545  14.870  0.1865  0.7090 -0.3963
 7830SOL     OW35125   4.139   1.843  10.760  0.4275  0.4652  0.3786
 7830SOL    HW135126   4.044   1.854  10.761  0.3630 -0.0808  0.3591
 7830SOL    HW235127   4.157   1.796  10.841  1.7104  0.6244  0.1837
 7831SOL     OW35128   0.478   1.669  12.466 -0.4989 -0.1432  0.3665
 7831SOL    HW135129   0.414   1.608  12.502 -0.9668 -0.5666 -1.1718
 7831SOL    HW235130   0.559   1.640  12.509 -0.6309  0.6954  1.1584
 7832SOL     OW35131   1.924   1.626  14.097  0.0662 -0.6283  0.2080
 7832SOL    HW135132   1.836   1.588  14.093  0.6062 -1.6653 -1.5077
 7832SOL    HW235133   1.897   1.716  14.117  0.4498 -0.6533  0.8250
 7833SOL     OW35134   0.485   1.460  10.656 -0.1129  0.0591  0.0609
 7833SOL    HW135135   0.426   1.403  10.607  0.6932  1.2367 -2.2590
 7833SOL    HW235136   0.428   1.498  10.723 -1.6865  0.2052 -1.3656
 7834SOL     OW35137   0.634   4.681   7.327 -0.3717  0.2381 -0.2502
 7834SOL    HW135138   0.553   4.636   7.303 -1.8661  2.2868  1.0316
 7834SOL    HW235139   0.645   4.639   7.413 -1.6661  1.2676  0.4175
 7835SOL     OW35140   1.355   4.149   1.348  0.0279 -0.0166 -0.1612
 7835SOL    HW135141   1.300   4.228   1.353 -0.5080 -0.4010  0.0343
 7835SOL    HW235142   1.338   4.129   1.256 -0.1035  1.4913 -0.4652
 7836SOL     OW35143   2.430   1.920   9.854 -0.4357  0.2657 -0.3146
 7836SOL    HW135144   2.509   1.949   9.808  1.5046 -0.9940  2.1714
 7836SOL    HW235145   2.414   1.987   9.920 -1.2959  1.5969 -1.8736
 7837SOL     OW35146   1.878   4.185  10.896  0.2686  0.3348 -0.2524
 7837SOL    HW135147   1.857   4.265  10.847 -0.0177  0.5241  0.1703
 7837SOL    HW235148   1.970   4.177  10.872 -0.3075 -2.8740 -1.2718
 7838SOL     OW35149   1.820   1.172   3.840  0.3322 -0.5328  0.2468
 7838SOL    HW135150   1.741   1.167   3.894 -0.0359  1.7025 -0.0489
 7838SOL    HW235151   1.889   1.164   3.906  0.9755  1.2107 -0.1980
 7839SOL     OW35152   1.813   3.123   2.479 -0.1942 -0.1198 -0.3196
 7839SOL    HW135153   1.775   3.156   2.398 -2.5373  0.7974  1.1690
 7839SOL    HW235154   1.782   3.033   2.482 -1.0632  0.2424  1.4579
 7840SOL     OW35155   0.807   2.455   8.702  0.1565 -0.0817 -0.0832
 7840SOL    HW135156   0.874   2.478   8.766 -0.3630  0.2979  0.3265
 7840SOL    HW235157   0.852   2.486   8.623  1.1061  1.3979  1.0443
 7841SOL     OW35158   3.954   3.250   8.927 -0.0175 -0.3035  0.3939
 7841SOL    HW135159   4.000   3.331   8.948  2.7607 -1.5986 -0.7659
 7841SOL    HW235160   4.023   3.184   8.927  0.0579 -0.2259  0.0873
 7842SOL     OW35161   4.230   3.239   5.907 -0.1890  0.1984 -0.1489
 7842SOL    HW135162   4.177   3.237   5.828 -1.2107 -4.9344  0.7019
 7842SOL    HW235163   4.308   3.288   5.880  0.5595 -1.4703 -0.9879
 7843SOL     OW35164   3.771   3.785   6.279  0.2712  0.2543 -0.4891
 7843SOL    HW135165   3.777   3.697   6.242  1.5128  0.0497  0.1897
 7843SOL    HW235166   3.719   3.765   6.357  1.6458  0.8599  0.5812
 7844SOL     OW35167   2.552   0.775   2.574 -0.6735 -0.0009 -0.2505
 7844SOL    HW135168   2.643   0.757   2.550  0.3986  1.1718  2.9511
 7844SOL    HW235169   2.517   0.835   2.508 -0.4170  1.5681  1.0296
 7845SOL     OW35170   1.354   4.008  13.565  0.2640 -0.0845 -0.9586
 7845SOL    HW135171   1.441   4.026  13.530 -0.7210  1.3015 -2.6756
 7845SOL    HW235172   1.313   3.953  13.499 -1.4064 -1.1969  0.9776
 7846SOL     OW35173   1.566   2.230  15.546  0.4489  0.2189  0.2312
 7846SOL    HW135174   1.654   2.211  15.579 -0.6061 -1.6014  1.9756
 7846SOL    HW235175   1.580   2.319  15.514 -0.3675 -0.3270 -1.6815
 7847SOL     OW35176   0.132   1.800   6.207 -0.4105 -0.0826 -0.0492
 7847SOL    HW135177   0.106   1.885   6.172  0.5067  0.0212 -0.4727
 7847SOL    HW235178   0.184   1.818   6.285 -1.4293 -1.7655  1.0207
 7848SOL     OW35179   1.851   4.256   3.038 -0.5458 -0.2545 -0.5023
 7848SOL    HW135180   1.847   4.165   3.007 -1.5935 -0.4068  0.1025
 7848SOL    HW235181   1.834   4.312   2.962  0.6779 -0.0314 -0.6186
 7849SOL     OW35182   4.384   2.263   5.449 -0.2733  0.6011  0.0759
 7849SOL    HW135183   4.443   2.321   5.496  1.6133 -0.8908 -0.4801
 7849SOL    HW235184   4.409   2.281   5.359 -1.6063  0.2082 -0.3815
 7850SOL     OW35185   3.835   3.501   2.731  0.0358 -0.2655  0.4513
 7850SOL    HW135186   3.904   3.543   2.782 -1.4753  1.4473  1.0664
 7850SOL    HW235187   3.873   3.500   2.643  1.5697 -0.7562  1.1238
 7851SOL     OW35188   3.093   1.761   6.881  0.3656  0.2972 -0.0174
 7851SOL    HW135189   3.003   1.763   6.913  0.2497 -0.8244 -0.2654
 7851SOL    HW235190   3.098   1.828   6.812 -2.6476  0.6570  0.1401
 7852SOL     OW35191   1.437   3.546   5.349 -0.1464 -0.2834 -0.0686
 7852SOL    HW135192   1.351   3.536   5.390  1.4032 -1.0088  2.9381
 7852SOL    HW235193   1.429   3.629   5.302 -3.1914 -1.8654 -2.4175
 7853SOL     OW35194   3.682   4.200   4.664  0.1520 -0.1015  0.0110
 7853SOL    HW135195   3.711   4.183   4.754 -1.5908 -1.7855  0.2612
 7853SOL    HW235196   3.756   4.189   4.605 -1.2137  1.8034 -2.0549
 7854SOL     OW35197   3.662   0.001   4.137  0.6264  0.8788  0.0485
 7854SOL    HW135198   3.726   4.710   4.070 -0.5238  1.1235 -1.1593
 7854SOL    HW235199   3.713   0.077   4.163  3.0898 -0.9138  0.4716
 7855SOL     OW35200   3.355   1.128   9.253  0.3703  0.4862  0.5055
 7855SOL    HW135201   3.329   1.043   9.218  0.9633  0.4487  0.1573
 7855SOL    HW235202   3.270   1.168   9.270  0.2160  1.1103 -1.8026
 7856SOL     OW35203   1.479   0.238  10.746 -0.3259 -0.5573 -0.2257
 7856SOL    HW135204   1.487   0.262  10.838 -0.5756  2.0208 -0.8819
 7856SOL    HW235205   1.432   0.156  10.758 -2.5914  0.5349 -1.6960
 7857SOL     OW35206   3.831   2.938   3.850  0.3420  0.2949  0.2667
 7857SOL    HW135207   3.901   2.955   3.912  1.1461 -1.4878 -0.1571
 7857SOL    HW235208   3.803   2.851   3.879  1.0765 -0.3413 -0.9518
 7858SOL     OW35209   3.801   4.359   3.039 -0.3550 -0.4111 -0.2103
 7858SOL    HW135210   3.752   4.323   2.965 -0.5318 -0.4131 -0.0933
 7858SOL    HW235211   3.892   4.357   3.011  0.0268  1.0256  0.8712
 7859SOL     OW35212   2.381   0.040   1.306 -0.0223 -0.4802 -0.3971
 7859SOL    HW135213   2.428   0.060   1.225  1.3695  0.1629  0.5699
 7859SOL    HW235214   2.364   4.682   1.292  1.4399 -0.5463 -1.7032
 7860SOL     OW35215   1.537   2.398   0.002  0.3646  0.0450 -0.5893
 7860SOL    HW135216   1.478   2.460   0.045  2.9374  1.8406  0.3603
 7860SOL    HW235217   1.589   2.374   0.079  2.7267  1.6816 -1.6737
 7861SOL     OW35218   1.165   0.890   6.405  0.1322  0.0498  0.6582
 7861SOL    HW135219   1.126   0.890   6.317  0.6654  0.1580  0.4194
 7861SOL    HW235220   1.152   0.801   6.437 -1.1195  0.0364  0.0994
 7862SOL     OW35221   4.620   1.451   8.812 -0.0009  0.4468 -0.2909
 7862SOL    HW135222   4.707   1.416   8.830 -0.8465 -1.0186  0.9720
 7862SOL    HW235223   4.572   1.385   8.762  0.0154  1.1921 -1.2939
 7863SOL     OW35224   1.353   4.241   8.703  0.3584  0.6426 -0.8977
 7863SOL    HW135225   1.295   4.312   8.678 -1.3330 -0.0616  0.9769
 7863SOL    HW235226   1.410   4.235   8.626 -0.2890 -1.4421 -1.2278
 7864SOL     OW35227   1.464   1.695   5.592  0.2014  0.2422  0.0009
 7864SOL    HW135228   1.389   1.635   5.584  2.0347 -2.2243  1.4723
 7864SOL    HW235229   1.539   1.641   5.569  0.3466  1.1956 -1.7502
 7865SOL     OW35230   3.267   0.503   1.158  0.2726  0.0262 -0.6165
 7865SOL    HW135231   3.203   0.535   1.094 -0.3934 -1.7447 -0.8247
 7865SOL    HW235232   3.304   0.427   1.113  1.2876 -0.3870  0.9403
 7866SOL     OW35233   1.480   2.154  17.259  0.0321  0.7891  0.6495
 7866SOL    HW135234   1.465   2.205  17.180  2.3571  1.0904  0.4012
 7866SOL    HW235235   1.450   2.223  17.319  0.8157  1.7466 -0.0634
 7867SOL     OW35236   0.628   4.313   7.593  0.1159  0.4149  0.2718
 7867SOL    HW135237   0.675   4.249   7.539 -0.3353 -0.0367  0.4235
 7867SOL    HW235238   0.629   4.277   7.681 -0.2108 -0.3048 -0.0212
 7868SOL     OW35239   4.332   2.272   8.913 -0.0673 -0.3344  0.1835
 7868SOL    HW135240   4.343   2.217   8.990 -1.8862 -0.7300  0.1564
 7868SOL    HW235241   4.405   2.247   8.856  1.0565  0.0411  1.4631
 7869SOL     OW35242   0.928   1.189   8.442 -0.4454  0.0164  0.0413
 7869SOL    HW135243   0.984   1.178   8.364 -0.2060  0.3592  0.1665
 7869SOL    HW235244   0.902   1.278   8.420  1.8840  0.8520  0.5836
 7870SOL     OW35245   2.878   1.228   7.847  0.3069  0.4048  0.1139
 7870SOL    HW135246   2.855   1.141   7.814 -0.4358 -0.1208  2.0477
 7870SOL    HW235247   2.812   1.238   7.915  0.9423 -0.7660  0.8960
 7871SOL     OW35248   4.521   2.491   4.460  0.1252 -0.2331 -0.8010
 7871SOL    HW135249   4.437   2.530   4.485 -0.8652 -1.3193 -2.3668
 7871SOL    HW235250   4.517   2.401   4.491  0.9720 -1.1293 -3.3087
 7872SOL     OW35251   1.555   0.923  17.580 -0.3862 -0.3662 -0.0438
 7872SOL    HW135252   1.611   0.847  17.562 -0.0072 -0.0483 -0.2104
 7872SOL    HW235253   1.602   0.992  17.533 -0.0156  0.0978  0.9867
 7873SOL     OW35254   1.055   2.570   5.121 -0.0936 -0.0081  0.3662
 7873SOL    HW135255   1.077   2.533   5.036  0.6521  0.5834  0.3075
 7873SOL    HW235256   0.965   2.598   5.102  0.8908  2.8729 -0.1004
 7874SOL     OW35257   0.840   3.149  15.195  0.4367  0.0546 -0.2338
 7874SOL    HW135258   0.892   3.230  15.191  0.9296 -0.3899 -2.6237
 7874SOL    HW235259   0.913   3.093  15.169 -2.0719 -1.8568 -3.1308
 7875SOL     OW35260   0.308   0.926   8.912  0.2831 -0.2379  0.4879
 7875SOL    HW135261   0.358   0.845   8.900 -0.4878 -0.6253 -0.1191
 7875SOL    HW235262   0.349   0.946   8.995 -0.5456 -1.2477  1.1452
 7876SOL     OW35263   2.335   4.163   5.623 -0.5677  0.0211 -0.7462
 7876SOL    HW135264   2.290   4.090   5.666  2.0749 -1.7362 -0.9040
 7876SOL    HW235265   2.427   4.141   5.642 -0.8710 -0.4012  0.2757
 7877SOL     OW35266   1.948   1.400   7.219 -0.5726  0.0490 -0.5909
 7877SOL    HW135267   2.040   1.424   7.212 -0.6009  0.4493  0.3769
 7877SOL    HW235268   1.916   1.446   7.142  0.7078  1.3858 -0.3414
 7878SOL     OW35269   2.052   1.769   5.744  0.4751 -0.0226 -0.1269
 7878SOL    HW135270   2.076   1.861   5.750  0.0261  0.0426  0.6378
 7878SOL    HW235271   2.111   1.745   5.672 -0.5527 -2.4064 -0.1844
 7879SOL     OW35272   3.415   0.184   8.785  0.5243 -0.2942 -0.0290
 7879SOL    HW135273   3.328   0.175   8.824  1.0305  0.3744  1.2639
 7879SOL    HW235274   3.398   0.265   8.737  2.7892  0.2227  0.0210
 7880SOL     OW35275   1.068   1.104   2.139 -0.7936  0.0743 -0.6672
 7880SOL    HW135276   1.143   1.071   2.089  2.1655  2.6617  2.0796
 7880SOL    HW235277   1.107   1.174   2.192  0.9832 -1.5141  0.1169
 7881SOL     OW35278   1.122   1.395   0.996  0.6139  0.7259  0.3313
 7881SOL    HW135279   1.178   1.469   0.972 -0.9723  0.9373 -2.8026
 7881SOL    HW235280   1.075   1.439   1.067  1.3934  3.0419 -0.5688
 7882SOL     OW35281   1.950   1.382   3.060 -0.0463 -0.5537 -0.2707
 7882SOL    HW135282   1.971   1.469   3.094  0.1985 -0.4236 -0.7442
 7882SOL    HW235283   1.968   1.325   3.134  0.6407 -0.1629 -0.1353
 7883SOL     OW35284   3.762   2.559   8.734  0.5312 -0.1363 -0.1999
 7883SOL    HW135285   3.845   2.599   8.762 -0.1959  0.7843  0.6384
 7883SOL    HW235286   3.730   2.550   8.824  0.2760 -0.9679 -0.3753
 7884SOL     OW35287   0.971   2.028  14.624  0.2055 -0.2285  0.0859
 7884SOL    HW135288   0.911   1.964  14.662  0.5833  0.6180  2.0836
 7884SOL    HW235289   1.032   2.034  14.697  1.2809 -1.6045 -0.6926
 7885SOL     OW35290   2.714   1.738   2.244  0.4178 -0.0406  0.2049
 7885SOL    HW135291   2.634   1.685   2.253  0.2801  0.1633  0.1683
 7885SOL    HW235292   2.678   1.816   2.202 -1.5990 -0.6143  0.8352
 7886SOL     OW35293   0.393   2.930   6.804  0.0836 -0.3170 -0.1201
 7886SOL    HW135294   0.389   2.848   6.853 -2.1957 -0.3238 -0.3144
 7886SOL    HW235295   0.487   2.950   6.810  0.7583 -3.9105  1.4238
 7887SOL     OW35296   3.047   2.603   4.842 -0.9218 -0.3076  0.0143
 7887SOL    HW135297   2.980   2.634   4.902  0.3295  1.5412  0.4515
 7887SOL    HW235298   2.994   2.539   4.795 -1.1526  0.0673 -0.2344
 7888SOL     OW35299   0.010   0.585   7.335 -0.0861 -0.6278  0.2277
 7888SOL    HW135300   0.048   0.572   7.422 -0.4075  0.5243  0.5369
 7888SOL    HW235301   0.089   0.612   7.290 -1.8840  3.0973 -0.6666
 7889SOL     OW35302   2.811   4.259   7.526  0.5494  0.1197 -0.2143
 7889SOL    HW135303   2.865   4.226   7.597 -0.2738 -1.0679 -0.1469
 7889SOL    HW235304   2.728   4.284   7.569  0.7796 -2.4916  1.7020
 7890SOL     OW35305   2.177   1.511   3.200 -0.2104 -0.5692 -0.0252
 7890SOL    HW135306   2.215   1.493   3.286  1.6632 -0.4286 -0.8211
 7890SOL    HW235307   2.145   1.600   3.215 -1.7062 -1.0218 -0.5775
 7891SOL     OW35308   1.120   0.724  12.107  0.9401  0.4014 -0.2378
 7891SOL    HW135309   1.200   0.680  12.136  0.3292  0.7439  1.9984
 7891SOL    HW235310   1.089   0.666  12.038 -0.9930  1.3971 -0.2045
 7892SOL     OW35311   0.897   4.624   5.852 -0.6704 -0.1023  0.4868
 7892SOL    HW135312   0.929   4.562   5.918 -2.0006 -2.2750 -0.9086
 7892SOL    HW235313   0.957   4.613   5.778 -1.6721  0.0979 -0.3546
 7893SOL     OW35314   1.166   1.088  12.149 -0.4741 -0.3576  0.2828
 7893SOL    HW135315   1.235   1.148  12.122 -1.0287 -0.5919 -1.6772
 7893SOL    HW235316   1.090   1.132  12.109 -0.7612 -0.1241  1.0816
 7894SOL     OW35317   3.802   1.664   8.803 -0.0216 -0.6628 -0.7477
 7894SOL    HW135318   3.753   1.714   8.868 -0.1634 -2.5170  0.5758
 7894SOL    HW235319   3.826   1.590   8.859  0.9200  1.1510  1.2588
 7895SOL     OW35320   1.166   3.287  12.441  0.3156  0.5133  0.2042
 7895SOL    HW135321   1.160   3.372  12.485  0.6526 -0.0779  1.3859
 7895SOL    HW235322   1.174   3.223  12.513  2.1622  0.4726 -0.0513
 7896SOL     OW35323   2.702   1.013   3.678  0.6813  0.1269 -0.0362
 7896SOL    HW135324   2.675   0.987   3.766  1.7972 -0.5091  0.1226
 7896SOL    HW235325   2.796   0.994   3.674  0.4436 -1.4319  1.9861
 7897SOL     OW35326   2.421   0.365   3.808  0.2303 -0.0221 -0.6053
 7897SOL    HW135327   2.360   0.336   3.877  0.2316  1.3977 -0.0263
 7897SOL    HW235328   2.452   0.448   3.843  0.9443 -0.9232  0.8872
 7898SOL     OW35329   3.841   0.067   2.119  0.1209  0.3605 -0.0994
 7898SOL    HW135330   3.880   4.719   2.096  0.7265  0.6988 -0.3110
 7898SOL    HW235331   3.875   0.081   2.208 -0.4187  3.0265 -0.3078
 7899SOL     OW35332   0.404   1.540   6.185 -0.3355 -0.0543  0.1069
 7899SOL    HW135333   0.375   1.541   6.276  0.8595  1.8660  0.4631
 7899SOL    HW235334   0.411   1.636   6.184  0.5990 -0.1256  1.3405
 7900SOL     OW35335   4.610   2.146   3.130  0.1223  0.3284 -0.1024
 7900SOL    HW135336   4.686   2.205   3.131 -0.2965  0.8657 -0.3725
 7900SOL    HW235337   4.618   2.096   3.212 -0.5608 -0.6788 -0.6579
 7901SOL     OW35338   1.175   4.169   4.887  0.0432  0.1382  0.0477
 7901SOL    HW135339   1.163   4.246   4.831 -2.7847  0.5629  1.2447
 7901SOL    HW235340   1.196   4.202   4.974 -0.1674  0.7632 -0.1402
 7902SOL     OW35341   2.559   2.141   4.001 -0.0226  0.5623  0.4032
 7902SOL    HW135342   2.512   2.171   4.080  2.3514  0.7971  1.7262
 7902SOL    HW235343   2.490   2.098   3.950 -0.1698 -1.8525  2.6344
 7903SOL     OW35344   4.207   2.048   7.282  0.7498  0.4092  0.8691
 7903SOL    HW135345   4.188   2.131   7.326 -0.9582  0.7799 -0.5843
 7903SOL    HW235346   4.115   2.031   7.258  1.2157  1.9397 -1.9289
 7904SOL     OW35347   1.117   0.857   1.046 -0.2328 -0.1988  0.1184
 7904SOL    HW135348   1.148   0.773   1.080  1.5021  0.6483  0.6104
 7904SOL    HW235349   1.172   0.888   0.975 -0.7901 -1.9385 -1.0655
 7905SOL     OW35350   2.631   3.417   2.746 -0.1909  0.2454  0.0025
 7905SOL    HW135351   2.545   3.426   2.706 -0.6602  0.7096  1.1160
 7905SOL    HW235352   2.691   3.421   2.671  0.3436  2.9826  0.5696
 7906SOL     OW35353   3.877   2.480   2.731  0.3847  0.1397  0.2410
 7906SOL    HW135354   3.791   2.464   2.692  0.4342  1.4429 -0.3846
 7906SOL    HW235355   3.867   2.418   2.804 -0.1918  0.2522  0.2580
 7907SOL     OW35356   1.396   1.244   0.384  0.2746  0.3420 -0.4454
 7907SOL    HW135357   1.392   1.153   0.412  1.0806  0.3305 -0.3610
 7907SOL    HW235358   1.305   1.262   0.405 -0.0239 -0.5781 -0.9722
 7908SOL     OW35359   3.501   2.766   5.565 -0.1580 -0.6453  0.1377
 7908SOL    HW135360   3.550   2.685   5.572  0.7576  0.0571  1.6682
 7908SOL    HW235361   3.505   2.799   5.654  1.9603 -1.7538  0.4232
 7909SOL     OW35362   0.413   4.210   9.253  0.2128 -0.6210 -0.4527
 7909SOL    HW135363   0.468   4.169   9.320  1.5328  0.8604 -0.6204
 7909SOL    HW235364   0.414   4.300   9.286 -4.2091 -0.7854  0.2270
 7910SOL     OW35365   4.434   4.686  13.856 -0.0896  0.0436 -0.2243
 7910SOL    HW135366   4.353   4.657  13.898  1.6227 -2.4008  1.3540
 7910SOL    HW235367   4.480   4.723  13.932 -0.3868  1.4395 -0.7168
 7911SOL     OW35368   3.328   0.222   3.452 -0.4387 -0.2383 -0.4459
 7911SOL    HW135369   3.246   0.213   3.501  0.1669 -0.2940  0.5446
 7911SOL    HW235370   3.358   0.131   3.455 -0.1156 -0.0053  3.4496
 7912SOL     OW35371   1.233   3.793   8.546  0.5468  0.4097 -0.2301
 7912SOL    HW135372   1.138   3.797   8.537 -0.0935 -0.5969  5.7353
 7912SOL    HW235373   1.235   3.881   8.583 -0.3397  0.6488 -0.7406
 7913SOL     OW35374   0.642   4.630   1.193  0.1103 -0.3325 -0.2664
 7913SOL    HW135375   0.639   4.700   1.129 -0.4994 -0.9860 -0.9622
 7913SOL    HW235376   0.694   4.670   1.262  2.6398 -2.3473 -1.0338
 7914SOL     OW35377   0.600   1.216  17.482  0.0952  0.0411  0.7213
 7914SOL    HW135378   0.660   1.219  17.556  0.5730 -1.8532  0.4252
 7914SOL    HW235379   0.514   1.218  17.525 -0.0381  0.0551  0.4560
 7915SOL     OW35380   2.092   3.522   8.397 -0.1207 -0.2117  0.0177
 7915SOL    HW135381   2.102   3.617   8.397 -1.0081 -0.1011  1.5724
 7915SOL    HW235382   2.161   3.504   8.333 -0.2242 -1.5550  0.2727
 7916SOL     OW35383   4.347   1.779   8.363 -0.0402  0.3137 -0.0035
 7916SOL    HW135384   4.294   1.837   8.417  0.9489  1.7113 -0.5255
 7916SOL    HW235385   4.398   1.842   8.312  0.2790  2.2021  2.7121
 7917SOL     OW35386   0.685   1.291   5.738 -0.2262 -0.1565 -0.2310
 7917SOL    HW135387   0.657   1.370   5.784  0.0550  0.0355 -0.3902
 7917SOL    HW235388   0.726   1.243   5.810  0.1793  0.2376 -0.1978
 7918SOL     OW35389   3.534   0.673   7.473  1.0112 -0.2735  0.0333
 7918SOL    HW135390   3.623   0.706   7.480 -0.0688  2.7365 -0.6753
 7918SOL    HW235391   3.554   0.608   7.406  0.4023  1.6233 -1.9675
 7919SOL     OW35392   0.416   3.191   1.337  0.1205  0.1325 -0.6129
 7919SOL    HW135393   0.420   3.286   1.323  0.9204  0.4525  1.7908
 7919SOL    HW235394   0.399   3.181   1.431  0.0748 -1.7744 -0.8187
 7920SOL     OW35395   3.259   3.441   8.281 -0.5860  0.0854 -0.0676
 7920SOL    HW135396   3.315   3.514   8.307 -1.0582  1.1471 -1.9818
 7920SOL    HW235397   3.321   3.369   8.286  1.0267  1.5249  0.4092
 7921SOL     OW35398   0.157   3.921   1.785  0.1757 -0.1846  0.2541
 7921SOL    HW135399   0.154   3.907   1.691 -0.0164  2.7244 -0.1848
 7921SOL    HW235400   0.172   3.833   1.821  1.8049 -1.0378 -2.5216
 7922SOL     OW35401   3.694   1.297  13.122 -0.3178 -0.2500  0.5046
 7922SOL    HW135402   3.780   1.258  13.137 -0.0053 -0.4193 -1.7479
 7922SOL    HW235403   3.655   1.231  13.065 -2.0717  1.1111  0.1509
 7923SOL     OW35404   3.621   0.136  10.109  0.3253  0.3896 -0.0067
 7923SOL    HW135405   3.613   0.177  10.023 -2.1182 -3.1835 -1.4858
 7923SOL    HW235406   3.558   0.189  10.158  0.7039 -0.8464  1.8641
 7924SOL     OW35407   2.342   1.851  15.144  0.4544  0.7154  0.4890
 7924SOL    HW135408   2.408   1.791  15.180 -1.0773 -1.1794  0.1165
 7924SOL    HW235409   2.264   1.797  15.153 -0.0470  1.2456 -0.6127
 7925SOL     OW35410   0.978   2.464  13.710  0.4392  0.6453 -1.0152
 7925SOL    HW135411   0.972   2.452  13.615 -0.9101 -0.5688 -0.7672
 7925SOL    HW235412   1.043   2.397  13.732 -1.7530 -1.0571  0.2797
 7926SOL     OW35413   0.003   4.043  13.826 -0.4580  0.1121 -0.0363
 7926SOL    HW135414   0.074   4.102  13.801 -2.4609  3.3784  1.9396
 7926SOL    HW235415   0.059   3.972  13.857 -0.1725  1.2448  1.9978
 7927SOL     OW35416   4.520   4.308   9.393  0.1343  0.5248  0.3473
 7927SOL    HW135417   4.484   4.245   9.331  2.8197  0.2571 -0.9395
 7927SOL    HW235418   4.580   4.258   9.448  2.7294  0.3380 -2.6462
 7928SOL     OW35419   4.292   0.276   7.050  0.2856 -0.2520 -0.4975
 7928SOL    HW135420   4.297   0.191   7.006  0.3503 -0.1736 -0.6426
 7928SOL    HW235421   4.286   0.239   7.138 -0.7258  1.8861  0.3118
 7929SOL     OW35422   2.166   2.981   8.235 -0.1642 -0.4490 -0.5853
 7929SOL    HW135423   2.234   3.031   8.279  0.0672 -0.3136 -1.0944
 7929SOL    HW235424   2.197   2.994   8.145  1.4232 -1.0653 -0.1284
 7930SOL     OW35425   4.312   3.570   9.113  0.2802  0.0721  0.0724
 7930SOL    HW135426   4.277   3.616   9.037 -2.2031 -0.7416  0.7290
 7930SOL    HW235427   4.302   3.477   9.093  0.3231  0.0346  0.2258
 7931SOL     OW35428   2.574   3.129   7.270  0.3690 -0.8009  0.3793
 7931SOL    HW135429   2.635   3.183   7.321  1.7984 -2.7694  0.7487
 7931SOL    HW235430   2.616   3.043   7.268 -2.2116 -2.0242 -1.0262
 7932SOL     OW35431   4.243   2.222   3.471  0.0182 -0.0373 -0.2773
 7932SOL    HW135432   4.201   2.154   3.524 -1.0205  1.3032  0.6148
 7932SOL    HW235433   4.300   2.170   3.415  1.1174  0.2648  0.5672
 7933SOL     OW35434   0.001   3.177   4.720 -0.4096 -0.2789 -0.1684
 7933SOL    HW135435   0.067   3.183   4.650  1.4976  1.7204  1.7844
 7933SOL    HW235436   4.669   3.240   4.694 -0.2868  1.1737  3.0178
 7934SOL     OW35437   3.717   3.546  15.126  0.5768  0.0139  0.1200
 7934SOL    HW135438   3.801   3.592  15.114 -0.9188  2.7840  0.3147
 7934SOL    HW235439   3.709   3.497  15.043  2.3139  0.4580 -0.3230
 7935SOL     OW35440   1.969   1.164   5.073 -0.3704 -0.9289  0.6414
 7935SOL    HW135441   2.034   1.094   5.082  2.1581  1.2666 -0.5551
 7935SOL    HW235442   2.020   1.234   5.114 -0.1030 -0.9692  0.3819
 7936SOL     OW35443   4.503   2.547   6.418 -0.0417 -0.1176  0.5315
 7936SOL    HW135444   4.536   2.636   6.407 -0.9302  0.3115  1.3066
 7936SOL    HW235445   4.536   2.497   6.343 -1.2158 -0.6238  0.3433
 7937SOL     OW35446   3.364   0.351   1.526 -0.2315 -0.5108 -0.3842
 7937SOL    HW135447   3.418   0.398   1.590  2.8411 -3.7167 -0.6053
 7937SOL    HW235448   3.422   0.297   1.472 -0.4900 -0.5262 -0.6429
 7938SOL     OW35449   3.928   3.472   8.278  0.5562 -0.0870 -0.0526
 7938SOL    HW135450   3.863   3.478   8.348 -0.0265 -1.0877 -0.5053
 7938SOL    HW235451   3.867   3.464   8.204  0.3094  3.0377 -0.1623
 7939SOL     OW35452   3.390   0.979   0.695  0.3643  0.5585 -0.0501
 7939SOL    HW135453   3.408   1.053   0.637  1.6427  0.5779  0.3688
 7939SOL    HW235454   3.451   0.911   0.667 -0.4586 -0.0928 -0.2503
 7940SOL     OW35455   3.306   0.357   9.143 -0.2600 -0.0665 -0.2628
 7940SOL    HW135456   3.395   0.348   9.176  0.1601 -1.7812 -1.8612
 7940SOL    HW235457   3.265   0.351   9.229  1.3403  2.1557  0.6343
 7941SOL     OW35458   2.028   0.321   5.494  0.1744  0.3895 -0.0334
 7941SOL    HW135459   2.054   0.231   5.475 -2.0884 -0.2765  0.1004
 7941SOL    HW235460   1.939   0.309   5.526  0.9198  1.6948  2.5480
 7942SOL     OW35461   3.459   3.073  11.683  0.3838 -0.1887  0.0930
 7942SOL    HW135462   3.417   3.076  11.597 -0.3183 -1.2590  0.3900
 7942SOL    HW235463   3.417   2.995  11.719 -2.0439 -0.2804 -2.9216
 7943SOL     OW35464   4.580   3.870   4.763  0.1889  0.0983  0.2874
 7943SOL    HW135465   4.500   3.897   4.807  1.2020 -0.2722  2.3536
 7943SOL    HW235466   4.634   3.836   4.834 -1.1415 -0.6200  0.9571
 7944SOL     OW35467   3.438   1.680   4.661  0.3382  0.2489  0.0380
 7944SOL    HW135468   3.449   1.609   4.725  0.6004  1.1467  1.0019
 7944SOL    HW235469   3.367   1.644   4.609 -0.8433 -0.0065  1.8125
 7945SOL     OW35470   2.048   2.028  11.717 -0.1510 -0.1720  0.5861
 7945SOL    HW135471   2.124   1.974  11.696 -1.8435 -1.6922 -1.5290
 7945SOL    HW235472   1.981   1.999  11.656 -0.9770 -0.5258  1.6481
 7946SOL     OW35473   2.128   1.932   6.730  0.4688 -0.4322  0.0498
 7946SOL    HW135474   2.080   2.010   6.760  1.1805 -0.3961  1.0915
 7946SOL    HW235475   2.106   1.942   6.638 -0.4029  0.0013  0.3079
 7947SOL     OW35476   3.678   3.680   8.374  0.3186 -0.3197 -0.2549
 7947SOL    HW135477   3.694   3.590   8.404 -0.6315  0.2916  2.1659
 7947SOL    HW235478   3.610   3.662   8.309 -1.1773 -1.6709  1.6505
 7948SOL     OW35479   4.724   3.157  14.577 -0.1206  0.5588  0.3085
 7948SOL    HW135480   4.732   3.062  14.566 -0.8204  0.4584  0.6646
 7948SOL    HW235481   4.673   3.168  14.657  0.0987 -0.6555  0.6213
 7949SOL     OW35482   0.838   4.043  12.009 -0.4325 -0.1147  0.2735
 7949SOL    HW135483   0.813   3.955  12.037  0.2984  0.0100  1.3158
 7949SOL    HW235484   0.932   4.025  12.010 -0.2958  0.6325  0.8806
 7950SOL     OW35485   0.359   4.730   8.426  0.4543 -0.2581 -0.7184
 7950SOL    HW135486   0.304   0.010   8.503  0.3077 -0.2544 -0.8243
 7950SOL    HW235487   0.370   0.086   8.402  1.5936 -0.2329 -0.1342
 7951SOL     OW35488   0.320   3.410   8.648  0.1079  0.1849  0.0122
 7951SOL    HW135489   0.346   3.482   8.705  0.3937 -1.9774  2.5970
 7951SOL    HW235490   0.235   3.449   8.628 -0.3300 -0.6608  0.2594
 7952SOL     OW35491   4.045   1.633   3.413  0.0728 -0.0973 -0.3983
 7952SOL    HW135492   4.003   1.683   3.343 -0.3653 -1.0826 -0.8339
 7952SOL    HW235493   3.991   1.557   3.432  0.2748 -0.1866 -0.1796
 7953SOL     OW35494   1.272   1.358   6.612 -0.0346 -0.1120 -0.2313
 7953SOL    HW135495   1.345   1.416   6.589 -2.8401  2.6524 -2.1868
 7953SOL    HW235496   1.263   1.309   6.531 -2.9293  0.7803 -0.4523
 7954SOL     OW35497   2.252   0.250  11.052 -0.0394 -0.1546 -0.2089
 7954SOL    HW135498   2.306   0.304  10.995  0.2122  0.2235  0.3900
 7954SOL    HW235499   2.314   0.193  11.098 -1.4118 -1.4334  0.0802
 7955SOL     OW35500   3.850   4.124   7.975 -0.5574 -0.3318  0.1060
 7955SOL    HW135501   3.881   4.214   7.967  2.0320 -1.2650 -0.3974
 7955SOL    HW235502   3.853   4.101   7.882  0.6019 -2.9798  0.7895
 7956SOL     OW35503   2.341   2.044  16.876  0.3680 -0.1753  0.2784
 7956SOL    HW135504   2.322   2.064  16.967 -3.1041  0.3847 -0.5812
 7956SOL    HW235505   2.317   1.954  16.857  1.5133 -0.0109 -1.9764
 7957SOL     OW35506   1.831   1.129   8.347 -0.3935 -0.1917  0.1499
 7957SOL    HW135507   1.745   1.098   8.317  0.4338 -2.2221 -0.1397
 7957SOL    HW235508   1.883   1.051   8.365  0.2402  0.2505  0.2246
 7958SOL     OW35509   0.067   0.035  16.862 -0.0626 -0.5551  0.7436
 7958SOL    HW135510   0.119   0.059  16.939 -1.2299 -1.6514  1.8844
 7958SOL    HW235511   4.719   0.068  16.896  1.3694  1.0806  2.6222
 7959SOL     OW35512   1.579   0.624  10.102 -0.3851  0.4908  0.3761
 7959SOL    HW135513   1.493   0.646  10.138 -1.9283 -1.2062 -2.2379
 7959SOL    HW235514   1.556   0.563  10.032  2.6574  0.5539 -0.6995
 7960SOL     OW35515   3.584   0.883   5.157 -0.3119 -0.2286  0.0642
 7960SOL    HW135516   3.630   0.829   5.221  0.2021 -0.3899 -0.4398
 7960SOL    HW235517   3.609   0.971   5.185 -2.3701 -0.0155  1.2278
 7961SOL     OW35518   0.697   4.174   5.669 -0.3640 -0.4229  0.4370
 7961SOL    HW135519   0.671   4.098   5.619  0.0555  0.0778 -0.5405
 7961SOL    HW235520   0.618   4.226   5.684  1.3046  2.0958  0.5681
 7962SOL     OW35521   2.358   0.276   4.080  0.1269 -0.0133 -0.7567
 7962SOL    HW135522   2.366   0.246   4.170  3.2661  0.4330 -0.8714
 7962SOL    HW235523   2.418   0.212   4.041 -0.2896  0.2425 -1.8386
 7963SOL     OW35524   3.604   2.269   4.931  0.0487  0.1241  0.2921
 7963SOL    HW135525   3.680   2.288   4.985  0.7627  0.7125 -0.9266
 7963SOL    HW235526   3.646   2.215   4.864  2.7550  1.3038  1.0682
 7964SOL     OW35527   3.599   4.064  12.435  0.4308 -0.7045  0.3852
 7964SOL    HW135528   3.606   4.140  12.493  0.9607  1.2091 -2.2089
 7964SOL    HW235529   3.528   4.091  12.377  0.0669 -0.8429  0.7616
 7965SOL     OW35530   3.124   3.923   6.691 -0.3011 -0.3212  0.1956
 7965SOL    HW135531   3.112   4.005   6.739 -0.4754 -0.5230  0.4934
 7965SOL    HW235532   3.147   3.957   6.604  1.2857 -1.0638  0.3168
 7966SOL     OW35533   2.758   3.036   0.123 -0.2245 -0.0355 -0.6374
 7966SOL    HW135534   2.798   2.957   0.085  0.3278  0.6624 -1.5133
 7966SOL    HW235535   2.700   2.997   0.188  1.7520 -1.5718  0.1963
 7967SOL     OW35536   1.190   1.958   0.307  0.4687  0.1065 -0.1413
 7967SOL    HW135537   1.236   1.987   0.387  2.4044  0.0059 -1.2194
 7967SOL    HW235538   1.239   2.011   0.244  0.4799  0.9246  0.5539
 7968SOL     OW35539   4.463   2.032  13.417  0.1483 -1.0660  0.5347
 7968SOL    HW135540   4.427   2.033  13.506 -0.5401  0.1455  0.2350
 7968SOL    HW235541   4.528   1.963  13.431  1.5959 -0.1476 -1.9236
 7969SOL     OW35542   4.601   3.323   4.172 -0.1172 -0.1068  0.0709
 7969SOL    HW135543   4.629   3.347   4.260 -0.8611 -0.0219  0.2818
 7969SOL    HW235544   4.570   3.233   4.187 -0.6293 -0.0594 -0.7255
 7970SOL     OW35545   1.744   1.654   3.487 -0.0120 -0.2645 -0.3088
 7970SOL    HW135546   1.703   1.661   3.573 -0.1081  0.4345 -0.4081
 7970SOL    HW235547   1.831   1.623   3.510  0.1106 -0.1619 -0.6328
 7971SOL     OW35548   3.083   0.430  11.088 -0.0789 -0.3968  0.2969
 7971SOL    HW135549   3.026   0.379  11.144 -0.7774  0.1702  0.1033
 7971SOL    HW235550   3.020   0.471  11.028 -0.1519 -2.4261 -1.0027
 7972SOL     OW35551   2.026   0.260   9.815 -0.5034  0.1096  0.0023
 7972SOL    HW135552   2.099   0.217   9.858 -0.0834 -0.4090 -1.2483
 7972SOL    HW235553   2.057   0.351   9.815 -1.5158  0.4657  0.6122
 7973SOL     OW35554   2.007   0.490   7.001  0.1577  0.3589 -0.3116
 7973SOL    HW135555   1.930   0.547   7.004  0.3191  0.3622  3.9729
 7973SOL    HW235556   1.970   0.404   6.984 -0.6966  0.9771 -1.6243
 7974SOL     OW35557   3.682   3.546   7.261 -0.2828 -0.2585  0.3829
 7974SOL    HW135558   3.761   3.503   7.294 -1.1192 -2.0989 -0.0424
 7974SOL    HW235559   3.710   3.630   7.298  3.3389 -2.0393  1.6689
 7975SOL     OW35560   3.791   4.486   2.057 -0.0418 -0.0013 -0.0970
 7975SOL    HW135561   3.770   4.434   1.979 -0.7316 -0.9975  0.7512
 7975SOL    HW235562   3.864   4.533   2.018 -0.0865  0.8294  0.8398
 7976SOL     OW35563   1.630   4.246   4.439 -0.6753 -0.0041  0.2575
 7976SOL    HW135564   1.608   4.152   4.439 -1.7135  0.2514 -1.5854
 7976SOL    HW235565   1.567   4.273   4.373 -1.0309  0.0292  0.6087
 7977SOL     OW35566   4.257   1.485  10.279 -0.1466 -0.2275  0.3094
 7977SOL    HW135567   4.276   1.547  10.209 -1.1502  0.3665  0.5550
 7977SOL    HW235568   4.309   1.515  10.353  0.0832  1.8330 -0.7043
 7978SOL     OW35569   2.775   0.915  14.548 -0.7141  0.1028  0.7542
 7978SOL    HW135570   2.837   0.942  14.615  1.0042 -1.6097 -0.1260
 7978SOL    HW235571   2.800   0.978  14.480  0.0369  1.1269  1.9869
 7979SOL     OW35572   4.152   3.940   7.891  0.0156  0.5440 -0.0778
 7979SOL    HW135573   4.132   3.977   7.977  0.3572  0.9965 -0.1888
 7979SOL    HW235574   4.150   3.847   7.913 -0.2434  0.6172  0.2086
 7980SOL     OW35575   3.011   3.911   4.234  0.1737  0.2199 -0.1098
 7980SOL    HW135576   3.038   3.833   4.283 -1.4589 -1.0579 -1.2323
 7980SOL    HW235577   2.921   3.884   4.218  0.9905 -1.5475 -1.6926
 7981SOL     OW35578   2.363   4.087  10.798  0.1047  0.1990 -0.3106
 7981SOL    HW135579   2.317   4.044  10.870  0.0801 -0.8432 -0.9400
 7981SOL    HW235580   2.370   4.013  10.737 -1.5791 -0.8498  0.7536
 7982SOL     OW35581   2.629   0.728   2.018 -0.2651 -0.0381 -0.3963
 7982SOL    HW135582   2.670   0.813   2.001 -0.0127  0.4549  2.6706
 7982SOL    HW235583   2.704   0.671   2.002 -0.1399 -0.1978  0.7030
 7983SOL     OW35584   3.002   0.937   2.081  0.1096  0.8744  0.1097
 7983SOL    HW135585   2.944   1.010   2.058 -1.6550 -0.1546  1.2884
 7983SOL    HW235586   2.940   0.865   2.067  0.1838  0.5580  1.3909
 7984SOL     OW35587   2.623   1.079  16.054 -0.3654 -0.0700  0.0490
 7984SOL    HW135588   2.709   1.097  16.017  0.9248 -1.0832  2.6017
 7984SOL    HW235589   2.582   1.164  16.065 -0.0710 -0.0526  0.9363
 7985SOL     OW35590   2.184   1.988   5.631  0.0744 -0.6320 -0.8431
 7985SOL    HW135591   2.208   2.078   5.652  0.5441 -1.4460  2.1084
 7985SOL    HW235592   2.226   1.979   5.545  1.4798 -0.1277 -0.2191
 7986SOL     OW35593   0.564   0.881  16.343 -0.1483  0.2141  0.1103
 7986SOL    HW135594   0.579   0.961  16.293  2.1272 -0.9712 -1.1347
 7986SOL    HW235595   0.546   0.824  16.268  0.2725 -0.6712  0.6762
 7987SOL     OW35596   3.152   1.656  16.548 -0.4836 -0.0685  0.4689
 7987SOL    HW135597   3.229   1.690  16.503 -2.5036  2.6374 -0.9097
 7987SOL    HW235598   3.093   1.731  16.551  0.5724  0.7891 -0.5841
 7988SOL     OW35599   2.355   0.069   2.142 -0.5128 -0.3137 -0.2992
 7988SOL    HW135600   2.421   0.095   2.079  0.6284  1.1492  1.5220
 7988SOL    HW235601   2.350   4.710   2.124  0.1553 -0.1682 -1.2464
 7989SOL     OW35602   2.389   2.659   2.463 -0.6552  0.0632  0.2532
 7989SOL    HW135603   2.432   2.582   2.426  0.7402  1.3340 -0.8061
 7989SOL    HW235604   2.420   2.658   2.553  0.9852  1.0084 -0.2835
 7990SOL     OW35605   2.299   4.393   5.758 -0.0161 -0.1384  0.0126
 7990SOL    HW135606   2.224   4.348   5.798  0.4331  0.3769  1.4309
 7990SOL    HW235607   2.340   4.326   5.704  0.9974  1.7940 -1.5880
 7991SOL     OW35608   2.365   1.319   1.905 -0.1276 -0.2205 -0.2098
 7991SOL    HW135609   2.411   1.389   1.951  0.4625  0.0775 -1.2359
 7991SOL    HW235610   2.376   1.341   1.812 -2.7585  0.0016 -0.4737
 7992SOL     OW35611   2.248   3.283   3.699 -0.3338  0.2914 -0.1287
 7992SOL    HW135612   2.315   3.350   3.691 -0.4773  0.5919  1.2286
 7992SOL    HW235613   2.172   3.325   3.658 -1.3531 -0.5622  0.8868
 7993SOL     OW35614   2.785   3.099   5.307  0.0473 -0.7441 -1.0162
 7993SOL    HW135615   2.860   3.158   5.308 -0.5406 -0.0114 -0.2307
 7993SOL    HW235616   2.725   3.163   5.270  0.2387 -0.2201 -0.4141
 7994SOL     OW35617   2.212   1.290   2.161 -0.0628 -0.1442 -0.3544
 7994SOL    HW135618   2.253   1.294   2.075  1.6666  1.0875  0.4940
 7994SOL    HW235619   2.212   1.197   2.181 -0.7607  0.4228  2.3657
 7995SOL     OW35620   1.192   0.462   9.012 -0.3217 -0.1516  0.7092
 7995SOL    HW135621   1.193   0.431   9.102  0.2746  0.7736  1.0201
 7995SOL    HW235622   1.272   0.515   9.013  1.4230 -2.7334 -1.8967
 7996SOL     OW35623   3.779   1.493  12.175  0.2543 -0.3813  0.4739
 7996SOL    HW135624   3.871   1.467  12.176  1.3460  3.4171  0.3018
 7996SOL    HW235625   3.770   1.526  12.265 -1.1676 -2.1833  0.9716
 7997SOL     OW35626   2.518   1.180  15.759 -0.2734 -0.1449 -0.3647
 7997SOL    HW135627   2.594   1.193  15.815 -1.1428  2.7614  0.1507
 7997SOL    HW235628   2.561   1.138  15.685  0.7890 -0.5864  0.5116
 7998SOL     OW35629   2.391   4.043   9.366  0.4798 -0.2079  0.8216
 7998SOL    HW135630   2.354   3.959   9.339  1.3152 -0.5895  0.8631
 7998SOL    HW235631   2.327   4.107   9.337 -0.0856 -0.7937  0.7844
 7999SOL     OW35632   2.958   3.557   4.109 -0.6105 -0.0934 -0.0317
 7999SOL    HW135633   3.028   3.588   4.052 -0.8341 -2.0917 -1.3998
 7999SOL    HW235634   2.992   3.593   4.191 -0.4165 -1.3919  0.4523
 8000SOL     OW35635   4.150   2.624   5.364  0.2402 -0.1310  0.2586
 8000SOL    HW135636   4.075   2.670   5.326  0.7072 -1.7425 -2.6200
 8000SOL    HW235637   4.105   2.566   5.426  1.3682  2.1739  3.1725
 8001SOL     OW35638   2.005   0.247   9.340  0.0162  0.1009  0.2160
 8001SOL    HW135639   1.960   0.291   9.268  0.9518 -0.9157 -0.9867
 8001SOL    HW235640   1.953   0.248   9.421 -2.6788 -1.1122 -1.4755
 8002SOL     OW35641   3.585   2.403   4.370  0.1854 -0.1194  0.7290
 8002SOL    HW135642   3.507   2.450   4.398 -0.1638  0.7260 -1.6247
 8002SOL    HW235643   3.548   2.342   4.307  1.4029  0.4175 -0.5093
 8003SOL     OW35644   3.231   1.513   4.519  0.6140 -0.3677  0.0835
 8003SOL    HW135645   3.227   1.496   4.425  0.8070  2.6417 -0.4811
 8003SOL    HW235646   3.215   1.423   4.545 -0.6250  0.0400  0.7567
 8004SOL     OW35647   4.136   3.549   0.338 -0.2640 -0.0436 -0.0539
 8004SOL    HW135648   4.045   3.543   0.368 -0.2228  1.1444  0.2936
 8004SOL    HW235649   4.127   3.578   0.247  0.1998 -0.7347 -0.3167
 8005SOL     OW35650   3.236   0.599   1.406 -0.1981 -0.1182  0.3468
 8005SOL    HW135651   3.212   0.514   1.443  0.3908  0.0666  1.1442
 8005SOL    HW235652   3.247   0.576   1.314  0.5523  1.8753 -0.0644
 8006SOL     OW35653   1.126   4.015   4.550  0.1579  0.9189 -0.1287
 8006SOL    HW135654   1.085   4.006   4.636 -0.7815 -0.9497 -0.7696
 8006SOL    HW235655   1.125   4.110   4.545 -0.0376  0.8999 -0.4320
 8007SOL     OW35656   1.786   2.273   6.357 -0.8101 -0.1144  0.4932
 8007SOL    HW135657   1.876   2.273   6.326 -0.6471 -0.1267  0.9689
 8007SOL    HW235658   1.796   2.332   6.432 -2.3144 -2.3116  2.4548
 8008SOL     OW35659   1.113   1.014   4.991  0.5224 -0.5558 -0.4726
 8008SOL    HW135660   1.111   1.090   4.933 -2.9968 -2.3399 -2.6833
 8008SOL    HW235661   1.022   0.994   5.013  0.1303  0.9266 -0.7406
 8009SOL     OW35662   1.757   2.886  11.504 -0.0124  0.2500 -0.0520
 8009SOL    HW135663   1.779   2.912  11.593  1.5648 -0.3371 -0.2690
 8009SOL    HW235664   1.838   2.925  11.469 -0.0721 -0.7911 -1.3366
 8010SOL     OW35665   2.683   3.887  14.466  0.0496 -0.3225 -0.5649
 8010SOL    HW135666   2.605   3.831  14.470  0.9306 -1.6092 -1.0678
 8010SOL    HW235667   2.686   3.902  14.371  0.2616  2.0437 -0.1870
 8011SOL     OW35668   2.277   1.068  15.849 -0.3591  0.0846 -0.3846
 8011SOL    HW135669   2.357   1.116  15.827 -0.7563 -0.0444 -2.1743
 8011SOL    HW235670   2.326   0.997  15.891  0.9259  2.1425  1.5919
 8012SOL     OW35671   2.148   0.664   8.608 -0.1529  0.1376  0.0783
 8012SOL    HW135672   2.184   0.632   8.691 -1.0695  1.1544  0.8664
 8012SOL    HW235673   2.220   0.723   8.585 -0.1079 -0.7574 -2.0239
 8013SOL     OW35674   0.795   2.926  10.492 -0.1056 -0.2718 -0.4916
 8013SOL    HW135675   0.738   2.973  10.552 -0.2944 -0.8623 -0.2041
 8013SOL    HW235676   0.872   2.911  10.546 -0.8910  1.9387  1.2335
 8014SOL     OW35677   2.343   3.520   4.774 -0.7187 -0.0662 -0.3585
 8014SOL    HW135678   2.250   3.541   4.784 -0.2572  1.3577  0.9366
 8014SOL    HW235679   2.370   3.544   4.863 -0.8113  2.0132 -0.9021
 8015SOL     OW35680   4.666   2.391  13.559 -0.1408 -0.6285  0.6399
 8015SOL    HW135681   4.650   2.453  13.630 -2.3684  0.5014 -0.8209
 8015SOL    HW235682   4.595   2.327  13.566  0.6836 -1.7751 -1.7385
 8016SOL     OW35683   4.643   3.914   6.032  0.4427  0.4232  0.6568
 8016SOL    HW135684   4.698   3.976   5.983 -2.0367  1.4142 -0.8674
 8016SOL    HW235685   4.644   3.955   6.118  1.3748  0.3259  0.6891
 8017SOL     OW35686   0.246   0.332  13.371 -0.2265  0.2804 -0.0688
 8017SOL    HW135687   0.324   0.366  13.415 -0.6014  2.2123 -0.8952
 8017SOL    HW235688   0.286   0.298  13.291 -1.2048 -1.2140  0.0834
 8018SOL     OW35689   4.385   0.195   1.992  0.4946 -0.1671  0.1842
 8018SOL    HW135690   4.370   0.283   2.027  1.4993  0.4411 -0.9028
 8018SOL    HW235691   4.393   0.219   1.899  0.8393 -2.6158 -0.4030
 8019SOL     OW35692   3.882   4.100   8.400  0.0642 -0.4652 -0.8194
 8019SOL    HW135693   3.821   4.119   8.471  0.7604  1.8941 -0.8211
 8019SOL    HW235694   3.893   4.005   8.404 -0.6153 -0.6398 -2.8212
 8020SOL     OW35695   0.694   3.383   5.322  0.4580  0.4648  0.1230
 8020SOL    HW135696   0.639   3.335   5.260 -0.2820  1.2116  0.1937
 8020SOL    HW235697   0.753   3.424   5.258  0.1836  0.9411  0.1736
 8021SOL     OW35698   2.427   0.945   4.233 -0.5726 -0.4037  0.3690
 8021SOL    HW135699   2.418   0.958   4.327  2.3583 -0.6579  0.6708
 8021SOL    HW235700   2.482   0.868   4.224  1.6499  1.2524 -0.3003
 8022SOL     OW35701   3.077   1.167   4.309 -0.3132  0.4251 -0.2594
 8022SOL    HW135702   3.111   1.144   4.223 -0.0250  1.9485 -0.5610
 8022SOL    HW235703   3.041   1.252   4.282 -0.5685  0.9359  1.6374
 8023SOL     OW35704   3.976   0.897  14.175 -0.7230  0.3389  0.0784
 8023SOL    HW135705   3.944   0.824  14.228 -0.7080 -1.0834 -1.8908
 8023SOL    HW235706   3.977   0.871  14.083  0.2474 -0.0706  0.2055
 8024SOL     OW35707   1.712   0.605   3.131  0.6101  0.4095  0.1529
 8024SOL    HW135708   1.682   0.609   3.222 -1.0770 -2.9070 -0.2537
 8024SOL    HW235709   1.693   0.513   3.111  0.3203  0.0913  1.8910
 8025SOL     OW35710   4.626   2.572   7.641 -0.3861  0.3538  0.1498
 8025SOL    HW135711   4.669   2.574   7.726 -1.5622  0.3109  0.7297
 8025SOL    HW235712   4.633   2.480   7.614  2.9331 -0.2414  2.9287
 8026SOL     OW35713   2.753   2.434  14.853 -0.2928 -0.0966  0.5438
 8026SOL    HW135714   2.761   2.517  14.806  1.6081  0.1486  1.3037
 8026SOL    HW235715   2.659   2.417  14.850 -0.5942  1.9423 -1.0492
 8027SOL     OW35716   4.283   1.450   9.958 -0.1490 -0.2316 -0.4408
 8027SOL    HW135717   4.277   1.386  10.028 -0.8004  0.3405  0.0204
 8027SOL    HW235718   4.336   1.525   9.985 -0.5914  0.3463 -1.1614
 8028SOL     OW35719   3.556   4.574   1.768  0.0995  0.2115  0.4558
 8028SOL    HW135720   3.506   4.559   1.849  0.9919  0.5642  1.0741
 8028SOL    HW235721   3.601   4.489   1.765 -0.3763 -0.0705  1.2462
 8029SOL     OW35722   1.734   1.986   3.430 -0.1374  0.2907 -0.5677
 8029SOL    HW135723   1.685   1.978   3.349 -0.6826  1.2938 -0.3436
 8029SOL    HW235724   1.754   1.894   3.448 -0.4831  0.9776  3.2963
 8030SOL     OW35725   0.947   0.787   2.408 -0.1235 -0.1801  0.3001
 8030SOL    HW135726   0.902   0.835   2.477 -0.9389  1.7486 -1.5784
 8030SOL    HW235727   0.904   0.702   2.420  1.5017 -1.0592 -0.1960
 8031SOL     OW35728   3.715   1.395  10.360  0.5123  0.0630 -0.0551
 8031SOL    HW135729   3.757   1.481  10.360 -1.6763  1.1096  1.8441
 8031SOL    HW235730   3.689   1.381  10.269  2.5739 -2.5506 -0.2520
 8032SOL     OW35731   2.491   0.127  10.852  0.6402  0.3956  0.0267
 8032SOL    HW135732   2.442   0.150  10.773  0.7240 -3.2240 -1.0624
 8032SOL    HW235733   2.551   0.058  10.824  1.0130  0.7771 -0.1346
 8033SOL     OW35734   2.391   0.563   4.111 -0.0698  0.0717 -0.0489
 8033SOL    HW135735   2.352   0.477   4.127  0.7985 -0.7712 -2.3574
 8033SOL    HW235736   2.420   0.594   4.196  0.8422 -0.1998 -0.2633
 8034SOL     OW35737   2.119   0.275   4.757 -0.1975  0.2338  0.7432
 8034SOL    HW135738   2.175   0.226   4.696 -0.9126 -0.5761  0.7252
 8034SOL    HW235739   2.037   0.286   4.709  0.0044 -2.3468 -0.1991
 8035SOL     OW35740   2.515   4.413  12.369 -0.6150  0.2465 -0.0755
 8035SOL    HW135741   2.444   4.349  12.373  0.2142 -0.6178  0.7394
 8035SOL    HW235742   2.480   4.483  12.314  2.9035  1.5295 -0.7002
 8036SOL     OW35743   1.725   0.538   9.567 -0.0562 -0.1596 -0.7641
 8036SOL    HW135744   1.712   0.583   9.650  2.4815 -0.2368 -0.3312
 8036SOL    HW235745   1.732   0.614   9.510  1.9465 -0.5636 -1.0427
 8037SOL     OW35746   2.833   4.422   8.717  0.0711 -0.3074 -0.1269
 8037SOL    HW135747   2.890   4.382   8.783  2.0523 -0.1861 -1.7597
 8037SOL    HW235748   2.805   4.337   8.683 -1.4437 -0.1560  0.7390
 8038SOL     OW35749   2.947   4.556   5.247 -0.1370  0.3383 -0.5977
 8038SOL    HW135750   2.886   4.524   5.314  0.4431 -1.0464 -0.7122
 8038SOL    HW235751   3.006   4.480   5.252  0.0531  0.4967 -0.4069
 8039SOL     OW35752   3.101   1.941   5.036  0.7610 -0.1322  0.0224
 8039SOL    HW135753   3.171   1.881   5.013 -1.9083 -3.0908 -0.4276
 8039SOL    HW235754   3.135   2.018   4.990 -2.8518  1.5472  0.1378
 8040SOL     OW35755   4.416   0.195  16.099  0.1623  0.1361 -0.4541
 8040SOL    HW135756   4.446   0.272  16.148 -2.4635  0.0668  1.2829
 8040SOL    HW235757   4.420   0.132  16.171  0.0294 -0.6554 -1.1378
 8041SOL     OW35758   1.151   0.949   8.095 -0.1420  0.1804 -0.3874
 8041SOL    HW135759   1.206   0.878   8.064 -0.9185 -0.2092 -0.8832
 8041SOL    HW235760   1.063   0.911   8.098 -0.6301  1.3793  0.4442
 8042SOL     OW35761   0.846   3.813  15.020 -0.2547 -0.1622  0.2878
 8042SOL    HW135762   0.862   3.793  15.112  0.9584 -2.5616 -0.4227
 8042SOL    HW235763   0.773   3.755  14.997 -1.8933  1.7132  0.8220
 8043SOL     OW35764   0.818   1.040  12.010 -0.7707  0.2259 -0.1755
 8043SOL    HW135765   0.854   0.979  12.075 -0.5753  2.0726  1.4356
 8043SOL    HW235766   0.879   1.112  12.000  0.9726 -1.2844 -0.4117
 8044SOL     OW35767   1.036   1.696   0.724 -0.2118  0.1562  0.1601
 8044SOL    HW135768   1.105   1.631   0.713  1.0392  1.9481 -2.5744
 8044SOL    HW235769   1.001   1.699   0.636  0.0697  1.0603  0.0737
 8045SOL     OW35770   3.556   0.465   8.184  0.2774 -0.1722  0.1557
 8045SOL    HW135771   3.636   0.413   8.188  0.8457  0.6807 -0.1604
 8045SOL    HW235772   3.499   0.400   8.144  0.5477 -0.1578 -0.2576
 8046SOL     OW35773   2.961   1.082  12.482  0.1534 -0.4993  0.0267
 8046SOL    HW135774   3.043   1.131  12.492  0.4700 -1.1041  0.4234
 8046SOL    HW235775   2.903   1.140  12.532 -0.4386 -3.2495  2.5716
 8047SOL     OW35776   4.111   4.002  14.129  0.4263 -0.3481  0.2362
 8047SOL    HW135777   4.046   3.933  14.117 -1.5710  1.2953  1.8624
 8047SOL    HW235778   4.083   4.054  14.053 -0.3606  1.1157  1.5455
 8048SOL     OW35779   3.556   3.348   2.515 -0.3320  0.3124  0.2730
 8048SOL    HW135780   3.522   3.300   2.440 -0.6546  0.7965  0.1051
 8048SOL    HW235781   3.591   3.270   2.557 -2.9113 -1.7461 -1.4115
 8049SOL     OW35782   0.931   1.182   3.446  1.2305 -0.5624 -0.3049
 8049SOL    HW135783   0.966   1.260   3.489 -0.8683  1.2807 -1.9249
 8049SOL    HW235784   0.843   1.212   3.422  1.8170  2.6459  1.5506
 8050SOL     OW35785   4.001   3.710   4.011 -0.6888  0.5187  0.2385
 8050SOL    HW135786   3.999   3.686   4.103  1.2179 -0.1699  0.0902
 8050SOL    HW235787   3.937   3.651   3.972 -1.9481  1.3510  1.0539
 8051SOL     OW35788   0.532   2.148   4.348  0.2226 -0.1881 -0.1819
 8051SOL    HW135789   0.601   2.211   4.370 -0.2394  0.7820 -1.5152
 8051SOL    HW235790   0.583   2.071   4.322 -0.0140  0.4997 -2.6260
 8052SOL     OW35791   2.445   1.566   1.987 -0.2970 -0.0360  0.4100
 8052SOL    HW135792   2.406   1.640   1.941 -0.0333 -0.9754 -1.3265
 8052SOL    HW235793   2.442   1.600   2.076 -0.2209  1.3040 -0.1105
 8053SOL     OW35794   0.847   0.579  12.652  0.1620 -0.6326 -0.1706
 8053SOL    HW135795   0.869   0.577  12.558  0.0268 -0.6691 -0.2022
 8053SOL    HW235796   0.839   0.488  12.680 -1.2323 -0.0657  1.2667
 8054SOL     OW35797   0.003   4.349   4.967 -0.0311  0.3861  0.1923
 8054SOL    HW135798   4.735   4.281   5.035  1.7912 -0.6753 -0.7681
 8054SOL    HW235799   4.694   4.428   4.997 -1.2901 -0.5078  0.6342
 8055SOL     OW35800   3.685   2.536   4.705 -0.4683  0.2299  0.4672
 8055SOL    HW135801   3.600   2.499   4.683 -0.6637  1.2059 -0.4076
 8055SOL    HW235802   3.701   2.500   4.793  2.3145  1.1209  0.3281
 8056SOL     OW35803   0.007   3.320   6.853 -0.0589 -0.2513  0.1965
 8056SOL    HW135804   0.087   3.279   6.886  0.4096  2.2284  2.1216
 8056SOL    HW235805   4.710   3.350   6.937  2.5960  0.4201  0.9967
 8057SOL     OW35806   3.450   0.493   7.655  0.2548 -0.1221 -0.7348
 8057SOL    HW135807   3.389   0.554   7.697 -0.6077  0.2624 -2.5359
 8057SOL    HW235808   3.479   0.562   7.596 -1.2840  1.5256  0.4067
 8058SOL     OW35809   0.067   4.321   7.149 -0.2126 -0.2491  0.3765
 8058SOL    HW135810   0.124   4.245   7.143  0.0005 -0.1381  1.0438
 8058SOL    HW235811   0.129   4.388   7.179 -0.3622 -0.3791  0.9582
 8059SOL     OW35812   3.325   3.100  11.947  0.0864  0.2971 -0.6531
 8059SOL    HW135813   3.295   3.017  11.983 -0.3533 -0.9246 -3.8228
 8059SOL    HW235814   3.364   3.083  11.861 -1.2696 -1.6273 -0.8727
 8060SOL     OW35815   1.133   4.282   8.262 -0.7231  0.0161 -0.2397
 8060SOL    HW135816   1.072   4.241   8.202 -0.7168 -0.0874 -0.1752
 8060SOL    HW235817   1.079   4.319   8.332 -0.1076  2.6471 -1.1263
 8061SOL     OW35818   3.541   2.074  10.769  0.0221 -0.6143 -0.3477
 8061SOL    HW135819   3.450   2.081  10.741 -0.3853  0.0309  1.1664
 8061SOL    HW235820   3.590   2.047  10.691 -0.7311 -0.4785 -0.8627
 8062SOL     OW35821   0.412   0.871   8.076 -0.0121  0.1618 -0.3200
 8062SOL    HW135822   0.508   0.870   8.071  0.1312  2.3904  1.7639
 8062SOL    HW235823   0.391   0.882   8.169 -1.0459 -1.2969 -0.3759
 8063SOL     OW35824   0.258   0.253   2.208 -0.0159 -0.1604  0.2014
 8063SOL    HW135825   0.328   0.291   2.262  0.7338  0.9875 -1.5962
 8063SOL    HW235826   0.312   0.240   2.130  0.3881  0.6476  0.3446
 8064SOL     OW35827   0.775   0.169   3.505 -0.4900 -0.3097  0.4148
 8064SOL    HW135828   0.737   0.217   3.579 -2.0686 -0.6162 -0.1887
 8064SOL    HW235829   0.708   0.188   3.439  0.0252  0.5391  0.1404
 8065SOL     OW35830   4.372   2.944  17.427  0.4737 -0.2478  0.3851
 8065SOL    HW135831   4.420   2.863  17.409  1.3645  0.2134  0.6783
 8065SOL    HW235832   4.356   2.971  17.336  0.8526  2.1744  1.0442
 8066SOL     OW35833   2.032   0.568   0.419 -0.5706 -0.2163  0.6372
 8066SOL    HW135834   2.042   0.638   0.483 -1.2199  1.9826 -1.6401
 8066SOL    HW235835   1.952   0.590   0.370  0.5222 -1.1202 -1.5339
 8067SOL     OW35836   2.503   1.679   3.436  0.9107 -0.2426 -0.1608
 8067SOL    HW135837   2.461   1.710   3.356 -0.0892  3.8547  1.9650
 8067SOL    HW235838   2.593   1.659   3.409  0.8386 -3.1041  1.6872
 8068SOL     OW35839   2.402   3.650   5.044  0.0979 -0.1497 -0.4823
 8068SOL    HW135840   2.350   3.725   5.072  1.7275  2.0397 -3.3124
 8068SOL    HW235841   2.467   3.656   5.114 -0.1934 -0.8095 -0.1646
 8069SOL     OW35842   1.437   0.906   1.406  1.1225 -0.5603  0.0295
 8069SOL    HW135843   1.374   0.970   1.439  2.4866  0.2038  1.2176
 8069SOL    HW235844   1.522   0.950   1.420 -1.0154  4.0013 -1.3725
 8070SOL     OW35845   4.428   3.835  10.422  0.5468  0.3968 -0.2501
 8070SOL    HW135846   4.427   3.905  10.487 -1.0880  0.1639 -0.0033
 8070SOL    HW235847   4.403   3.763  10.481  1.6009  0.3721  0.1577
 8071SOL     OW35848   1.947   2.317   8.267  0.5064  0.9147  0.4187
 8071SOL    HW135849   1.948   2.348   8.358 -0.3045  0.5995  0.5303
 8071SOL    HW235850   1.907   2.231   8.275  1.0720  0.7766  1.7891
 8072SOL     OW35851   1.260   3.213   5.765  0.3773 -0.4842  0.3957
 8072SOL    HW135852   1.316   3.265   5.823 -1.5985 -1.6306  3.3182
 8072SOL    HW235853   1.288   3.127   5.797 -0.8672 -1.0997 -0.1468
 8073SOL     OW35854   1.036   1.240  11.646  0.1086  0.5457  0.6666
 8073SOL    HW135855   0.977   1.165  11.650  0.4890  0.1554 -0.9331
 8073SOL    HW235856   1.064   1.247  11.554 -2.4988  3.2516  0.0739
 8074SOL     OW35857   0.972   3.973  14.638  0.2956  0.1295  0.0517
 8074SOL    HW135858   0.899   3.934  14.592  1.5215 -3.0978  0.8403
 8074SOL    HW235859   1.036   3.960  14.568  0.1876 -0.3542  0.0446
 8075SOL     OW35860   4.356   0.635   5.279  0.4227  0.1955  0.1706
 8075SOL    HW135861   4.379   0.551   5.317  0.4097  0.5545  0.9854
 8075SOL    HW235862   4.327   0.686   5.355 -0.4862  0.0886 -0.1041
 8076SOL     OW35863   2.714   4.594   5.706 -0.5318  0.4093  0.1787
 8076SOL    HW135864   2.683   4.505   5.687  0.7978 -0.0950  0.3348
 8076SOL    HW235865   2.767   4.614   5.629 -1.5129  0.7236 -0.4118
 8077SOL     OW35866   2.447   2.566  16.293  0.1125  0.9892  0.1319
 8077SOL    HW135867   2.356   2.565  16.264 -0.1791 -0.4593  1.1055
 8077SOL    HW235868   2.468   2.476  16.318 -1.7969  1.4257  3.2427
 8078SOL     OW35869   1.515   2.616  15.254 -0.3227 -0.0695 -0.3551
 8078SOL    HW135870   1.574   2.541  15.262  1.1690  1.2691  1.2205
 8078SOL    HW235871   1.430   2.572  15.263 -1.3459  1.5765 -2.0668
 8079SOL     OW35872   0.629   2.821   1.673  0.0573  0.2258  0.4839
 8079SOL    HW135873   0.607   2.901   1.720  0.2617 -0.3057  1.4694
 8079SOL    HW235874   0.590   2.839   1.587  1.6806 -0.7827 -0.4880
 8080SOL     OW35875   3.286   2.030   4.685 -0.1932  0.0781  0.1736
 8080SOL    HW135876   3.375   2.016   4.718 -0.5927  2.7209  2.3425
 8080SOL    HW235877   3.252   1.944   4.711  0.0473 -0.2856 -0.7099
 8081SOL     OW35878   2.524   0.469   1.373 -0.4575  0.2566  0.0899
 8081SOL    HW135879   2.472   0.405   1.421 -0.3652 -0.3889 -0.6724
 8081SOL    HW235880   2.567   0.423   1.300  1.2801 -0.7721  1.7673
 8082SOL     OW35881   2.181   4.608   7.538  0.0739 -0.0013 -0.3295
 8082SOL    HW135882   2.151   4.641   7.623 -0.4844 -0.6354 -0.2792
 8082SOL    HW235883   2.272   4.581   7.552  0.6459  2.3690  0.6107
 8083SOL     OW35884   3.430   0.879   6.366 -0.3752  0.4334  0.1226
 8083SOL    HW135885   3.462   0.799   6.324 -1.0803 -0.6778  1.7401
 8083SOL    HW235886   3.355   0.912   6.316 -0.1761 -0.6716 -0.9098
 8084SOL     OW35887   3.090   1.153   6.812 -0.7928 -0.4005  0.1473
 8084SOL    HW135888   3.114   1.127   6.901  1.0775 -1.6364 -0.7335
 8084SOL    HW235889   3.119   1.244   6.823 -0.2484 -0.7829  1.8923
 8085SOL     OW35890   0.851   3.023   2.891 -0.3316 -0.3194  0.2132
 8085SOL    HW135891   0.799   2.944   2.875  0.6028 -0.3178 -2.8446
 8085SOL    HW235892   0.937   2.982   2.896 -0.2174  0.0125  0.9666
 8086SOL     OW35893   1.227   1.937   4.211 -0.2786 -0.1238  0.3168
 8086SOL    HW135894   1.208   1.866   4.272  0.9590  1.0379  2.0700
 8086SOL    HW235895   1.145   1.934   4.162 -0.1112  2.8563 -0.1627
 8087SOL     OW35896   3.168   0.581   9.114  0.5577 -0.2107 -0.2510
 8087SOL    HW135897   3.227   0.507   9.132  0.1179 -0.2045  1.2312
 8087SOL    HW235898   3.228   0.650   9.087  2.2965 -1.4900  0.3671
 8088SOL     OW35899   3.592   0.700   4.070 -0.3812  0.1788  0.1904
 8088SOL    HW135900   3.619   0.610   4.051  2.7701  0.9876  0.8286
 8088SOL    HW235901   3.683   0.724   4.086  0.1471 -0.8897 -1.2731
 8089SOL     OW35902   2.878   2.495   5.369  0.3056 -0.2854 -0.1154
 8089SOL    HW135903   2.899   2.498   5.462 -0.7566  2.0261  0.0375
 8089SOL    HW235904   2.856   2.583   5.337  1.3551 -0.5602 -1.5950
 8090SOL     OW35905   2.870   1.348  11.861 -0.3977 -0.0283  0.1916
 8090SOL    HW135906   2.803   1.344  11.929 -1.5119  1.7479 -0.8056
 8090SOL    HW235907   2.912   1.262  11.867 -3.4423 -1.6208 -1.6001
 8091SOL     OW35908   0.271   4.589  13.962 -0.0343  0.4728 -0.2996
 8091SOL    HW135909   0.205   4.544  14.015  0.1395 -0.1367 -0.6023
 8091SOL    HW235910   0.243   4.680  13.957 -0.2239  0.4312 -0.0297
 8092SOL     OW35911   0.422   0.389   7.777  0.1685  0.4376  0.0583
 8092SOL    HW135912   0.496   0.401   7.718 -1.2053  0.1139 -1.7133
 8092SOL    HW235913   0.472   0.375   7.858 -0.5572  0.0299  0.4415
 8093SOL     OW35914   3.320   1.950   3.633  0.5339 -0.0364  0.2829
 8093SOL    HW135915   3.370   2.003   3.694 -0.3911 -1.8227  2.6087
 8093SOL    HW235916   3.231   1.972   3.659 -0.3654 -0.8470 -2.0680
 8094SOL     OW35917   1.172   2.435   4.881 -0.1297  0.4664  0.1859
 8094SOL    HW135918   1.125   2.467   4.805 -0.5521  1.9871  1.0811
 8094SOL    HW235919   1.158   2.340   4.877 -0.5628  0.5290  0.1640
 8095SOL     OW35920   4.041   1.672  11.314  0.1440  0.6158 -0.1093
 8095SOL    HW135921   4.026   1.588  11.270 -0.9246  0.2761  0.9276
 8095SOL    HW235922   4.133   1.658  11.335 -0.2128  0.7920  1.5557
 8096SOL     OW35923   4.549   0.795   7.375 -0.0341 -0.1985  0.4198
 8096SOL    HW135924   4.467   0.788   7.327  0.7634  1.4158 -1.2086
 8096SOL    HW235925   4.613   0.735   7.337 -0.4069 -0.1091 -0.3444
 8097SOL     OW35926   1.224   2.257  10.160 -0.1635 -0.0798 -0.2977
 8097SOL    HW135927   1.166   2.334  10.164  0.0876  0.1175 -0.5119
 8097SOL    HW235928   1.184   2.207  10.232 -2.4352  0.9142 -0.8546
 8098SOL     OW35929   4.083   2.055  17.593  0.1280  0.6622  0.0492
 8098SOL    HW135930   4.156   2.116  17.587  1.5291 -0.9844  0.0959
 8098SOL    HW235931   4.013   2.104  17.550  1.0082  1.9648  0.1276
 8099SOL     OW35932   2.584   0.525   1.651  0.2542  0.2642 -0.3351
 8099SOL    HW135933   2.569   0.506   1.559  0.6831 -0.6102 -0.2253
 8099SOL    HW235934   2.633   0.607   1.641 -1.4085  1.1931 -0.7553
 8100SOL     OW35935   3.744   0.557  12.250  0.0755 -0.1096  0.8157
 8100SOL    HW135936   3.663   0.543  12.201 -0.2031  1.1496  0.9152
 8100SOL    HW235937   3.774   0.638  12.211 -2.0523 -1.1522 -2.9560
 8101SOL     OW35938   3.098   4.103  16.832 -0.4076 -0.1516  0.4059
 8101SOL    HW135939   3.029   4.113  16.767  1.7009  2.5595 -1.4623
 8101SOL    HW235940   3.077   4.013  16.856 -0.3236  0.0504  1.2520
 8102SOL     OW35941   3.532   1.768  11.503 -0.3504 -0.4636 -0.3873
 8102SOL    HW135942   3.448   1.751  11.545 -0.5080  0.5194 -0.3075
 8102SOL    HW235943   3.585   1.743  11.579  1.3807 -0.9594 -1.7612
 8103SOL     OW35944   1.160   3.615   7.995  0.3630 -0.1117 -0.4165
 8103SOL    HW135945   1.073   3.653   8.003  1.0061  1.4330 -0.6831
 8103SOL    HW235946   1.214   3.693   8.006  0.4176 -0.5333  2.2878
 8104SOL     OW35947   0.389   2.359  12.517  0.4034 -0.3962  0.0341
 8104SOL    HW135948   0.442   2.331  12.442  0.5219 -0.0219 -0.0214
 8104SOL    HW235949   0.360   2.446  12.489  1.1201 -0.7350 -1.7632
 8105SOL     OW35950   4.192   3.987   5.715 -0.6526  0.1334  0.0900
 8105SOL    HW135951   4.149   4.009   5.633 -0.3153 -0.3629 -0.2256
 8105SOL    HW235952   4.129   4.028   5.774 -1.2613 -1.8841  0.8629
 8106SOL     OW35953   3.722   4.730   7.623  0.3702 -0.5980 -0.3746
 8106SOL    HW135954   3.719   0.059   7.552  1.5438  1.8565  1.8230
 8106SOL    HW235955   3.770   0.041   7.690 -0.9978  0.8518 -0.3989
 8107SOL     OW35956   4.668   3.497  11.823 -0.3798 -0.3966  0.5679
 8107SOL    HW135957   4.626   3.415  11.802 -1.3590  0.5099 -0.9605
 8107SOL    HW235958   0.018   3.484  11.782 -0.5281 -1.9389  0.7445
 8108SOL     OW35959   1.940   0.345  14.926 -0.4082 -0.0453 -0.2370
 8108SOL    HW135960   1.925   0.439  14.917  2.2265  0.2001 -2.2907
 8108SOL    HW235961   1.927   0.339  15.021 -1.0688  1.5886 -0.2417
 8109SOL     OW35962   1.678   2.173   4.618  0.4121  0.1285 -0.1221
 8109SOL    HW135963   1.667   2.123   4.698 -4.0801 -1.8327 -1.9895
 8109SOL    HW235964   1.698   2.253   4.667  0.1460 -0.1391  0.4123
 8110SOL     OW35965   1.526   4.692   8.270  0.4678  0.5683 -0.2550
 8110SOL    HW135966   1.451   4.649   8.312  0.5636 -0.4231 -1.0912
 8110SOL    HW235967   1.502   0.047   8.285 -2.7946 -0.3565  0.1742
 8111SOL     OW35968   2.801   3.580  11.352  0.0153  0.1133 -0.0889
 8111SOL    HW135969   2.848   3.594  11.435  0.6602  1.0347 -0.6059
 8111SOL    HW235970   2.846   3.644  11.297  2.0166 -1.8189 -0.6768
 8112SOL     OW35971   4.478   4.459   2.522 -0.3750 -0.5164 -0.0177
 8112SOL    HW135972   4.548   4.520   2.498  0.6722 -0.6055  2.8671
 8112SOL    HW235973   4.463   4.480   2.614  1.6419  0.5285  0.0805
 8113SOL     OW35974   0.775   2.727   6.028 -0.2779 -0.4254 -0.1759
 8113SOL    HW135975   0.691   2.705   5.990 -0.4094  1.2673 -0.8699
 8113SOL    HW235976   0.823   2.647   6.006  1.0104 -0.5813  3.2517
 8114SOL     OW35977   1.026   3.904   8.994  0.3757  0.1785  0.0098
 8114SOL    HW135978   0.959   3.945   8.939  2.7139  2.8352 -0.8046
 8114SOL    HW235979   1.000   3.931   9.082  1.2631 -0.1494  0.3742
 8115SOL     OW35980   1.853   1.417   1.992 -0.2820  0.2074  0.2158
 8115SOL    HW135981   1.896   1.332   1.979  1.3958  1.1593 -0.5502
 8115SOL    HW235982   1.791   1.391   2.060 -1.1568 -0.2114 -0.7362
 8116SOL     OW35983   1.275   4.604   6.866  0.3542 -0.6458  0.1441
 8116SOL    HW135984   1.304   4.599   6.775  0.7338  0.3270  0.2139
 8116SOL    HW235985   1.183   4.629   6.856  0.7891 -0.0172 -2.4535
 8117SOL     OW35986   0.208   1.223  11.460  0.3920  0.1296  0.0323
 8117SOL    HW135987   0.237   1.133  11.455 -0.4020 -0.1197 -0.1678
 8117SOL    HW235988   0.292   1.268  11.469  0.2129 -0.0790  2.5962
 8118SOL     OW35989   3.778   2.910   2.454  0.3849 -0.3019  0.1664
 8118SOL    HW135990   3.763   2.837   2.514  2.6318 -1.1755 -0.3165
 8118SOL    HW235991   3.691   2.901   2.415 -0.4366 -1.0221  2.1672
 8119SOL     OW35992   3.726   3.518  17.532 -0.6067  0.0341 -0.1571
 8119SOL    HW135993   3.732   3.461  17.608  0.4295 -0.7156 -0.7972
 8119SOL    HW235994   3.631   3.516  17.522 -0.6901  0.5079  0.5539
 8120SOL     OW35995   3.627   1.172   6.130  0.1981 -0.5007 -0.5360
 8120SOL    HW135996   3.702   1.184   6.188  1.0749 -1.7629 -1.3992
 8120SOL    HW235997   3.567   1.163   6.204 -1.5189 -2.7481 -2.1913
 8121SOL     OW35998   4.608   4.319   6.087  0.2869 -0.0006  0.5057
 8121SOL    HW135999   4.608   4.395   6.029  0.7861  0.0816  0.6162
 8121SOL    HW236000   4.573   4.254   6.025 -0.9616  3.6803 -2.6648
 8122SOL     OW36001   3.076   1.065   3.450  0.5118 -0.2880 -0.4496
 8122SOL    HW136002   3.092   1.157   3.471  0.4057 -0.1931 -0.7873
 8122SOL    HW236003   3.160   1.032   3.482 -0.9899 -3.5830  0.0725
 8123SOL     OW36004   3.410   0.059   1.661  0.1276  0.0882 -0.0990
 8123SOL    HW136005   3.482   0.107   1.619  0.1300 -1.5389 -1.9395
 8123SOL    HW236006   3.458   4.729   1.710 -1.0431 -0.8344 -0.1979
 8124SOL     OW36007   0.206   4.087   7.189  0.0855  0.0533 -0.3575
 8124SOL    HW136008   0.292   4.109   7.224  0.8152 -0.5823 -1.7132
 8124SOL    HW236009   0.229   4.040   7.108  1.3165  0.6693 -0.3775
 8125SOL     OW36010   0.300   2.010   7.875 -0.0070  0.0978  0.7624
 8125SOL    HW136011   0.286   2.077   7.942 -1.0984 -1.2935  1.9287
 8125SOL    HW236012   0.395   2.015   7.884  0.2284 -1.6311 -0.8726
 8126SOL     OW36013   0.472   3.227   2.285 -0.3211  0.0488 -0.2279
 8126SOL    HW136014   0.567   3.226   2.280 -0.3848  0.8462 -1.9083
 8126SOL    HW236015   0.447   3.203   2.374 -0.5505  1.7997  0.1744
 8127SOL     OW36016   0.485   0.118  12.213 -0.2913  0.4203 -0.6647
 8127SOL    HW136017   0.445   0.098  12.129  0.1183 -0.5696 -0.6295
 8127SOL    HW236018   0.516   0.206  12.190 -1.1462  0.5499 -1.3060
 8128SOL     OW36019   1.404   1.740  17.002  0.0737  0.4277 -0.2415
 8128SOL    HW136020   1.410   1.647  16.984 -0.3380 -0.0347  2.1160
 8128SOL    HW236021   1.496   1.760  16.983  0.0961  0.6661  0.1208
 8129SOL     OW36022   3.916   2.356  12.256 -0.2919 -0.2662 -0.2343
 8129SOL    HW136023   3.913   2.450  12.238 -1.3051 -0.7650 -2.6088
 8129SOL    HW236024   3.963   2.352  12.340  0.9424  0.8570 -0.8708
 8130SOL     OW36025   4.241   4.175   6.853  0.4977 -0.5271  0.2454
 8130SOL    HW136026   4.255   4.269   6.846 -1.3741 -0.3368 -1.1144
 8130SOL    HW236027   4.315   4.141   6.803  1.8430  1.3367  0.9721
 8131SOL     OW36028   3.307   2.197   6.710 -0.0859 -0.5928  0.6134
 8131SOL    HW136029   3.259   2.116   6.725  0.7124 -0.9680  1.1465
 8131SOL    HW236030   3.351   2.177   6.627 -0.3675  0.9471  0.1055
 8132SOL     OW36031   3.054   2.592   1.999 -0.1477 -0.0892 -0.8978
 8132SOL    HW136032   2.960   2.572   1.997 -0.3048  0.3059  2.1802
 8132SOL    HW236033   3.068   2.647   1.922  0.9783 -0.7066 -1.1296
 8133SOL     OW36034   1.495   0.065   7.455 -0.0063 -0.2861  0.3144
 8133SOL    HW136035   1.497   0.158   7.434 -1.9891 -0.1706  0.6064
 8133SOL    HW236036   1.408   0.035   7.430 -0.9311  2.2017  0.5139
 8134SOL     OW36037   0.585   2.051   7.854  0.0002 -0.6306 -0.3837
 8134SOL    HW136038   0.673   2.084   7.838  0.6531 -1.8005  0.7935
 8134SOL    HW236039   0.582   2.049   7.950  2.6010 -0.2303 -0.3075
 8135SOL     OW36040   3.814   0.843   3.437 -0.0673  0.1799  0.5006
 8135SOL    HW136041   3.795   0.906   3.366 -0.9421 -1.2148 -0.4943
 8135SOL    HW236042   3.733   0.792   3.438  1.4427 -2.1424  1.9145
 8136SOL     OW36043   3.449   3.921   8.169 -0.4585 -0.1895 -0.8173
 8136SOL    HW136044   3.542   3.942   8.177 -0.1286 -1.5399 -1.0135
 8136SOL    HW236045   3.416   4.007   8.142 -1.2400 -0.0758  0.5262
 8137SOL     OW36046   2.014   0.582  16.867 -0.4671  0.4547  0.4153
 8137SOL    HW136047   2.093   0.618  16.907 -0.0633  0.5778 -0.4807
 8137SOL    HW236048   2.036   0.491  16.887  1.0085  0.8307  0.5080
 8138SOL     OW36049   1.000   0.468  15.942 -0.4305 -0.1886 -0.4773
 8138SOL    HW136050   0.982   0.517  15.861 -3.7816  1.1924  1.0981
 8138SOL    HW236051   0.996   0.547  15.996  1.8610 -0.3301 -0.1081
 8139SOL     OW36052   2.569   2.097  10.441  0.2631 -0.0648  0.4458
 8139SOL    HW136053   2.517   2.172  10.470 -0.9587 -0.1070 -1.6680
 8139SOL    HW236054   2.640   2.131  10.386  2.6411 -0.2093  3.4043
 8140SOL     OW36055   4.530   1.560   7.275  0.3734 -0.2226  0.7632
 8140SOL    HW136056   4.544   1.595   7.188 -0.9755 -0.5802  0.4102
 8140SOL    HW236057   4.480   1.625   7.324  1.8725  1.3193  0.2169
 8141SOL     OW36058   1.009   0.903   2.866 -0.3876  0.6037 -0.6841
 8141SOL    HW136059   1.007   0.935   2.776 -1.7368  0.1285 -0.8168
 8141SOL    HW236060   0.986   0.811   2.859 -2.9699  1.2223 -0.3387
 8142SOL     OW36061   3.455   0.755  13.624  0.0998 -0.6249 -0.6987
 8142SOL    HW136062   3.449   0.832  13.567  3.6748  0.1141 -0.0357
 8142SOL    HW236063   3.546   0.727  13.617  0.7716  1.2871  0.2975
 8143SOL     OW36064   2.736   0.625  14.386 -0.0480  0.0893 -0.2228
 8143SOL    HW136065   2.812   0.633  14.328  0.5522  0.4650  0.6183
 8143SOL    HW236066   2.710   0.717  14.398  2.2308  1.0438 -2.5688
 8144SOL     OW36067   1.669   0.125   8.966  0.4528 -0.2619  0.0970
 8144SOL    HW136068   1.586   0.079   8.973 -0.4305  1.3019 -0.2714
 8144SOL    HW236069   1.673   0.128   8.871 -0.3824  1.5391  0.1156
 8145SOL     OW36070   0.397   3.935   9.439  0.6574 -0.6278  0.0299
 8145SOL    HW136071   0.461   3.927   9.368  0.2672  0.8962 -0.4903
 8145SOL    HW236072   0.315   3.968   9.401  0.3820  0.0873  1.2508
 8146SOL     OW36073   0.166   0.011  12.619 -0.0263  0.3437  0.0126
 8146SOL    HW136074   0.113   0.091  12.620  1.1805  1.0962  3.0757
 8146SOL    HW236075   0.206   0.010  12.532  2.1473 -3.0477  1.0242
 8147SOL     OW36076   1.645   4.232   7.472 -0.0333 -0.5060  0.4842
 8147SOL    HW136077   1.610   4.143   7.475  0.2866 -0.6653 -0.5313
 8147SOL    HW236078   1.739   4.219   7.460  0.1104  0.5674  0.4105
 8148SOL     OW36079   2.109   2.539   2.702  0.7715  0.5260  0.2255
 8148SOL    HW136080   2.182   2.596   2.725  0.3896  1.7292 -1.5018
 8148SOL    HW236081   2.128   2.505   2.614  3.2305 -0.1247  0.9927
 8149SOL     OW36082   3.531   4.481   6.018 -0.0975 -0.5316  0.4567
 8149SOL    HW136083   3.563   4.442   5.936  2.2680  0.6703  0.8097
 8149SOL    HW236084   3.455   4.530   5.987 -0.5204 -0.7747  1.1050
 8150SOL     OW36085   0.319   0.468   8.863  0.0262  0.0925  0.0646
 8150SOL    HW136086   0.350   0.549   8.821  1.4897 -0.1114  0.7600
 8150SOL    HW236087   0.335   0.484   8.956 -1.7100 -0.0095  0.3759
 8151SOL     OW36088   2.252   0.290   5.798  0.5982 -0.1832  0.3046
 8151SOL    HW136089   2.277   0.297   5.890  1.4929  0.4581  0.0129
 8151SOL    HW236090   2.172   0.238   5.794  0.5634 -0.1785  0.9650
 8152SOL     OW36091   0.746   0.202   2.719  0.4247  0.3940 -0.6466
 8152SOL    HW136092   0.654   0.202   2.690 -0.2364  0.0585  1.4442
 8152SOL    HW236093   0.751   0.119   2.768  1.9570  1.3764  0.8421
 8153SOL     OW36094   1.027   1.396   3.593 -0.6946 -0.3679 -0.2151
 8153SOL    HW136095   1.113   1.427   3.567 -0.5963  0.5658  1.2187
 8153SOL    HW236096   0.990   1.479   3.624  1.7896  0.1707  1.2792
 8154SOL     OW36097   3.849   1.655   0.642 -0.3054 -0.4023  0.0938
 8154SOL    HW136098   3.849   1.650   0.547  1.4212  0.5991  0.0456
 8154SOL    HW236099   3.847   1.750   0.651 -0.3434 -0.0842 -3.3238
 8155SOL     OW36100   1.553   3.767   3.693 -0.1682  0.3748  0.8791
 8155SOL    HW136101   1.493   3.841   3.691 -0.8884 -0.1710  2.4755
 8155SOL    HW236102   1.632   3.811   3.724  0.3502  1.8471 -2.5177
 8156SOL     OW36103   0.817   0.501   5.250  0.0138 -0.0304  0.2082
 8156SOL    HW136104   0.821   0.476   5.158 -2.4987  1.3328 -0.2618
 8156SOL    HW236105   0.879   0.573   5.261  0.1209 -0.2514  1.0346
 8157SOL     OW36106   0.365   1.506   8.407  0.3498 -0.1862  0.2971
 8157SOL    HW136107   0.378   1.486   8.314  0.2749 -2.8062  0.8328
 8157SOL    HW236108   0.294   1.442   8.411  2.2290 -2.2991 -0.4095
 8158SOL     OW36109   4.030   1.166  11.256 -0.1273  0.3147  0.8748
 8158SOL    HW136110   4.009   1.107  11.183  4.1744  1.6332 -1.4428
 8158SOL    HW236111   4.035   1.111  11.334  1.5149 -2.0600 -0.8791
 8159SOL     OW36112   0.595   2.223  16.630 -0.2830 -0.6612 -0.0048
 8159SOL    HW136113   0.658   2.294  16.621  0.5281 -1.3192  0.4877
 8159SOL    HW236114   0.535   2.257  16.697 -0.7160  0.3363 -0.9084
 8160SOL     OW36115   2.233   1.476  10.789 -0.4870 -0.3499  0.5189
 8160SOL    HW136116   2.224   1.444  10.699  0.4296  1.1964 -0.1156
 8160SOL    HW236117   2.284   1.555  10.774 -0.5621 -0.1606  1.2908
 8161SOL     OW36118   1.517   0.949   6.972 -0.1120 -0.1359  1.0869
 8161SOL    HW136119   1.485   0.917   7.056  0.3930 -0.1194  1.2859
 8161SOL    HW236120   1.612   0.936   6.982 -0.1619  0.4883  2.2984
 8162SOL     OW36121   2.478   1.078  17.352  0.1161  0.1180  0.0005
 8162SOL    HW136122   2.421   1.149  17.380  0.1003 -0.5125  1.5764
 8162SOL    HW236123   2.489   1.029  17.434 -2.2322  1.6214  1.2086
 8163SOL     OW36124   0.549   0.978   7.201 -0.1540  0.6467 -0.2698
 8163SOL    HW136125   0.629   1.029   7.190 -0.3028  0.2213 -3.3555
 8163SOL    HW236126   0.562   0.953   7.292 -0.9950  2.0895  0.2621
 8164SOL     OW36127   2.670   0.791   0.261 -0.1698  0.2239 -0.0493
 8164SOL    HW136128   2.665   0.724   0.330 -0.5441 -0.5167 -0.8068
 8164SOL    HW236129   2.753   0.836   0.278  1.2295 -1.3353 -2.8642
 8165SOL     OW36130   1.597   0.611   7.235 -0.7100 -0.3101  0.4629
 8165SOL    HW136131   1.680   0.631   7.277 -0.1594  0.9858 -1.2496
 8165SOL    HW236132   1.629   0.606   7.145  3.3937  1.6387  1.8416
 8166SOL     OW36133   2.545   0.795  16.750  0.3556 -0.1792 -0.6061
 8166SOL    HW136134   2.621   0.782  16.692  0.7118 -0.0555 -0.1702
 8166SOL    HW236135   2.496   0.712  16.745 -0.7505  0.4103  0.6183
 8167SOL     OW36136   2.093   0.939   6.794 -0.1047 -0.1006  0.3999
 8167SOL    HW136137   2.144   0.969   6.719 -1.0949 -2.2177 -1.1373
 8167SOL    HW236138   2.031   0.874   6.759 -1.0982  0.1345  1.7299
 8168SOL     OW36139   2.453   0.634   3.078 -0.0490  0.7793  0.0028
 8168SOL    HW136140   2.437   0.711   3.133 -1.1892  0.7843 -0.3445
 8168SOL    HW236141   2.402   0.567   3.123  1.6557 -0.5413  0.0038
 8169SOL     OW36142   2.748   4.127  13.386 -0.2061  0.2291  0.1963
 8169SOL    HW136143   2.731   4.174  13.304 -2.1725  0.8089  0.9253
 8169SOL    HW236144   2.667   4.077  13.392  0.7069 -1.3247 -0.4775
 8170SOL     OW36145   2.473   2.855   2.282 -0.2547  0.0002 -0.4907
 8170SOL    HW136146   2.518   2.808   2.211  2.9994 -1.4139  2.5119
 8170SOL    HW236147   2.450   2.788   2.346  2.5416 -1.4871 -1.0145
 8171SOL     OW36148   3.839   4.336   9.075  0.2679 -0.1318  0.6857
 8171SOL    HW136149   3.934   4.344   9.070  0.1292  1.3283  0.2218
 8171SOL    HW236150   3.796   4.414   9.039 -2.5335 -1.3494  1.4133
 8172SOL     OW36151   4.252   3.190   8.530 -0.4358  0.5444  0.3902
 8172SOL    HW136152   4.232   3.264   8.472 -2.6108 -1.6987 -1.6946
 8172SOL    HW236153   4.279   3.120   8.472  0.2810  1.6942 -0.6594
 8173SOL     OW36154   0.749   3.548  11.663  0.0080  0.2209 -0.1313
 8173SOL    HW136155   0.731   3.454  11.665 -0.8132  0.3478 -1.7290
 8173SOL    HW236156   0.779   3.546  11.573 -0.1078 -1.0233 -0.1400
 8174SOL     OW36157   1.038   4.020   7.425 -0.4473 -0.9542  0.7503
 8174SOL    HW136158   1.092   3.988   7.498 -1.2471  0.9345  2.1573
 8174SOL    HW236159   1.098   4.036   7.352  0.7049  0.6523  2.0554
 8175SOL     OW36160   1.163   2.327   0.276 -0.0037 -0.1538  0.1839
 8175SOL    HW136161   1.183   2.337   0.184 -1.6650 -0.6718 -0.2399
 8175SOL    HW236162   1.240   2.276   0.299 -1.3471 -0.5524  3.9250
 8176SOL     OW36163   0.624   4.343   7.192  0.3232 -0.1214 -0.5826
 8176SOL    HW136164   0.719   4.341   7.181  0.4341 -2.4202  0.8529
 8176SOL    HW236165   0.592   4.405   7.127 -0.6272  0.8094  0.7710
 8177SOL     OW36166   2.247   3.936   4.203 -0.3247 -0.0207 -0.1012
 8177SOL    HW136167   2.264   3.863   4.263  0.2052  1.3898  1.4616
 8177SOL    HW236168   2.155   3.963   4.197 -0.4502 -0.0504  1.6469
 8178SOL     OW36169   3.823   1.081   4.459 -0.9320  0.2545 -0.2388
 8178SOL    HW136170   3.790   1.037   4.381 -0.7891  2.1482 -1.3731
 8178SOL    HW236171   3.765   1.153   4.486  2.5362  2.3366  1.6685
 8179SOL     OW36172   1.145   1.622   2.606 -0.2752 -0.4253 -0.4296
 8179SOL    HW136173   1.127   1.593   2.695  0.2401 -1.1095 -0.5498
 8179SOL    HW236174   1.237   1.596   2.595 -0.2207  0.1469 -1.3753
 8180SOL     OW36175   3.522   3.035   1.768  0.0767 -0.1104 -0.0578
 8180SOL    HW136176   3.491   3.123   1.793 -0.1403  0.6431 -2.9645
 8180SOL    HW236177   3.568   3.039   1.684 -0.8706  1.0210 -0.5328
 8181SOL     OW36178   2.112   2.333   2.011  0.1852  0.4337  0.2027
 8181SOL    HW136179   2.049   2.264   2.031  0.5387 -0.2970 -1.2252
 8181SOL    HW236180   2.055   2.390   1.958  1.5357  0.0794 -1.6298
 8182SOL     OW36181   0.993   2.350   7.995 -0.6760  0.0215  0.2035
 8182SOL    HW136182   0.975   2.444   7.995  0.4492  0.2295  1.3166
 8182SOL    HW236183   0.907   2.317   7.972 -0.6827  0.1850 -0.0090
 8183SOL     OW36184   3.201   0.038   1.415 -0.2171 -0.4830 -0.0220
 8183SOL    HW136185   3.117   0.039   1.462  0.2334  0.5031  0.7575
 8183SOL    HW236186   3.270   0.038   1.481  0.8468  1.5582 -1.1523
 8184SOL     OW36187   1.672   3.198   1.927  0.3148  0.0188 -0.1111
 8184SOL    HW136188   1.607   3.264   1.903  0.4865  0.4346  0.5637
 8184SOL    HW236189   1.720   3.245   1.995  0.6596  0.9180 -0.9916
 8185SOL     OW36190   3.533   4.233  14.030  0.0357  0.1315 -1.3410
 8185SOL    HW136191   3.555   4.280  13.950  1.3682  1.3162 -0.2887
 8185SOL    HW236192   3.620   4.199  14.051 -1.1305 -1.1758  1.3460
 8186SOL     OW36193   2.366   4.490   4.014 -0.3910 -0.5835  0.0695
 8186SOL    HW136194   2.313   4.534   3.947 -0.6650 -2.3700 -0.8695
 8186SOL    HW236195   2.372   4.403   3.975  0.5843 -0.2612 -0.4991
 8187SOL     OW36196   2.408   2.039   1.912  0.2798  0.3849 -0.0081
 8187SOL    HW136197   2.413   2.130   1.941 -0.2851  0.9236 -1.6171
 8187SOL    HW236198   2.312   2.042   1.916  0.1753  0.1715 -2.8794
 8188SOL     OW36199   0.178   1.589   3.004 -0.5791 -0.1972  0.1248
 8188SOL    HW136200   0.170   1.503   2.963  0.5233 -0.5528  0.6391
 8188SOL    HW236201   0.192   1.643   2.926  0.7835  0.8304  1.0774
 8189SOL     OW36202   4.627   0.895  16.336  0.1414  0.1785  0.0414
 8189SOL    HW136203   4.587   0.982  16.325 -0.6357 -0.3667 -1.3712
 8189SOL    HW236204   4.680   0.908  16.414 -1.4610 -1.4702  1.4013
 8190SOL     OW36205   1.531   3.369  14.999 -0.0852  0.1416  0.1624
 8190SOL    HW136206   1.439   3.343  14.988  0.1156  0.4146 -2.0701
 8190SOL    HW236207   1.524   3.432  15.071  1.4509  1.4769 -0.8742
 8191SOL     OW36208   1.715   2.674   7.160  0.4245 -0.6091  0.1527
 8191SOL    HW136209   1.799   2.662   7.204  2.0134  1.2450 -2.4026
 8191SOL    HW236210   1.653   2.704   7.227 -0.5592  1.9269 -1.8841
 8192SOL     OW36211   2.113   3.303  14.838 -0.3796  0.6176 -0.0559
 8192SOL    HW136212   2.054   3.229  14.825  0.8469 -0.3515 -0.1702
 8192SOL    HW236213   2.125   3.328  14.746  0.4136  0.6738  0.0592
 8193SOL     OW36214   0.977   3.966   5.835 -0.1804  0.1428  0.0361
 8193SOL    HW136215   1.020   3.902   5.778  0.0105  1.1495 -0.9337
 8193SOL    HW236216   0.901   3.913   5.858 -0.5549 -0.9117 -3.6598
 8194SOL     OW36217   2.025   1.535   2.647  0.0530 -0.1948  0.2040
 8194SOL    HW136218   2.111   1.494   2.631  0.3524  1.3531 -2.0953
 8194SOL    HW236219   2.050   1.627   2.650 -0.9864  0.0460  1.2778
 8195SOL     OW36220   3.865   1.886   6.242 -0.3791  0.8177  0.1275
 8195SOL    HW136221   3.952   1.877   6.203 -0.5292  1.1422 -0.2880
 8195SOL    HW236222   3.874   1.966   6.293  0.6008  1.0951 -0.4578
 8196SOL     OW36223   2.112   1.922   3.030 -0.6665  0.0831  0.1066
 8196SOL    HW136224   2.082   1.846   3.080  0.4339 -1.3303 -1.3660
 8196SOL    HW236225   2.188   1.874   2.999 -1.9077 -2.2491  0.6775
 8197SOL     OW36226   2.352   0.714  17.273  0.1525 -0.0607  0.2201
 8197SOL    HW136227   2.331   0.729  17.181 -2.3506  1.6774  1.0804
 8197SOL    HW236228   2.299   0.638  17.296  0.8280 -0.8425 -0.7757
 8198SOL     OW36229   2.200   1.246  15.038 -0.3696  0.1041 -0.1149
 8198SOL    HW136230   2.188   1.338  15.012 -1.2869 -0.2294 -0.8615
 8198SOL    HW236231   2.195   1.264  15.132 -1.0405  2.1038 -0.5179
 8199SOL     OW36232   0.328   3.861   4.091 -0.7571 -0.5804  0.0270
 8199SOL    HW136233   0.243   3.904   4.099  0.4438  1.7096  0.3440
 8199SOL    HW236234   0.351   3.882   4.000  1.3637  2.6842  1.3642
 8200SOL     OW36235   1.903   1.731   3.144 -0.2474  0.2015 -0.1630
 8200SOL    HW136236   1.884   1.772   3.060  1.0529  0.1758 -0.4744
 8200SOL    HW236237   1.812   1.718   3.169 -0.2349 -0.1811 -0.3293
 8201SOL     OW36238   1.296   2.944  17.400 -0.1250 -0.2968  0.1869
 8201SOL    HW136239   1.299   2.916  17.308  0.6161  0.8711 -0.1353
 8201SOL    HW236240   1.203   2.927  17.418 -0.3033  0.1578 -0.3282
 8202SOL     OW36241   2.549   1.509   7.143  0.3530 -0.4068 -0.8802
 8202SOL    HW136242   2.511   1.576   7.200  0.8694 -0.3010 -0.6585
 8202SOL    HW236243   2.539   1.434   7.201  1.6635  0.9173  1.0855
 8203SOL     OW36244   2.982   0.928   5.708 -0.4042  0.4031 -0.0452
 8203SOL    HW136245   2.970   0.986   5.783 -0.4619  2.1447 -1.4081
 8203SOL    HW236246   3.051   0.875   5.748  0.2929  1.5972  0.3320
 8204SOL     OW36247   2.289   2.224   5.411  0.4599  0.0659 -0.5448
 8204SOL    HW136248   2.350   2.239   5.482  1.1754 -0.6719 -0.9982
 8204SOL    HW236249   2.348   2.188   5.344  0.7104 -0.4558 -0.0399
 8205SOL     OW36250   4.242   4.420   0.318  0.0945 -0.1183 -0.2266
 8205SOL    HW136251   4.306   4.361   0.358 -0.5214 -2.2083 -2.2943
 8205SOL    HW236252   4.292   4.496   0.291  0.6942 -0.8709 -1.2591
 8206SOL     OW36253   2.770   3.160   4.108  0.6217  0.1631  0.0214
 8206SOL    HW136254   2.726   3.172   4.025  2.6626  1.7132 -0.8343
 8206SOL    HW236255   2.862   3.167   4.082  0.5720 -2.6437 -0.9431
 8207SOL     OW36256   1.317   0.437   0.220  0.0637 -0.2567 -0.9365
 8207SOL    HW136257   1.335   0.529   0.239  0.1722  0.0258 -2.4180
 8207SOL    HW236258   1.404   0.396   0.220 -0.0826 -0.5866  2.2508
 8208SOL     OW36259   4.128   3.610   5.494  0.2170 -0.6584  0.8809
 8208SOL    HW136260   4.121   3.535   5.435  0.1366  0.2719 -0.2977
 8208SOL    HW236261   4.154   3.566   5.575 -0.3855 -2.5238  0.0421
 8209SOL     OW36262   1.728   1.233   5.951 -0.2935  0.2635 -0.7009
 8209SOL    HW136263   1.724   1.137   5.949  1.3255  0.2126 -1.3953
 8209SOL    HW236264   1.640   1.260   5.975 -0.0922  0.7702 -0.5423
 8210SOL     OW36265   2.507   1.304   7.307 -0.7904  0.3292 -0.2918
 8210SOL    HW136266   2.486   1.221   7.265 -0.2506  1.4164 -2.7275
 8210SOL    HW236267   2.513   1.284   7.400  2.0617  0.9245 -0.3449
 8211SOL     OW36268   2.758   3.669   3.799  0.2659  0.0531  0.5184
 8211SOL    HW136269   2.840   3.634   3.834  0.4310  0.5393  0.6196
 8211SOL    HW236270   2.737   3.623   3.718  1.9591 -1.4497  0.9382
 8212SOL     OW36271   1.194   0.127   9.402 -0.1598  0.6804 -0.1580
 8212SOL    HW136272   1.148   0.104   9.483  0.0667 -0.1111 -0.2545
 8212SOL    HW236273   1.287   0.117   9.421 -0.4128  2.4164  1.9237
 8213SOL     OW36274   3.039   1.271   7.330 -0.6195  0.4207  0.2963
 8213SOL    HW136275   3.051   1.242   7.420 -1.7327 -1.3384 -0.1153
 8213SOL    HW236276   3.064   1.363   7.340 -0.8376  0.5713 -0.5312
 8214SOL     OW36277   2.349   3.717   3.200  0.0811  0.0302 -0.4697
 8214SOL    HW136278   2.347   3.632   3.156 -0.3666  0.6826 -1.7079
 8214SOL    HW236279   2.440   3.745   3.212  0.0937  0.3821 -1.4152
 8215SOL     OW36280   3.051   0.386  17.039  0.0679 -0.3136 -0.1469
 8215SOL    HW136281   3.141   0.361  17.014 -1.0921  0.1648 -4.7122
 8215SOL    HW236282   3.052   0.470  16.995  0.2765 -0.8138 -1.1103
 8216SOL     OW36283   0.478   1.766  12.020  0.4596 -0.5783 -0.3204
 8216SOL    HW136284   0.391   1.786  11.985  1.1763  1.8397 -0.7070
 8216SOL    HW236285   0.515   1.718  11.946  1.6840 -1.1490  0.6646
 8217SOL     OW36286   3.560   1.900   7.874 -0.0491  0.5953  0.0102
 8217SOL    HW136287   3.572   1.853   7.956 -1.4829  1.1800  0.5490
 8217SOL    HW236288   3.593   1.985   7.903  2.7335  0.2112 -1.9459
 8218SOL     OW36289   0.292   2.872  14.491 -0.3608 -0.1681  0.3774
 8218SOL    HW136290   0.353   2.845  14.423  0.1328  1.6278  0.0983
 8218SOL    HW236291   0.323   2.958  14.520  0.8732  0.7920 -3.7536
 8219SOL     OW36292   3.783   2.694   9.246  0.2753  0.7606 -0.3792
 8219SOL    HW136293   3.864   2.666   9.290  1.4057  1.0556 -2.2615
 8219SOL    HW236294   3.821   2.776   9.216 -3.6696  2.2089 -1.3406
 8220SOL     OW36295   4.173   1.031  13.227  0.4444  0.3042  0.1925
 8220SOL    HW136296   4.216   1.063  13.148 -0.3323 -0.8727 -0.7054
 8220SOL    HW236297   4.220   1.072  13.299  2.7959 -0.3222 -0.9800
 8221SOL     OW36298   0.571   0.672   7.959 -0.3353 -0.5875  0.0339
 8221SOL    HW136299   0.478   0.677   7.936 -0.3805 -0.5655  0.2212
 8221SOL    HW236300   0.568   0.579   7.983 -1.2257 -0.4178  0.5804
 8222SOL     OW36301   4.487   4.422   4.240 -0.4921  0.2573 -0.6219
 8222SOL    HW136302   4.404   4.421   4.191  0.5666 -0.4537 -2.3950
 8222SOL    HW236303   4.555   4.411   4.173  2.9200  0.7088  2.8173
 8223SOL     OW36304   0.882   0.500   3.428  0.2317  0.5479  0.3864
 8223SOL    HW136305   0.919   0.464   3.348  0.1044  0.1141  0.5231
 8223SOL    HW236306   0.963   0.498   3.479  0.3172 -0.0439  0.2182
 8224SOL     OW36307   3.697   1.121   8.749  0.1431  0.2459  0.3476
 8224SOL    HW136308   3.640   1.082   8.683  1.3759  0.1948 -0.6908
 8224SOL    HW236309   3.638   1.192   8.775 -0.2150 -0.1867  0.7093
 8225SOL     OW36310   3.189   2.377   0.675  0.6585 -0.3829 -0.2982
 8225SOL    HW136311   3.164   2.427   0.598 -0.3505 -0.0762  0.2208
 8225SOL    HW236312   3.107   2.334   0.699  0.4937  1.0537  1.8093
 8226SOL     OW36313   1.690   2.678   5.741  0.7420  0.4378  0.2185
 8226SOL    HW136314   1.697   2.738   5.666  2.7550 -1.7525 -1.3493
 8226SOL    HW236315   1.777   2.640   5.749 -0.5073 -2.0256  1.9131
 8227SOL     OW36316   1.492   3.452   5.703 -0.2149  0.3072 -0.2238
 8227SOL    HW136317   1.492   3.429   5.610 -2.8521  1.5346 -0.5129
 8227SOL    HW236318   1.525   3.542   5.702  2.3979 -0.6392  0.2738
 8228SOL     OW36319   3.022   4.205   5.529 -0.1133 -0.0575  0.1268
 8228SOL    HW136320   3.099   4.152   5.506 -0.1384 -0.2313  0.4261
 8228SOL    HW236321   2.956   4.136   5.534 -0.3397  0.2015  0.6714
 8229SOL     OW36322   3.634   1.826   9.336 -0.3944  0.2801 -0.5552
 8229SOL    HW136323   3.546   1.862   9.325 -0.9001 -0.0124  2.7363
 8229SOL    HW236324   3.625   1.812   9.430  0.7205  2.7037 -0.0813
 8230SOL     OW36325   4.537   1.502   1.154  0.2850 -0.0097  0.1687
 8230SOL    HW136326   4.539   1.514   1.059 -0.0447 -0.9240  0.0390
 8230SOL    HW236327   4.549   1.594   1.176 -0.7249  0.5776 -1.7267
 8231SOL     OW36328   2.667   4.171  10.167  0.1943  0.1085 -0.5961
 8231SOL    HW136329   2.579   4.164  10.129  0.0578  0.3527 -0.3230
 8231SOL    HW236330   2.651   4.124  10.249 -3.0263  0.0919 -1.2301
 8232SOL     OW36331   0.026   4.699   4.491 -0.9361 -0.5936  0.2632
 8232SOL    HW136332   0.008   0.055   4.508  1.2335 -0.1812  0.3155
 8232SOL    HW236333   4.721   4.644   4.558  0.8975 -2.1749  0.0842
 8233SOL     OW36334   4.476   4.728   5.448  0.0348  0.2404 -0.4153
 8233SOL    HW136335   4.397   4.693   5.406 -1.5557  2.2228  0.9187
 8233SOL    HW236336   4.437   0.043   5.519  2.4735  1.6118 -0.0575
 8234SOL     OW36337   0.905   2.030   5.619 -0.7162  0.9011 -0.3420
 8234SOL    HW136338   0.982   2.031   5.676 -1.0536  0.6290  0.1264
 8234SOL    HW236339   0.938   2.074   5.541 -0.5165  1.2523 -0.0641
 8235SOL     OW36340   0.529   1.694  10.267 -0.3286 -0.2979  0.2887
 8235SOL    HW136341   0.606   1.745  10.240 -0.4948 -0.0590  0.2578
 8235SOL    HW236342   0.453   1.739  10.230 -0.0866 -0.9049 -0.9410
 8236SOL     OW36343   1.088   1.540   3.299  0.0235  0.2648  0.3455
 8236SOL    HW136344   1.118   1.449   3.291  0.3918  0.4014  0.1989
 8236SOL    HW236345   1.137   1.552   3.380 -1.9199 -0.9347  1.6979
 8237SOL     OW36346   1.877   3.713   1.873  0.0840 -0.6242  0.2525
 8237SOL    HW136347   1.914   3.770   1.940 -3.9191  1.3569  0.7627
 8237SOL    HW236348   1.920   3.630   1.894  0.6550 -0.0398  1.3823
 8238SOL     OW36349   4.413   0.695   5.038 -0.2565  0.0098  0.2398
 8238SOL    HW136350   4.365   0.644   4.973 -1.3242  0.0150  1.0373
 8238SOL    HW236351   4.359   0.684   5.116 -2.2887  0.1196 -1.1420
 8239SOL     OW36352   4.397   3.570   2.022  0.5865  0.1514 -0.4717
 8239SOL    HW136353   4.376   3.476   2.023 -1.1583  0.5507 -0.6144
 8239SOL    HW236354   4.384   3.596   1.931  0.0467  0.4829 -0.2940
 8240SOL     OW36355   1.129   4.281  11.639 -0.5997 -0.2883  0.1274
 8240SOL    HW136356   1.166   4.209  11.589  0.6731  1.2385 -1.1278
 8240SOL    HW236357   1.134   4.353  11.576  1.4601  1.1909  2.0041
 8241SOL     OW36358   2.674   1.661   0.283  0.3467  0.1713  0.1731
 8241SOL    HW136359   2.696   1.692   0.371  2.3186 -1.9019  0.3955
 8241SOL    HW236360   2.670   1.746   0.239 -1.0265  0.0458  0.0735
 8242SOL     OW36361   3.636   4.361   6.698 -0.2868 -0.0853  0.0902
 8242SOL    HW136362   3.723   4.324   6.714 -0.0098  0.1329 -0.8925
 8242SOL    HW236363   3.615   4.321   6.614  3.1760  0.3883 -0.9934
 8243SOL     OW36364   1.018   2.533  12.292  0.3108 -0.8398 -0.1401
 8243SOL    HW136365   0.931   2.554  12.257  0.3149  1.0097  0.9915
 8243SOL    HW236366   1.060   2.470  12.233  1.0649  0.0157 -0.5168
 8244SOL     OW36367   4.075   4.141   8.140 -0.1104  0.1113  0.4516
 8244SOL    HW136368   3.986   4.117   8.113 -0.6107  2.1284  0.2844
 8244SOL    HW236369   4.061   4.162   8.232 -0.4721  0.8046  0.2407
 8245SOL     OW36370   3.308   2.195  12.509 -0.3445 -0.0083  0.3020
 8245SOL    HW136371   3.318   2.119  12.451  1.0835  0.0988  0.4116
 8245SOL    HW236372   3.274   2.257  12.445 -0.5637 -0.0868  0.3426
 8246SOL     OW36373   1.309   3.003   8.656 -0.0107  0.2002  0.6886
 8246SOL    HW136374   1.382   2.941   8.655  1.9592  2.5591 -1.6178
 8246SOL    HW236375   1.238   2.942   8.638  1.2192 -1.3602  1.1097
 8247SOL     OW36376   2.251   1.412   3.714 -0.7122  0.7225  0.1811
 8247SOL    HW136377   2.338   1.380   3.691 -0.6268  1.4130 -0.4792
 8247SOL    HW236378   2.254   1.502   3.680 -1.8218  1.1654  1.2710
 8248SOL     OW36379   0.174   1.643   3.288 -0.0214 -0.1523  0.1889
 8248SOL    HW136380   0.198   1.732   3.261  0.0028 -1.0273 -2.5817
 8248SOL    HW236381   0.199   1.597   3.208 -0.3710 -0.2149  0.1179
 8249SOL     OW36382   0.652   2.949  15.980  0.7431 -0.2191 -0.3151
 8249SOL    HW136383   0.700   3.032  15.976  1.2644 -0.6158 -2.2096
 8249SOL    HW236384   0.572   2.984  15.941  1.4620  0.7259 -0.9356
 8250SOL     OW36385   2.286   4.370   7.862  0.2613 -0.2036  0.1801
 8250SOL    HW136386   2.316   4.285   7.830 -0.2677 -0.2307 -0.2287
 8250SOL    HW236387   2.192   4.354   7.858  0.3202 -0.6354  0.5469
 8251SOL     OW36388   1.475   2.945   3.461  0.2714 -0.1908  0.1027
 8251SOL    HW136389   1.477   2.878   3.529  0.6194 -0.7476 -0.4519
 8251SOL    HW236390   1.501   3.019   3.515 -0.5059 -0.1527  0.4168
 8252SOL     OW36391   4.506   2.248   3.941 -0.9749 -0.2825  0.1927
 8252SOL    HW136392   4.596   2.221   3.923 -0.4434  0.1042  2.2519
 8252SOL    HW236393   4.534   2.313   4.006  0.9781 -0.4827 -0.4577
 8253SOL     OW36394   3.131   2.987  16.217  0.0789  0.0019  0.1678
 8253SOL    HW136395   3.085   2.968  16.135 -0.5008  3.1121 -0.2158
 8253SOL    HW236396   3.196   3.049  16.184  0.5398 -1.5671 -1.9673
 8254SOL     OW36397   4.552   1.721   5.268 -0.6682 -0.1406  0.3073
 8254SOL    HW136398   4.620   1.727   5.335  0.3553  2.4219 -0.9829
 8254SOL    HW236399   4.603   1.705   5.189 -0.2673  0.1456  0.5080
 8255SOL     OW36400   1.260   4.653   3.363 -0.4244 -0.6260 -0.2866
 8255SOL    HW136401   1.225   0.003   3.385  2.5681  0.2946  0.9193
 8255SOL    HW236402   1.207   4.609   3.428 -1.2552  1.7312  0.6413
 8256SOL     OW36403   2.842   4.277   9.769 -0.4971 -0.4720 -0.2389
 8256SOL    HW136404   2.824   4.322   9.851 -2.6407 -0.7316 -0.5526
 8256SOL    HW236405   2.775   4.209   9.777 -0.1021 -0.8041  0.1508
 8257SOL     OW36406   0.365   2.846  12.413 -0.3630  0.0685  0.3201
 8257SOL    HW136407   0.308   2.888  12.478 -1.6341 -0.4720 -0.4553
 8257SOL    HW236408   0.387   2.924  12.363 -0.2443 -0.1912 -0.0353
 8258SOL     OW36409   3.746   1.463   3.316  0.2574 -0.3536 -0.6573
 8258SOL    HW136410   3.748   1.556   3.291  0.3223 -0.2225 -0.1778
 8258SOL    HW236411   3.687   1.467   3.391 -0.5681 -3.6723 -1.1354
 8259SOL     OW36412   4.646   2.307   8.194  0.0713  0.3429 -0.0566
 8259SOL    HW136413   4.722   2.365   8.184  0.5643 -0.7137 -2.4043
 8259SOL    HW236414   4.681   2.233   8.144 -1.1396 -0.6000  0.4988
 8260SOL     OW36415   1.738   3.931   3.880  0.1521  0.0684 -0.2128
 8260SOL    HW136416   1.690   4.014   3.875 -0.6402 -0.3329  0.5199
 8260SOL    HW236417   1.828   3.962   3.872  0.2040 -0.1385 -0.4165
 8261SOL     OW36418   1.666   0.749   9.727 -0.5209  0.4964 -0.0907
 8261SOL    HW136419   1.748   0.791   9.700 -0.3216  0.8447  1.0437
 8261SOL    HW236420   1.653   0.809   9.802 -2.7351 -1.5653  1.1690
 8262SOL     OW36421   2.349   3.815   8.837 -0.5201 -0.3564 -0.0160
 8262SOL    HW136422   2.376   3.886   8.895  0.8893  0.0128 -1.1497
 8262SOL    HW236423   2.300   3.869   8.775  0.1237  1.0330  0.7049
 8263SOL     OW36424   4.365   3.674   6.506 -0.3070 -0.4270 -0.4207
 8263SOL    HW136425   4.443   3.723   6.478 -1.3007  1.0077 -0.6931
 8263SOL    HW236426   4.294   3.736   6.488 -0.0348 -0.3844 -1.3594
 8264SOL     OW36427   4.235   3.496   1.076  0.0039  0.5029 -0.0696
 8264SOL    HW136428   4.243   3.432   1.147  1.0063 -0.2256 -0.8391
 8264SOL    HW236429   4.256   3.576   1.124 -2.6225  1.4847 -0.5345
 8265SOL     OW36430   4.207   4.734   2.699 -0.0349  0.5800  0.1900
 8265SOL    HW136431   4.266   4.675   2.746  0.3648  0.0339 -1.0168
 8265SOL    HW236432   4.134   4.735   2.762 -2.4451 -0.2744 -2.5930
 8266SOL     OW36433   4.534   4.725   2.914 -0.2013 -0.2528 -0.0621
 8266SOL    HW136434   4.466   0.055   2.929  0.5056  0.7093 -1.1384
 8266SOL    HW236435   4.590   0.024   2.983 -2.0221 -1.6476  2.1311
 8267SOL     OW36436   4.335   3.195  17.036 -0.4538 -0.0950  0.4413
 8267SOL    HW136437   4.347   3.279  17.081 -0.6373  1.2303 -2.0118
 8267SOL    HW236438   4.241   3.194  17.019 -0.3583 -1.7649  0.0339
 8268SOL     OW36439   1.289   1.601   5.341 -0.0942 -0.3236  0.6427
 8268SOL    HW136440   1.318   1.531   5.399  1.4672  0.2433  0.5396
 8268SOL    HW236441   1.198   1.609   5.371  0.0302  0.8795  0.6837
 8269SOL     OW36442   0.160   0.757   0.592 -0.1920  0.3097 -0.0560
 8269SOL    HW136443   0.184   0.728   0.504 -0.4416  0.3927 -0.1496
 8269SOL    HW236444   0.083   0.703   0.609  0.4777 -0.9680 -1.0484
 8270SOL     OW36445   3.096   3.471   4.529  0.3410 -0.4121 -0.3341
 8270SOL    HW136446   3.038   3.397   4.507  0.6101 -1.6088  2.9866
 8270SOL    HW236447   3.183   3.442   4.501  0.1050 -0.3873 -1.0750
 8271SOL     OW36448   2.527   3.392   8.955 -0.3566 -0.1961  0.0147
 8271SOL    HW136449   2.608   3.344   8.940 -0.8340 -1.0578  0.2400
 8271SOL    HW236450   2.466   3.338   8.905  2.0629 -3.0937  0.2294
 8272SOL     OW36451   2.670   4.165   5.311  0.1799  0.7416 -0.2551
 8272SOL    HW136452   2.691   4.174   5.218 -4.0582 -0.7358 -1.3580
 8272SOL    HW236453   2.605   4.095   5.310  1.6501 -0.6254 -0.2976
 8273SOL     OW36454   1.191   1.152  11.834  0.3279  0.1206 -0.1976
 8273SOL    HW136455   1.280   1.174  11.807  0.5261 -1.0377 -0.5094
 8273SOL    HW236456   1.148   1.176  11.752  3.0635  1.2738 -1.2866
 8274SOL     OW36457   0.804   2.178   7.831 -0.0672  0.2354 -0.2814
 8274SOL    HW136458   0.882   2.126   7.849  0.5451  1.4084  0.4771
 8274SOL    HW236459   0.841   2.229   7.758 -1.3021 -0.9911 -1.7584
 8275SOL     OW36460   3.255   3.738   8.793 -0.2352 -0.0038 -0.9020
 8275SOL    HW136461   3.188   3.786   8.842 -0.2118 -0.3442 -0.5308
 8275SOL    HW236462   3.290   3.696   8.872  0.5983  1.5024 -0.4556
 8276SOL     OW36463   2.007   3.811   2.099 -0.0938  0.3081  0.3035
 8276SOL    HW136464   2.021   3.724   2.135  2.3264 -0.4004 -2.3324
 8276SOL    HW236465   2.087   3.856   2.122  0.9961 -0.7958 -1.3070
 8277SOL     OW36466   4.622   1.159   9.178  0.3511  0.0051 -0.9284
 8277SOL    HW136467   4.653   1.093   9.240 -0.5363  2.4775  2.1374
 8277SOL    HW236468   4.673   1.141   9.099  2.0817  1.1219 -0.0606
 8278SOL     OW36469   4.556   3.484   4.954 -0.2132 -0.3260 -0.7511
 8278SOL    HW136470   4.629   3.519   4.903 -1.5121  1.9049 -1.0661
 8278SOL    HW236471   4.525   3.412   4.898 -0.5015  1.6011 -3.0541
 8279SOL     OW36472   3.310   2.999   2.123  0.5264  0.0238 -0.0627
 8279SOL    HW136473   3.236   3.057   2.106 -0.2310 -1.6603 -2.5595
 8279SOL    HW236474   3.267   2.920   2.153 -0.4280 -0.6383 -3.1690
 8280SOL     OW36475   3.705   1.243  12.777 -0.3468  0.0797 -0.0224
 8280SOL    HW136476   3.682   1.163  12.824 -0.1685  0.1168  0.1296
 8280SOL    HW236477   3.793   1.263  12.810  0.6598  0.7107 -3.0345
 8281SOL     OW36478   1.377   2.252   0.499 -0.3917  0.3068  0.1819
 8281SOL    HW136479   1.450   2.244   0.559  1.1607 -0.8545 -1.8532
 8281SOL    HW236480   1.317   2.188   0.537 -2.2612  2.4812  0.8844
 8282SOL     OW36481   2.183   2.791  12.116 -0.0283  0.1515 -0.0003
 8282SOL    HW136482   2.142   2.819  12.198 -1.1125 -0.1249 -0.4382
 8282SOL    HW236483   2.241   2.866  12.105 -0.2442  0.4800  1.1150
 8283SOL     OW36484   1.141   1.291   5.576 -0.1270  0.3116  0.0851
 8283SOL    HW136485   1.087   1.265   5.651  1.3381 -1.3868  0.5527
 8283SOL    HW236486   1.074   1.319   5.514 -0.7170 -1.7516 -0.2086
 8284SOL     OW36487   4.388   0.560   0.727 -0.2828 -0.1728  0.1517
 8284SOL    HW136488   4.427   0.536   0.811 -1.2996 -0.0614  0.6450
 8284SOL    HW236489   4.346   0.479   0.697 -1.1859 -0.1520  1.3702
 8285SOL     OW36490   2.731   1.875   5.383  0.3688  0.0403 -0.3766
 8285SOL    HW136491   2.738   1.925   5.302  0.3055 -2.2056 -1.7601
 8285SOL    HW236492   2.825   1.873   5.399  0.2981  0.1995  0.0596
 8286SOL     OW36493   1.705   1.840   2.348 -0.1880  0.2890  0.2521
 8286SOL    HW136494   1.673   1.828   2.438 -2.5894 -0.5134 -0.7214
 8286SOL    HW236495   1.623   1.871   2.310 -0.4792 -0.3928  0.3273
 8287SOL     OW36496   0.975   0.638  15.735  0.6754 -0.5469 -0.6101
 8287SOL    HW136497   1.041   0.606  15.673  2.5070 -1.4571  1.7795
 8287SOL    HW236498   0.994   0.731  15.744  0.3944 -0.6118  0.6151
 8288SOL     OW36499   3.607   3.602  12.769  0.4506  0.0575 -0.2669
 8288SOL    HW136500   3.553   3.627  12.694 -1.5076 -0.6424  0.8963
 8288SOL    HW236501   3.687   3.573  12.726 -0.3309 -0.4720 -1.3908
 8289SOL     OW36502   2.537   2.689   7.747  0.2625  0.0787 -0.6979
 8289SOL    HW136503   2.542   2.593   7.748  2.5543  0.1839 -2.9068
 8289SOL    HW236504   2.465   2.707   7.686 -0.5524  1.1622  0.5803
 8290SOL     OW36505   1.720   4.111   8.842  0.0095 -0.2160  0.6095
 8290SOL    HW136506   1.630   4.081   8.855 -0.0504  0.5272  1.8475
 8290SOL    HW236507   1.737   4.131   8.934  0.7575 -0.8041  0.5983
 8291SOL     OW36508   4.083   0.380   1.983 -0.3536  0.1848 -0.6838
 8291SOL    HW136509   4.173   0.412   1.986 -0.5500  0.6356  0.5410
 8291SOL    HW236510   4.046   0.448   2.039  0.5272 -0.7326  1.0195
 8292SOL     OW36511   1.258   0.758   6.702 -0.3368  0.3439  0.2675
 8292SOL    HW136512   1.335   0.797   6.661  0.8524 -4.4615 -1.9596
 8292SOL    HW236513   1.220   0.711   6.628  2.3433 -1.9533  0.3959
 8293SOL     OW36514   3.782   2.150   6.030  0.0306 -0.2663  0.1338
 8293SOL    HW136515   3.866   2.189   6.009 -1.8525  2.9003 -1.4701
 8293SOL    HW236516   3.744   2.220   6.083  0.0390  1.0413 -1.6038
 8294SOL     OW36517   0.322   3.855   1.163 -0.5035  0.0960 -0.2291
 8294SOL    HW136518   0.359   3.900   1.087  1.8852 -2.4538 -0.5985
 8294SOL    HW236519   0.328   3.767   1.125 -1.0786  0.1620 -0.4800
 8295SOL     OW36520   2.841   0.475   2.407  0.0424  0.5329  0.2623
 8295SOL    HW136521   2.914   0.430   2.365 -1.0473  0.8222 -1.9203
 8295SOL    HW236522   2.772   0.409   2.410  1.2509 -0.7676 -0.6205
 8296SOL     OW36523   1.723   3.269  14.333 -0.5494  0.4551  0.2884
 8296SOL    HW136524   1.700   3.361  14.349 -0.1891  0.4456  0.8672
 8296SOL    HW236525   1.723   3.224  14.418  0.3130  0.9854  0.5709
 8297SOL     OW36526   0.167   2.307  16.752  0.3725 -0.0434 -0.0722
 8297SOL    HW136527   0.120   2.271  16.676 -1.7582  0.9482  0.7863
 8297SOL    HW236528   0.128   2.394  16.754 -3.0682 -1.6096  0.4221
 8298SOL     OW36529   1.589   0.701   8.253  0.0029 -0.2307 -0.1280
 8298SOL    HW136530   1.625   0.644   8.321 -0.4589 -0.6788 -0.2532
 8298SOL    HW236531   1.498   0.698   8.285 -0.1256  1.4431 -0.3127
 8299SOL     OW36532   3.031   3.680   5.900  0.2030 -0.1094  0.2016
 8299SOL    HW136533   3.119   3.710   5.922  1.4201 -2.0519 -1.9681
 8299SOL    HW236534   3.031   3.701   5.807 -0.7642  2.9304  0.9020
 8300SOL     OW36535   3.202   2.942  12.546  0.2317 -0.5482  0.0687
 8300SOL    HW136536   3.176   2.911  12.460 -0.2549  0.5724 -0.1854
 8300SOL    HW236537   3.271   3.005  12.526  0.4602 -0.7366  0.2601
 8301SOL     OW36538   0.330   1.008   4.384  0.3658  0.0749  0.2802
 8301SOL    HW136539   0.309   1.056   4.303  0.2950 -0.5007 -0.0445
 8301SOL    HW236540   0.257   0.946   4.388  1.5029 -1.2518  0.4333
 8302SOL     OW36541   2.200   2.232   7.843 -0.2020  0.5953 -0.4682
 8302SOL    HW136542   2.185   2.260   7.934 -1.3393  1.8394 -1.0310
 8302SOL    HW236543   2.110   2.217   7.814 -0.5693  0.1700  0.8666
 8303SOL     OW36544   1.759   4.105   6.002 -0.0180 -0.2131  0.3746
 8303SOL    HW136545   1.743   4.037   5.935 -0.9564  0.6486 -0.2744
 8303SOL    HW236546   1.837   4.145   5.964  1.6106 -2.4393  1.3658
 8304SOL     OW36547   3.155   0.854   2.813 -0.4937  0.1178 -0.5149
 8304SOL    HW136548   3.111   0.932   2.779 -1.4807 -0.4246 -0.5063
 8304SOL    HW236549   3.241   0.863   2.773 -0.2356 -1.7901 -0.4099
 8305SOL     OW36550   0.671   4.001   4.121  0.1026 -0.0793 -0.2321
 8305SOL    HW136551   0.720   3.920   4.104  0.9284  0.5659 -0.8827
 8305SOL    HW236552   0.586   3.961   4.141 -0.4621  1.9953  1.4997
 8306SOL     OW36553   4.033   3.794   5.039  0.3638  0.7728  0.7271
 8306SOL    HW136554   4.036   3.877   5.086 -0.3082 -0.1926  2.4863
 8306SOL    HW236555   4.125   3.785   5.011 -0.2210 -0.8878 -0.6337
 8307SOL     OW36556   1.839   1.390   8.414 -0.1308 -0.4751  0.0758
 8307SOL    HW136557   1.827   1.297   8.396 -2.5629 -0.0733 -0.3508
 8307SOL    HW236558   1.929   1.387   8.447 -0.0163  0.3963 -0.1516
 8308SOL     OW36559   0.557   2.280   7.142 -0.0278 -0.6637  0.7037
 8308SOL    HW136560   0.625   2.310   7.203 -1.2749  1.0831  1.2377
 8308SOL    HW236561   0.476   2.279   7.193 -1.4424 -1.5016 -1.5842
 8309SOL     OW36562   0.718   1.555  12.574 -0.1187 -0.1661 -0.4342
 8309SOL    HW136563   0.757   1.476  12.611 -0.6392  0.9495  2.4726
 8309SOL    HW236564   0.683   1.582  12.659  0.0132 -1.2399 -0.0402
 8310SOL     OW36565   1.075   3.556   0.450 -0.1498  0.9703 -0.7417
 8310SOL    HW136566   1.125   3.474   0.460  1.3183  1.7465 -1.7617
 8310SOL    HW236567   1.015   3.529   0.381 -0.0970  0.8117 -0.7263
 8311SOL     OW36568   1.355   0.590   2.894  0.2925  0.0913 -0.1843
 8311SOL    HW136569   1.348   0.667   2.838 -1.0633  0.0782 -0.0479
 8311SOL    HW236570   1.314   0.626   2.973  2.4389  3.0960 -0.4436
 8312SOL     OW36571   1.124   1.210   8.207 -0.1981  0.2152  0.1236
 8312SOL    HW136572   1.108   1.256   8.124 -1.0914 -0.7759 -0.2675
 8312SOL    HW236573   1.126   1.119   8.176  2.5250  0.3202  0.0444
 8313SOL     OW36574   1.644   1.379   8.611 -0.5032 -0.0621  0.0390
 8313SOL    HW136575   1.606   1.457   8.653 -0.9333 -0.2159 -0.0633
 8313SOL    HW236576   1.682   1.411   8.529  0.0151 -1.1518 -0.1442
 8314SOL     OW36577   1.839   0.071   6.735  0.1235 -0.0689 -0.1271
 8314SOL    HW136578   1.928   0.100   6.714  0.2815  0.1788  0.9028
 8314SOL    HW236579   1.852   4.715   6.711  1.9998  0.1343  0.1017
 8315SOL     OW36580   0.315   1.428   3.600 -0.0064 -0.3715  1.0812
 8315SOL    HW136581   0.358   1.464   3.678 -0.1757 -0.8727  1.4010
 8315SOL    HW236582   0.377   1.358   3.579  1.6511  0.9593  1.4729
 8316SOL     OW36583   3.580   3.096   5.001  0.6984  0.5111 -0.1401
 8316SOL    HW136584   3.495   3.095   4.957  1.2716  0.0489 -1.2379
 8316SOL    HW236585   3.635   3.123   4.928  0.8219  0.0302 -0.2271
 8317SOL     OW36586   3.046   3.998  12.534  0.2840 -0.0994  0.2208
 8317SOL    HW136587   3.079   4.058  12.601 -0.6543  2.3097 -1.4796
 8317SOL    HW236588   2.972   4.049  12.501 -0.0323 -0.5448  0.2294
 8318SOL     OW36589   4.498   2.689  15.505  0.1119  0.2134 -0.1689
 8318SOL    HW136590   4.518   2.756  15.440 -0.7062  1.4511  0.8577
 8318SOL    HW236591   4.481   2.613  15.449  0.9917 -0.3852  0.3656
 8319SOL     OW36592   3.230   2.706   9.150  0.2013 -0.0231  0.1601
 8319SOL    HW136593   3.295   2.760   9.196  1.4611 -0.4036 -1.1527
 8319SOL    HW236594   3.266   2.682   9.065  1.2943  1.7931  0.1097
 8320SOL     OW36595   2.405   4.578  17.554 -0.1217 -0.1460 -0.5542
 8320SOL    HW136596   2.447   4.664  17.559  0.7868 -0.6376  0.1984
 8320SOL    HW236597   2.415   4.554  17.646  1.7314  3.4603  0.1921
 8321SOL     OW36598   3.898   3.776   4.755 -1.4651 -0.0320  0.0934
 8321SOL    HW136599   3.964   3.707   4.758 -0.5566  0.8547  0.8440
 8321SOL    HW236600   3.962   3.846   4.769 -0.4098 -0.5730 -2.0327
 8322SOL     OW36601   4.354   0.813   7.192 -0.4253  0.1863 -0.0546
 8322SOL    HW136602   4.344   0.906   7.174 -2.0795  0.1775  0.7607
 8322SOL    HW236603   4.417   0.795   7.122 -0.5070  1.3847 -0.4393
 8323SOL     OW36604   1.599   4.586   5.184  0.1105  0.4802 -0.2800
 8323SOL    HW136605   1.524   4.646   5.184  0.0012  0.3573  1.9616
 8323SOL    HW236606   1.578   4.513   5.242  0.6464  0.3493 -0.2472
 8324SOL     OW36607   1.525   3.834  16.579 -0.1268 -0.0138  0.2578
 8324SOL    HW136608   1.528   3.770  16.650  1.6670  0.7190  0.8472
 8324SOL    HW236609   1.599   3.823  16.519 -1.3945 -3.6625 -0.5775
 8325SOL     OW36610   1.253   4.536   5.265  0.4864 -0.1969 -0.4608
 8325SOL    HW136611   1.169   4.581   5.266  1.3575  1.3490  2.3124
 8325SOL    HW236612   1.317   4.591   5.310  1.1456  0.1693 -1.8621
 8326SOL     OW36613   3.768   0.547   0.857 -0.7149  0.2319  0.3546
 8326SOL    HW136614   3.792   0.487   0.928 -0.9362  1.6710  1.6461
 8326SOL    HW236615   3.685   0.507   0.830 -0.8421  0.7119  0.0551
 8327SOL     OW36616   2.162   0.453   0.802  0.7982 -0.1136 -0.6779
 8327SOL    HW136617   2.117   0.535   0.781  0.8433 -0.0964 -0.7071
 8327SOL    HW236618   2.120   0.394   0.740 -1.5240 -0.4092  1.1768
 8328SOL     OW36619   2.429   1.562  12.553 -0.1444  0.2131  0.1461
 8328SOL    HW136620   2.371   1.493  12.584 -1.1458 -1.1922 -4.8077
 8328SOL    HW236621   2.406   1.630  12.616 -0.3986  0.5158 -0.2668
 8329SOL     OW36622   2.846   2.722   8.275  0.2563  0.2512 -0.4612
 8329SOL    HW136623   2.766   2.678   8.303 -0.0132  1.1629  0.2104
 8329SOL    HW236624   2.838   2.810   8.313  1.5000 -0.8078  2.2092
 8330SOL     OW36625   2.163   3.286   4.952  0.3149 -0.6072 -0.2016
 8330SOL    HW136626   2.117   3.354   5.002 -0.3519 -1.2053  0.0012
 8330SOL    HW236627   2.199   3.340   4.882  0.1527 -1.7185 -1.1359
 8331SOL     OW36628   1.835   3.428  11.287  0.2880 -0.3754  0.3277
 8331SOL    HW136629   1.883   3.428  11.370  0.3577  1.7843  0.2839
 8331SOL    HW236630   1.750   3.399  11.321 -0.7139  0.4384 -1.4763
 8332SOL     OW36631   4.459   1.310   3.959  0.0282 -0.3605 -0.7052
 8332SOL    HW136632   4.483   1.400   3.981 -1.5784 -0.3881  1.1305
 8332SOL    HW236633   4.457   1.324   3.864  0.9086  0.7373 -0.5637
 8333SOL     OW36634   3.536   2.400   6.942 -0.0750  0.4060  0.1330
 8333SOL    HW136635   3.551   2.370   7.032 -1.6427  0.1302  0.3141
 8333SOL    HW236636   3.519   2.313   6.905  1.0543 -0.4648  1.6544
 8334SOL     OW36637   2.626   2.354   3.608 -0.0491 -0.1263 -0.0624
 8334SOL    HW136638   2.671   2.367   3.691  0.4680  0.3262 -0.4099
 8334SOL    HW236639   2.698   2.374   3.548  1.0939  2.5362  2.2184
 8335SOL     OW36640   4.036   2.573   8.345  0.1455 -0.1526 -0.2401
 8335SOL    HW136641   4.079   2.609   8.267 -0.4982  0.4161 -0.3282
 8335SOL    HW236642   3.953   2.619   8.343  0.4558  0.3852 -0.7502
 8336SOL     OW36643   1.474   0.748   5.023 -0.4529  0.6957 -0.5301
 8336SOL    HW136644   1.416   0.802   5.077  0.2717  1.1798 -0.2533
 8336SOL    HW236645   1.556   0.746   5.072  0.3870  0.6773 -1.9272
 8337SOL     OW36646   2.625   1.282   6.722  0.6369  0.8399 -0.4699
 8337SOL    HW136647   2.708   1.330   6.727  1.4350 -0.5120 -0.8018
 8337SOL    HW236648   2.655   1.195   6.749  0.0883  1.2836  1.5397
 8338SOL     OW36649   1.331   1.799   6.135  0.1759 -0.2767 -0.0973
 8338SOL    HW136650   1.376   1.814   6.051  2.3486  1.3842  1.3810
 8338SOL    HW236651   1.237   1.808   6.119 -0.3021  0.1655  2.9712
 8339SOL     OW36652   1.330   4.632  14.318 -0.6448  0.7353  0.3169
 8339SOL    HW136653   1.316   4.698  14.386  0.2463  1.8501 -0.5756
 8339SOL    HW236654   1.241   4.614  14.288 -0.0320 -2.0047  0.1604
 8340SOL     OW36655   0.102   3.773   9.789  0.8445  0.4868  0.3674
 8340SOL    HW136656   0.089   3.831   9.714  1.1718 -0.9593 -0.8166
 8340SOL    HW236657   0.069   3.831   9.858 -1.1294 -3.2699  2.6040
 8341SOL     OW36658   0.062   2.552   3.941 -0.0001 -0.3246 -0.1371
 8341SOL    HW136659   0.057   2.620   3.874 -0.9354  0.0254  0.2982
 8341SOL    HW236660   0.104   2.486   3.885 -2.5861 -0.8166 -1.4842
 8342SOL     OW36661   3.326   2.482   4.402  0.8159 -0.3991 -0.5250
 8342SOL    HW136662   3.324   2.490   4.306 -0.9818 -0.2180 -0.4737
 8342SOL    HW236663   3.253   2.428   4.429  0.5071 -0.4163 -1.3890
 8343SOL     OW36664   3.714   1.703  10.089  0.1159 -0.6037  0.5016
 8343SOL    HW136665   3.688   1.702  10.181  4.6807  0.3373  1.8127
 8343SOL    HW236666   3.775   1.629  10.092 -0.5293 -1.1784 -0.5877
 8344SOL     OW36667   2.785   1.782   4.669 -0.4595 -0.0532 -0.5059
 8344SOL    HW136668   2.766   1.873   4.689 -1.6832 -0.8171  1.7753
 8344SOL    HW236669   2.694   1.753   4.671 -0.1908 -0.7935  0.6774
 8345SOL     OW36670   0.714   3.248   8.343  0.7458 -0.3007 -0.0754
 8345SOL    HW136671   0.672   3.272   8.425  0.7815  1.6307 -0.6383
 8345SOL    HW236672   0.765   3.175   8.378  0.9371  0.1842  0.6418
 8346SOL     OW36673   0.915   1.680  14.410 -0.2962 -0.4502 -0.4799
 8346SOL    HW136674   0.820   1.681  14.417 -0.1861  0.1422  0.8677
 8346SOL    HW236675   0.932   1.706  14.501 -2.4926 -0.9027  0.0433
 8347SOL     OW36676   3.048   0.402  17.626 -0.2161  0.6927 -0.3956
 8347SOL    HW136677   3.074   0.350  17.702  0.4923  0.8167 -0.5509
 8347SOL    HW236678   3.084   0.487  17.651 -0.5833  0.4155  1.0817
 8348SOL     OW36679   1.744   4.233   4.756 -0.3102  0.0965 -0.2392
 8348SOL    HW136680   1.669   4.210   4.810  1.3585  0.7230  2.3075
 8348SOL    HW236681   1.717   4.182   4.679 -0.7911 -0.5727  0.3829
 8349SOL     OW36682   0.088   3.778   4.907 -0.5518  0.4830  0.1386
 8349SOL    HW136683   0.071   3.686   4.886 -0.0788  0.2059  0.9607
 8349SOL    HW236684   0.105   3.769   5.001  4.2416  1.6382 -0.6377
 8350SOL     OW36685   0.792   1.398   2.145 -0.3321  0.3054  0.4992
 8350SOL    HW136686   0.842   1.365   2.220 -0.0699 -1.6451 -0.5345
 8350SOL    HW236687   0.728   1.329   2.129  1.6592 -2.1004  2.6302
 8351SOL     OW36688   0.206   1.867  10.702  0.0333  0.2266  0.3049
 8351SOL    HW136689   0.283   1.896  10.653  0.5278  0.0720  0.9856
 8351SOL    HW236690   0.144   1.940  10.698 -1.6465 -1.2139  0.2945
 8352SOL     OW36691   3.999   3.110   9.280  0.4331 -0.0795 -0.2523
 8352SOL    HW136692   3.952   3.186   9.245  1.6683  0.4641 -0.7012
 8352SOL    HW236693   4.091   3.134   9.276  0.2306  0.7922  0.5041
 8353SOL     OW36694   0.405   1.341   4.391  0.3345 -0.0357  0.1792
 8353SOL    HW136695   0.467   1.313   4.458  0.3492  1.0690  0.6293
 8353SOL    HW236696   0.347   1.265   4.402  0.7972 -0.1297  1.9753
 8354SOL     OW36697   2.410   3.416  15.331 -0.4611 -0.7070 -0.3129
 8354SOL    HW136698   2.359   3.400  15.252 -0.2997  0.2968 -0.6187
 8354SOL    HW236699   2.495   3.428  15.289 -0.7033 -1.7886 -1.1003
 8355SOL     OW36700   1.324   0.623   7.269  0.2317 -0.1057 -0.2350
 8355SOL    HW136701   1.290   0.540   7.234 -1.8588  1.1927 -1.2659
 8355SOL    HW236702   1.417   0.614   7.247  1.5228  0.3779  4.9216
 8356SOL     OW36703   0.013   1.618  17.679  0.8067  0.0546 -0.3196
 8356SOL    HW136704   4.726   1.526  17.669 -2.5276  0.8359  0.1402
 8356SOL    HW236705   0.105   1.605  17.657  0.9451  0.7038 -0.1500
 8357SOL     OW36706   3.498   2.831   5.296  0.3707 -0.1829 -0.0869
 8357SOL    HW136707   3.491   2.815   5.390 -1.1202 -0.4848 -0.2560
 8357SOL    HW236708   3.552   2.756   5.273  0.0695 -1.5682  3.6443
 8358SOL     OW36709   4.510   3.355   2.359 -0.2862  0.2170 -0.1745
 8358SOL    HW136710   4.461   3.437   2.360  0.2720  0.5086  1.8338
 8358SOL    HW236711   4.451   3.316   2.294  0.7506 -1.4064 -0.1446
 8359SOL     OW36712   2.448   0.601   5.985  0.0906 -0.3507 -0.2840
 8359SOL    HW136713   2.389   0.673   5.962 -0.7397 -2.0106 -3.3873
 8359SOL    HW236714   2.465   0.618   6.078 -0.3895  0.1263 -0.2789
 8360SOL     OW36715   0.603   2.632   9.693 -0.0020 -0.3115  0.4330
 8360SOL    HW136716   0.616   2.620   9.787 -0.5274  3.0681  0.9531
 8360SOL    HW236717   0.517   2.670   9.680 -0.7241 -2.2318 -0.3743
 8361SOL     OW36718   2.247   0.318  13.331 -0.3659 -0.0328 -0.0341
 8361SOL    HW136719   2.181   0.257  13.361  0.0189  1.0302  2.9676
 8361SOL    HW236720   2.266   0.290  13.241 -0.9786  0.3856 -0.2945
 8362SOL     OW36721   0.456   3.403   1.937  0.0582 -0.7061  0.3366
 8362SOL    HW136722   0.546   3.381   1.913  1.1390  1.2230  2.6376
 8362SOL    HW236723   0.472   3.463   2.010  2.8155 -0.9498 -0.0513
 8363SOL     OW36724   3.472   1.620   1.052  0.0785  0.4014 -0.0996
 8363SOL    HW136725   3.543   1.658   1.104 -2.5802  1.4917  2.8141
 8363SOL    HW236726   3.409   1.581   1.114  0.6614 -0.4298 -0.0276
 8364SOL     OW36727   0.648   0.102  12.428  0.0118 -0.2241 -0.7470
 8364SOL    HW136728   0.601   0.089  12.345  0.1253 -2.0808 -0.5099
 8364SOL    HW236729   0.619   0.190  12.455  0.6667 -0.8463  1.9203
 8365SOL     OW36730   1.090   1.339   7.230  0.2314 -0.0510 -0.1269
 8365SOL    HW136731   1.141   1.259   7.244 -0.6229 -1.1622 -3.2169
 8365SOL    HW236732   1.049   1.303   7.151  0.4167 -0.9185  0.1700
 8366SOL     OW36733   1.977   4.501   6.140  0.2460 -0.5006  0.2320
 8366SOL    HW136734   1.992   4.591   6.169  1.4596 -0.7225  0.3139
 8366SOL    HW236735   1.945   4.501   6.050 -0.8844  0.6628  0.6379
 8367SOL     OW36736   0.084   1.283   4.539  0.1608  0.3326 -0.1631
 8367SOL    HW136737   0.146   1.323   4.600  0.8184 -1.2411  0.1833
 8367SOL    HW236738   0.089   1.195   4.575  0.5323  0.7072  0.7122
 8368SOL     OW36739   0.478   2.270   3.152 -0.0691  0.2080 -0.3049
 8368SOL    HW136740   0.492   2.176   3.138  1.8678  0.7054 -1.7237
 8368SOL    HW236741   0.435   2.265   3.237  1.4519  0.4954  0.4896
 8369SOL     OW36742   2.872   3.066  10.621 -0.5622 -0.1479 -0.6287
 8369SOL    HW136743   2.929   3.001  10.581  0.1076  1.2915 -2.0126
 8369SOL    HW236744   2.866   3.141  10.562  1.7713  1.8096  1.5969
 8370SOL     OW36745   4.158   0.682   7.403 -0.4013 -0.0987  0.4539
 8370SOL    HW136746   4.210   0.661   7.325  0.9161  0.9096  1.0787
 8370SOL    HW236747   4.127   0.771   7.387  0.4197 -0.2812 -2.2723
 8371SOL     OW36748   0.595   0.819   0.468  0.4915 -0.1139 -0.3235
 8371SOL    HW136749   0.539   0.864   0.530  1.0620 -1.0473  0.8689
 8371SOL    HW236750   0.555   0.733   0.477  3.6257 -1.2259  3.1482
 8372SOL     OW36751   3.548   2.693   5.960 -0.0729 -0.4507  0.1818
 8372SOL    HW136752   3.596   2.758   5.909  0.2398  0.9593  2.2817
 8372SOL    HW236753   3.553   2.721   6.052 -0.2664  0.8947 -0.2088
 8373SOL     OW36754   4.617   2.480   1.920  0.9555  0.0515  0.8227
 8373SOL    HW136755   4.628   2.530   2.001 -0.1188  0.8718  0.4660
 8373SOL    HW236756   4.595   2.394   1.957  1.0071 -1.0944 -1.7561
 8374SOL     OW36757   3.582   3.613   2.578 -0.1670 -0.4996 -0.0306
 8374SOL    HW136758   3.587   3.518   2.577  1.0436 -0.4327  1.3683
 8374SOL    HW236759   3.588   3.626   2.483 -0.7800  2.1758  0.3047
 8375SOL     OW36760   4.464   3.647  15.844 -0.5636 -0.6129  0.2725
 8375SOL    HW136761   4.491   3.641  15.752 -2.0895 -0.1761 -0.2121
 8375SOL    HW236762   4.372   3.673  15.835  0.1730  1.7899 -0.1826
 8376SOL     OW36763   3.230   3.765  13.496 -0.0727  0.3578  0.0309
 8376SOL    HW136764   3.198   3.698  13.436 -0.7906 -0.3487  1.2151
 8376SOL    HW236765   3.167   3.838  13.491  0.4304  0.8089  0.2568
 8377SOL     OW36766   2.724   4.242   3.151  0.1803 -0.1095 -0.0091
 8377SOL    HW136767   2.698   4.226   3.241 -3.7566  1.5274 -0.8549
 8377SOL    HW236768   2.709   4.336   3.151  4.7598  0.6028  1.4842
 8378SOL     OW36769   2.164   1.411   8.201  0.1888 -0.0237 -0.0832
 8378SOL    HW136770   2.108   1.372   8.134 -0.1580 -1.9979  1.3624
 8378SOL    HW236771   2.151   1.348   8.271  0.8906 -1.6998 -1.4537
 8379SOL     OW36772   1.486   1.885   5.349  0.1280 -0.1051  0.5305
 8379SOL    HW136773   1.452   1.839   5.426 -1.0310  2.9730  1.8647
 8379SOL    HW236774   1.455   1.973   5.373 -1.1278 -1.2579  3.1255
 8380SOL     OW36775   1.113   4.374   6.354 -0.1749  0.3124  1.5059
 8380SOL    HW136776   1.040   4.312   6.351 -0.1008  0.3223 -0.3305
 8380SOL    HW236777   1.194   4.328   6.375  0.7059  0.8608 -0.6987
 8381SOL     OW36778   1.152   0.949  11.164  0.2374  0.1937 -0.2422
 8381SOL    HW136779   1.161   0.863  11.123 -0.9114  0.0421 -0.1852
 8381SOL    HW236780   1.098   0.928  11.241  0.1857  1.1936 -0.0112
 8382SOL     OW36781   2.109   1.813   3.997  0.3078 -0.0327 -0.4234
 8382SOL    HW136782   2.081   1.722   3.992 -1.2131  0.3222  1.3438
 8382SOL    HW236783   2.052   1.847   3.927 -1.6017 -0.4387  0.9227
 8383SOL     OW36784   0.230   1.336   4.801  0.5324 -0.9065  0.5753
 8383SOL    HW136785   0.306   1.391   4.782 -0.7330  0.0922 -1.6008
 8383SOL    HW236786   0.211   1.343   4.894  0.4114 -0.6680  0.5318
 8384SOL     OW36787   1.814   3.303   5.841 -0.0045 -0.1002  0.0317
 8384SOL    HW136788   1.777   3.368   5.901  0.7154  1.1445 -0.8757
 8384SOL    HW236789   1.848   3.352   5.766 -0.4325 -0.5430 -0.4540
 8385SOL     OW36790   0.765   1.907   2.623 -0.0155  0.0411  0.0015
 8385SOL    HW136791   0.804   1.878   2.706 -0.2894 -1.4371 -0.3937
 8385SOL    HW236792   0.675   1.936   2.638 -0.0353 -0.9469  1.8340
 8386SOL     OW36793   0.846   4.304   5.064 -0.3839 -0.1815  0.0977
 8386SOL    HW136794   0.763   4.318   5.110 -0.5460  0.5747 -0.4264
 8386SOL    HW236795   0.864   4.394   5.038 -0.7399  0.4887  2.1930
 8387SOL     OW36796   2.699   1.401   6.431 -0.0762  0.7099 -0.2260
 8387SOL    HW136797   2.648   1.477   6.403 -0.9959 -0.4771 -1.7229
 8387SOL    HW236798   2.631   1.337   6.452 -0.2186  0.7769 -0.4822
 8388SOL     OW36799   1.021   0.097   0.167 -0.5323 -0.4698 -0.1317
 8388SOL    HW136800   0.938   0.050   0.159  1.3210 -3.3983 -2.1236
 8388SOL    HW236801   1.016   0.149   0.248  1.1787  3.1560 -2.3760
 8389SOL     OW36802   4.436   2.797   1.875  0.5173 -0.3752  0.6225
 8389SOL    HW136803   4.472   2.854   1.943 -0.4148  0.8188  0.0991
 8389SOL    HW236804   4.517   2.752   1.849  0.4039 -0.3526  0.2268
 8390SOL     OW36805   4.712   1.710   5.070 -0.1230 -0.1872 -0.6337
 8390SOL    HW136806   4.691   1.649   4.999 -1.3951 -1.0453  0.4730
 8390SOL    HW236807   4.723   1.793   5.025 -2.9963 -0.9779 -2.7918
 8391SOL     OW36808   2.179   1.849  17.454  0.0698  0.5434 -0.2983
 8391SOL    HW136809   2.137   1.769  17.424 -2.4365  2.1680 -1.0600
 8391SOL    HW236810   2.120   1.869  17.526  0.6837 -0.4514  0.4778
 8392SOL     OW36811   3.037   4.175   8.003  0.0524  0.4768 -0.3484
 8392SOL    HW136812   2.974   4.145   8.069  0.8070  0.2791  0.2862
 8392SOL    HW236813   3.104   4.204   8.065 -1.2933 -2.3972  2.4489
 8393SOL     OW36814   3.586   3.879   3.098  0.4627 -0.6482  0.0906
 8393SOL    HW136815   3.631   3.936   3.035 -0.6150 -0.7680 -0.7780
 8393SOL    HW236816   3.656   3.860   3.160  2.2642 -1.4235 -2.1515
 8394SOL     OW36817   2.263   0.551  15.016  0.2927  0.3007 -0.0142
 8394SOL    HW136818   2.260   0.604  14.937 -0.9434  0.7373  0.3380
 8394SOL    HW236819   2.256   0.622  15.080 -1.2515  0.7471 -0.6905
 8395SOL     OW36820   0.525   3.874   9.179  0.4295  0.3307  0.3346
 8395SOL    HW136821   0.503   3.941   9.114  0.5874  2.1219  2.1331
 8395SOL    HW236822   0.463   3.804   9.158  3.1515 -1.1895 -2.6447
 8396SOL     OW36823   0.661   2.574  14.599 -0.3851  0.1707  0.2999
 8396SOL    HW136824   0.576   2.591  14.640 -0.9629  1.8892 -1.6088
 8396SOL    HW236825   0.699   2.517  14.666  2.4689 -1.4524 -2.7116
 8397SOL     OW36826   4.695   1.733   3.050  0.1497 -0.2257  0.2914
 8397SOL    HW136827   0.030   1.675   3.080  1.3785  1.9437  1.5284
 8397SOL    HW236828   4.622   1.713   3.108  0.7980 -1.3029  0.7588
 8398SOL     OW36829   0.891   3.586  11.435 -0.4597 -0.4269 -0.1609
 8398SOL    HW136830   0.908   3.579  11.341 -2.3899  0.7138 -0.5911
 8398SOL    HW236831   0.884   3.681  11.445  1.0721 -0.0578 -2.8001
 8399SOL     OW36832   2.803   1.351   4.426  0.3688  0.1979  0.5300
 8399SOL    HW136833   2.808   1.257   4.442  1.0923 -0.0039 -0.9548
 8399SOL    HW236834   2.782   1.385   4.513  1.0080  1.3657  0.2283
 8400SOL     OW36835   0.394   3.000   8.918 -0.3292  0.4500  0.0550
 8400SOL    HW136836   0.348   3.066   8.970  0.4980  1.9252 -1.0936
 8400SOL    HW236837   0.481   2.993   8.957  0.0424  2.2644 -0.4535
 8401SOL     OW36838   1.964   2.278  17.567 -0.3541 -0.0910 -0.0059
 8401SOL    HW136839   1.886   2.272  17.512 -0.5078  1.2373  0.0796
 8401SOL    HW236840   2.036   2.301  17.508  0.7569 -0.8281  1.0403
 8402SOL     OW36841   3.794   3.080   7.253  0.2752  0.0192 -0.1629
 8402SOL    HW136842   3.711   3.096   7.296  1.1595  0.1910  1.4636
 8402SOL    HW236843   3.771   3.027   7.176 -0.4485 -0.5598  0.4562
 8403SOL     OW36844   2.299   2.173   8.449 -0.5965 -0.3328 -0.1366
 8403SOL    HW136845   2.209   2.141   8.450 -0.5332 -0.5145 -0.2020
 8403SOL    HW236846   2.338   2.107   8.391  1.8894  1.3340 -0.3773
 8404SOL     OW36847   2.126   2.886   8.577 -0.2123 -0.4953  0.3852
 8404SOL    HW136848   2.211   2.930   8.569 -1.2389  1.3136 -0.5875
 8404SOL    HW236849   2.141   2.823   8.647 -2.2685  0.7422  1.9552
 8405SOL     OW36850   0.871   1.444   8.034  0.5752  0.5401  0.2835
 8405SOL    HW136851   0.901   1.445   7.944 -1.0094 -0.2920 -0.2583
 8405SOL    HW236852   0.959   1.421   8.065 -0.0122 -2.1247 -0.0129
 8406SOL     OW36853   0.524   1.639  17.545 -0.5725  0.2015 -0.3710
 8406SOL    HW136854   0.476   1.609  17.622  0.1414  0.4094  0.1551
 8406SOL    HW236855   0.461   1.706  17.518 -1.1230  0.2848  1.0951
 8407SOL     OW36856   1.450   2.906   6.903 -0.1443 -0.3202 -0.0615
 8407SOL    HW136857   1.509   2.946   6.840 -2.7802  1.2631 -1.5398
 8407SOL    HW236858   1.377   2.886   6.844 -0.7884  2.8739 -0.3304
 8408SOL     OW36859   3.826   3.873   5.311 -0.1804 -0.3454 -0.0278
 8408SOL    HW136860   3.892   3.904   5.249 -0.5597 -1.4070 -0.9635
 8408SOL    HW236861   3.756   3.938   5.299  0.8875  1.0120  1.1030
 8409SOL     OW36862   3.916   3.704  17.468  0.4603 -0.3596 -0.1549
 8409SOL    HW136863   3.857   3.645  17.515 -0.8749  0.5562 -0.6553
 8409SOL    HW236864   3.961   3.743  17.543 -0.2310  1.7914 -0.8401
 8410SOL     OW36865   1.128   4.096   2.928  0.2203  0.3872 -0.1926
 8410SOL    HW136866   1.146   4.052   2.845  0.8776 -0.4065  0.3659
 8410SOL    HW236867   1.041   4.133   2.914  0.9674  2.2602  0.1897
 8411SOL     OW36868   3.707   1.856  12.118  0.9494  0.4535 -0.4137
 8411SOL    HW136869   3.694   1.926  12.055 -0.9096 -0.3774 -0.9277
 8411SOL    HW236870   3.701   1.909  12.198  2.1046  0.4109 -0.2878
 8412SOL     OW36871   3.251   3.496   5.421  0.6228  0.2126  0.0040
 8412SOL    HW136872   3.243   3.463   5.331  2.6313 -3.5442  1.2002
 8412SOL    HW236873   3.162   3.480   5.452  0.4269  1.9029  0.3065
 8413SOL     OW36874   1.945   2.608   7.697 -0.3594  0.0213  0.0186
 8413SOL    HW136875   2.013   2.542   7.682 -0.2656 -0.0785  0.8500
 8413SOL    HW236876   1.949   2.621   7.792 -2.5113  0.6383  0.0179
 8414SOL     OW36877   2.889   1.693  14.685  0.1647  0.2043  0.0103
 8414SOL    HW136878   2.820   1.715  14.748  1.3100 -1.4686  1.8306
 8414SOL    HW236879   2.902   1.772  14.633 -1.2733 -0.1352 -0.8623
 8415SOL     OW36880   0.581   0.106   8.621  0.0166 -0.0196  0.6594
 8415SOL    HW136881   0.544   0.147   8.543 -0.6015  0.2405  1.0875
 8415SOL    HW236882   0.662   0.156   8.631  0.0791  0.0525 -0.1831
 8416SOL     OW36883   4.583   0.959  15.876 -0.6332 -0.1050  0.2144
 8416SOL    HW136884   4.633   1.018  15.820  1.3520 -1.3336  0.7047
 8416SOL    HW236885   4.553   0.895  15.812 -0.0767  0.0377 -0.1889
 8417SOL     OW36886   2.126   3.093   6.079  0.3835  0.2272 -0.8165
 8417SOL    HW136887   2.046   3.137   6.051 -0.5374 -1.4902 -0.8783
 8417SOL    HW236888   2.189   3.124   6.014  0.1882  3.1651  0.3792
 8418SOL     OW36889   3.368   4.326  15.308  0.8091  0.3416  0.3705
 8418SOL    HW136890   3.338   4.345  15.397 -3.4956 -0.6205 -0.8674
 8418SOL    HW236891   3.445   4.270  15.320  1.6236  1.0867 -1.3187
 8419SOL     OW36892   4.534   0.707   3.129 -0.1440  0.6382  0.3591
 8419SOL    HW136893   4.447   0.732   3.161  0.0299 -0.3380  1.6119
 8419SOL    HW236894   4.575   0.666   3.206 -0.2164 -1.5873 -0.7993
 8420SOL     OW36895   4.690   2.056   6.870 -0.2821 -0.0399 -0.0113
 8420SOL    HW136896   4.717   2.087   6.957 -1.3527 -2.5607  1.2155
 8420SOL    HW236897   4.682   2.142   6.829  3.7165  0.2676 -0.0693
 8421SOL     OW36898   3.728   0.809   7.199  0.0009 -0.4674 -0.6981
 8421SOL    HW136899   3.797   0.869   7.173 -1.1143  1.6344  1.1763
 8421SOL    HW236900   3.753   0.795   7.290 -1.1930  0.2636 -0.2475
 8422SOL     OW36901   0.558   2.934  11.566 -0.4909  0.2929 -0.7365
 8422SOL    HW136902   0.475   2.891  11.547  0.4583 -1.7655 -0.2581
 8422SOL    HW236903   0.519   3.021  11.578  2.0892  1.1543  1.4056
 8423SOL     OW36904   1.572   0.183   2.646 -0.2032 -0.4492  0.2738
 8423SOL    HW136905   1.513   0.147   2.580  1.1835 -3.8389  0.8748
 8423SOL    HW236906   1.647   0.206   2.591 -0.0421 -2.3513 -0.2957
 8424SOL     OW36907   4.297   2.745   2.804  0.8993  0.3798 -0.8723
 8424SOL    HW136908   4.313   2.839   2.793 -0.9873  1.0251  1.9864
 8424SOL    HW236909   4.219   2.729   2.752 -0.5937 -0.3251  1.5993
 8425SOL     OW36910   1.254   1.282   2.915 -0.0923  0.2856 -0.1591
 8425SOL    HW136911   1.341   1.295   2.953 -0.6127 -2.4946  2.0238
 8425SOL    HW236912   1.225   1.208   2.968 -0.5218  2.1670  2.2575
 8426SOL     OW36913   1.955   0.115  14.771  0.1374  0.0715 -0.1891
 8426SOL    HW136914   2.047   0.136  14.751  0.5901 -1.9315 -0.2118
 8426SOL    HW236915   1.914   0.196  14.801 -3.0140 -2.1035  1.2484
 8427SOL     OW36916   1.701   4.336   2.176 -0.2172 -0.1971  0.8819
 8427SOL    HW136917   1.680   4.429   2.180 -0.1825 -0.1708  0.4996
 8427SOL    HW236918   1.672   4.298   2.259 -0.0836  1.3570  1.6439
 8428SOL     OW36919   4.436   2.025   5.109  0.2372 -0.3137  0.6772
 8428SOL    HW136920   4.406   1.946   5.062 -1.0007  0.5813 -0.0507
 8428SOL    HW236921   4.390   1.998   5.189  0.6575  0.2251  1.0944
 8429SOL     OW36922   1.548   4.148   8.533  0.6488 -0.0014  0.4464
 8429SOL    HW136923   1.547   4.144   8.437  1.3450  0.3319  0.4235
 8429SOL    HW236924   1.630   4.101   8.549  0.1710 -1.3648 -1.0752
 8430SOL     OW36925   3.674   4.262   7.721 -0.3663  0.4901 -0.0282
 8430SOL    HW136926   3.651   4.354   7.735 -0.3933  0.5379 -0.3823
 8430SOL    HW236927   3.608   4.209   7.766  2.8953 -2.6763  1.0938
 8431SOL     OW36928   1.575   4.532   8.603  0.4332 -0.1356 -0.6413
 8431SOL    HW136929   1.562   4.569   8.690  0.1543  2.4128 -1.7412
 8431SOL    HW236930   1.624   4.598   8.554  0.7664 -0.9802 -1.4571
 8432SOL     OW36931   1.049   4.499  14.237  0.4251  0.1401 -0.0287
 8432SOL    HW136932   0.992   4.549  14.296  2.3444  1.0256  1.0489
 8432SOL    HW236933   1.007   4.412  14.234  0.8820 -0.0941  0.4054
 8433SOL     OW36934   3.578   2.365   5.278 -0.3490  0.1611 -0.3270
 8433SOL    HW136935   3.650   2.339   5.221 -0.0367  0.8909 -0.2635
 8433SOL    HW236936   3.575   2.287   5.332  0.4302 -0.4969 -1.2241
 8434SOL     OW36937   4.055   4.471   1.236  0.3930 -0.4792 -0.8731
 8434SOL    HW136938   4.008   4.554   1.236  1.3918  0.0871 -0.4193
 8434SOL    HW236939   3.996   4.422   1.294 -0.1045  0.4878 -0.5540
 8435SOL     OW36940   0.216   4.669   6.605  0.1263  0.1906 -0.3562
 8435SOL    HW136941   0.141   4.682   6.663 -1.7918 -3.6503 -1.9423
 8435SOL    HW236942   0.195   4.584   6.567 -0.9578  1.1817 -1.9798
 8436SOL     OW36943   3.831   0.668   3.175 -0.2212  0.3052  0.2151
 8436SOL    HW136944   3.908   0.648   3.227 -0.9422 -0.2069  1.0861
 8436SOL    HW236945   3.830   0.764   3.174  2.4379  0.3281  0.6080
 8437SOL     OW36946   2.979   2.696  14.771 -0.6755  0.1770 -0.0982
 8437SOL    HW136947   3.052   2.758  14.776 -0.0955 -0.6395  1.4857
 8437SOL    HW236948   3.014   2.620  14.725 -0.7953 -1.0718  1.8739
 8438SOL     OW36949   3.733   2.254   5.678 -0.4221  0.2081  0.5675
 8438SOL    HW136950   3.682   2.178   5.651 -0.4815  0.5370 -0.2523
 8438SOL    HW236951   3.806   2.237   5.619 -1.2332 -2.3248  0.3168
 8439SOL     OW36952   3.251   4.191  13.525 -0.3312 -0.5855 -0.0700
 8439SOL    HW136953   3.329   4.140  13.505 -1.1235 -1.3267 -1.2480
 8439SOL    HW236954   3.237   4.155  13.613 -0.0408  0.4321  0.3926
 8440SOL     OW36955   0.009   0.129   2.270  0.4789 -0.4830  0.2163
 8440SOL    HW136956   4.701   0.214   2.278  0.0635 -0.6978  0.2335
 8440SOL    HW236957   0.100   0.158   2.268  0.3796 -0.4082 -2.2694
 8441SOL     OW36958   2.954   1.124  13.280  0.3617  0.4950  0.2636
 8441SOL    HW136959   2.948   1.204  13.332  0.1235  2.2089 -2.3990
 8441SOL    HW236960   3.031   1.085  13.322 -1.7952 -1.6330  2.2710
 8442SOL     OW36961   3.838   3.031  13.879 -0.3713 -0.5511  0.2746
 8442SOL    HW136962   3.856   2.937  13.884  0.6500 -0.5126 -2.2729
 8442SOL    HW236963   3.743   3.041  13.872 -0.2573 -0.4891 -1.1505
 8443SOL     OW36964   1.679   2.858  16.937  0.9190 -0.1382 -0.6048
 8443SOL    HW136965   1.636   2.782  16.899  0.9150 -0.5746  0.2582
 8443SOL    HW236966   1.708   2.899  16.856  0.8343 -0.6119 -0.8737
 8444SOL     OW36967   0.243   0.439   2.719  0.0190  0.2632  0.1945
 8444SOL    HW136968   0.303   0.499   2.673  0.7172 -0.1438  0.5672
 8444SOL    HW236969   0.182   0.492   2.770  0.9010  0.3743  1.1448
 8445SOL     OW36970   4.398   0.871  10.358 -0.6121 -0.1515 -0.5828
 8445SOL    HW136971   4.332   0.940  10.366 -2.5259 -1.7406 -2.6955
 8445SOL    HW236972   4.446   0.910  10.285  0.0016  1.1883  0.5330
 8446SOL     OW36973   1.177   2.838  16.290  0.4665  0.3343 -0.3290
 8446SOL    HW136974   1.231   2.878  16.358  0.6540  1.6767 -1.2496
 8446SOL    HW236975   1.246   2.800  16.235  0.0562 -0.1558 -0.5038
 8447SOL     OW36976   0.894   1.420   5.592  0.1599  0.0574 -0.2004
 8447SOL    HW136977   0.806   1.385   5.606  1.1227 -1.8134  1.3319
 8447SOL    HW236978   0.919   1.469   5.671  0.4567 -1.7401  0.8308
 8448SOL     OW36979   3.802   4.254   6.451  0.5078  0.2017  0.2269
 8448SOL    HW136980   3.744   4.193   6.404  0.3509 -0.0785  0.7930
 8448SOL    HW236981   3.838   4.299   6.374  0.0827 -1.5097 -0.9815
 8449SOL     OW36982   0.972   2.964  15.488  0.1094  0.2898 -0.6400
 8449SOL    HW136983   1.020   2.993  15.565  1.4880 -1.7265 -0.7467
 8449SOL    HW236984   0.962   3.043  15.436 -1.8275 -0.3401 -1.2588
 8450SOL     OW36985   2.532   1.400  12.364  0.3868 -0.0580 -0.0973
 8450SOL    HW136986   2.506   1.461  12.295  1.1242  0.5474  0.1573
 8450SOL    HW236987   2.508   1.447  12.443  0.9659 -1.9110  1.1843
 8451SOL     OW36988   2.089   2.450   2.991  0.3605 -0.2070 -0.1543
 8451SOL    HW136989   2.066   2.462   2.899 -1.0893 -1.0243  0.0995
 8451SOL    HW236990   2.136   2.367   2.993 -0.0243 -0.4061  0.9300
 8452SOL     OW36991   4.024   2.611   2.167 -0.2506  0.1314 -0.9955
 8452SOL    HW136992   4.014   2.598   2.262  0.3371 -0.5812 -1.0296
 8452SOL    HW236993   3.952   2.667   2.140 -1.0501  0.1872  1.2435
 8453SOL     OW36994   0.993   3.006   9.015  0.0815  0.1722  0.5642
 8453SOL    HW136995   1.019   2.920   8.979  1.3685  0.7115  0.1895
 8453SOL    HW236996   1.016   3.063   8.941  1.5532 -0.0871  0.8226
 8454SOL     OW36997   2.592   3.209  11.426 -0.7842 -0.3505 -0.3000
 8454SOL    HW136998   2.584   3.248  11.513 -1.1013 -1.2527  0.0735
 8454SOL    HW236999   2.504   3.174  11.417 -1.4218  1.4063 -0.8236
 8455SOL     OW37000   2.383   0.197  15.278  0.2399 -0.0612  0.2591
 8455SOL    HW137001   2.425   0.166  15.358 -0.7716  1.3814  1.3443
 8455SOL    HW237002   2.371   0.112  15.234 -1.3239 -0.1769  0.9053
 8456SOL     OW37003   3.470   0.477   4.411 -0.6184  0.3040 -0.3239
 8456SOL    HW137004   3.419   0.533   4.353 -0.8146  0.7892  0.3197
 8456SOL    HW237005   3.449   0.393   4.370  1.0573  0.0839 -0.7112
 8457SOL     OW37006   4.535   3.267   9.657  0.4365 -0.3408  0.2677
 8457SOL    HW137007   4.502   3.247   9.744  0.6550  1.4168  0.7353
 8457SOL    HW237008   4.468   3.323   9.619 -0.4775 -2.6533 -1.5567
 8458SOL     OW37009   4.124   0.617   6.409 -0.4494 -0.4901 -0.3662
 8458SOL    HW137010   4.060   0.547   6.399 -1.1520  0.2973 -1.3925
 8458SOL    HW237011   4.165   0.574   6.484  0.3976  2.7370  1.0219
 8459SOL     OW37012   0.076   0.684   6.626  0.4504  0.5517 -0.2598
 8459SOL    HW137013   0.056   0.769   6.588 -0.5570  0.0714 -0.8339
 8459SOL    HW237014   4.720   0.671   6.652  0.7926  1.1918  1.2426
 8460SOL     OW37015   1.542   3.877   0.510  0.7996  0.2243  0.4133
 8460SOL    HW137016   1.557   3.964   0.473 -0.2607  0.8827  1.5565
 8460SOL    HW237017   1.599   3.827   0.451 -0.2008  1.4934 -1.6486
 8461SOL     OW37018   3.013   4.651   6.953 -0.4686 -0.1958  0.2979
 8461SOL    HW137019   3.107   4.649   6.940 -0.7987 -4.2248 -1.5149
 8461SOL    HW237020   3.009   4.634   7.047  0.7260 -1.9621  0.0102
 8462SOL     OW37021   2.392   2.547   3.601 -0.2230  0.2435 -0.1423
 8462SOL    HW137022   2.437   2.626   3.629  0.1602  0.0267 -0.1420
 8462SOL    HW237023   2.467   2.488   3.586 -2.6368 -2.7984 -0.2935
 8463SOL     OW37024   2.990   2.545   5.940  0.0073  0.0162 -0.4084
 8463SOL    HW137025   3.084   2.561   5.953 -0.1802  1.5771 -0.9752
 8463SOL    HW237026   2.955   2.622   5.983  0.9469 -0.9577  2.0893
 8464SOL     OW37027   3.722   3.483   4.860 -0.3225 -0.0143 -0.0934
 8464SOL    HW137028   3.688   3.558   4.811 -0.9717 -0.4028 -0.2472
 8464SOL    HW237029   3.756   3.520   4.941 -3.3825  3.5402 -0.4400
 8465SOL     OW37030   0.397   4.464   4.459  0.0687 -0.1604  0.5449
 8465SOL    HW137031   0.322   4.412   4.490 -0.3959  1.0029  1.3848
 8465SOL    HW237032   0.346   4.534   4.418 -1.4344 -1.3819  0.3157
 8466SOL     OW37033   0.059   2.754   7.077 -0.6647 -0.6214  0.3002
 8466SOL    HW137034   4.712   2.785   7.112 -0.4843 -0.5398  0.6555
 8466SOL    HW237035   0.048   2.768   6.983 -1.5036 -0.0367  0.4853
 8467SOL     OW37036   4.672   0.994  11.321  0.5153  0.3359 -0.2074
 8467SOL    HW137037   4.611   1.037  11.380  1.4443 -0.2173  1.1578
 8467SOL    HW237038   4.669   0.899  11.336  1.6626  0.1307 -1.2305
 8468SOL     OW37039   0.354   3.594   1.048 -0.4743  0.0206  0.1542
 8468SOL    HW137040   0.263   3.576   1.025 -0.5783 -0.2932  0.8047
 8468SOL    HW237041   0.370   3.528   1.116  0.5026  1.6413  1.5113
 8469SOL     OW37042   1.415   3.678   9.236  0.2451  0.5815  0.0853
 8469SOL    HW137043   1.370   3.688   9.152 -1.8184 -0.0321  1.0899
 8469SOL    HW237044   1.366   3.743   9.287 -0.3964 -0.5254  0.8927
 8470SOL     OW37045   2.438   1.653   5.459 -0.4108 -0.0848 -0.1553
 8470SOL    HW137046   2.461   1.745   5.455 -1.9723  0.3275  0.4784
 8470SOL    HW237047   2.517   1.608   5.429  0.2888 -0.4493  2.2561
 8471SOL     OW37048   2.241   0.037  14.914  0.2175 -0.2968 -0.9709
 8471SOL    HW137049   2.167   0.065  14.967 -1.6227 -2.9564 -2.1436
 8471SOL    HW237050   2.250   4.680  14.937 -0.0100 -0.1280 -0.2002
 8472SOL     OW37051   2.542   1.935  13.703 -0.5742  0.1345 -0.0836
 8472SOL    HW137052   2.590   1.982  13.635 -0.5884 -2.0969 -1.6212
 8472SOL    HW237053   2.465   1.986  13.730 -1.6195 -0.7043 -1.4594
 8473SOL     OW37054   0.137   1.145   6.727 -0.1947 -0.1427 -0.2606
 8473SOL    HW137055   0.119   1.174   6.816  0.8282  2.2799 -0.8415
 8473SOL    HW237056   0.231   1.146   6.713 -0.1403 -1.2795 -0.0098
 8474SOL     OW37057   0.577   3.149   8.117 -0.0854 -0.1091 -0.3025
 8474SOL    HW137058   0.636   3.192   8.178  1.6948  0.0589 -2.1260
 8474SOL    HW237059   0.500   3.128   8.170 -1.4888  2.1844 -1.4397
 8475SOL     OW37060   0.661   4.343   8.544 -0.8400 -0.2204 -0.5136
 8475SOL    HW137061   0.637   4.310   8.631 -1.7530 -0.0582 -0.6984
 8475SOL    HW237062   0.656   4.437   8.562 -0.6372 -0.3650  0.2943
 8476SOL     OW37063   2.540   2.963   0.857  0.3614  0.4286 -0.3681
 8476SOL    HW137064   2.471   2.904   0.889  1.9831 -1.3552 -0.1625
 8476SOL    HW237065   2.494   3.047   0.849 -0.1825  0.3899  2.2107
 8477SOL     OW37066   1.642   3.897  14.588 -0.0006 -0.3463  0.3318
 8477SOL    HW137067   1.647   3.816  14.639  1.7072 -1.2234 -1.2355
 8477SOL    HW237068   1.671   3.863  14.504  0.0791  1.3718 -0.3520
 8478SOL     OW37069   2.844   1.353   2.497  0.2858 -0.1793  0.3964
 8478SOL    HW137070   2.824   1.439   2.462  1.2321 -0.6548 -1.2888
 8478SOL    HW237071   2.784   1.350   2.572 -1.2177  0.1941 -0.8025
 8479SOL     OW37072   2.377   3.897  12.376  0.1943  0.1540 -0.0253
 8479SOL    HW137073   2.334   3.889  12.290  1.3136  0.4752 -0.6148
 8479SOL    HW237074   2.355   3.811  12.412 -0.7942  0.0313 -0.9027
 8480SOL     OW37075   3.640   4.107   1.468 -0.4342 -1.0144 -0.0367
 8480SOL    HW137076   3.689   4.082   1.547 -2.2261  1.5512  1.8804
 8480SOL    HW237077   3.623   4.017   1.443 -1.8317 -1.1078  1.2364
 8481SOL     OW37078   1.169   4.671   8.339  0.3273  0.5514 -0.4450
 8481SOL    HW137079   1.161   4.597   8.279  2.4116 -1.3060  1.5497
 8481SOL    HW237080   1.237   4.637   8.398  0.5539 -1.5758 -1.9190
 8482SOL     OW37081   2.465   2.631   7.243 -0.2922 -0.3521  0.1533
 8482SOL    HW137082   2.484   2.599   7.331 -0.2263  2.6156  1.2116
 8482SOL    HW237083   2.524   2.574   7.194  2.4552  1.8324  0.8706
 8483SOL     OW37084   3.646   2.317  10.209  0.3530  0.8239 -0.2101
 8483SOL    HW137085   3.675   2.225  10.214 -3.0657 -0.1222  1.8644
 8483SOL    HW237086   3.702   2.348  10.280 -0.5609  1.3861  0.2652
 8484SOL     OW37087   2.660   4.676   7.068  0.5933 -0.3398  0.0976
 8484SOL    HW137088   2.702   0.012   7.114  0.6300 -0.5149  0.3328
 8484SOL    HW237089   2.622   4.723   6.993 -2.0945 -0.7111  1.1952
 8485SOL     OW37090   2.565   4.270   1.584 -0.0970 -0.4729  0.4907
 8485SOL    HW137091   2.558   4.226   1.669 -1.3496 -1.7293 -0.2617
 8485SOL    HW237092   2.590   4.356   1.617  0.0481 -0.2829 -0.1136
 8486SOL     OW37093   3.966   1.828  15.977  0.3514 -0.2109 -0.2522
 8486SOL    HW137094   3.984   1.749  15.927  2.0547 -0.1822  0.3249
 8486SOL    HW237095   3.943   1.789  16.062  0.7963 -0.8993 -0.4528
 8487SOL     OW37096   0.861   2.877  16.295  0.0233 -0.9321  0.5640
 8487SOL    HW137097   0.953   2.880  16.269  0.3431 -0.6240  1.7239
 8487SOL    HW237098   0.872   2.901  16.387  1.2529 -0.1114  0.1931
 8488SOL     OW37099   3.064   3.193   3.206  0.1150 -0.9454  0.3459
 8488SOL    HW137100   3.090   3.133   3.135  0.2328  0.2404 -0.6125
 8488SOL    HW237101   3.151   3.213   3.240  0.3070 -0.2535 -0.5536
 8489SOL     OW37102   4.228   0.816   4.089  0.1155 -0.1918 -0.2271
 8489SOL    HW137103   4.148   0.804   4.038 -0.3251  1.0700  0.1597
 8489SOL    HW237104   4.215   0.908   4.112 -0.2709 -0.3254  0.0965
 8490SOL     OW37105   2.563   4.237   3.940 -0.3756 -0.2672  0.3703
 8490SOL    HW137106   2.596   4.182   4.011  0.9932  0.2164  0.1060
 8490SOL    HW237107   2.506   4.178   3.891 -0.9766  0.1345  0.5878
 8491SOL     OW37108   4.046   3.221   5.240 -0.2666 -0.3892  0.0582
 8491SOL    HW137109   4.001   3.147   5.200  0.6624 -1.5666  1.1785
 8491SOL    HW237110   3.972   3.281   5.248 -1.6350 -1.5307 -4.1387
 8492SOL     OW37111   2.028   1.975  17.654 -0.5716 -1.1219 -0.1531
 8492SOL    HW137112   2.050   2.034  17.727 -1.4150  0.3842 -1.1205
 8492SOL    HW237113   1.934   1.974  17.670 -0.3648  0.7087  1.2548
 8493SOL     OW37114   1.551   4.026   2.605  0.0001 -0.0848 -0.1685
 8493SOL    HW137115   1.534   4.082   2.680 -2.2693 -3.4783  1.8527
 8493SOL    HW237116   1.514   4.078   2.534 -1.4979  1.3585  1.6955
 8494SOL     OW37117   0.477   0.024   3.503  0.3461 -0.0128  0.2307
 8494SOL    HW137118   0.496   0.087   3.434 -0.8735  0.3735  0.2425
 8494SOL    HW237119   0.501   4.680   3.455  2.2135  0.7463 -0.0762
 8495SOL     OW37120   0.769   0.207  13.845 -0.2698  0.0086 -0.1415
 8495SOL    HW137121   0.807   0.136  13.897  0.1221  0.3386  0.0162
 8495SOL    HW237122   0.761   0.171  13.757 -1.9664  0.9579 -0.3770
 8496SOL     OW37123   2.218   2.425   4.769  0.0868 -0.0259 -0.0604
 8496SOL    HW137124   2.259   2.471   4.696 -0.7403  3.1307  1.4770
 8496SOL    HW237125   2.269   2.464   4.839  0.0042 -0.6131  0.3288
 8497SOL     OW37126   0.740   1.161  12.950  0.6286 -0.2898  0.8377
 8497SOL    HW137127   0.806   1.105  12.991  1.4101  0.1495  0.1858
 8497SOL    HW237128   0.676   1.100  12.916 -2.1393  1.0540  3.5280
 8498SOL     OW37129   4.545   3.673   8.837 -0.5362 -0.5064 -0.1418
 8498SOL    HW137130   4.492   3.601   8.802 -1.0662  0.1657 -0.7265
 8498SOL    HW237131   4.599   3.697   8.761 -2.0270  0.2929 -0.9659
 8499SOL     OW37132   0.902   4.048   4.734  0.3577 -0.1839 -0.7868
 8499SOL    HW137133   0.826   4.038   4.791  0.6536  1.5675 -0.1014
 8499SOL    HW237134   0.912   4.143   4.724 -1.3526  0.1100  0.2906
 8500SOL     OW37135   4.158   3.953   4.421 -0.2541  0.8191  0.3066
 8500SOL    HW137136   4.217   4.020   4.456  0.8837 -0.0564  0.0675
 8500SOL    HW237137   4.209   3.910   4.352  0.6450  3.6825 -0.8312
 8501SOL     OW37138   1.860   2.430   6.568 -0.2574  0.3380  0.1035
 8501SOL    HW137139   1.928   2.492   6.541  0.3696  0.1833  1.3531
 8501SOL    HW237140   1.792   2.482   6.611  2.3158  2.9110  1.0977
 8502SOL     OW37141   3.493   1.095   6.874  0.3549 -0.0039  0.4812
 8502SOL    HW137142   3.508   1.025   6.938 -1.4920 -0.7314  0.1285
 8502SOL    HW237143   3.574   1.112   6.826  0.5841 -0.2460  0.7871
 8503SOL     OW37144   3.213   1.277   9.549  0.1865  0.3648  0.1657
 8503SOL    HW137145   3.164   1.265   9.467  1.1087  1.6653 -0.5656
 8503SOL    HW237146   3.229   1.371   9.542  1.5074 -0.0336 -1.9968
 8504SOL     OW37147   4.160   4.444   7.671  0.4521  0.1293 -0.8990
 8504SOL    HW137148   4.084   4.496   7.695 -1.3746 -2.7108 -0.6386
 8504SOL    HW237149   4.158   4.363   7.722  5.7148  0.6247  0.1059
 8505SOL     OW37150   3.069   2.867   6.657  0.2550  0.5650 -0.4410
 8505SOL    HW137151   3.077   2.894   6.565  0.2039 -1.0663 -0.9204
 8505SOL    HW237152   3.126   2.790   6.653  2.2204  2.0027  0.1767
 8506SOL     OW37153   2.393   0.453   7.135  0.3927 -0.0413  0.4843
 8506SOL    HW137154   2.449   0.513   7.183  1.4199 -0.1250 -0.6344
 8506SOL    HW237155   2.418   0.368   7.172 -0.4455 -0.4106  0.2254
 8507SOL     OW37156   4.421   0.197   3.458  0.3345  0.1959 -0.0422
 8507SOL    HW137157   4.516   0.205   3.451  0.7125 -1.6465  2.7626
 8507SOL    HW237158   4.410   0.102   3.451  2.0812 -0.1561  1.9320
 8508SOL     OW37159   2.001   0.149   1.539  0.5187  0.1809  0.3599
 8508SOL    HW137160   2.045   0.070   1.571 -0.5323 -0.8029 -0.6259
 8508SOL    HW237161   1.920   0.115   1.503  0.7891  1.5964 -1.5883
 8509SOL     OW37162   3.382   3.171  16.480 -0.9860  0.3159 -0.4708
 8509SOL    HW137163   3.447   3.190  16.411 -0.0865 -3.2986 -0.6207
 8509SOL    HW237164   3.360   3.084  16.447  1.0312 -0.5035  0.3483
 8510SOL     OW37165   2.697   1.238  15.072  0.1328 -0.4564 -0.0588
 8510SOL    HW137166   2.714   1.330  15.094  1.4162 -0.9164  0.8676
 8510SOL    HW237167   2.634   1.240  15.000 -0.8897  0.5726  0.8611
 8511SOL     OW37168   2.884   1.475   7.649 -0.0112 -0.2708 -0.4417
 8511SOL    HW137169   2.911   1.417   7.720 -0.6452 -2.6769 -2.1547
 8511SOL    HW237170   2.844   1.549   7.694 -0.0871 -0.1082 -0.7743
 8512SOL     OW37171   3.481   1.937   7.593  0.1780  0.4727  0.4386
 8512SOL    HW137172   3.517   1.923   7.681  3.3800 -1.1881 -1.1366
 8512SOL    HW237173   3.435   2.021   7.589  1.7113  1.1842 -1.6905
 8513SOL     OW37174   3.572   0.310   9.209 -0.0951 -0.0632  0.3438
 8513SOL    HW137175   3.647   0.252   9.194  0.5083  0.4755  1.2383
 8513SOL    HW237176   3.597   0.351   9.292  1.5512 -0.8260  0.2351
 8514SOL     OW37177   0.586   1.197   2.119 -0.0786  0.5319 -0.2787
 8514SOL    HW137178   0.563   1.119   2.070  2.3981 -1.0982  1.1921
 8514SOL    HW237179   0.495   1.227   2.123  0.4146  1.9828  0.1979
 8515SOL     OW37180   2.364   3.643  12.441 -0.1702  0.0243 -0.8184
 8515SOL    HW137181   2.410   3.570  12.401 -1.0312 -1.2409  0.5164
 8515SOL    HW237182   2.300   3.597  12.495  0.4457  2.1209  1.7133
 8516SOL     OW37183   3.384   0.868   8.738 -0.1465 -0.5243 -0.5764
 8516SOL    HW137184   3.310   0.865   8.677 -0.9293  2.1443  0.2857
 8516SOL    HW237185   3.445   0.915   8.681  0.1933 -0.9226 -0.5408
 8517SOL     OW37186   3.539   0.187   1.378  0.2092 -0.0512  0.4671
 8517SOL    HW137187   3.513   0.189   1.286 -1.3563  1.6749  0.9507
 8517SOL    HW237188   3.586   0.269   1.370  1.9155 -0.8662  2.1488
 8518SOL     OW37189   4.330   2.566   5.164  0.5194 -0.1282  0.5963
 8518SOL    HW137190   4.297   2.628   5.099  0.2778  0.1706  1.0035
 8518SOL    HW237191   4.271   2.575   5.239  0.4134 -3.1347  0.8600
 8519SOL     OW37192   4.445   3.913   2.672 -0.1568 -0.1405 -0.3054
 8519SOL    HW137193   4.521   3.890   2.725 -1.5314  1.1430  2.2609
 8519SOL    HW237194   4.482   3.897   2.585  0.6438 -1.4620  0.2855
 8520SOL     OW37195   1.060   4.516   2.024  0.2502 -0.1086 -0.0789
 8520SOL    HW137196   1.065   4.511   1.929 -1.6141  3.0427 -0.3266
 8520SOL    HW237197   1.028   4.606   2.012 -0.1171 -0.3370 -0.8351
 8521SOL     OW37198   0.534   0.195  15.995  0.3542 -0.7308  0.6310
 8521SOL    HW137199   0.483   0.209  15.915  0.7654 -1.9826  0.1611
 8521SOL    HW237200   0.494   0.121  16.040 -1.2696  1.1357  2.3087
 8522SOL     OW37201   4.494   3.322   8.879 -0.0590  0.1326  0.1656
 8522SOL    HW137202   4.512   3.257   8.812  0.7656 -1.4460  1.9276
 8522SOL    HW237203   4.582   3.349   8.906  1.0378 -4.3571  1.0220
 8523SOL     OW37204   0.373   0.181  13.159 -0.0706  0.3340 -0.2580
 8523SOL    HW137205   0.383   0.104  13.103  3.0968 -0.4076  1.3072
 8523SOL    HW237206   0.389   0.247  13.091 -1.4435 -0.0934 -0.9927
 8524SOL     OW37207   0.736   1.238   6.409 -0.6334 -0.3646 -0.2685
 8524SOL    HW137208   0.710   1.177   6.478  1.5866 -0.0547  0.8352
 8524SOL    HW237209   0.728   1.319   6.458 -0.1986 -1.4605  1.5908
 8525SOL     OW37210   0.477   2.704   2.846  0.7798  0.4852  0.0920
 8525SOL    HW137211   0.464   2.618   2.885  0.6072  0.2341 -0.5218
 8525SOL    HW237212   0.393   2.748   2.861  1.4147  1.3026  1.2034
 8526SOL     OW37213   2.810   2.861  16.098 -0.0223 -0.0548  0.1820
 8526SOL    HW137214   2.763   2.778  16.099 -0.0754 -0.0104  1.8391
 8526SOL    HW237215   2.741   2.927  16.107 -0.7733 -0.4031 -3.2001
 8527SOL     OW37216   0.352   1.424   1.552 -0.7536  0.1667  0.0609
 8527SOL    HW137217   0.343   1.519   1.548 -0.4774  0.1806 -0.2860
 8527SOL    HW237218   0.280   1.394   1.606 -0.2233 -2.9781 -0.9619
 8528SOL     OW37219   1.321   0.740   0.161 -0.3159 -0.2131  0.7540
 8528SOL    HW137220   1.228   0.752   0.143 -0.2364  0.6909  0.9955
 8528SOL    HW237221   1.348   0.719   0.071 -0.0871 -2.1596  1.2641
 8529SOL     OW37222   2.630   0.929   8.479 -0.3449  0.9152 -0.3155
 8529SOL    HW137223   2.579   0.901   8.404  0.3510  3.3916 -1.7388
 8529SOL    HW237224   2.567   0.901   8.546  0.3674 -0.9104 -0.4221
 8530SOL     OW37225   3.532   1.423  17.473  0.0318  0.2853  0.2191
 8530SOL    HW137226   3.444   1.460  17.464 -0.1711 -0.6206 -1.3522
 8530SOL    HW237227   3.564   1.405  17.385 -1.8665  0.9015 -0.6031
 8531SOL     OW37228   3.078   4.068  12.972 -0.3787 -0.5970 -0.4111
 8531SOL    HW137229   2.995   4.077  13.019  0.4946  0.2412  0.9474
 8531SOL    HW237230   3.081   3.978  12.938  0.8926 -0.9321  0.6086
 8532SOL     OW37231   1.309   0.012  10.792  0.5347 -0.0371 -0.0306
 8532SOL    HW137232   1.230   0.012  10.738  0.1362  0.9084  0.5510
 8532SOL    HW237233   1.354   4.675  10.749  0.3785 -0.9737  1.3620
 8533SOL     OW37234   0.873   1.040   3.079  0.6071  0.1219 -0.0717
 8533SOL    HW137235   0.919   0.987   3.144  1.7564 -1.0349 -1.8228
 8533SOL    HW237236   0.903   0.999   2.998  1.3986  3.0513 -1.2507
 8534SOL     OW37237   0.257   2.286   2.976 -0.5504  0.0260 -0.1594
 8534SOL    HW137238   0.341   2.309   3.014 -1.0619 -0.3698  1.2026
 8534SOL    HW237239   0.204   2.267   3.053 -1.2788  0.7889 -0.4647
 8535SOL     OW37240   3.576   0.452   7.295 -0.8091 -0.0364 -0.3377
 8535SOL    HW137241   3.503   0.395   7.274 -0.5582  0.4658 -2.5905
 8535SOL    HW237242   3.654   0.409   7.260 -2.0074 -2.3109 -0.1669
 8536SOL     OW37243   0.986   1.875   7.173 -0.2869  0.0033  0.2272
 8536SOL    HW137244   0.923   1.858   7.103 -1.5219  1.0454  1.0874
 8536SOL    HW237245   1.036   1.797   7.150 -0.6232  0.3506 -1.7329
 8537SOL     OW37246   1.244   3.991   8.758 -0.0324 -0.2385  0.0464
 8537SOL    HW137247   1.275   4.075   8.724 -1.2642  0.2840  0.1758
 8537SOL    HW237248   1.180   4.025   8.822  2.3209  0.7170  1.8916
 8538SOL     OW37249   3.263   0.650   7.757  0.1020  0.1699  0.3352
 8538SOL    HW137250   3.193   0.588   7.738 -0.6946  0.9617  0.6873
 8538SOL    HW237251   3.235   0.685   7.841 -0.4372 -0.7657  0.5369
 8539SOL     OW37252   2.556   4.154  15.805  0.6126 -0.0928  0.9115
 8539SOL    HW137253   2.550   4.167  15.710  1.1512 -1.7242  0.6553
 8539SOL    HW237254   2.618   4.225  15.824  0.7221 -0.8788  3.4019
 8540SOL     OW37255   2.889   4.314   6.068  0.0495 -0.0280 -0.0632
 8540SOL    HW137256   2.960   4.350   6.121  1.7210 -0.6495 -1.8509
 8540SOL    HW237257   2.844   4.394   6.041 -0.1422 -0.2677 -0.4508
 8541SOL     OW37258   4.476   3.738   3.944 -0.1127 -0.0035 -0.3899
 8541SOL    HW137259   4.528   3.741   4.024  0.0324 -0.8411 -0.4508
 8541SOL    HW237260   4.499   3.649   3.918  0.5012  0.3609 -1.1044
 8542SOL     OW37261   2.198   3.285   4.560 -0.1056 -0.7515 -0.1398
 8542SOL    HW137262   2.130   3.350   4.542 -0.6702 -0.9735  1.1769
 8542SOL    HW237263   2.153   3.202   4.571 -1.1640 -0.0406  0.9118
 8543SOL     OW37264   3.118   1.390  16.504 -0.0667  0.6100  0.0884
 8543SOL    HW137265   3.142   1.482  16.512 -0.2748  0.6499  0.2485
 8543SOL    HW237266   3.144   1.361  16.417  0.4432  3.1399 -0.5898
 8544SOL     OW37267   3.840   4.727   8.229 -0.3807  0.3859 -0.1070
 8544SOL    HW137268   3.812   4.711   8.319 -1.9412  1.1753 -0.4416
 8544SOL    HW237269   3.852   0.085   8.239  0.9470  0.2237 -0.1950
 8545SOL     OW37270   4.715   2.190   8.533 -0.5261  0.0065  0.2339
 8545SOL    HW137271   0.062   2.217   8.572 -0.1485 -0.6595 -0.1096
 8545SOL    HW237272   0.007   2.116   8.479 -0.3916  2.8067 -3.5215
 8546SOL     OW37273   0.512   2.025   3.833  0.3013 -0.0910 -0.3304
 8546SOL    HW137274   0.550   2.097   3.782  1.7377 -1.4910 -1.2012
 8546SOL    HW237275   0.550   2.043   3.919 -1.9806  1.3700  0.3973
 8547SOL     OW37276   3.367   4.247  11.809 -0.2441 -0.1918  0.2225
 8547SOL    HW137277   3.372   4.199  11.892  0.9667 -0.4190  0.0103
 8547SOL    HW237278   3.451   4.218  11.776 -0.9121 -0.8664 -0.8790
 8548SOL     OW37279   3.094   3.521   2.654 -0.1794 -0.2644  0.9791
 8548SOL    HW137280   3.183   3.549   2.674  0.2849 -2.8572  2.5061
 8548SOL    HW237281   3.056   3.608   2.644  0.4385 -0.2788 -1.3965
 8549SOL     OW37282   4.641   1.777   0.136  0.0887  0.3201 -0.1727
 8549SOL    HW137283   4.571   1.789   0.072 -1.3188  1.5973  1.6461
 8549SOL    HW237284   4.709   1.747   0.075 -1.7754  0.3001 -2.2657
 8550SOL     OW37285   0.004   4.123   8.746 -0.4720  0.4127  0.4158
 8550SOL    HW137286   4.721   4.051   8.687 -0.2452  0.6915  0.0038
 8550SOL    HW237287   0.093   4.151   8.721  0.4664 -2.5205  0.4550
 8551SOL     OW37288   1.755   4.275  16.262  0.1197  0.1000 -0.4189
 8551SOL    HW137289   1.841   4.306  16.235  1.3959 -1.3952  1.9903
 8551SOL    HW237290   1.785   4.228  16.339 -1.0030 -2.3958 -1.5061
 8552SOL     OW37291   4.309   2.089   7.788 -0.3086  0.1835 -0.7211
 8552SOL    HW137292   4.321   2.036   7.710 -2.4715  0.4667 -1.2461
 8552SOL    HW237293   4.256   2.027   7.839  1.6631 -0.1686  0.9130
 8553SOL     OW37294   3.465   0.109   0.633 -0.0364 -0.1351 -0.0687
 8553SOL    HW137295   3.544   0.161   0.615 -0.4538  0.2012 -0.9001
 8553SOL    HW237296   3.504   0.025   0.609  2.1539  0.7094  0.4784
 8554SOL     OW37297   3.947   3.194  10.528 -0.2486  0.6374 -0.1849
 8554SOL    HW137298   3.968   3.148  10.447 -0.8657 -0.0001  0.0155
 8554SOL    HW237299   3.891   3.266  10.498  0.4135  1.3318  0.2551
 8555SOL     OW37300   4.508   0.132  13.662  0.1418 -0.3085  0.6269
 8555SOL    HW137301   4.491   0.051  13.710 -0.9588 -0.8632 -0.7339
 8555SOL    HW237302   4.474   0.201  13.719 -1.1107 -0.2161 -0.2439
 8556SOL     OW37303   1.512   1.628  13.932 -0.5296 -0.5343  0.2834
 8556SOL    HW137304   1.485   1.620  13.840 -0.0803  0.5506  0.0503
 8556SOL    HW237305   1.449   1.565  13.966  1.6643 -2.4006  0.8448
 8557SOL     OW37306   4.066   4.099   1.567 -0.5006 -0.1781  0.3531
 8557SOL    HW137307   4.056   4.141   1.481 -1.9740 -1.8682 -0.2815
 8557SOL    HW237308   4.162   4.092   1.573 -0.4564  0.1618  0.0891
 8558SOL     OW37309   4.592   4.208  11.720 -0.2715  0.2835  0.4579
 8558SOL    HW137310   4.666   4.210  11.780 -0.5394  1.9680  0.7098
 8558SOL    HW237311   4.522   4.238  11.777  0.0927  3.5835 -0.8382
 8559SOL     OW37312   1.515   3.136   7.711 -0.0971 -0.3868 -0.3256
 8559SOL    HW137313   1.464   3.136   7.792  0.9398  0.7595  0.3403
 8559SOL    HW237314   1.583   3.069   7.722 -1.5064 -1.6521  0.6325
 8560SOL     OW37315   0.322   3.085  11.467 -0.1521  0.4955  0.0970
 8560SOL    HW137316   0.253   3.082  11.533 -0.8748  0.2654 -0.6743
 8560SOL    HW237317   0.327   2.993  11.440 -0.3548  1.1577 -2.1904
 8561SOL     OW37318   0.813   0.123  13.488 -0.1805  0.1411 -0.0414
 8561SOL    HW137319   0.840   0.119  13.396 -0.6131 -1.0554 -0.1178
 8561SOL    HW237320   0.861   0.196  13.525 -1.5666  1.2228 -0.3638
 8562SOL     OW37321   3.215   0.859   7.205 -0.1561  0.1759  0.3113
 8562SOL    HW137322   3.194   0.953   7.204 -2.2868 -0.2993  0.7327
 8562SOL    HW237323   3.296   0.865   7.255  1.0729 -1.2167 -1.5313
 8563SOL     OW37324   2.809   2.896   4.251  0.3027  0.9575  0.2331
 8563SOL    HW137325   2.753   2.964   4.214 -0.4356  0.4945  0.4908
 8563SOL    HW237326   2.754   2.853   4.317 -0.5545 -0.0257 -1.1048
 8564SOL     OW37327   2.857   4.361  14.564  0.4040  0.1713  0.1154
 8564SOL    HW137328   2.911   4.283  14.577 -0.0421  0.1441  1.8099
 8564SOL    HW237329   2.916   4.413  14.509  0.1228  0.1230 -0.2353
 8565SOL     OW37330   4.572   4.229   4.766  0.4419  0.1584  0.0446
 8565SOL    HW137331   4.627   4.157   4.735 -0.5470 -0.8449  0.5922
 8565SOL    HW237332   4.602   4.238   4.856  1.0174  0.3590 -0.1679
 8566SOL     OW37333   1.430   1.292  10.588 -0.2149 -0.4625 -0.5344
 8566SOL    HW137334   1.363   1.360  10.591  0.5813  0.3520 -0.9457
 8566SOL    HW237335   1.488   1.332  10.523  2.6184 -0.0733  2.2132
 8567SOL     OW37336   0.516   2.599   5.935 -0.5635  0.5317  0.1099
 8567SOL    HW137337   0.538   2.615   5.844  2.4777 -1.3929  0.4866
 8567SOL    HW237338   0.482   2.510   5.927 -1.4123  0.7419  1.3846
 8568SOL     OW37339   3.657   1.453   5.825 -0.0888 -0.2172 -0.2211
 8568SOL    HW137340   3.694   1.378   5.873 -0.3723  1.1975  2.2495
 8568SOL    HW237341   3.707   1.525   5.864  1.0195 -1.2264  0.2336
 8569SOL     OW37342   0.407   0.378   3.621  0.2733 -0.3923  0.1333
 8569SOL    HW137343   0.390   0.436   3.695  1.4166 -1.8578  1.5457
 8569SOL    HW237344   0.495   0.343   3.635 -0.4271 -1.5072  1.6655
 8570SOL     OW37345   3.089   1.560   4.283  0.7202  0.1207  0.4598
 8570SOL    HW137346   3.132   1.637   4.246  0.3589  0.1524  0.1062
 8570SOL    HW237347   3.015   1.529   4.230  0.7009 -0.4951  0.8541
 8571SOL     OW37348   3.986   3.530   6.906 -0.1981  0.2743  0.0852
 8571SOL    HW137349   3.957   3.620   6.919 -0.4733 -0.1670  2.5154
 8571SOL    HW237350   3.911   3.480   6.937  0.1297  1.3150  2.6321
 8572SOL     OW37351   0.506   2.141   7.517  0.0761 -0.0219 -0.3680
 8572SOL    HW137352   0.529   2.158   7.608  2.0235 -0.8627 -0.6864
 8572SOL    HW237353   0.412   2.156   7.515  0.1850  0.5864 -0.6863
 8573SOL     OW37354   1.896   0.098  15.564  0.2697  0.4001  0.3727
 8573SOL    HW137355   1.828   0.030  15.553 -1.4512  2.1393  0.2426
 8573SOL    HW237356   1.850   0.175  15.598  0.5848  1.2460 -1.1241
 8574SOL     OW37357   1.251   1.789  13.005 -0.1923  0.1233 -0.8555
 8574SOL    HW137358   1.275   1.869  13.051 -2.3426  2.2533 -3.4355
 8574SOL    HW237359   1.339   1.755  12.987  0.1394 -0.7054  2.4073
 8575SOL     OW37360   2.258   1.358   2.594  0.1963 -0.2418  0.5524
 8575SOL    HW137361   2.310   1.342   2.515  0.2032 -1.4510  0.7998
 8575SOL    HW237362   2.189   1.292   2.584 -1.6307  1.7543 -0.0855
 8576SOL     OW37363   1.766   2.396   7.666 -0.3210  0.2093 -0.1011
 8576SOL    HW137364   1.758   2.379   7.760  0.2277  1.8390  0.2300
 8576SOL    HW237365   1.855   2.430   7.661  0.1166 -0.8935  0.2751
 8577SOL     OW37366   3.551   2.505   7.942 -0.4605  0.4767  0.3388
 8577SOL    HW137367   3.554   2.599   7.958  1.1862  0.1284  2.0985
 8577SOL    HW237368   3.538   2.480   8.033 -2.7064  1.4634  0.2837
 8578SOL     OW37369   2.153   0.994   7.788 -0.6284 -0.0718  0.0634
 8578SOL    HW137370   2.152   1.049   7.710  1.2627  0.2382  0.2589
 8578SOL    HW237371   2.121   0.906   7.770 -0.2717 -0.1221 -0.3122
 8579SOL     OW37372   0.898   2.144  11.603 -0.4102 -0.1600  0.1212
 8579SOL    HW137373   0.832   2.178  11.543  0.8503  1.6631 -0.2502
 8579SOL    HW237374   0.845   2.110  11.675  1.4001 -0.5806  1.2822
 8580SOL     OW37375   3.711   2.074  10.506 -0.0315 -0.6423  0.3487
 8580SOL    HW137376   3.701   2.037  10.418  2.3682 -0.7163  0.1297
 8580SOL    HW237377   3.768   2.148  10.490  0.0344 -1.0834 -1.5333
 8581SOL     OW37378   3.133   0.154   6.703  0.0077 -0.1249  0.1139
 8581SOL    HW137379   3.148   0.241   6.739 -2.9382 -0.2400  1.5974
 8581SOL    HW237380   3.190   0.091   6.747 -1.4713 -1.6267 -0.1229
 8582SOL     OW37381   1.871   1.349   6.724 -0.0150 -0.1205 -0.3493
 8582SOL    HW137382   1.826   1.299   6.791 -0.0829 -0.4217 -0.6184
 8582SOL    HW237383   1.841   1.293   6.652  0.9645 -0.8902 -0.1607
 8583SOL     OW37384   1.111   2.974   5.523  0.1731 -0.0408 -0.4703
 8583SOL    HW137385   1.205   2.966   5.505 -0.0307 -0.1011 -1.5052
 8583SOL    HW237386   1.110   3.066   5.547 -0.7403  0.1818 -1.3715
 8584SOL     OW37387   1.253   1.471  10.634  0.2735 -0.2603 -0.6861
 8584SOL    HW137388   1.237   1.485  10.727 -0.4594 -1.5249 -0.6157
 8584SOL    HW237389   1.224   1.549  10.585 -0.5572 -1.3600 -1.9483
 8585SOL     OW37390   3.424   4.663   5.513 -0.1782 -0.6179  0.4694
 8585SOL    HW137391   3.395   0.017   5.501 -1.4344 -0.8293  1.8395
 8585SOL    HW237392   3.504   4.669   5.565 -0.9191 -0.3431  1.5856
 8586SOL     OW37393   4.381   3.072   9.459 -0.5906  0.0714 -0.0701
 8586SOL    HW137394   4.395   3.037   9.547 -1.8980 -1.0077 -0.2987
 8586SOL    HW237395   4.471   3.071   9.426 -1.2034  0.8487 -1.7537
 8587SOL     OW37396   0.626   1.958  16.559 -0.1272  0.0411 -0.3052
 8587SOL    HW137397   0.535   1.984  16.575  0.2662  0.2515  1.5980
 8587SOL    HW237398   0.652   1.936  16.649 -0.4348 -0.8597 -0.4388
 8588SOL     OW37399   0.255   1.167   5.897  0.1495 -0.1215  0.8456
 8588SOL    HW137400   0.294   1.252   5.876 -0.4291  0.6610  2.8956
 8588SOL    HW237401   0.208   1.180   5.979  1.1068 -0.1283  1.4007
 8589SOL     OW37402   4.082   1.416   6.884  0.4766  0.2221 -0.5335
 8589SOL    HW137403   4.085   1.357   6.808 -2.0205  1.4026 -1.5560
 8589SOL    HW237404   4.167   1.389   6.918 -1.1307  1.1811  4.1777
 8590SOL     OW37405   2.969   2.332   3.866  0.1285  0.5077 -0.1970
 8590SOL    HW137406   2.989   2.393   3.937 -4.0883  0.9037  0.6501
 8590SOL    HW237407   2.874   2.328   3.858 -0.1095  3.4375  1.1701
 8591SOL     OW37408   1.189   1.303   2.310  0.2798  0.0493  0.2228
 8591SOL    HW137409   1.122   1.368   2.333  0.3559  0.1040  0.2879
 8591SOL    HW237410   1.263   1.332   2.364  1.4682  0.3653 -1.5927
 8592SOL     OW37411   1.527   0.249   5.214  0.2302  0.3402  0.2183
 8592SOL    HW137412   1.509   0.309   5.287  2.5436  1.5805 -0.2245
 8592SOL    HW237413   1.537   0.314   5.143  1.3012 -0.3158 -0.2389
 8593SOL     OW37414   2.439   0.046  11.110 -0.5298  0.2706 -0.3437
 8593SOL    HW137415   2.530   0.042  11.140 -0.3185  0.6390 -0.9461
 8593SOL    HW237416   2.452   0.040  11.016 -3.3285 -1.4693 -0.6054
 8594SOL     OW37417   1.561   2.201   2.771  0.0230  0.1147 -0.1029
 8594SOL    HW137418   1.632   2.259   2.745  0.0929  0.3341  0.5889
 8594SOL    HW237419   1.608   2.141   2.829 -2.0972  1.0133  2.5511
 8595SOL     OW37420   2.490   0.671   3.528  0.3589 -0.2342  0.2156
 8595SOL    HW137421   2.404   0.701   3.498  0.1076 -2.9898 -1.8469
 8595SOL    HW237422   2.497   0.712   3.614  0.6216  0.3949 -0.1092
 8596SOL     OW37423   0.167   1.498   3.906 -0.5809 -1.2961  0.2287
 8596SOL    HW137424   0.191   1.466   3.992  1.1913  0.4253  0.3717
 8596SOL    HW237425   0.247   1.543   3.879 -2.9279  3.4066  1.0509
 8597SOL     OW37426   4.187   2.218   8.673  0.6703  0.0203 -0.0748
 8597SOL    HW137427   4.199   2.266   8.754  2.7269 -2.4829  1.1102
 8597SOL    HW237428   4.143   2.279   8.614 -0.7099 -1.7071 -0.8524
 8598SOL     OW37429   0.998   3.359   7.478  0.3663  0.4419 -0.0021
 8598SOL    HW137430   1.081   3.311   7.480  0.1378  0.0332 -0.4144
 8598SOL    HW237431   1.009   3.417   7.554  0.3188  0.5854 -0.1057
 8599SOL     OW37432   4.386   0.396   5.409 -0.9835 -0.4717 -0.3311
 8599SOL    HW137433   4.388   0.322   5.349  2.2251  1.1911 -2.2935
 8599SOL    HW237434   4.324   0.367   5.476 -0.1121  1.3914  1.3054
 8600SOL     OW37435   1.751   0.383  15.409 -0.1359 -0.3060  0.2197
 8600SOL    HW137436   1.668   0.427  15.430 -0.1867 -0.8977  1.2850
 8600SOL    HW237437   1.758   0.348  15.498  0.6368 -0.2600  0.1761
 8601SOL     OW37438   3.764   0.661   6.508  0.3794 -0.0426 -0.2880
 8601SOL    HW137439   3.727   0.720   6.573 -0.1044 -0.7799  0.1039
 8601SOL    HW237440   3.853   0.647   6.540  0.2696  0.7483  0.3517
 8602SOL     OW37441   3.894   1.501   8.152 -0.3481  0.3824  0.5365
 8602SOL    HW137442   3.883   1.595   8.159  1.3980  0.6776 -0.9476
 8602SOL    HW237443   3.968   1.500   8.092 -0.3036 -0.8179  0.6049
 8603SOL     OW37444   3.880   2.309   8.728  0.2757  0.2628 -0.1615
 8603SOL    HW137445   3.842   2.396   8.722  0.6088  0.4312  0.1518
 8603SOL    HW237446   3.935   2.323   8.652  1.4985 -3.4590  0.0373
 8604SOL     OW37447   3.699   0.871   6.702 -0.2969  0.7305 -0.1153
 8604SOL    HW137448   3.636   0.930   6.660 -0.1407 -0.8029 -2.5173
 8604SOL    HW237449   3.663   0.864   6.790  0.5619 -2.4107 -0.0245
 8605SOL     OW37450   4.046   1.517   2.106 -0.0490  0.1281  0.4177
 8605SOL    HW137451   3.980   1.452   2.083  2.4315 -1.0881 -3.2602
 8605SOL    HW237452   4.119   1.470   2.148  0.5008 -0.1763 -0.8787
 8606SOL     OW37453   0.824   4.041  13.773  0.1986  0.2735 -0.0952
 8606SOL    HW137454   0.890   4.110  13.778  0.8078 -0.2274 -1.0622
 8606SOL    HW237455   0.770   4.062  13.697 -1.6423 -0.3853  1.0423
 8607SOL     OW37456   4.281   3.428   6.529 -0.8141  0.2866  0.2172
 8607SOL    HW137457   4.264   3.444   6.622 -1.6739 -3.1581  0.6516
 8607SOL    HW237458   4.320   3.513   6.507  1.0413 -0.1028  2.0334
 8608SOL     OW37459   3.216   1.131   0.541  0.9177 -0.5776  0.1022
 8608SOL    HW137460   3.213   1.151   0.634  0.7771  3.7407 -0.8251
 8608SOL    HW237461   3.294   1.182   0.519 -0.5973  2.2141  1.3460
 8609SOL     OW37462   1.588   0.991   3.099 -0.5904 -0.3575 -0.2442
 8609SOL    HW137463   1.647   1.043   3.044 -2.9270  1.3238 -1.1385
 8609SOL    HW237464   1.561   0.928   3.032  0.7341  0.8261 -1.9146
 8610SOL     OW37465   1.515   1.770   2.626  0.2505 -0.5533 -0.5592
 8610SOL    HW137466   1.456   1.753   2.700 -0.1135  1.1007 -0.4845
 8610SOL    HW237467   1.595   1.723   2.650  0.5686  1.3978  2.2103
 8611SOL     OW37468   3.874   3.523  12.259  0.2458 -0.3633  0.2776
 8611SOL    HW137469   3.800   3.537  12.199  2.7790  0.5922 -2.6305
 8611SOL    HW237470   3.934   3.471  12.206  0.4793  0.2498 -0.0589
 8612SOL     OW37471   2.577   4.523   1.843 -0.4981  0.4161 -0.3169
 8612SOL    HW137472   2.482   4.518   1.852 -0.4009  1.9124  1.4528
 8612SOL    HW237473   2.597   4.513   1.936  0.3444  0.1872 -0.5280
 8613SOL     OW37474   2.472   2.461   7.495  0.4989  0.2812 -0.1692
 8613SOL    HW137475   2.508   2.373   7.504  0.5049  0.1631 -1.3215
 8613SOL    HW237476   2.399   2.458   7.556 -1.1286  1.7374 -2.0306
 8614SOL     OW37477   2.379   3.107  11.322 -0.1189 -0.1351  0.4532
 8614SOL    HW137478   2.296   3.150  11.342  0.2125  0.0250  1.4938
 8614SOL    HW237479   2.353   3.063  11.241  0.4526 -2.2670  1.4081
 8615SOL     OW37480   3.510   2.954   3.468  0.0141  0.5118 -0.2408
 8615SOL    HW137481   3.583   3.005   3.503  0.4909 -0.0771 -0.3770
 8615SOL    HW237482   3.508   2.870   3.515 -0.4630  1.7115  1.8942
 8616SOL     OW37483   2.525   0.321  11.303 -0.0749 -0.0096 -0.1054
 8616SOL    HW137484   2.572   0.397  11.338  0.2006  0.0261 -0.5399
 8616SOL    HW237485   2.565   0.319  11.216  0.2675 -0.3582  0.0576
 8617SOL     OW37486   4.098   4.229   5.581  0.2211 -0.1934  0.2271
 8617SOL    HW137487   4.158   4.301   5.598  0.2168  0.0016 -0.5896
 8617SOL    HW237488   4.029   4.240   5.648  1.4329  0.1881  1.4185
 8618SOL     OW37489   2.039   0.460   3.171 -0.5128 -0.0704  0.5181
 8618SOL    HW137490   1.979   0.451   3.245  0.1229 -0.4408  0.9900
 8618SOL    HW237491   2.049   0.555   3.175  1.8748 -0.3497  1.6043
 8619SOL     OW37492   1.220   0.518  11.364 -0.2055 -0.2092  0.0488
 8619SOL    HW137493   1.297   0.521  11.420  0.8425 -0.0930 -1.4043
 8619SOL    HW237494   1.198   0.610  11.351 -3.6265 -0.6727  2.3861
 8620SOL     OW37495   0.294   2.959   2.848  0.8724  0.1081 -0.1833
 8620SOL    HW137496   0.225   3.024   2.845  1.6135  0.8245 -1.8674
 8620SOL    HW237497   0.349   2.994   2.777  2.8287 -0.5851  0.9847
 8621SOL     OW37498   0.326   1.937   5.154 -0.3368  0.0063 -0.1479
 8621SOL    HW137499   0.364   1.984   5.080  0.8011  0.5888  0.8006
 8621SOL    HW237500   0.298   1.851   5.123 -1.4640  0.4696 -0.4336
 8622SOL     OW37501   0.367   2.559   1.825 -0.0992 -0.1838 -0.2531
 8622SOL    HW137502   0.438   2.547   1.763  1.0709  2.1177  0.6217
 8622SOL    HW237503   0.408   2.527   1.904  1.3930 -3.7669 -2.5029
 8623SOL     OW37504   1.983   2.204  16.156  0.4449  0.5164  0.0537
 8623SOL    HW137505   1.998   2.284  16.207  2.7213  0.6621 -0.8212
 8623SOL    HW237506   2.048   2.141  16.187  1.1155  1.2820  0.2339
 8624SOL     OW37507   1.654   0.929   2.834 -0.6320 -0.3953  0.1791
 8624SOL    HW137508   1.624   0.872   2.763 -2.1924 -1.3465  1.6022
 8624SOL    HW237509   1.634   1.017   2.801  0.1281 -0.1090  0.4861
 8625SOL     OW37510   0.692   4.497   5.338  0.1092 -0.3841  0.0928
 8625SOL    HW137511   0.647   4.436   5.280  1.5074 -1.3289  0.0010
 8625SOL    HW237512   0.688   4.570   5.277 -0.6190 -1.2151 -0.8615
 8626SOL     OW37513   3.741   2.169   2.607  0.0039 -0.3032 -0.5462
 8626SOL    HW137514   3.765   2.208   2.523 -0.8765 -0.0425 -0.6813
 8626SOL    HW237515   3.828   2.131   2.619 -0.3099 -0.1113  2.4314
 8627SOL     OW37516   1.527   3.105   4.737  0.5349  0.3464  0.1527
 8627SOL    HW137517   1.524   3.044   4.811 -0.7933 -1.3846 -1.3198
 8627SOL    HW237518   1.448   3.155   4.756 -0.5406 -1.2156 -0.2466
 8628SOL     OW37519   3.687   3.520   9.822 -0.0394  0.6111  0.1282
 8628SOL    HW137520   3.745   3.444   9.830  1.3626  1.7463  0.7378
 8628SOL    HW237521   3.731   3.570   9.753  0.3792  0.7953  0.5352
 8629SOL     OW37522   1.103   3.922   4.890 -0.0223 -0.0297  0.1287
 8629SOL    HW137523   1.035   3.927   4.824  0.2159  1.9784  0.0290
 8629SOL    HW237524   1.128   4.015   4.890 -2.9990  0.7482  0.2877
 8630SOL     OW37525   2.094   0.474  15.619  0.8807  0.1425 -0.3684
 8630SOL    HW137526   2.028   0.404  15.615 -0.2715  1.0941  2.0569
 8630SOL    HW237527   2.113   0.477  15.525 -2.8943 -1.2509 -1.2091
 8631SOL     OW37528   1.434   4.052   6.280 -0.5827  0.4622  0.4599
 8631SOL    HW137529   1.496   4.005   6.335 -0.2896  2.1663  1.5800
 8631SOL    HW237530   1.381   3.982   6.244  0.8487 -0.8887  0.9718
 8632SOL     OW37531   1.618   4.600   2.176  0.7505 -0.6436  0.1620
 8632SOL    HW137532   1.605   4.638   2.089 -0.7758 -2.1322 -0.2592
 8632SOL    HW237533   1.553   4.651   2.225  1.5279  0.2321  0.2882
 8633SOL     OW37534   0.715   1.812  13.477  0.2531  1.1470  0.2556
 8633SOL    HW137535   0.729   1.719  13.459  1.5323  1.3720  0.1033
 8633SOL    HW237536   0.621   1.811  13.493  0.2104 -0.0626 -0.0904
 8634SOL     OW37537   2.115   1.299   1.486  0.3696 -0.7299 -0.3938
 8634SOL    HW137538   2.153   1.361   1.549 -2.2812  0.2412  0.2404
 8634SOL    HW237539   2.147   1.350   1.412 -1.0056 -0.3932 -0.7414
 8635SOL     OW37540   4.594   2.009   0.452  0.1740  0.0641 -0.4986
 8635SOL    HW137541   4.599   1.973   0.540  0.1923 -0.6046 -0.7675
 8635SOL    HW237542   4.679   1.996   0.411 -0.1818 -2.6143 -0.3896
 8636SOL     OW37543   0.452   3.320  17.044  0.2813  0.4293 -0.1155
 8636SOL    HW137544   0.385   3.267  17.086  0.0982  1.8531  1.3771
 8636SOL    HW237545   0.478   3.266  16.969 -1.7511  1.2390 -1.3996
 8637SOL     OW37546   2.561   1.487   8.042 -0.2753  0.1146 -0.2901
 8637SOL    HW137547   2.601   1.400   8.039 -0.4157  0.1282 -2.5287
 8637SOL    HW237548   2.641   1.539   8.043 -0.9440  1.1895 -1.5756
 8638SOL     OW37549   2.518   3.824   4.471 -0.4921 -0.2829  0.1018
 8638SOL    HW137550   2.489   3.911   4.499  1.0480  1.2689 -3.0903
 8638SOL    HW237551   2.430   3.788   4.460  1.0261 -3.9424 -0.0028
 8639SOL     OW37552   0.918   4.304   8.484 -0.0100 -0.1453  0.6972
 8639SOL    HW137553   0.893   4.213   8.467 -0.1171 -0.0011  0.0704
 8639SOL    HW237554   0.829   4.340   8.487 -0.2604 -0.7083  0.0623
 8640SOL     OW37555   0.176   0.394   8.556  0.8316  0.5171 -0.4309
 8640SOL    HW137556   0.111   0.325   8.540 -0.6940  1.2270  2.7028
 8640SOL    HW237557   0.129   0.475   8.538 -2.4529 -1.5637 -1.2459
 8641SOL     OW37558   3.794   0.778   7.445  0.4457 -0.0837  0.1394
 8641SOL    HW137559   3.839   0.712   7.498 -0.9021  1.4843  3.2241
 8641SOL    HW237560   3.816   0.862   7.486  0.2624  1.4163 -2.8783
 8642SOL     OW37561   2.049   2.827   5.820  0.1003  0.2020 -0.3940
 8642SOL    HW137562   2.068   2.913   5.782  0.0858 -0.7412 -2.5387
 8642SOL    HW237563   2.091   2.837   5.906 -3.5749  2.8982  1.1134
 8643SOL     OW37564   3.655   2.062   9.107 -0.0170 -0.7693 -0.0305
 8643SOL    HW137565   3.572   2.018   9.128 -0.4578 -0.0398 -0.2314
 8643SOL    HW237566   3.670   2.007   9.030  0.8975  1.4560 -1.4350
 8644SOL     OW37567   1.355   2.382  17.385  0.1508  0.8139  0.1468
 8644SOL    HW137568   1.402   2.464  17.404 -2.9820  2.4469  0.7882
 8644SOL    HW237569   1.288   2.416  17.326 -1.5990 -2.3214  0.3364
 8645SOL     OW37570   1.533   3.831   8.444  0.1600 -0.3139 -0.0929
 8645SOL    HW137571   1.578   3.810   8.527 -0.6835 -0.1395  0.4022
 8645SOL    HW237572   1.445   3.824   8.481 -0.4411 -0.0556 -1.4986
 8646SOL     OW37573   3.338   0.141   5.242  0.1956  0.6171  0.4974
 8646SOL    HW137574   3.247   0.119   5.221  0.6272 -0.3264 -0.4109
 8646SOL    HW237575   3.342   0.163   5.335 -2.2669  1.1886  0.4483
 8647SOL     OW37576   4.014   0.478   4.147 -0.3548  0.3598  0.0782
 8647SOL    HW137577   3.950   0.432   4.093  0.3786 -1.0876  0.4394
 8647SOL    HW237578   4.010   0.430   4.230 -3.0617 -0.4669 -0.5300
 8648SOL     OW37579   0.821   3.446   2.567 -0.2223 -0.6178  0.3809
 8648SOL    HW137580   0.739   3.403   2.541 -0.5650 -0.8094  1.7668
 8648SOL    HW237581   0.811   3.430   2.661  0.1338 -2.1373  0.1693
 8649SOL     OW37582   0.627   1.499   3.529  0.0544 -0.5092  0.6021
 8649SOL    HW137583   0.623   1.410   3.564 -2.6627 -0.5642  0.1250
 8649SOL    HW237584   0.596   1.485   3.439  0.4776  1.7566  0.1045
 8650SOL     OW37585   1.262   3.979   2.717 -0.2028  0.1033  0.4986
 8650SOL    HW137586   1.317   3.987   2.795 -1.7055  0.9005  1.4808
 8650SOL    HW237587   1.317   3.986   2.640 -0.5058 -3.0306 -0.0391
 8651SOL     OW37588   2.096   4.072   3.231  0.2483  0.0977 -0.2145
 8651SOL    HW137589   2.098   4.072   3.136 -0.8979  1.4363 -0.2425
 8651SOL    HW237590   2.190   4.082   3.241  0.3060 -0.4695 -0.1725
 8652SOL     OW37591   0.979   4.074   7.735 -0.1891  0.3213 -0.7955
 8652SOL    HW137592   0.898   4.075   7.683  0.6428  1.3588 -2.0628
 8652SOL    HW237593   1.041   4.027   7.680 -0.8475  0.8189 -1.9777
 8653SOL     OW37594   4.091   1.761   6.096  0.2935 -0.1579  0.5560
 8653SOL    HW137595   4.073   1.676   6.137 -0.3047  0.0041  0.6350
 8653SOL    HW237596   4.163   1.783   6.156  0.5349 -0.2792  0.3053
 8654SOL     OW37597   3.619   1.455   0.657  0.1107 -0.1502 -0.5132
 8654SOL    HW137598   3.700   1.507   0.660  0.1855 -0.1929 -1.9649
 8654SOL    HW237599   3.549   1.505   0.699  0.4754 -0.4290  0.4291
 8655SOL     OW37600   2.689   2.886   7.130 -0.1574 -0.1484  0.4255
 8655SOL    HW137601   2.742   2.817   7.090  0.9312  0.6227  0.5309
 8655SOL    HW237602   2.725   2.970   7.103 -0.1660 -0.2812  0.0058
 8656SOL     OW37603   3.986   0.504   4.819  0.1033 -0.5926  0.5635
 8656SOL    HW137604   4.000   0.409   4.816 -1.1566 -0.7379 -0.3595
 8656SOL    HW237605   3.939   0.523   4.738  2.7615  1.4105 -0.5063
 8657SOL     OW37606   4.164   3.782  14.881 -0.3418  0.5970 -0.0949
 8657SOL    HW137607   4.127   3.694  14.893 -0.6064  0.9543  1.7660
 8657SOL    HW237608   4.248   3.788  14.926 -1.1714  0.7830  1.4551
 8658SOL     OW37609   4.663   0.480   3.689 -0.8142 -0.1115  0.9451
 8658SOL    HW137610   4.664   0.572   3.714  1.1021 -0.0106  0.5339
 8658SOL    HW237611   0.016   0.446   3.703  0.3769  2.7638  0.2671
 8659SOL     OW37612   1.851   0.693   7.350 -0.5770 -0.2238  0.3832
 8659SOL    HW137613   1.905   0.628   7.394 -0.5063  0.9749  2.0454
 8659SOL    HW237614   1.914   0.743   7.299 -0.9885 -1.4853 -1.3693
 8660SOL     OW37615   4.608   0.732   0.155  0.5339 -0.7218 -0.1450
 8660SOL    HW137616   4.531   0.769   0.111 -0.0972 -2.4788 -0.5114
 8660SOL    HW237617   4.634   0.654   0.107 -2.1867 -1.3670 -0.5620
 8661SOL     OW37618   2.353   3.261   6.013 -0.2933 -0.2230 -0.5960
 8661SOL    HW137619   2.384   3.304   5.933  0.6801 -1.1756 -0.7383
 8661SOL    HW237620   2.323   3.336   6.064 -0.8214 -1.7847  1.3782
 8662SOL     OW37621   0.513   1.442   5.529 -0.2000  0.4252  0.5149
 8662SOL    HW137622   0.523   1.370   5.590 -1.3651  0.6114  0.9263
 8662SOL    HW237623   0.482   1.394   5.452 -1.1508 -0.3825  1.4144
 8663SOL     OW37624   3.749   4.553   8.603  0.5695  0.3519 -0.0747
 8663SOL    HW137625   3.739   4.637   8.557 -2.1807  0.0971  0.0275
 8663SOL    HW237626   3.658   4.545   8.632  0.5277  4.1900  0.9413
 8664SOL     OW37627   3.274   3.315   3.996  0.0077 -0.0060 -0.1512
 8664SOL    HW137628   3.197   3.259   3.984  0.3222 -0.9753  2.2416
 8664SOL    HW237629   3.332   3.260   3.944 -2.7158 -1.8069 -1.2458
 8665SOL     OW37630   3.007   4.232   3.013 -0.1670  0.1142 -0.3020
 8665SOL    HW137631   2.933   4.200   3.063  1.2633  2.0628  3.0775
 8665SOL    HW237632   3.083   4.195   3.059  0.0383 -0.0934 -0.8061
 8666SOL     OW37633   3.488   4.687   4.367  0.0553  0.2683 -0.8721
 8666SOL    HW137634   3.556   4.692   4.300 -0.7231  1.9165 -1.5459
 8666SOL    HW237635   3.540   4.651   4.439 -0.5439  2.4751  0.6688
 8667SOL     OW37636   0.837   0.431   1.590  0.1994  0.3619  0.0998
 8667SOL    HW137637   0.928   0.418   1.564  0.8428  0.9750  2.0662
 8667SOL    HW237638   0.852   0.452   1.682 -1.9178  1.0806  0.2815
 8668SOL     OW37639   2.664   0.911   7.049  0.4738  0.1715  0.2361
 8668SOL    HW137640   2.652   0.825   7.008  1.5214  0.0570  0.1656
 8668SOL    HW237641   2.573   0.934   7.068  1.1191  2.3268  0.6562
 8669SOL     OW37642   4.022   2.580   3.018  0.2258 -0.3401  0.3079
 8669SOL    HW137643   4.007   2.674   3.013  1.2853 -0.2176 -0.6059
 8669SOL    HW237644   4.054   2.562   3.106  0.5027  2.9244  0.8781
 8670SOL     OW37645   0.470   0.204  17.084  0.1990 -0.1503 -0.1633
 8670SOL    HW137646   0.386   0.159  17.081 -0.5470  1.2730 -0.1685
 8670SOL    HW237647   0.442   0.294  17.068  1.1293  0.5099  1.8805
 8671SOL     OW37648   1.386   1.774   2.873  0.8724  0.1929 -0.5004
 8671SOL    HW137649   1.347   1.855   2.905  0.0103 -0.3363 -0.1991
 8671SOL    HW237650   1.337   1.710   2.924 -0.0298  1.8555  0.7062
 8672SOL     OW37651   3.460   0.851  12.573 -0.2537  0.4120  0.4618
 8672SOL    HW137652   3.443   0.758  12.581  0.9160  0.1032 -0.5521
 8672SOL    HW237653   3.385   0.864  12.516 -0.6966 -0.9864  0.7330
 8673SOL     OW37654   1.222   1.090   7.782  0.1063  0.0252 -0.8245
 8673SOL    HW137655   1.277   1.037   7.840 -2.4313 -1.0249  0.5656
 8673SOL    HW237656   1.214   1.030   7.708  0.2778 -0.2163 -0.6462
 8674SOL     OW37657   0.505   3.792  14.325  0.1647  0.0034  1.1423
 8674SOL    HW137658   0.530   3.861  14.385  0.8061 -0.3643  1.2925
 8674SOL    HW237659   0.411   3.776  14.332 -0.2621  0.4416 -3.5159
 8675SOL     OW37660   0.910   4.250  14.510  0.6356 -0.0827  0.0796
 8675SOL    HW137661   0.929   4.252  14.416  1.4772 -0.8999  0.2326
 8675SOL    HW237662   0.943   4.165  14.538 -0.4868  0.2167  2.3189
 8676SOL     OW37663   1.276   1.456  10.273  0.2162  0.5755 -0.2245
 8676SOL    HW137664   1.362   1.471  10.314 -0.2549 -0.8098  1.2598
 8676SOL    HW237665   1.218   1.498  10.337  0.7237 -0.6300  1.0290
 8677SOL     OW37666   1.172   1.685   5.843  0.2836  0.2122  0.0443
 8677SOL    HW137667   1.119   1.688   5.922 -1.3612 -2.3348 -0.9418
 8677SOL    HW237668   1.103   1.696   5.777  1.0460 -1.6988 -1.0603
 8678SOL     OW37669   3.624   1.626  16.298  0.8240 -0.0238 -0.0812
 8678SOL    HW137670   3.679   1.648  16.223  1.1774  3.0384  1.0812
 8678SOL    HW237671   3.661   1.541  16.322 -1.6392 -1.5970 -1.8007
 8679SOL     OW37672   3.312   0.793   8.996  0.5805 -0.3857 -0.8005
 8679SOL    HW137673   3.341   0.805   8.906  0.8770  2.4175 -0.2991
 8679SOL    HW237674   3.363   0.849   9.053 -2.3695  1.8676 -0.3450
 8680SOL     OW37675   4.131   3.165  11.680  0.4582 -0.3305 -0.3365
 8680SOL    HW137676   4.065   3.119  11.628  2.8387 -1.6657 -2.1519
 8680SOL    HW237677   4.212   3.137  11.637  0.6934  0.2038 -0.2420
 8681SOL     OW37678   2.819   3.477   2.560  0.1451  0.0004 -0.2718
 8681SOL    HW137679   2.902   3.467   2.608  0.9119  1.0195 -1.3924
 8681SOL    HW237680   2.848   3.442   2.476  0.9852 -1.8346  0.7604
 8682SOL     OW37681   4.048   1.240   4.913  0.3508  0.3387 -0.0742
 8682SOL    HW137682   3.983   1.261   4.980 -0.9073  0.4952 -1.3595
 8682SOL    HW237683   4.115   1.201   4.968  1.2485  2.1453  0.1338
 8683SOL     OW37684   4.601   0.762   6.966  0.4097  0.2129  0.1558
 8683SOL    HW137685   4.690   0.726   6.969  0.6551  0.8784  0.8436
 8683SOL    HW237686   4.609   0.839   6.910  0.7872  0.8985  1.1379
 8684SOL     OW37687   3.729   2.057  10.200  0.2183 -0.0329  0.0650
 8684SOL    HW137688   3.732   2.061  10.105 -0.1173  0.9937  0.0999
 8684SOL    HW237689   3.711   1.965  10.216  1.3642  0.0589  1.9201
 8685SOL     OW37690   2.250   1.163   5.466 -0.5557  0.0365 -0.0200
 8685SOL    HW137691   2.212   1.242   5.505  4.3345  2.2316  0.2319
 8685SOL    HW237692   2.331   1.187   5.422 -1.3076 -0.4355 -1.6727
 8686SOL     OW37693   2.321   4.002   2.857  0.3161  0.3886 -0.1586
 8686SOL    HW137694   2.345   4.086   2.816  0.6251  0.1158 -0.5359
 8686SOL    HW237695   2.266   4.038   2.927 -0.5638 -0.6123 -0.3583
 8687SOL     OW37696   4.004   2.231   8.232  0.4895 -0.3800  0.0373
 8687SOL    HW137697   3.993   2.227   8.137 -0.9305 -2.0723  0.2731
 8687SOL    HW237698   4.098   2.251   8.236  0.2326  0.5761  1.2323
 8688SOL     OW37699   1.653   0.405   2.216  0.0151 -0.1653  0.1806
 8688SOL    HW137700   1.684   0.479   2.164  1.1693 -0.1845  0.8418
 8688SOL    HW237701   1.557   0.412   2.217 -0.1226 -2.1969  2.4312
 8689SOL     OW37702   1.565   4.631  17.429 -0.1860 -0.3084 -1.0073
 8689SOL    HW137703   1.649   4.677  17.425 -1.8506  2.6980 -1.5190
 8689SOL    HW237704   1.603   4.543  17.437 -0.9114 -0.5257  0.0839
 8690SOL     OW37705   4.380   3.907  12.721  0.4018 -0.8806  1.0541
 8690SOL    HW137706   4.295   3.871  12.694  0.5714 -0.3044 -0.2324
 8690SOL    HW237707   4.389   3.981  12.660 -2.1777 -0.5443  1.0802
 8691SOL     OW37708   1.914   4.177   2.454  0.2912  0.6238 -0.2184
 8691SOL    HW137709   1.932   4.159   2.361 -3.6000  0.0607 -0.8781
 8691SOL    HW237710   1.916   4.085   2.480  0.3655  0.0805 -2.0825
 8692SOL     OW37711   3.948   2.762  15.992 -0.0242  0.6024  0.3745
 8692SOL    HW137712   4.000   2.827  15.946  0.2496 -1.7286 -2.6489
 8692SOL    HW237713   3.913   2.699  15.928 -0.5036  1.4045 -0.1556
 8693SOL     OW37714   3.518   2.998  13.403 -0.0242  0.2013 -0.8687
 8693SOL    HW137715   3.445   2.936  13.410 -0.4610  0.7773 -0.3455
 8693SOL    HW237716   3.517   3.016  13.309 -1.0605  0.5661 -0.7799
 8694SOL     OW37717   1.464   0.070   2.879  0.0584  0.4879 -0.2340
 8694SOL    HW137718   1.483   0.127   2.805  2.2114 -0.7351 -0.6157
 8694SOL    HW237719   1.478   0.131   2.951 -0.0070  0.5541 -0.2777
 8695SOL     OW37720   2.682   4.047   4.076 -0.4259 -0.3720 -0.1019
 8695SOL    HW137721   2.696   3.982   4.145 -0.5499 -0.5520 -0.2484
 8695SOL    HW237722   2.727   4.003   4.004 -1.0101 -0.4131 -0.4389
 8696SOL     OW37723   3.875   4.191  11.625 -0.0955  0.5675  0.0575
 8696SOL    HW137724   3.843   4.278  11.650  0.3624  0.2772  1.6370
 8696SOL    HW237725   3.929   4.226  11.554  0.2236  1.1596  0.5868
 8697SOL     OW37726   3.226   2.832   0.592 -0.3517  0.1208  0.5280
 8697SOL    HW137727   3.302   2.789   0.555  1.0952  1.0814  2.3741
 8697SOL    HW237728   3.264   2.891   0.657 -0.2925  0.2175  0.4052
 8698SOL     OW37729   3.046   0.481  14.706 -0.1120  0.1032  0.5146
 8698SOL    HW137730   2.961   0.474  14.664  0.2758 -0.2990 -0.2075
 8698SOL    HW237731   3.045   0.559  14.762  1.0989  0.7644 -0.3890
 8699SOL     OW37732   1.245   2.824   3.199 -0.3058 -0.6774  0.2547
 8699SOL    HW137733   1.320   2.882   3.185 -1.3498  1.1968  2.3726
 8699SOL    HW237734   1.274   2.737   3.172 -1.9464 -0.9260 -0.6900
 8700SOL     OW37735   0.913   1.278   4.025 -0.0124 -0.2341 -0.3713
 8700SOL    HW137736   0.989   1.249   3.974  0.0039  0.1211 -0.5484
 8700SOL    HW237737   0.869   1.193   4.023 -2.0975  0.8592 -0.3439
 8701SOL     OW37738   0.634   0.860   3.381  0.0987  0.0815  0.5427
 8701SOL    HW137739   0.684   0.784   3.350 -2.4663 -0.0298 -3.3314
 8701SOL    HW237740   0.617   0.841   3.474 -0.4642  2.9449  1.0354
 8702SOL     OW37741   0.281   3.094   0.738 -0.5404  0.5795 -0.0438
 8702SOL    HW137742   0.248   3.034   0.804 -1.3263 -0.1919 -1.1272
 8702SOL    HW237743   0.318   3.164   0.791  1.5959  0.0720 -0.8544
 8703SOL     OW37744   0.000   1.638   4.555  0.0196  0.4716 -0.6971
 8703SOL    HW137745   4.699   1.702   4.494 -2.3121 -0.4933 -0.2808
 8703SOL    HW237746   4.666   1.607   4.612  0.3594  0.4487 -0.2980
 8704SOL     OW37747   1.327   2.627   4.115 -0.1737 -0.1118  0.0455
 8704SOL    HW137748   1.298   2.701   4.169 -0.2590  0.0573 -0.2345
 8704SOL    HW237749   1.312   2.550   4.170 -2.0483  1.7943  2.2154
 8705SOL     OW37750   1.242   0.432   5.639 -0.4540  0.6152  0.1042
 8705SOL    HW137751   1.224   0.449   5.731 -0.3404 -0.9610  0.4146
 8705SOL    HW237752   1.150   0.411   5.621 -0.9385  0.9278  2.1960
 8706SOL     OW37753   2.465   3.469   3.702  0.0354 -0.0487 -0.4154
 8706SOL    HW137754   2.495   3.470   3.793 -1.2539 -0.9387  0.0141
 8706SOL    HW237755   2.549   3.465   3.658 -0.3591  0.3902 -1.2079
 8707SOL     OW37756   3.070   3.764   8.285  0.1233 -0.0215 -0.6232
 8707SOL    HW137757   3.145   3.821   8.300  0.6753 -0.7744 -0.5385
 8707SOL    HW237758   2.999   3.812   8.329 -1.7916 -2.4792 -1.0355
 8708SOL     OW37759   3.913   2.588   7.973 -0.3502 -0.1500 -0.4132
 8708SOL    HW137760   3.951   2.502   7.957  1.8681  0.5699  1.0331
 8708SOL    HW237761   3.878   2.578   8.061 -0.6779  0.5400 -0.4597
 8709SOL     OW37762   3.910   0.485   5.737  0.3307  0.3227 -0.1470
 8709SOL    HW137763   3.958   0.474   5.819 -1.5551  0.5478  1.0029
 8709SOL    HW237764   3.850   0.557   5.758 -0.2443  0.5217 -2.3925
 8710SOL     OW37765   1.073   1.254   6.768  0.3939  0.0286  0.2441
 8710SOL    HW137766   1.048   1.194   6.699 -0.8019 -1.2382  1.7674
 8710SOL    HW237767   1.141   1.309   6.730  1.7623 -1.2341  0.9039
 8711SOL     OW37768   3.136   1.720  16.207 -0.4290  0.0947 -0.7169
 8711SOL    HW137769   3.221   1.687  16.234  0.0189  1.1573 -0.8058
 8711SOL    HW237770   3.132   1.673  16.124 -1.5745  2.5923 -2.0964
 8712SOL     OW37771   3.923   1.037   9.199  0.0026 -0.2876 -0.2114
 8712SOL    HW137772   3.890   1.033   9.109  1.2603  0.5923 -0.7007
 8712SOL    HW237773   3.978   1.115   9.197  0.7914 -0.8129  1.7387
 8713SOL     OW37774   0.535   1.607   4.534  0.1349 -0.4781  0.2071
 8713SOL    HW137775   0.619   1.597   4.578 -0.5821 -0.0815  1.7012
 8713SOL    HW237776   0.516   1.514   4.520  0.2545 -0.4026 -0.4450
 8714SOL     OW37777   2.230   0.283  14.405 -0.1319  0.2540  0.3678
 8714SOL    HW137778   2.196   0.216  14.464 -1.1580 -0.4341 -1.0069
 8714SOL    HW237779   2.256   0.359  14.457  0.4171 -0.2838  0.8912
 8715SOL     OW37780   2.357   4.728   8.425  0.2586 -0.4286  0.0091
 8715SOL    HW137781   2.339   4.661   8.492  1.2313  1.2658  1.9554
 8715SOL    HW237782   2.311   4.692   8.349 -0.6650  1.6994 -0.4387
 8716SOL     OW37783   1.602   0.132   8.564 -0.5285  0.5671  0.1918
 8716SOL    HW137784   1.543   0.195   8.605 -0.4754  0.5032  0.3665
 8716SOL    HW237785   1.591   0.157   8.473 -1.9100 -0.8190 -0.0219
 8717SOL     OW37786   0.925   4.536   4.924  0.3148 -0.4182 -0.8417
 8717SOL    HW137787   1.003   4.581   4.956 -0.8075  0.4930  0.6034
 8717SOL    HW237788   0.864   4.601   4.959 -0.4089 -1.1939 -0.6533
 8718SOL     OW37789   0.149   2.576   4.449 -0.4351 -0.5342 -0.6728
 8718SOL    HW137790   0.158   2.541   4.360 -2.3856 -1.2691 -0.5799
 8718SOL    HW237791   0.087   2.521   4.497  0.0418 -0.3759  0.1244
 8719SOL     OW37792   3.660   0.465   2.172 -0.0963  0.0939  0.0661
 8719SOL    HW137793   3.701   0.382   2.150  2.3625  1.1669  0.5669
 8719SOL    HW237794   3.732   0.528   2.165  0.8639 -0.7373  2.2549
 8720SOL     OW37795   4.140   0.998   1.996  0.0060  0.2352 -0.5942
 8720SOL    HW137796   4.194   1.044   1.931  0.3620 -2.2088 -2.0393
 8720SOL    HW237797   4.109   0.919   1.953 -1.0481  1.5973 -2.3502
 8721SOL     OW37798   2.080   2.889   7.719 -0.5156 -0.3933 -0.0577
 8721SOL    HW137799   2.030   2.958   7.675  0.7987  0.4077 -0.2970
 8721SOL    HW237800   2.010   2.843   7.765  2.4887 -2.2966  2.6185
 8722SOL     OW37801   1.741   3.840   2.576  0.3081 -0.4639  0.0884
 8722SOL    HW137802   1.819   3.884   2.543 -0.6709  0.6001 -0.7794
 8722SOL    HW237803   1.681   3.914   2.579 -0.2635 -0.8724 -1.1927
 8723SOL     OW37804   0.887   0.704  16.083 -0.7171 -0.0973  0.2969
 8723SOL    HW137805   0.916   0.763  16.153  0.2292  0.2074 -0.3586
 8723SOL    HW237806   0.823   0.755  16.035 -0.8473  0.3085  0.8952
 8724SOL     OW37807   3.490   0.064   7.047 -0.2675  0.1599  0.2219
 8724SOL    HW137808   3.433   0.045   6.972  0.6782 -2.1580  0.0671
 8724SOL    HW237809   3.441   0.128   7.098 -1.3030 -0.6319  0.2317
 8725SOL     OW37810   4.024   1.117  16.309  0.3911  0.6627 -0.0975
 8725SOL    HW137811   4.072   1.091  16.387 -0.2911  2.1024  0.7989
 8725SOL    HW237812   3.979   1.036  16.287  1.3713  0.4247 -1.2659
 8726SOL     OW37813   1.047   4.701   9.980  0.2304  0.1934  0.1890
 8726SOL    HW137814   0.994   4.622   9.970 -0.0810  0.3826  0.3705
 8726SOL    HW237815   1.128   4.664   9.944 -0.3973  0.2480 -1.2859
 8727SOL     OW37816   3.537   1.437   7.966 -0.1092 -0.2407 -0.1675
 8727SOL    HW137817   3.460   1.453   8.021 -1.4732 -0.2634 -2.0813
 8727SOL    HW237818   3.491   1.448   7.883 -3.1221  0.5119  1.5893
 8728SOL     OW37819   0.766   0.072   6.457 -0.3009  0.0707 -0.9274
 8728SOL    HW137820   0.850   0.054   6.499 -0.3501 -1.9948 -1.7432
 8728SOL    HW237821   0.716   0.099   6.534  0.9835  2.1381 -0.7997
 8729SOL     OW37822   2.858   2.576  13.298 -0.1283 -0.6728 -0.0668
 8729SOL    HW137823   2.851   2.648  13.236  2.0680  0.9292  1.5865
 8729SOL    HW237824   2.821   2.617  13.376  0.5037 -0.2686  0.0183
 8730SOL     OW37825   2.464   1.625  16.298  0.7000  0.2152 -0.5805
 8730SOL    HW137826   2.499   1.563  16.362  1.2180 -0.6811 -1.7347
 8730SOL    HW237827   2.383   1.658  16.336 -0.7946 -3.8723 -0.2235
 8731SOL     OW37828   1.727   4.334   9.597 -0.2058 -0.1885  0.1778
 8731SOL    HW137829   1.793   4.265   9.603  2.0496  2.2275  2.6728
 8731SOL    HW237830   1.761   4.398   9.659  1.6665 -2.9018  1.9446
 8732SOL     OW37831   2.097   2.593   6.601  0.5051 -0.1757 -0.2601
 8732SOL    HW137832   2.095   2.685   6.577  0.0638 -0.3988 -1.0586
 8732SOL    HW237833   2.140   2.600   6.686 -1.9237  2.1783  0.7552
 8733SOL     OW37834   3.429   3.774   6.705  0.0696 -0.7304  0.0841
 8733SOL    HW137835   3.459   3.865   6.705  1.2367 -1.1199 -0.6443
 8733SOL    HW237836   3.343   3.799   6.739  0.9496 -1.2364  2.7417
 8734SOL     OW37837   2.979   1.597  14.966  0.0682 -0.4248 -0.0124
 8734SOL    HW137838   2.963   1.655  14.891 -0.3499 -2.7695 -1.7165
 8734SOL    HW237839   3.007   1.651  15.040 -3.8108 -0.3928  1.4213
 8735SOL     OW37840   3.858   0.234   9.309  0.4635 -0.1203  0.3774
 8735SOL    HW137841   3.947   0.204   9.290  1.1323  0.5989  2.3527
 8735SOL    HW237842   3.867   0.328   9.329  0.0977 -0.3100  1.4263
 8736SOL     OW37843   4.012   3.590   2.543 -0.1151 -0.3133 -0.1614
 8736SOL    HW137844   4.094   3.588   2.593  0.5146  0.7930 -1.1698
 8736SOL    HW237845   4.046   3.624   2.461 -0.3206 -1.7288 -0.8391
 8737SOL     OW37846   2.551   1.825   0.997 -0.4040  0.1203  0.5196
 8737SOL    HW137847   2.644   1.844   1.011 -0.2560 -1.0357  1.1344
 8737SOL    HW237848   2.522   1.783   1.079 -0.7790  0.0469  0.3471
 8738SOL     OW37849   3.176   1.400   6.860 -0.1655 -0.0910  0.4636
 8738SOL    HW137850   3.163   1.442   6.945  0.4031 -0.8765  0.9376
 8738SOL    HW237851   3.201   1.475   6.805  0.0014  0.2414  0.9948
 8739SOL     OW37852   1.986   3.516  11.565  0.1071  0.0660  0.0753
 8739SOL    HW137853   2.008   3.605  11.593 -0.4873  0.2035  0.1006
 8739SOL    HW237854   2.073   3.476  11.572 -0.4728 -1.5299 -1.7926
 8740SOL     OW37855   0.164   3.963   5.548  0.3762  0.3570 -0.2324
 8740SOL    HW137856   0.230   3.926   5.489  2.4915  1.6023  1.3437
 8740SOL    HW237857   0.188   4.056   5.552 -4.7912  1.7360 -1.4496
 8741SOL     OW37858   0.753   2.422  14.867 -0.1345 -0.2958 -0.5187
 8741SOL    HW137859   0.710   2.347  14.907  0.0497 -0.0897  0.0600
 8741SOL    HW237860   0.696   2.493  14.896 -0.2901  0.8320 -3.5744
 8742SOL     OW37861   2.228   0.958  13.178 -0.0319 -0.2145 -0.4311
 8742SOL    HW137862   2.201   0.882  13.228  0.2280  0.3000  0.4890
 8742SOL    HW237863   2.176   1.029  13.216 -2.4625 -1.3918 -1.5464
 8743SOL     OW37864   0.505   3.231   2.806  0.1473  0.5654 -0.0650
 8743SOL    HW137865   0.488   3.204   2.896  1.3165 -3.8332 -1.1380
 8743SOL    HW237866   0.599   3.247   2.817  0.4716 -2.3877  1.3774
 8744SOL     OW37867   0.179   0.059  16.610 -0.3484 -0.4864  0.6221
 8744SOL    HW137868   0.150   0.045  16.700  2.0516 -0.8156  1.3426
 8744SOL    HW237869   0.213   4.715  16.568 -0.9536 -1.0565  1.2172
 8745SOL     OW37870   0.094   2.816   5.763  0.1432  0.6817  0.3369
 8745SOL    HW137871   0.125   2.742   5.710 -1.6384 -0.2681  0.6286
 8745SOL    HW237872   0.015   2.841   5.714  0.2824 -1.7931 -1.1983
 8746SOL     OW37873   3.466   3.608   8.218  0.2883 -0.4365 -0.7115
 8746SOL    HW137874   3.428   3.680   8.168 -1.4010 -0.5271  0.4424
 8746SOL    HW237875   3.499   3.548   8.151 -0.6456  0.7456 -2.2209
 8747SOL     OW37876   1.171   0.007   9.094  0.1410 -0.7702  0.2226
 8747SOL    HW137877   1.206   4.680   9.157 -0.4228  0.7875  2.0699
 8747SOL    HW237878   1.157   4.679   9.024  0.2418  0.0069 -0.5143
 8748SOL     OW37879   4.501   0.416   4.764  0.2749  0.3053 -0.2744
 8748SOL    HW137880   4.572   0.466   4.804  0.2109  0.3655 -0.2372
 8748SOL    HW237881   4.422   0.458   4.798  0.4495  1.5018 -1.3772
 8749SOL     OW37882   4.550   1.842   6.979 -0.2930 -0.8042  0.2543
 8749SOL    HW137883   4.581   1.917   6.928 -1.4991 -0.1242  0.5247
 8749SOL    HW237884   4.556   1.775   6.911  0.3843  0.2495 -0.7236
 8750SOL     OW37885   2.373   3.334   2.653 -0.3716  0.3724 -0.2834
 8750SOL    HW137886   2.311   3.332   2.726 -0.3072 -0.5538 -0.2468
 8750SOL    HW237887   2.375   3.239   2.639  2.7328  0.7946 -2.7080
 8751SOL     OW37888   2.098   2.334  12.730  0.0266  0.1847 -0.3134
 8751SOL    HW137889   2.145   2.416  12.717  0.5255 -0.2923 -1.5492
 8751SOL    HW237890   2.163   2.287  12.781 -0.1003 -1.1295 -1.3753
 8752SOL     OW37891   2.480   3.242   3.431  0.7345 -0.0065  0.3616
 8752SOL    HW137892   2.399   3.214   3.388  0.0236  1.4307  0.7798
 8752SOL    HW237893   2.479   3.332   3.399 -1.8759  0.1398  0.8792
 8753SOL     OW37894   0.396   0.215   8.284 -0.0458 -0.1984  0.5210
 8753SOL    HW137895   0.301   0.214   8.276 -0.1497 -1.8460  1.9397
 8753SOL    HW237896   0.425   0.181   8.200  0.4566  0.8731  0.2644
 8754SOL     OW37897   3.778   1.182  10.560 -0.2877 -0.1302  0.0299
 8754SOL    HW137898   3.771   1.199  10.466 -0.1528 -0.1044  0.0244
 8754SOL    HW237899   3.686   1.179  10.587 -0.9170 -1.0875 -2.2753
 8755SOL     OW37900   1.087   0.817  11.403  0.1893 -0.7143 -0.7681
 8755SOL    HW137901   1.167   0.830  11.455 -0.8873  0.8567  0.5167
 8755SOL    HW237902   1.027   0.861  11.464  1.4744 -0.7101  0.5015
 8756SOL     OW37903   2.854   0.183   6.338 -0.1577 -0.2897  0.3651
 8756SOL    HW137904   2.894   0.222   6.416  0.9100  1.1923 -0.9236
 8756SOL    HW237905   2.768   0.217   6.361 -0.8485 -0.5479 -1.9349
 8757SOL     OW37906   3.067   4.151  10.227 -0.2455  0.1680  0.5098
 8757SOL    HW137907   3.040   4.141  10.319 -3.7553  1.2453 -0.3806
 8757SOL    HW237908   3.159   4.176  10.227 -0.8375  2.3443 -0.6104
 8758SOL     OW37909   2.023   3.698   7.038 -0.1717  0.3384 -0.1619
 8758SOL    HW137910   2.010   3.648   7.119  0.3799  0.0305 -0.2652
 8758SOL    HW237911   2.014   3.632   6.970 -0.0961 -0.4899  0.6262
 8759SOL     OW37912   0.836   0.901  11.212  0.5833 -0.3132  0.0435
 8759SOL    HW137913   0.764   0.838  11.207  0.9813 -0.8053  0.5437
 8759SOL    HW237914   0.839   0.940  11.124  1.8983 -0.6371 -0.0435
 8760SOL     OW37915   2.623   1.179   5.393  0.1086  0.4423 -0.1412
 8760SOL    HW137916   2.705   1.228   5.396 -0.0285  0.7034 -0.5779
 8760SOL    HW237917   2.606   1.153   5.483  0.6035  2.1054  0.4364
 8761SOL     OW37918   1.652   1.999   4.818  0.7474 -0.9492  0.7169
 8761SOL    HW137919   1.650   1.968   4.909  3.7125 -0.1762  1.0468
 8761SOL    HW237920   1.573   1.961   4.780  0.3165 -0.1985  0.8589
 8762SOL     OW37921   1.738   2.072   1.150  0.0183 -0.6168  0.4286
 8762SOL    HW137922   1.823   2.117   1.153 -0.7591  0.7534  1.4896
 8762SOL    HW237923   1.699   2.081   1.237 -0.1433 -0.6462  0.3579
 8763SOL     OW37924   2.139   2.681   5.327  0.1586  1.0406  0.3222
 8763SOL    HW137925   2.089   2.606   5.360 -0.1349  0.5955 -1.1184
 8763SOL    HW237926   2.182   2.724   5.401  1.7380  1.8933 -1.0901
 8764SOL     OW37927   0.453   1.050   2.308 -0.3798 -0.3404 -0.1175
 8764SOL    HW137928   0.484   1.090   2.226  0.4219 -0.8371 -0.0554
 8764SOL    HW237929   0.408   1.126   2.347 -1.2981 -1.0156  0.1444
 8765SOL     OW37930   2.134   2.096  15.108 -0.4135  0.0939  0.1408
 8765SOL    HW137931   2.061   2.132  15.158 -0.4873  0.1997 -0.0423
 8765SOL    HW237932   2.130   2.004  15.132  1.1400  0.0343  0.1431
 8766SOL     OW37933   3.561   1.774   9.614 -0.6760 -0.3999  0.1061
 8766SOL    HW137934   3.623   1.847   9.624  1.1778 -2.0290  0.4304
 8766SOL    HW237935   3.561   1.732   9.700  2.2711 -0.8805 -0.1258
 8767SOL     OW37936   4.705   0.302   3.340 -0.2656  0.5817 -0.3220
 8767SOL    HW137937   4.707   0.397   3.351 -0.0909  0.4340  0.9754
 8767SOL    HW237938   0.016   0.280   3.421 -1.3289 -2.7102 -0.5961
 8768SOL     OW37939   4.065   0.578   7.843  0.1356  0.4844 -0.0323
 8768SOL    HW137940   4.157   0.565   7.867 -0.5631  1.0935  3.0186
 8768SOL    HW237941   4.020   0.603   7.924  1.3668 -3.6409  1.8918
 8769SOL     OW37942   1.300   2.049  15.351 -0.6948  0.1924  0.6261
 8769SOL    HW137943   1.395   2.059  15.352 -0.7350  0.7070 -0.3497
 8769SOL    HW237944   1.278   1.959  15.373 -1.8045  0.1048 -0.8476
 8770SOL     OW37945   1.140   1.990  16.838 -0.2536  0.1182 -0.1472
 8770SOL    HW137946   1.105   2.032  16.760  0.9172 -0.2669 -0.8822
 8770SOL    HW237947   1.158   1.903  16.803 -0.3323  0.5059 -1.1502
 8771SOL     OW37948   4.070   2.925  14.341  0.0709 -0.3043  0.0457
 8771SOL    HW137949   3.981   2.949  14.318  0.3434  2.0269  1.4357
 8771SOL    HW237950   4.063   2.846  14.394 -0.6026  0.4915  1.1582
 8772SOL     OW37951   0.469   0.633   2.267 -0.2812 -0.2083 -0.0934
 8772SOL    HW137952   0.424   0.583   2.335  3.4103 -0.7941  1.8590
 8772SOL    HW237953   0.523   0.568   2.222  2.6956  1.7693  0.6653
 8773SOL     OW37954   0.235   4.285   5.276 -0.5182 -0.4103  0.4728
 8773SOL    HW137955   0.194   4.223   5.215 -0.8204  2.6196 -2.4242
 8773SOL    HW237956   0.167   4.349   5.293  0.3660 -0.0051  2.4272
 8774SOL     OW37957   3.124   0.270   8.714  0.0758 -0.4069  0.1134
 8774SOL    HW137958   3.145   0.264   8.807 -0.5166 -1.5677  0.1803
 8774SOL    HW237959   3.057   0.204   8.698  1.4204 -1.8764  0.5067
 8775SOL     OW37960   3.074   1.433  15.755  0.2843  0.0573 -0.2508
 8775SOL    HW137961   2.981   1.455  15.767  0.8053  0.7071  2.5128
 8775SOL    HW237962   3.056   1.366  15.689 -0.0297  2.1354 -2.2723
 8776SOL     OW37963   1.558   0.330   9.489 -0.5190  0.3957 -0.0813
 8776SOL    HW137964   1.632   0.382   9.521  0.0996 -0.0699 -0.7663
 8776SOL    HW237965   1.480   0.386   9.483 -0.2945  0.2026 -5.0570
 8777SOL     OW37966   3.916   2.802   7.317  0.1740 -0.3321  0.0703
 8777SOL    HW137967   3.874   2.748   7.250  1.0209 -1.3211  0.3515
 8777SOL    HW237968   3.865   2.883   7.305 -1.1328 -0.9049  1.7810
 8778SOL     OW37969   3.054   3.885   5.428 -0.0993 -0.6387 -0.0120
 8778SOL    HW137970   3.122   3.832   5.387  0.1976  0.3543 -0.7833
 8778SOL    HW237971   3.060   3.966   5.378 -1.1993 -0.1005  0.7025
 8779SOL     OW37972   4.012   2.341   8.490  0.0950  0.3408  0.2575
 8779SOL    HW137973   4.027   2.280   8.417  2.5171 -0.2323  1.2204
 8779SOL    HW237974   4.011   2.419   8.434  0.1159 -0.0313 -0.2709
 8780SOL     OW37975   3.005   4.009   3.678  0.3140  0.2524  0.1078
 8780SOL    HW137976   3.020   4.036   3.588  1.7702 -0.0750  0.2682
 8780SOL    HW237977   3.073   3.942   3.685 -1.7119 -1.9090 -0.8932
 8781SOL     OW37978   4.424   1.277  10.380 -0.4066  0.1865  0.6941
 8781SOL    HW137979   4.388   1.365  10.390  0.8006  0.3408  3.5820
 8781SOL    HW237980   4.424   1.243  10.469 -0.5404  0.5202  0.8215
 8782SOL     OW37981   1.296   2.632   7.410 -0.8339 -0.3738  0.8597
 8782SOL    HW137982   1.320   2.721   7.382  0.2093 -1.2654 -1.0678
 8782SOL    HW237983   1.351   2.577   7.354  2.4161 -0.9579  4.6433
 8783SOL     OW37984   4.297   3.664  17.214 -0.2028  0.4789  0.0101
 8783SOL    HW137985   4.364   3.731  17.231  0.4130 -0.0360 -0.3754
 8783SOL    HW237986   4.221   3.706  17.253  1.2006  2.2891  0.8211
 8784SOL     OW37987   1.147   4.213   6.934  0.1846  0.3961  0.4096
 8784SOL    HW137988   1.171   4.233   6.844  2.4340  2.2869  1.4322
 8784SOL    HW237989   1.227   4.253   6.968  0.3207  0.9229 -0.5325
 8785SOL     OW37990   4.547   0.516   4.509  0.1551  0.2839 -0.0881
 8785SOL    HW137991   4.519   0.471   4.589  0.6377  0.1135 -0.0128
 8785SOL    HW237992   4.472   0.554   4.463  0.4470 -0.5824 -1.2833
 8786SOL     OW37993   3.322   3.066   6.293  0.1066  0.1789  0.3109
 8786SOL    HW137994   3.355   3.001   6.356 -0.5973 -1.5364 -1.0711
 8786SOL    HW237995   3.335   3.146   6.343  0.8171 -0.4633  1.1616
 8787SOL     OW37996   4.346   0.442  15.269 -0.3598  0.3709  0.1468
 8787SOL    HW137997   4.366   0.536  15.265  0.1083  0.0791 -4.2256
 8787SOL    HW237998   4.255   0.429  15.294 -0.6652  2.9022  0.4152
 8788SOL     OW37999   1.601   3.715   5.722  0.5111 -0.0961  0.3278
 8788SOL    HW138000   1.657   3.732   5.798  1.4088 -1.1775 -0.0952
 8788SOL    HW238001   1.570   3.801   5.695  3.0509  0.7423  0.1275
 8789SOL     OW38002   1.406   2.462  10.350 -0.0845  0.5288  0.3608
 8789SOL    HW138003   1.426   2.388  10.407  1.6580 -0.6387 -1.7776
 8789SOL    HW238004   1.487   2.494  10.313  0.4887  0.6327  1.7067
 8790SOL     OW38005   4.027   3.429  11.318 -0.0738 -0.1368 -0.4811
 8790SOL    HW138006   4.054   3.502  11.262 -0.2134  0.3099  0.0328
 8790SOL    HW238007   4.072   3.356  11.274  0.8516  1.4216 -2.1396
 8791SOL     OW38008   0.682   2.222   8.818  0.0062  0.7073 -0.3447
 8791SOL    HW138009   0.718   2.289   8.761  3.7461 -0.3391  0.7423
 8791SOL    HW238010   0.752   2.211   8.883 -0.2220  2.4316  0.1860
 8792SOL     OW38011   4.116   4.027   8.716  0.0779 -0.6338 -0.0072
 8792SOL    HW138012   4.092   4.118   8.729  1.4567 -0.1603 -0.6854
 8792SOL    HW238013   4.166   4.012   8.796 -1.7658 -1.5845  0.9628
 8793SOL     OW38014   2.178   1.208   4.358  0.0409  0.1208 -0.0970
 8793SOL    HW138015   2.130   1.291   4.348  4.3323  2.7575  1.2466
 8793SOL    HW238016   2.114   1.146   4.324 -1.8773  2.8228 -1.5046
 8794SOL     OW38017   1.919   4.696   4.766  0.0932  0.2746  0.3085
 8794SOL    HW138018   1.943   4.606   4.743  0.3055  0.4057  0.0139
 8794SOL    HW238019   1.996   4.714   4.819  0.8472  0.9759 -1.0150
 8795SOL     OW38020   1.954   4.401   5.297 -0.3795 -0.2523  0.2025
 8795SOL    HW138021   1.916   4.477   5.341 -2.2752  0.3134 -2.4646
 8795SOL    HW238022   2.017   4.448   5.243 -1.3432 -0.4253 -1.0671
 8796SOL     OW38023   1.464   2.444   4.891 -0.1661  0.5267  0.4213
 8796SOL    HW138024   1.483   2.501   4.817  2.1711 -0.9418 -0.0978
 8796SOL    HW238025   1.369   2.449   4.906 -0.1025  0.2282  0.9303
 8797SOL     OW38026   2.369   1.034   8.279 -0.6077 -0.1246 -0.6294
 8797SOL    HW138027   2.334   1.086   8.206 -1.0616  0.4926  0.0268
 8797SOL    HW238028   2.404   0.958   8.233  0.0654  0.4223 -1.0296
 8798SOL     OW38029   4.651   1.019   7.240 -0.7359 -0.3874  0.0145
 8798SOL    HW138030   4.606   0.958   7.299  1.3375 -0.6460  1.2983
 8798SOL    HW238031   4.579   1.049   7.184  0.1585 -0.3195 -1.1074
 8799SOL     OW38032   0.331   2.248   7.988  0.7462  0.1875  0.1029
 8799SOL    HW138033   0.393   2.247   8.061  0.8286  0.8608  0.0353
 8799SOL    HW238034   0.338   2.343   7.981  1.9193  0.1544  0.9925
 8800SOL     OW38035   2.752   4.225  13.125 -0.3768 -0.4060 -0.0444
 8800SOL    HW138036   2.828   4.283  13.125 -0.2234 -0.6068  0.6486
 8800SOL    HW238037   2.683   4.292  13.131 -0.3109 -0.3555  0.1737
 8801SOL     OW38038   4.226   1.198   8.348  0.5417 -0.1754 -0.1801
 8801SOL    HW138039   4.152   1.141   8.370 -1.2478  2.3926  0.3623
 8801SOL    HW238040   4.207   1.278   8.396  1.0357 -0.3420  0.2927
 8802SOL     OW38041   2.057   2.709  16.652 -0.3709  0.2549  0.3318
 8802SOL    HW138042   2.100   2.634  16.610 -2.5080 -0.9193  0.2216
 8802SOL    HW238043   2.078   2.783  16.595  0.9924  0.0347  0.5589
 8803SOL     OW38044   2.058   2.262   6.319  0.1262 -0.5534 -0.3040
 8803SOL    HW138045   2.090   2.284   6.407  0.2103 -0.6882 -0.3011
 8803SOL    HW238046   2.122   2.304   6.262  0.6970  0.5307  1.1125
 8804SOL     OW38047   0.489   4.133   6.868 -0.0789  0.3606 -0.5284
 8804SOL    HW138048   0.466   4.204   6.928  0.4414  0.7388 -0.7724
 8804SOL    HW238049   0.428   4.065   6.897 -0.1960 -0.9504 -3.8789
 8805SOL     OW38050   4.589   2.253   2.851 -0.3809 -0.2015  0.1507
 8805SOL    HW138051   4.526   2.188   2.820 -0.5935 -0.3156  0.8123
 8805SOL    HW238052   4.567   2.241   2.944  1.5690 -0.9699  0.5142
 8806SOL     OW38053   3.234   0.898   4.141 -0.5307 -0.0631  0.5968
 8806SOL    HW138054   3.275   0.873   4.058 -1.2450 -1.3747  0.6488
 8806SOL    HW238055   3.192   0.968   4.091 -2.2875  0.2251  2.5002
 8807SOL     OW38056   4.062   2.450   4.975  0.1878  0.4330  0.3518
 8807SOL    HW138057   4.102   2.536   4.989  0.2377  0.5069 -0.2615
 8807SOL    HW238058   4.142   2.397   4.976 -1.2833 -1.7588  2.8206
 8808SOL     OW38059   3.155   3.267   7.435  1.0060 -0.6599  0.0599
 8808SOL    HW138060   3.146   3.235   7.345 -1.7648 -0.5102  0.2627
 8808SOL    HW238061   3.244   3.299   7.440  0.7722 -0.2056  1.2604
 8809SOL     OW38062   2.025   1.764  13.717  0.0538 -0.1535  0.3367
 8809SOL    HW138063   2.052   1.791  13.805  0.6785 -0.8433  0.3543
 8809SOL    HW238064   1.930   1.755  13.727  0.2014 -1.3018  0.6705
 8810SOL     OW38065   1.256   2.400   0.042 -0.1282  0.2063 -0.0151
 8810SOL    HW138066   1.245   2.457  17.708 -0.9073 -1.5559 -1.2235
 8810SOL    HW238067   1.327   2.344   0.011 -0.0238  0.5137 -0.3227
 8811SOL     OW38068   2.814   0.732   2.663 -0.0396 -0.3633  0.0568
 8811SOL    HW138069   2.887   0.688   2.707 -0.8460 -1.8588 -0.1215
 8811SOL    HW238070   2.748   0.736   2.733  0.0337  1.2065  0.0413
 8812SOL     OW38071   2.521   1.714   8.282  0.4067 -0.0791  0.0462
 8812SOL    HW138072   2.490   1.628   8.257 -0.2820  0.1416  0.1463
 8812SOL    HW238073   2.612   1.689   8.298  0.3744 -0.3709 -0.2248
 8813SOL     OW38074   3.984   2.372   3.389  0.4208  0.4726  0.2147
 8813SOL    HW138075   4.073   2.340   3.406  0.1535 -0.3717  0.0197
 8813SOL    HW238076   4.012   2.437   3.325  1.8238  0.6915  1.0502
 8814SOL     OW38077   1.243   1.579   3.521 -0.2010  0.1943 -0.1588
 8814SOL    HW138078   1.320   1.575   3.464  0.7637  2.3881  1.0105
 8814SOL    HW238079   1.273   1.630   3.596 -1.1923  0.4777  0.0355
 8815SOL     OW38080   4.023   2.796   1.921  0.7327  0.0857 -0.4741
 8815SOL    HW138081   4.097   2.857   1.913 -1.1081  2.3132 -0.7051
 8815SOL    HW238082   4.051   2.737   1.850  0.4306  1.7794 -2.0249
 8816SOL     OW38083   0.887   0.025   0.592 -0.4464  0.1122  0.4030
 8816SOL    HW138084   0.881   4.670   0.563  2.5114 -0.0665  0.3796
 8816SOL    HW238085   0.844   0.022   0.677  2.4389 -0.1242  1.8322
 8817SOL     OW38086   4.597   1.058  17.063 -0.4108  0.1745  0.5922
 8817SOL    HW138087   4.625   1.009  17.141  0.9760  0.0882  0.0376
 8817SOL    HW238088   4.561   1.137  17.102 -1.3080  0.7284 -1.3714
 8818SOL     OW38089   2.309   3.467   8.254  0.0412 -0.2993 -0.0472
 8818SOL    HW138090   2.341   3.380   8.279 -1.4275 -0.8763 -0.2065
 8818SOL    HW238091   2.330   3.471   8.161  0.1709  0.9085  0.0219
 8819SOL     OW38092   3.735   0.989   8.986  0.3715 -0.0435  0.1150
 8819SOL    HW138093   3.769   0.913   8.937  0.7577  0.1469  0.0825
 8819SOL    HW238094   3.717   1.048   8.913 -1.3157  0.7292  1.1622
 8820SOL     OW38095   1.216   0.719   0.772  0.5858 -0.2319  0.2113
 8820SOL    HW138096   1.199   0.633   0.811 -0.7419  0.7076  1.7154
 8820SOL    HW238097   1.302   0.740   0.809  1.0794 -1.7230 -0.0970
 8821SOL     OW38098   1.707   0.957   5.193  0.3819 -0.2140 -0.3109
 8821SOL    HW138099   1.739   0.883   5.141  0.9680  0.7919 -1.3843
 8821SOL    HW238100   1.755   0.942   5.274 -1.0859  0.0940  0.6131
 8822SOL     OW38101   0.841   0.975   5.039  0.2983 -0.2380  0.0579
 8822SOL    HW138102   0.838   0.982   5.134  1.2111 -3.9553  0.3460
 8822SOL    HW238103   0.759   0.930   5.021 -0.1370  1.7939 -3.0809
 8823SOL     OW38104   4.343   3.463   4.140 -0.3796  0.1021 -0.1666
 8823SOL    HW138105   4.374   3.553   4.129  0.3974  0.0325  1.5084
 8823SOL    HW238106   4.421   3.410   4.156 -1.5015 -1.3922  0.3342
 8824SOL     OW38107   1.907   0.180   8.423 -0.3889 -0.0360 -0.1795
 8824SOL    HW138108   1.905   0.238   8.347  2.7148  3.8654  2.7614
 8824SOL    HW238109   1.925   0.246   8.489 -0.8679  2.2689 -2.3804
 8825SOL     OW38110   4.688   1.388   5.233 -0.0669 -0.1939 -0.0427
 8825SOL    HW138111   4.665   1.472   5.272  3.0510  2.2381 -3.4006
 8825SOL    HW238112   4.685   1.398   5.138 -0.0490 -0.4665 -0.0733
 8826SOL     OW38113   4.313   2.147   9.353  0.1947  0.0333 -0.1223
 8826SOL    HW138114   4.355   2.129   9.269 -0.2325  2.8309 -0.9415
 8826SOL    HW238115   4.364   2.101   9.419  0.7019 -0.5683 -0.9465
 8827SOL     OW38116   3.370   0.064   4.679 -0.5231  0.3030  0.0620
 8827SOL    HW138117   3.448   0.061   4.735 -0.1882 -0.0387 -0.4267
 8827SOL    HW238118   3.335   4.714   4.704 -0.2269  0.3275  0.5574
 8828SOL     OW38119   3.551   2.807   6.244  0.1821  0.0716  0.2914
 8828SOL    HW138120   3.513   2.773   6.324  0.0459  1.1487  0.6871
 8828SOL    HW238121   3.636   2.839   6.274  0.7848 -1.5798  0.3218
 8829SOL     OW38122   2.814   4.634   1.806  0.2388  0.4276  0.1597
 8829SOL    HW138123   2.738   4.577   1.804 -0.9784  2.0341  0.7483
 8829SOL    HW238124   2.781   4.716   1.842  1.4202  1.7667 -1.8348
 8830SOL     OW38125   2.718   1.199   1.820 -0.2104 -0.0077 -0.6872
 8830SOL    HW138126   2.758   1.223   1.736  0.4118 -0.3836 -0.5017
 8830SOL    HW238127   2.682   1.285   1.840 -2.8854 -0.8829 -1.7243
 8831SOL     OW38128   4.646   3.590   1.512  0.2359 -0.2072  0.0916
 8831SOL    HW138129   0.005   3.589   1.500  0.0839  0.0010 -1.1292
 8831SOL    HW238130   4.635   3.504   1.552  1.0103  0.0227  0.7801
 8832SOL     OW38131   2.459   4.135   9.623 -0.3237  0.4223 -0.2470
 8832SOL    HW138132   2.412   4.212   9.654 -0.1856 -0.0262  1.0759
 8832SOL    HW238133   2.437   4.129   9.531 -0.6531 -2.0418  0.0011
 8833SOL     OW38134   0.535   1.925   6.606 -0.6593 -0.0414 -0.2172
 8833SOL    HW138135   0.524   2.000   6.548  0.8314 -0.2335 -0.7440
 8833SOL    HW238136   0.459   1.929   6.664 -0.1884  0.9809  0.3494
 8834SOL     OW38137   2.997   2.027   3.155  0.3811 -0.1674  0.5380
 8834SOL    HW138138   3.014   2.041   3.248  0.2679 -0.8579  0.6619
 8834SOL    HW238139   3.089   2.042   3.133  0.4067 -0.6246  0.3348
 8835SOL     OW38140   4.463   2.646   8.257  0.4573  0.1200 -0.0542
 8835SOL    HW138141   4.494   2.683   8.174  1.8980 -0.6085  0.1573
 8835SOL    HW238142   4.381   2.610   8.223 -0.2735  0.2945  1.5509
 8836SOL     OW38143   4.461   1.241   5.607  0.5421 -0.0228 -0.1928
 8836SOL    HW138144   4.502   1.310   5.556 -1.0600  1.8768  1.0918
 8836SOL    HW238145   4.373   1.246   5.569  1.0179 -0.8169 -1.3872
 8837SOL     OW38146   0.889   3.555   3.250  0.0588 -0.5407 -0.3638
 8837SOL    HW138147   0.950   3.620   3.215 -0.3753  0.6687  1.1634
 8837SOL    HW238148   0.930   3.472   3.224 -0.1874 -1.2006  1.3642
 8838SOL     OW38149   3.558   4.642   2.057 -0.2646  0.5445 -0.2157
 8838SOL    HW138150   3.584   4.729   2.025  0.7062  0.0168 -0.8434
 8838SOL    HW238151   3.639   4.603   2.087 -0.4469 -0.2706 -0.7602
 8839SOL     OW38152   1.563   3.242   3.993 -0.2513  0.3381 -0.2081
 8839SOL    HW138153   1.592   3.150   3.998 -0.2357  0.3496 -0.0869
 8839SOL    HW238154   1.483   3.238   3.941 -0.9745  2.6107  0.7658
 8840SOL     OW38155   2.829   2.000   6.445  0.4046 -0.5040  0.8226
 8840SOL    HW138156   2.851   2.088   6.413  0.1881  0.4975  3.4792
 8840SOL    HW238157   2.892   1.944   6.400 -0.0988  0.1864 -0.7423
 8841SOL     OW38158   4.433   1.474   2.036 -0.4017 -0.1567  0.5103
 8841SOL    HW138159   4.376   1.514   1.970 -0.1864  0.7634  0.8762
 8841SOL    HW238160   4.407   1.382   2.032 -2.3244  0.3139  2.0610
 8842SOL     OW38161   2.252   0.007   8.045 -0.2838  0.5016  0.1728
 8842SOL    HW138162   2.306   0.085   8.057 -1.0941  0.5867  3.2853
 8842SOL    HW238163   2.293   4.677   8.101  0.0365  0.3917 -0.1925
 8843SOL     OW38164   2.256   3.749   4.408  0.0061 -0.3344  0.2586
 8843SOL    HW138165   2.168   3.737   4.445 -0.6618  1.3969 -0.7444
 8843SOL    HW238166   2.262   3.660   4.375 -1.0328  0.1398 -1.2380
 8844SOL     OW38167   3.964   3.511   9.018  0.0293 -0.1812  0.3365
 8844SOL    HW138168   3.917   3.473   9.092 -0.0847  0.1566  0.4379
 8844SOL    HW238169   3.998   3.595   9.049 -2.1736  1.1980 -0.9206
 8845SOL     OW38170   2.853   2.650   5.026  0.0883  0.3455  0.1776
 8845SOL    HW138171   2.789   2.683   4.962 -0.0963 -0.0846  0.1451
 8845SOL    HW238172   2.789   2.649   5.097  2.4304 -1.7244  2.2449
 8846SOL     OW38173   0.869   4.519   3.314  0.3980 -0.0616 -0.4620
 8846SOL    HW138174   0.824   4.567   3.245 -1.2728  0.8907  1.2752
 8846SOL    HW238175   0.850   4.578   3.387  2.1936 -0.8906  0.6610
 8847SOL     OW38176   2.499   3.255  10.366  0.5133 -0.2462 -0.0672
 8847SOL    HW138177   2.476   3.182  10.423 -1.2948 -0.3353 -0.9092
 8847SOL    HW238178   2.566   3.216  10.311  2.4763 -0.0893  2.2125
 8848SOL     OW38179   0.077   2.536   6.083 -0.0976  0.2803 -0.6083
 8848SOL    HW138180   0.018   2.566   6.014 -2.1451  0.0535  1.0353
 8848SOL    HW238181   0.158   2.581   6.061 -0.9007  0.9686 -2.1826
 8849SOL     OW38182   0.269   1.985   7.597 -0.0687 -0.0348  0.0176
 8849SOL    HW138183   0.302   1.897   7.581  0.2718 -0.1322  1.2447
 8849SOL    HW238184   0.290   2.000   7.689 -0.9908 -1.4891  0.4741
 8850SOL     OW38185   1.348   1.449  14.028 -0.4022 -0.3188  0.0894
 8850SOL    HW138186   1.254   1.444  14.010  0.0684 -2.9949 -1.7391
 8850SOL    HW238187   1.367   1.355  14.021  0.1074 -0.4427  2.9032
 8851SOL     OW38188   2.482   2.987   6.979  0.2503 -0.2797  0.1220
 8851SOL    HW138189   2.489   2.954   6.890  0.7016 -2.0125  0.8075
 8851SOL    HW238190   2.545   2.932   7.026  1.9280  0.4391 -1.3266
 8852SOL     OW38191   1.463   2.778   3.665  0.7326  0.0099 -0.7951
 8852SOL    HW138192   1.498   2.747   3.748 -0.7552  2.3737  0.6939
 8852SOL    HW238193   1.374   2.742   3.667  0.4491  0.9448  2.4995
 8853SOL     OW38194   0.084   1.380   2.241 -0.0628 -0.4590 -1.0688
 8853SOL    HW138195   0.060   1.350   2.329 -4.2033  4.5050 -0.5860
 8853SOL    HW238196   0.107   1.472   2.252 -0.1083 -0.8245  2.2907
 8854SOL     OW38197   3.787   3.397  16.432  0.3298  0.2446 -0.1404
 8854SOL    HW138198   3.799   3.390  16.526 -0.5651 -1.4740 -0.1446
 8854SOL    HW238199   3.875   3.423  16.406  0.8663 -0.0275  1.4191
 8855SOL     OW38200   2.981   4.206   8.812  0.1651 -0.3471 -0.3369
 8855SOL    HW138201   3.045   4.186   8.744 -0.4726 -2.5154 -0.3033
 8855SOL    HW238202   3.022   4.164   8.887  1.2407 -1.3862 -1.5141
 8856SOL     OW38203   2.889   2.676   3.905  0.2502  0.7921 -0.3440
 8856SOL    HW138204   2.850   2.612   3.965 -1.1901  1.3373 -0.6947
 8856SOL    HW238205   2.815   2.695   3.847 -1.0009 -2.5139  0.1779
 8857SOL     OW38206   1.817   4.170   1.274 -0.2251  0.3070  0.1392
 8857SOL    HW138207   1.890   4.121   1.236  0.4775 -0.2001  2.1063
 8857SOL    HW238208   1.829   4.163   1.369  1.0604  0.1588 -0.0314
 8858SOL     OW38209   4.488   1.189   3.597 -0.0483 -0.6407 -0.1712
 8858SOL    HW138210   4.533   1.171   3.680 -0.2343  3.0713  0.7552
 8858SOL    HW238211   4.489   1.284   3.607  2.0561 -0.6014 -0.6766
 8859SOL     OW38212   2.941   0.233   3.274 -0.0827  0.2135  0.7642
 8859SOL    HW138213   3.010   0.199   3.216 -0.5759  0.3331  0.1149
 8859SOL    HW238214   2.972   0.201   3.359  2.1523 -2.0124 -0.8693
 8860SOL     OW38215   0.210   3.864  13.888  0.0064  0.3354  0.2090
 8860SOL    HW138216   0.168   3.891  13.970 -0.0719 -0.0178  0.2876
 8860SOL    HW238217   0.284   3.824  13.934 -0.1894 -1.9852 -1.4872
 8861SOL     OW38218   2.065   0.966   5.411  0.2233  0.2539  0.3960
 8861SOL    HW138219   2.129   0.981   5.342  0.1412 -1.7311 -0.1169
 8861SOL    HW238220   2.112   1.021   5.474  2.4701 -0.6053 -0.5289
 8862SOL     OW38221   0.349   0.154   7.461 -1.1266 -0.5350  0.1870
 8862SOL    HW138222   0.437   0.180   7.432 -1.8002  2.0408  0.3874
 8862SOL    HW238223   0.316   0.242   7.480  0.0027 -0.6779  2.7510
 8863SOL     OW38224   2.784   3.876   4.686  0.2070 -0.1021  0.0607
 8863SOL    HW138225   2.864   3.912   4.648  1.4264 -2.0026  0.8368
 8863SOL    HW238226   2.723   3.950   4.684 -1.1609 -1.1844  1.2521
 8864SOL     OW38227   1.461   4.485   7.588  0.1414  0.4175  0.6202
 8864SOL    HW138228   1.485   4.489   7.496  0.3157  0.0180  0.6498
 8864SOL    HW238229   1.542   4.447   7.621 -0.6332 -1.4101  0.4198
 8865SOL     OW38230   3.538   0.492   0.638  0.1313 -0.5971 -0.4183
 8865SOL    HW138231   3.619   0.490   0.588  0.1806  0.0454 -0.3553
 8865SOL    HW238232   3.476   0.454   0.576 -0.9886 -0.7131  0.7489
 8866SOL     OW38233   2.409   2.397   5.585  0.0770 -0.0286 -0.2793
 8866SOL    HW138234   2.409   2.492   5.597 -3.6720 -0.0691  0.0563
 8866SOL    HW238235   2.395   2.359   5.672  0.8707  0.8714  0.2334
 8867SOL     OW38236   1.148   3.511  12.632  0.3376 -0.0173  0.3538
 8867SOL    HW138237   1.159   3.477  12.721 -3.3789 -2.1160 -0.0059
 8867SOL    HW238238   1.059   3.544  12.645 -0.3674 -0.1676 -4.0363
 8868SOL     OW38239   2.431   3.771  11.869 -0.3036  0.2370 -0.5894
 8868SOL    HW138240   2.462   3.767  11.778 -0.6950 -0.3343 -0.6975
 8868SOL    HW238241   2.503   3.734  11.919 -0.6208  1.1727  0.5542
 8869SOL     OW38242   4.009   1.518  15.935  0.6298  1.1201  0.0522
 8869SOL    HW138243   3.961   1.500  15.855 -1.9601  0.5705  1.7401
 8869SOL    HW238244   4.098   1.490  15.914 -0.0465 -2.8085  2.4774
 8870SOL     OW38245   2.020   3.794   6.203 -0.4219  0.6180 -0.5551
 8870SOL    HW138246   1.937   3.758   6.234 -0.3580  0.9959  0.0660
 8870SOL    HW238247   2.023   3.883   6.239  0.7034  0.1258  0.5620
 8871SOL     OW38248   4.031   0.715   3.371 -0.3613 -0.0191  0.1254
 8871SOL    HW138249   4.061   0.655   3.439 -0.5598 -0.5476 -0.2603
 8871SOL    HW238250   3.952   0.749   3.414  0.9094  2.7869  0.2638
 8872SOL     OW38251   2.379   1.661  15.607  0.3204 -0.0834  0.1488
 8872SOL    HW138252   2.284   1.667  15.598  0.5888  1.6417 -1.4554
 8872SOL    HW238253   2.399   1.568  15.615 -1.9205 -0.4990  1.0577
 8873SOL     OW38254   3.017   4.403   3.628  0.4830  0.2536  0.0203
 8873SOL    HW138255   3.023   4.340   3.700 -1.1043  0.3947  0.2788
 8873SOL    HW238256   2.923   4.420   3.631  0.9382  2.9368 -1.0732
 8874SOL     OW38257   2.691   0.453   9.200  0.1577  0.2284 -0.4099
 8874SOL    HW138258   2.679   0.383   9.136  0.1703 -0.3405  0.2058
 8874SOL    HW238259   2.679   0.405   9.282 -0.5925  0.5945 -0.3069
 8875SOL     OW38260   2.735   4.504   9.044 -0.2143  0.2589  0.1697
 8875SOL    HW138261   2.737   4.529   9.136 -1.1225 -0.7528  0.4623
 8875SOL    HW238262   2.732   4.587   8.996  0.0590 -1.0675 -2.1907
 8876SOL     OW38263   2.978   2.364   1.045  0.2877  0.5111 -0.2200
 8876SOL    HW138264   2.946   2.452   1.024 -0.7088  0.2164  0.0391
 8876SOL    HW238265   2.914   2.306   1.004 -0.5321  0.5572  0.9966
 8877SOL     OW38266   3.849   2.724   9.819  0.3656 -0.1967 -0.0342
 8877SOL    HW138267   3.792   2.702   9.745  0.1295 -0.4224  0.2145
 8877SOL    HW238268   3.778   2.745   9.879  2.0695  3.2717  0.7670
 8878SOL     OW38269   4.478   3.589  11.555  0.2060  0.5741 -0.1708
 8878SOL    HW138270   4.417   3.527  11.517 -1.1915  0.9007  1.5242
 8878SOL    HW238271   4.467   3.668  11.502  0.8861  1.3424  0.8058
 8879SOL     OW38272   0.405   4.628   1.776  0.3538  0.3049 -0.0560
 8879SOL    HW138273   0.473   4.568   1.808 -1.5587 -2.0064 -0.3742
 8879SOL    HW238274   0.337   4.564   1.758 -0.3475  0.8453  0.6462
 8880SOL     OW38275   0.945   3.316   7.068  0.2581  0.1745  0.0825
 8880SOL    HW138276   0.884   3.383   7.099 -1.5741 -0.7531 -1.4734
 8880SOL    HW238277   0.915   3.229   7.097  0.3102  0.5712  1.3509
 8881SOL     OW38278   3.105   0.371   7.830 -0.1135 -0.0151 -0.5537
 8881SOL    HW138279   3.120   0.300   7.766  0.1340 -0.5511  0.1017
 8881SOL    HW238280   3.034   0.418   7.786 -0.5359  1.9363  2.2175
 8882SOL     OW38281   3.249   3.057   9.638 -0.0549  0.4182 -0.5386
 8882SOL    HW138282   3.273   3.146   9.666  0.2786 -0.8753  3.2554
 8882SOL    HW238283   3.249   3.079   9.545  1.9881  2.5674 -0.0242
 8883SOL     OW38284   0.902   1.575   4.807  0.0323  0.1416  0.6526
 8883SOL    HW138285   0.985   1.550   4.847  0.2684  0.1723  0.1786
 8883SOL    HW238286   0.838   1.530   4.863 -0.0628  0.0456  0.4651
 8884SOL     OW38287   0.715   0.387   3.018 -0.0345 -0.1219 -0.2365
 8884SOL    HW138288   0.627   0.375   2.982  0.1523 -2.8419  0.1882
 8884SOL    HW238289   0.748   0.315   2.965  0.7239  0.1578 -0.1429
 8885SOL     OW38290   0.828   4.189   5.885 -0.0919  0.2179  0.3244
 8885SOL    HW138291   0.875   4.107   5.895 -0.4385 -0.1220 -0.8007
 8885SOL    HW238292   0.792   4.176   5.797 -2.5369 -1.5948  1.6058
 8886SOL     OW38293   4.461   1.636   3.140 -0.4278 -0.1217  0.2739
 8886SOL    HW138294   4.418   1.719   3.157  0.3509  0.0386  1.5311
 8886SOL    HW238295   4.454   1.597   3.228 -1.6421  0.1459  0.2911
 8887SOL     OW38296   0.899   1.694   0.967 -0.0436 -0.0505 -0.8725
 8887SOL    HW138297   0.964   1.689   0.897 -0.6891  0.2951 -1.5037
 8887SOL    HW238298   0.927   1.630   1.032  0.4644  1.5784  0.4894
 8888SOL     OW38299   3.577   3.036  16.173  0.5371 -0.2748 -0.6493
 8888SOL    HW138300   3.551   3.109  16.230  3.5213 -0.4833  0.9623
 8888SOL    HW238301   3.587   3.099  16.102 -0.6194 -0.7651 -1.2560
 8889SOL     OW38302   2.064   2.113   2.409 -0.7998  0.0353  0.5964
 8889SOL    HW138303   1.976   2.143   2.386 -0.3376 -0.1510 -1.4055
 8889SOL    HW238304   2.053   2.024   2.375  2.3456 -0.6459  1.3442
 8890SOL     OW38305   2.029   1.207   0.118 -0.3057  0.3243 -0.1027
 8890SOL    HW138306   2.076   1.205   0.034  0.4768 -0.7120  0.3696
 8890SOL    HW238307   1.962   1.139   0.107 -0.7595  0.7538 -0.0425
 8891SOL     OW38308   4.677   3.150   5.247 -0.2055  0.3831 -0.4562
 8891SOL    HW138309   4.594   3.112   5.277  1.2775 -1.8846  0.6819
 8891SOL    HW238310   4.690   3.112   5.160  0.3887 -0.3096 -0.0558
 8892SOL     OW38311   4.609   3.722   8.288  0.1286  0.6285 -0.6110
 8892SOL    HW138312   4.523   3.731   8.247 -0.0336 -0.5939 -0.5527
 8892SOL    HW238313   4.631   3.631   8.270  0.9339  0.8117 -0.5328
 8893SOL     OW38314   3.154   2.168   6.404 -0.7435 -0.2954 -0.3074
 8893SOL    HW138315   3.121   2.189   6.317 -0.5484  1.4485  0.0497
 8893SOL    HW238316   3.138   2.251   6.449 -2.3896 -0.5331 -0.4652
 8894SOL     OW38317   2.605   4.004   3.616  0.2553  0.1162  1.1414
 8894SOL    HW138318   2.692   4.024   3.651  0.6331 -1.3316  1.0467
 8894SOL    HW238319   2.581   3.936   3.678 -0.8371 -0.1715  0.4006
 8895SOL     OW38320   0.500   0.174  11.625 -0.0390 -0.2186  0.2363
 8895SOL    HW138321   0.490   0.207  11.536 -1.1540  0.2744  0.5463
 8895SOL    HW238322   0.432   0.222  11.673 -0.1445  0.5315 -0.6695
 8896SOL     OW38323   3.249   2.712  12.260 -0.2279  0.0140  0.0630
 8896SOL    HW138324   3.169   2.688  12.213  0.4229 -0.6049 -0.7497
 8896SOL    HW238325   3.271   2.776  12.192  0.1828  3.1938  3.1978
 8897SOL     OW38326   4.139   1.507   5.727 -0.1888  0.0935 -0.1424
 8897SOL    HW138327   4.200   1.507   5.653 -2.5079  0.9771 -2.0670
 8897SOL    HW238328   4.119   1.599   5.741  1.4910  0.3526  0.4940
 8898SOL     OW38329   2.263   0.142  17.341  0.3893 -0.2902 -0.3443
 8898SOL    HW138330   2.256   0.190  17.424 -0.2029 -0.0881 -0.5111
 8898SOL    HW238331   2.226   0.061  17.377 -1.9078  0.9186 -0.0040
 8899SOL     OW38332   1.928   3.039  11.345 -0.1157 -0.3871 -0.1164
 8899SOL    HW138333   1.865   3.109  11.326  1.9937  1.8917  1.2259
 8899SOL    HW238334   2.005   3.088  11.373  0.7570 -1.1827 -1.1289
 8900SOL     OW38335   1.958   3.670  15.903  0.0229 -0.7414 -0.2350
 8900SOL    HW138336   1.891   3.736  15.889  0.1304 -0.4049  0.8497
 8900SOL    HW238337   2.007   3.679  15.821 -2.6654 -0.1866 -1.7728
 8901SOL     OW38338   4.598   3.969  15.243  0.1230  0.1869  0.1134
 8901SOL    HW138339   4.513   3.969  15.288 -0.2228 -0.3569 -0.5400
 8901SOL    HW238340   4.567   3.994  15.156 -2.6027 -0.7830  0.7851
 8902SOL     OW38341   0.101   0.739   3.500  0.5017  0.5855  0.4732
 8902SOL    HW138342   0.129   0.778   3.582  0.6262 -0.0868  0.7520
 8902SOL    HW238343   0.185   0.708   3.466 -0.1540  2.1038 -2.5151
 8903SOL     OW38344   1.522   2.934   1.857  0.0005  0.4688  0.6130
 8903SOL    HW138345   1.512   3.021   1.819 -1.9721  0.3225  0.8117
 8903SOL    HW238346   1.436   2.924   1.898  0.5939 -0.5080  1.6216
 8904SOL     OW38347   1.414   3.005   5.886 -0.3081 -0.0434 -0.4500
 8904SOL    HW138348   1.498   3.047   5.870 -0.0337 -1.1211 -1.8506
 8904SOL    HW238349   1.420   2.934   5.821 -0.7169  0.2737 -0.8366
 8905SOL     OW38350   3.503   3.751  10.672  0.0176 -0.0144  0.0652
 8905SOL    HW138351   3.502   3.833  10.721 -1.1989 -0.2066  0.3794
 8905SOL    HW238352   3.410   3.748  10.650 -0.3379  1.3983  1.3350
 8906SOL     OW38353   1.187   4.109  15.281 -0.4015  0.6018 -0.5680
 8906SOL    HW138354   1.253   4.114  15.212 -0.4508 -1.6317 -0.7803
 8906SOL    HW238355   1.198   4.026  15.328  0.3694  2.7021  2.9526
 8907SOL     OW38356   2.530   2.177  13.445 -0.3248  0.2721  0.1700
 8907SOL    HW138357   2.590   2.109  13.414 -0.7770 -0.1253  0.1622
 8907SOL    HW238358   2.585   2.255  13.443 -0.1714  0.1818  0.7632
 8908SOL     OW38359   2.934   4.482   2.548  0.4988 -0.4988  0.5927
 8908SOL    HW138360   2.986   4.511   2.623  0.6299  1.0244 -0.0740
 8908SOL    HW238361   2.885   4.408   2.583 -0.6999 -0.2676 -0.5722
 8909SOL     OW38362   0.785   1.706   4.283  0.1882  0.3039 -0.4131
 8909SOL    HW138363   0.818   1.654   4.356 -0.5106  0.7043  0.1752
 8909SOL    HW238364   0.695   1.674   4.273  0.1153 -0.1285  1.6316
 8910SOL     OW38365   1.315   1.161  11.233  0.1505 -0.0653  0.2500
 8910SOL    HW138366   1.290   1.198  11.149 -0.6792 -1.0467  0.0619
 8910SOL    HW238367   1.267   1.078  11.232  0.3631 -0.2083  1.4383
 8911SOL     OW38368   1.751   0.740  17.468  0.7419  0.0082  0.4483
 8911SOL    HW138369   1.705   0.665  17.505  0.1566 -0.9063 -2.1561
 8911SOL    HW238370   1.844   0.717  17.472  0.7909 -0.1073 -1.3190
 8912SOL     OW38371   2.388   1.767   4.964 -0.2567 -0.0736  0.0358
 8912SOL    HW138372   2.298   1.740   4.949 -0.3383  1.8060 -2.7707
 8912SOL    HW238373   2.382   1.789   5.057 -1.3972 -1.4821  0.2908
 8913SOL     OW38374   2.197   0.473   9.840 -0.6562 -0.3205 -0.1408
 8913SOL    HW138375   2.160   0.555   9.808  1.3217  0.6699  0.0776
 8913SOL    HW238376   2.262   0.456   9.772  1.0149 -0.3285  1.4585
 8914SOL     OW38377   4.589   2.309   2.157  0.1101 -0.2073  0.8172
 8914SOL    HW138378   4.499   2.299   2.188 -0.4794  3.2758  0.2275
 8914SOL    HW238379   4.623   2.340   2.241  2.8322 -0.4169 -0.2311
 8915SOL     OW38380   0.022   3.562  15.863  0.6327  0.4187 -0.2304
 8915SOL    HW138381   0.051   3.500  15.797  0.9897 -1.1853  1.4376
 8915SOL    HW238382   0.084   3.563  15.936 -0.7730  1.0637  0.9553
 8916SOL     OW38383   3.728   2.101   6.867 -0.3613  0.4750 -0.3219
 8916SOL    HW138384   3.728   2.115   6.772 -0.0662 -0.0060 -0.3874
 8916SOL    HW238385   3.821   2.117   6.885  0.0076 -1.5574 -0.5040
 8917SOL     OW38386   2.753   4.378   6.989 -0.1439  0.7294 -0.3035
 8917SOL    HW138387   2.659   4.393   6.979 -0.4432 -2.4440 -1.9928
 8917SOL    HW238388   2.761   4.456   7.044 -2.4269  0.7176  0.0464
 8918SOL     OW38389   4.337   0.668   7.631  0.1139  0.1020 -0.1196
 8918SOL    HW138390   4.328   0.600   7.698 -4.9424 -0.9095 -1.8148
 8918SOL    HW238391   4.324   0.618   7.551  2.5539 -0.3080 -0.2564
 8919SOL     OW38392   1.460   2.955   3.940 -0.3675 -0.0374  0.2622
 8919SOL    HW138393   1.382   2.961   3.885 -2.5582  0.6479  3.4249
 8919SOL    HW238394   1.494   2.866   3.928  0.4686  0.0951  1.7351
 8920SOL     OW38395   3.145   0.067  17.356  0.0315 -0.1626 -0.1885
 8920SOL    HW138396   3.174   0.158  17.345 -1.7510  0.8514  3.2080
 8920SOL    HW238397   3.105   0.059  17.269  0.1886  1.8172 -0.4609
 8921SOL     OW38398   0.540   3.076   9.559  0.1565  0.4762  0.6927
 8921SOL    HW138399   0.479   3.058   9.631  0.1360 -1.6848  0.1111
 8921SOL    HW238400   0.555   3.170   9.568  0.5476  0.4987 -0.2755
 8922SOL     OW38401   3.147   0.174   4.330 -0.0214 -0.3070  0.0872
 8922SOL    HW138402   3.132   0.256   4.377 -0.4986 -0.6112  0.4668
 8922SOL    HW238403   3.095   0.110   4.378  0.1281 -0.4793  0.0192
 8923SOL     OW38404   0.341   2.845  16.880  0.1553  0.8207  0.3657
 8923SOL    HW138405   0.248   2.823  16.889  0.1170 -0.1977 -2.7006
 8923SOL    HW238406   0.339   2.886  16.794  0.9860  0.8010  0.3378
 8924SOL     OW38407   2.343   4.500   2.480 -0.4209  0.0480 -0.1442
 8924SOL    HW138408   2.364   4.493   2.573 -1.3614 -1.0545 -0.0114
 8924SOL    HW238409   2.428   4.532   2.452 -0.6590  2.3996  1.7752
 8925SOL     OW38410   1.947   2.577   5.753  0.1067  0.0797  0.2890
 8925SOL    HW138411   1.990   2.663   5.755  2.0427 -0.8850  0.3552
 8925SOL    HW238412   1.966   2.556   5.844  2.8227 -0.9349 -0.5055
 8926SOL     OW38413   2.720   3.047   2.799  0.0131 -0.3028 -0.2320
 8926SOL    HW138414   2.740   3.116   2.863 -0.4833  0.1457 -0.5560
 8926SOL    HW238415   2.794   3.038   2.740 -0.3339 -2.4032 -0.3414
 8927SOL     OW38416   2.632   0.080   3.074  0.6119  0.2039 -0.0013
 8927SOL    HW138417   2.679   0.163   3.060  2.1021 -0.7325 -0.4704
 8927SOL    HW238418   2.580   0.100   3.151  1.3155 -0.0256  0.5334
 8928SOL     OW38419   1.350   1.325  10.030  0.6216 -0.0374 -0.1605
 8928SOL    HW138420   1.440   1.325  10.063  1.5369 -0.1061 -2.6285
 8928SOL    HW238421   1.317   1.404  10.074  0.8122 -0.3176  0.4876
 8929SOL     OW38422   3.291   4.630   7.326 -0.0449 -0.1830 -0.0107
 8929SOL    HW138423   3.334   4.683   7.393 -0.3271  0.0303  0.0020
 8929SOL    HW238424   3.344   4.552   7.343  2.5839  1.3087 -1.4195
 8930SOL     OW38425   1.271   2.580   7.922  0.1463 -0.3455 -0.2872
 8930SOL    HW138426   1.238   2.598   7.833  0.4673 -1.0626 -0.5515
 8930SOL    HW238427   1.259   2.670   7.953 -1.2158 -0.8058  0.4941
 8931SOL     OW38428   3.371   1.668  16.397  0.0674 -0.0025 -0.3299
 8931SOL    HW138429   3.341   1.583  16.364  0.6132 -0.5532  0.5751
 8931SOL    HW238430   3.466   1.659  16.395  0.0108 -0.8220  0.4293
 8932SOL     OW38431   4.321   2.982   8.327 -0.1033 -0.7809  0.0591
 8932SOL    HW138432   4.250   2.941   8.277 -0.4276  1.0141 -0.9726
 8932SOL    HW238433   4.357   3.033   8.254 -2.1660  1.0835  0.3242
 8933SOL     OW38434   1.831   2.603   8.370 -0.0686  0.1973 -0.2297
 8933SOL    HW138435   1.907   2.650   8.335  0.2692  1.6989  2.5610
 8933SOL    HW238436   1.873   2.523   8.402  1.6973  2.0585  2.0324
 8934SOL     OW38437   4.342   3.180   1.510 -0.0367  0.0152 -0.2047
 8934SOL    HW138438   4.295   3.111   1.556  1.1968 -0.2516  0.6435
 8934SOL    HW238439   4.404   3.135   1.453 -0.5065  1.0842 -1.5673
 8935SOL     OW38440   2.827   3.554  16.217  0.1137  0.1987 -0.0386
 8935SOL    HW138441   2.894   3.605  16.264 -0.0919 -0.4844  0.9868
 8935SOL    HW238442   2.812   3.485  16.281  2.0848 -0.2308 -0.0188
 8936SOL     OW38443   3.788   1.612  14.513  0.4643 -0.0682 -0.3476
 8936SOL    HW138444   3.775   1.602  14.418 -1.6189 -0.6136 -0.0020
 8936SOL    HW238445   3.764   1.703  14.531 -0.1105 -0.3491  0.3012
 8937SOL     OW38446   1.649   0.688  11.596 -0.1007  0.5959 -0.7244
 8937SOL    HW138447   1.629   0.690  11.689  5.1831 -1.8632  0.4900
 8937SOL    HW238448   1.731   0.737  11.601  0.2810  0.0999 -2.0936
 8938SOL     OW38449   0.868   1.884   5.943 -0.2289 -0.1173  0.0490
 8938SOL    HW138450   0.783   1.916   5.974 -0.6378  0.4544 -1.6587
 8938SOL    HW238451   0.914   1.965   5.922  0.1005  0.2394  2.1447
 8939SOL     OW38452   2.796   3.411   9.078 -0.0097  0.2271 -0.0639
 8939SOL    HW138453   2.743   3.446   9.150 -0.6919  1.5414 -1.2112
 8939SOL    HW238454   2.872   3.380   9.127  0.4482  0.4375 -0.6517
 8940SOL     OW38455   3.879   0.488   5.461 -0.1411  0.4383 -0.0447
 8940SOL    HW138456   3.908   0.492   5.552  1.9771 -1.0210 -0.6835
 8940SOL    HW238457   3.842   0.401   5.471  3.0225 -0.5694  2.8132
 8941SOL     OW38458   4.369   3.828   4.572  0.1099  0.1410 -0.9694
 8941SOL    HW138459   4.440   3.841   4.634 -1.3204  0.1073  0.6725
 8941SOL    HW238460   4.342   3.738   4.591  1.5066  0.1778  1.1481
 8942SOL     OW38461   0.670   1.286  12.197 -0.5367  0.3153 -0.4261
 8942SOL    HW138462   0.588   1.297  12.149 -0.4556 -2.0739 -1.1057
 8942SOL    HW238463   0.693   1.195  12.182 -0.3374 -0.0152  1.8745
 8943SOL     OW38464   0.307   3.320   3.527 -0.1106 -0.2131 -0.5287
 8943SOL    HW138465   0.251   3.386   3.569  1.4123  0.2326  0.7897
 8943SOL    HW238466   0.377   3.324   3.592 -1.4090 -0.9349  0.9309
 8944SOL     OW38467   1.957   4.069   6.327  0.1764  0.1456  0.3620
 8944SOL    HW138468   1.948   4.109   6.241 -3.0898  1.0834  1.1328
 8944SOL    HW238469   1.967   4.147   6.382 -2.8010  0.5461  0.3149
 8945SOL     OW38470   4.545   4.216  13.939  0.0827 -0.1478  0.0727
 8945SOL    HW138471   4.569   4.126  13.917 -2.7618 -0.8336 -0.2271
 8945SOL    HW238472   4.607   4.256  13.878  0.4169 -0.9646 -0.1162
 8946SOL     OW38473   4.398   3.432   3.718  0.3879 -0.0355 -0.0073
 8946SOL    HW138474   4.415   3.525   3.698 -0.8863  0.2373  0.1481
 8946SOL    HW238475   4.433   3.421   3.806  0.5044  0.3580 -0.0027
 8947SOL     OW38476   1.870   4.224   4.298 -0.3411  0.4289 -0.1899
 8947SOL    HW138477   1.787   4.230   4.346 -0.7301 -1.5164 -0.6083
 8947SOL    HW238478   1.932   4.285   4.337  0.7169  0.5496 -2.0972
 8948SOL     OW38479   3.081   4.513   6.585  0.7787 -0.3973  0.0158
 8948SOL    HW138480   3.035   4.593   6.563 -0.3347 -1.9784 -3.4434
 8948SOL    HW238481   3.046   4.503   6.674  0.3125 -1.0027 -0.2322
 8949SOL     OW38482   4.161   2.629  13.991 -0.0435  0.3714 -0.7548
 8949SOL    HW138483   4.186   2.586  14.073  2.2022 -0.4301 -1.8722
 8949SOL    HW238484   4.215   2.707  13.996  0.0918  0.2938 -0.9933
 8950SOL     OW38485   0.556   0.157   0.143  0.5955 -0.3633  0.7570
 8950SOL    HW138486   0.573   0.182   0.234  0.8853  2.0176  0.0346
 8950SOL    HW238487   0.648   0.162   0.115  0.1970  0.6764 -0.3312
 8951SOL     OW38488   0.985   4.140   6.279 -0.4408  0.3816 -0.2669
 8951SOL    HW138489   1.026   4.148   6.193 -1.7033  3.2704 -0.6026
 8951SOL    HW238490   0.905   4.095   6.252 -1.2993  0.6503  1.8215
 8952SOL     OW38491   4.350   3.455  15.615  0.4999 -0.3500 -0.1227
 8952SOL    HW138492   4.428   3.510  15.604 -0.6880  1.6193  1.3316
 8952SOL    HW238493   4.311   3.444  15.528 -1.8813  0.2385  0.8699
 8953SOL     OW38494   4.171   0.824   2.225 -0.2889 -0.7982 -0.0153
 8953SOL    HW138495   4.154   0.913   2.194 -3.2962 -1.5347 -0.4726
 8953SOL    HW238496   4.226   0.791   2.154 -1.4352 -1.1441 -0.7359
 8954SOL     OW38497   2.614   0.170   7.956  0.3155 -0.1125  0.3876
 8954SOL    HW138498   2.699   0.195   7.991 -0.9012  0.9401  2.5344
 8954SOL    HW238499   2.559   0.170   8.034 -1.8678 -1.2695 -1.1417
 8955SOL     OW38500   3.391   2.132  15.484 -0.2039  0.0515  0.1107
 8955SOL    HW138501   3.423   2.110  15.572  3.6716 -0.5246 -1.4521
 8955SOL    HW238502   3.307   2.166  15.516  0.3521 -0.3508  2.0419
 8956SOL     OW38503   3.803   2.790   3.276  0.4541 -0.1944  0.1064
 8956SOL    HW138504   3.857   2.809   3.353 -0.9303  0.2818  0.9677
 8956SOL    HW238505   3.813   2.874   3.234  1.4961  0.1730  1.1033
 8957SOL     OW38506   0.202   3.688   1.943  0.0634  0.0252 -0.8179
 8957SOL    HW138507   0.252   3.702   2.023  0.4146  0.2869 -1.0866
 8957SOL    HW238508   0.123   3.639   1.970 -0.7192  1.5614 -0.2887
 8958SOL     OW38509   3.424   2.043   1.641  0.2938  0.0945 -0.3698
 8958SOL    HW138510   3.416   1.963   1.693  0.5984  0.6162  0.4704
 8958SOL    HW238511   3.500   2.086   1.679 -0.5245  0.2742  1.0662
 8959SOL     OW38512   4.431   4.493   9.124  0.5665  0.1950 -0.3636
 8959SOL    HW138513   4.522   4.477   9.151 -0.6660 -0.8732  3.0810
 8959SOL    HW238514   4.415   4.426   9.058  1.7751 -1.6897  1.2395
 8960SOL     OW38515   2.266   3.290   5.258 -0.1267 -0.5232 -0.2094
 8960SOL    HW138516   2.241   3.317   5.170 -0.0661  0.0200 -0.0573
 8960SOL    HW238517   2.318   3.212   5.238 -0.5738 -0.6790 -0.7490
 8961SOL     OW38518   3.565   3.425   5.812 -0.1706  0.0170  0.2788
 8961SOL    HW138519   3.503   3.418   5.740  0.1056 -0.7499  0.1176
 8961SOL    HW238520   3.598   3.335   5.819 -0.1294 -0.1276 -1.8838
 8962SOL     OW38521   1.052   3.237   8.021 -0.5037  0.4469 -0.0268
 8962SOL    HW138522   0.966   3.248   7.980 -0.6641  1.2873  0.5507
 8962SOL    HW238523   1.036   3.241   8.115  0.4815 -0.4101  0.1723
 8963SOL     OW38524   0.529   3.149   6.567 -0.2231  0.3134 -0.1842
 8963SOL    HW138525   0.507   3.077   6.508 -1.3801  0.4199  0.1154
 8963SOL    HW238526   0.567   3.208   6.502 -2.4305  2.7836  0.7793
 8964SOL     OW38527   1.253   4.562   9.844  0.3745 -0.0126  0.0351
 8964SOL    HW138528   1.253   4.575   9.749  0.6372 -3.2798 -0.4136
 8964SOL    HW238529   1.345   4.582   9.861  0.0125  1.3162  0.4394
 8965SOL     OW38530   1.287   4.715  17.449  0.7673 -0.1177 -0.1545
 8965SOL    HW138531   1.382   4.700  17.451  0.5925 -1.4421 -2.0332
 8965SOL    HW238532   1.249   4.628  17.442  3.2757 -1.2427  0.3588
 8966SOL     OW38533   2.058   0.939  11.000 -0.2925  0.1365  0.7549
 8966SOL    HW138534   1.968   0.919  10.975 -0.5046  1.2202  0.6804
 8966SOL    HW238535   2.043   0.930  11.094 -0.3515  1.6998  0.8866
 8967SOL     OW38536   2.869   3.943  15.512 -0.8042  0.0063  0.6103
 8967SOL    HW138537   2.958   3.910  15.525 -0.7361  0.7061  2.0071
 8967SOL    HW238538   2.833   3.873  15.458 -1.0354  1.1135 -0.6596
 8968SOL     OW38539   3.388   1.360   9.767  0.0110 -0.0214 -0.3087
 8968SOL    HW138540   3.391   1.421   9.693  0.9420  1.1584  0.7092
 8968SOL    HW238541   3.338   1.286   9.735  1.4037 -1.5748  1.1229
 8969SOL     OW38542   0.826   3.591   6.868 -0.2146  0.0079  0.6079
 8969SOL    HW138543   0.767   3.537   6.921  1.0110  0.0788  2.0360
 8969SOL    HW238544   0.767   3.596   6.793  0.9664 -3.4552 -0.5391
 8970SOL     OW38545   1.380   4.407   3.933 -0.3114 -0.1283 -0.2178
 8970SOL    HW138546   1.385   4.495   3.970  0.7747 -0.2049 -0.1875
 8970SOL    HW238547   1.396   4.419   3.839  0.4136  0.4925 -0.0132
 8971SOL     OW38548   2.824   0.450  14.573  0.4806  0.4800  0.1088
 8971SOL    HW138549   2.738   0.409  14.586  1.4227 -1.8241 -0.9392
 8971SOL    HW238550   2.790   0.498  14.497 -0.2870 -0.9406 -0.4430
 8972SOL     OW38551   2.852   2.425   4.740  0.1920  0.3178  0.2570
 8972SOL    HW138552   2.758   2.423   4.761  0.8382  1.0917  3.1413
 8972SOL    HW238553   2.879   2.333   4.747  2.3969  0.9614  0.1432
 8973SOL     OW38554   2.654   0.667   5.818 -0.0052 -0.2316  0.2351
 8973SOL    HW138555   2.590   0.609   5.858 -2.0340  1.1477 -1.0158
 8973SOL    HW238556   2.613   0.751   5.838  1.1840  0.3791  0.1300
 8974SOL     OW38557   4.192   0.916  16.469  0.0624 -0.0856 -0.2314
 8974SOL    HW138558   4.278   0.956  16.454 -0.3072  0.5478 -0.6691
 8974SOL    HW238559   4.180   0.855  16.397 -0.3147  0.5579 -0.7227
 8975SOL     OW38560   2.491   1.862   4.715  0.1491 -0.1209  0.6780
 8975SOL    HW138561   2.428   1.834   4.781 -1.5038 -0.5725 -1.0748
 8975SOL    HW238562   2.532   1.931   4.767 -1.2731  0.9651  0.3650
 8976SOL     OW38563   0.482   1.402   0.666 -0.1607  0.1108  0.1970
 8976SOL    HW138564   0.410   1.355   0.624 -0.3607  0.1671  0.4744
 8976SOL    HW238565   0.546   1.333   0.684  0.1699  0.9700  2.3224
 8977SOL     OW38566   1.575   4.736   1.942  0.4340 -0.4759  0.1668
 8977SOL    HW138567   1.484   0.002   1.914  0.2856 -0.9671  0.6224
 8977SOL    HW238568   1.610   0.087   1.922 -2.6067  0.7707  0.2950
 8978SOL     OW38569   0.376   3.598   3.632  0.0019  0.1513  0.7513
 8978SOL    HW138570   0.373   3.604   3.536 -0.2458 -0.8089  0.6943
 8978SOL    HW238571   0.284   3.613   3.655  0.3621  3.8192 -0.2336
 8979SOL     OW38572   3.294   4.356   7.854 -0.1801 -0.3484 -0.1678
 8979SOL    HW138573   3.330   4.370   7.942 -2.4442 -0.1790  0.7484
 8979SOL    HW238574   3.202   4.383   7.852 -0.2314 -0.3485  1.8704
 8980SOL     OW38575   3.707   1.010   1.676  0.1026  0.4691 -0.0371
 8980SOL    HW138576   3.772   1.051   1.733  1.2013 -0.5641 -0.5459
 8980SOL    HW238577   3.627   1.053   1.705  0.2308 -1.2069  2.7351
 8981SOL     OW38578   0.844   3.319   6.515  0.1569 -0.0063 -0.3720
 8981SOL    HW138579   0.902   3.325   6.591 -0.1332 -0.8471 -0.0933
 8981SOL    HW238580   0.904   3.346   6.444  0.7491 -1.4831 -0.4222
 8982SOL     OW38581   3.952   0.665   2.775  0.1182  0.0765  0.5500
 8982SOL    HW138582   3.933   0.630   2.688  0.2792  0.2958  0.4251
 8982SOL    HW238583   3.865   0.652   2.812  0.7684 -0.4417  1.9013
 8983SOL     OW38584   1.498   2.796   2.240  0.0884 -0.0952 -0.1075
 8983SOL    HW138585   1.426   2.744   2.203 -1.5500  2.2622 -0.2299
 8983SOL    HW238586   1.486   2.793   2.335  1.0172 -0.4425  0.0005
 8984SOL     OW38587   1.891   3.952   1.041 -0.1926  1.0855 -0.5669
 8984SOL    HW138588   1.815   3.954   1.099 -0.3338  2.8831 -0.7998
 8984SOL    HW238589   1.949   3.895   1.090  0.5999  0.0024 -2.7526
 8985SOL     OW38590   2.563   4.300   3.387  0.2541  0.4342 -0.2550
 8985SOL    HW138591   2.481   4.328   3.347 -0.4947 -0.9571  0.2843
 8985SOL    HW238592   2.545   4.273   3.477 -1.8781 -0.4823 -0.9603
 8986SOL     OW38593   1.831   1.470   3.791  0.4368  0.1452  0.3131
 8986SOL    HW138594   1.867   1.481   3.704 -1.0910 -2.8901 -0.7120
 8986SOL    HW238595   1.812   1.376   3.799 -3.7584  0.8363 -1.4098
 8987SOL     OW38596   1.934   1.805   6.218 -0.0796 -0.3741  1.0065
 8987SOL    HW138597   1.950   1.730   6.161 -0.6657  0.5309 -0.3587
 8987SOL    HW238598   1.847   1.777   6.244 -0.1907 -0.4961  0.5131
 8988SOL     OW38599   0.622   3.427   6.992 -0.3577 -0.1328 -0.1886
 8988SOL    HW138600   0.629   3.359   6.925  2.1942  0.5230 -0.6108
 8988SOL    HW238601   0.598   3.379   7.071  0.3925  0.5436  0.4593
 8989SOL     OW38602   2.599   3.734   4.044  0.3937 -0.5505 -0.1563
 8989SOL    HW138603   2.605   3.639   4.051  1.3976 -0.6301 -2.0614
 8989SOL    HW238604   2.624   3.748   3.953  1.0614  0.9672  0.2662
 8990SOL     OW38605   3.875   0.552   7.160 -0.2096 -0.5996  0.2807
 8990SOL    HW138606   3.963   0.587   7.174 -1.5422  3.0176 -0.3413
 8990SOL    HW238607   3.831   0.631   7.128 -0.7274 -0.0029  2.4831
 8991SOL     OW38608   1.880   2.349  16.968  0.4341  0.3854  0.0005
 8991SOL    HW138609   1.916   2.431  16.934 -1.9511  1.3466 -0.2154
 8991SOL    HW238610   1.870   2.300  16.887 -1.2180 -0.7128  0.8688
 8992SOL     OW38611   0.413   2.536   0.114 -0.3166 -0.7430  0.3045
 8992SOL    HW138612   0.432   2.610   0.056  0.3920 -1.3639 -0.2506
 8992SOL    HW238613   0.490   2.481   0.105  0.1253 -0.0027 -0.5230
 8993SOL     OW38614   0.883   4.458   0.535 -0.1090 -0.4913 -0.0888
 8993SOL    HW138615   0.799   4.452   0.491 -0.9033 -0.2798  1.3865
 8993SOL    HW238616   0.891   4.372   0.575  1.5133  0.1798  1.0677
 8994SOL     OW38617   2.346   1.157   8.816  0.6122 -0.1072 -0.4860
 8994SOL    HW138618   2.396   1.222   8.767  2.7891 -2.2410 -1.0773
 8994SOL    HW238619   2.262   1.203   8.826  0.6311 -0.1512 -0.1240
 8995SOL     OW38620   1.652   1.673   3.732  0.6025  0.3029  0.1577
 8995SOL    HW138621   1.712   1.607   3.767 -0.6121 -1.0638 -0.3688
 8995SOL    HW238622   1.565   1.655   3.767  1.0350  0.7950  1.5154
 8996SOL     OW38623   2.452   0.679  15.423  0.3212 -0.5337 -0.2982
 8996SOL    HW138624   2.403   0.704  15.501  0.7078 -1.0773  0.1121
 8996SOL    HW238625   2.458   0.584  15.430  0.6292 -0.4232  0.7776
 8997SOL     OW38626   3.333   0.756  16.284  0.5586  0.8999  0.8134
 8997SOL    HW138627   3.320   0.683  16.345 -2.0728  0.4889 -0.2514
 8997SOL    HW238628   3.383   0.722  16.210  1.8503  0.2873  1.9655
 8998SOL     OW38629   1.546   1.895   7.485 -0.3213  0.0369 -0.2429
 8998SOL    HW138630   1.517   1.824   7.542  0.6616 -1.6856 -1.8855
 8998SOL    HW238631   1.561   1.837   7.410 -0.6292  2.5404 -2.2128
 8999SOL     OW38632   3.299   2.231  10.208 -0.3501  0.2716 -0.1485
 8999SOL    HW138633   3.319   2.222  10.115 -0.9103  2.9350 -0.5308
 8999SOL    HW238634   3.269   2.141  10.222 -0.6749  0.2544 -0.9635
 9000SOL     OW38635   1.358   0.333   4.730 -0.5951 -0.2353  0.1042
 9000SOL    HW138636   1.452   0.347   4.718 -0.7162  0.4912 -0.0347
 9000SOL    HW238637   1.351   0.245   4.694  0.9112 -0.5979  0.6801
 9001SOL     OW38638   3.817   0.776   8.807 -0.2388 -0.6013  0.6198
 9001SOL    HW138639   3.744   0.714   8.810 -1.1193  0.3776 -0.4782
 9001SOL    HW238640   3.816   0.799   8.714  2.2254 -2.1136  0.2087
 9002SOL     OW38641   0.199   4.377   7.824 -0.4293  0.5769 -0.0216
 9002SOL    HW138642   0.132   4.309   7.817  0.6374 -0.4958  0.2776
 9002SOL    HW238643   0.199   4.399   7.731  0.3644 -0.1353 -0.1839
 9003SOL     OW38644   4.559   0.622   9.238  0.4242 -0.2402  0.1490
 9003SOL    HW138645   4.492   0.667   9.188  0.2406  2.4181  2.8476
 9003SOL    HW238646   4.504   0.551   9.269 -1.0837  2.5202  3.6669
 9004SOL     OW38647   0.334   3.361   5.948 -0.2605 -1.1249 -0.1342
 9004SOL    HW138648   0.243   3.367   5.918  0.0577  0.8991 -0.6836
 9004SOL    HW238649   0.349   3.425   6.018 -2.0339 -1.1676  0.2749
 9005SOL     OW38650   4.477   1.565   2.301  0.1443  0.2030  0.4099
 9005SOL    HW138651   4.504   1.486   2.348 -1.3666  0.0139  0.9651
 9005SOL    HW238652   4.475   1.532   2.212 -1.9327 -1.5000  1.0850
 9006SOL     OW38653   3.099   2.713   2.935 -0.4086 -0.0591 -0.1244
 9006SOL    HW138654   3.124   2.627   2.970  0.7810 -0.2745 -1.5368
 9006SOL    HW238655   3.176   2.766   2.955 -1.1108  1.0906 -0.5000
 9007SOL     OW38656   1.025   3.972  10.846 -0.3047 -0.4413 -0.0904
 9007SOL    HW138657   1.033   3.940  10.936 -1.5139 -2.4521 -0.7046
 9007SOL    HW238658   1.021   4.066  10.864 -1.1994 -0.4164 -0.4340
 9008SOL     OW38659   1.046   1.711   1.368 -0.2191 -0.9593 -0.3020
 9008SOL    HW138660   1.039   1.803   1.345 -2.1015 -1.3381 -1.2702
 9008SOL    HW238661   0.992   1.701   1.446  1.5235 -1.0679  0.8926
 9009SOL     OW38662   3.461   3.522  17.551  0.0327 -0.3291 -0.0758
 9009SOL    HW138663   3.418   3.607  17.553 -0.5779 -0.6107 -1.2230
 9009SOL    HW238664   3.489   3.515  17.642  1.0748  0.1003 -0.3623
 9010SOL     OW38665   3.792   3.383   5.170 -0.6401  0.1664 -0.0689
 9010SOL    HW138666   3.773   3.472   5.142  1.5480  0.4748 -0.6095
 9010SOL    HW238667   3.705   3.344   5.169 -0.2384 -0.7187 -0.9725
 9011SOL     OW38668   4.022   2.495   9.130  0.0720  0.0235  0.2015
 9011SOL    HW138669   3.944   2.443   9.146 -1.1436  2.0268  0.7267
 9011SOL    HW238670   4.055   2.520   9.216 -4.2054 -1.4403  2.2544
 9012SOL     OW38671   0.638   2.863  10.803  0.0875 -0.2921  0.0858
 9012SOL    HW138672   0.609   2.835  10.716 -1.3256 -1.1033  0.8330
 9012SOL    HW238673   0.641   2.778  10.846  0.7874  1.5938  3.7269
 9013SOL     OW38674   4.032   2.622  12.300 -0.5653  0.4630 -0.0354
 9013SOL    HW138675   4.016   2.670  12.219 -0.1855  0.4528 -0.1149
 9013SOL    HW238676   4.121   2.590  12.288 -0.1797  2.3005 -2.0950
 9014SOL     OW38677   3.450   1.152   2.572 -0.2005  0.3696 -0.0942
 9014SOL    HW138678   3.432   1.103   2.492  1.6592 -1.3886  0.5617
 9014SOL    HW238679   3.459   1.081   2.636 -0.9992  1.0629  0.7798
 9015SOL     OW38680   2.408   1.222  11.670  0.1721  0.1475  0.3054
 9015SOL    HW138681   2.470   1.235  11.742  1.4989 -0.2833 -0.7426
 9015SOL    HW238682   2.331   1.272  11.697 -0.2837 -1.6738  2.3398
 9016SOL     OW38683   3.771   4.334   7.484 -0.0109 -0.6595  0.0402
 9016SOL    HW138684   3.775   4.255   7.430  2.5010 -0.2768 -0.3423
 9016SOL    HW238685   3.711   4.304   7.552  0.4176  0.1471  0.7866
 9017SOL     OW38686   3.321   2.310   3.307  0.5089  0.4539  0.0816
 9017SOL    HW138687   3.410   2.276   3.314 -0.3299 -1.6342  0.8054
 9017SOL    HW238688   3.339   2.396   3.346  1.4216  0.4266 -0.2779
 9018SOL     OW38689   1.764   0.989   4.274  0.0912  0.0241  0.0638
 9018SOL    HW138690   1.850   0.948   4.271 -0.4647 -1.1486  0.0889
 9018SOL    HW238691   1.764   1.009   4.368 -0.3611 -0.4667  0.1722
 9019SOL     OW38692   4.274   4.291   6.209 -0.1356  0.3095 -0.6249
 9019SOL    HW138693   4.235   4.304   6.295  1.7295  3.6608 -0.3061
 9019SOL    HW238694   4.361   4.262   6.237  0.2989  1.7635 -0.4624
 9020SOL     OW38695   3.589   2.351   3.287  0.0537 -0.0424 -0.7926
 9020SOL    HW138696   3.632   2.422   3.240  0.2223  0.5426  0.2536
 9020SOL    HW238697   3.666   2.307   3.323 -0.9271  0.0420  1.4189
 9021SOL     OW38698   4.408   4.523   6.521  0.8385  0.5591 -0.0997
 9021SOL    HW138699   4.368   4.569   6.447 -2.2172 -0.0439  1.1831
 9021SOL    HW238700   4.483   4.582   6.532  0.9466  0.5160 -0.6228
 9022SOL     OW38701   2.296   1.760   1.870 -0.0727 -0.0309  0.1042
 9022SOL    HW138702   2.211   1.736   1.832  0.1557 -1.5152  0.5475
 9022SOL    HW238703   2.260   1.841   1.908 -0.7590 -0.7305  0.9404
 9023SOL     OW38704   3.683   1.813   6.723  0.2848 -0.8638 -0.4208
 9023SOL    HW138705   3.750   1.839   6.787 -1.5782  1.0126  0.7550
 9023SOL    HW238706   3.723   1.793   6.638 -0.3279  1.8158 -1.3148
 9024SOL     OW38707   3.525   0.070   8.156  0.0912 -0.5906 -0.5046
 9024SOL    HW138708   3.480   0.150   8.129  2.0597  0.2548 -1.2173
 9024SOL    HW238709   3.589   0.053   8.088  1.6588 -1.7018  1.2630
 9025SOL     OW38710   4.548   3.891   9.704 -0.1481 -0.3713  0.2817
 9025SOL    HW138711   4.483   3.823   9.723 -1.5836  1.2983  1.4106
 9025SOL    HW238712   4.608   3.883   9.779 -0.1478  1.0377  0.4246
 9026SOL     OW38713   1.138   0.116   1.477  0.1860  0.1123  0.3636
 9026SOL    HW138714   1.199   0.145   1.409 -0.5039  1.5196  0.3452
 9026SOL    HW238715   1.174   0.038   1.520 -2.3661 -1.2076  0.1003
 9027SOL     OW38716   0.183   3.547   9.607  0.4006 -0.0870  0.2152
 9027SOL    HW138717   0.120   3.486   9.568  0.2680  0.6601 -0.7361
 9027SOL    HW238718   0.124   3.622   9.603 -0.1644 -0.4341  2.5978
 9028SOL     OW38719   2.680   2.210   0.353 -0.4587 -0.0461 -0.2501
 9028SOL    HW138720   2.699   2.296   0.314 -1.2126  1.4174  2.6702
 9028SOL    HW238721   2.716   2.150   0.287 -1.4433 -1.5179  0.5521
 9029SOL     OW38722   1.163   3.002  16.731 -0.2266 -0.6467 -0.2456
 9029SOL    HW138723   1.167   3.098  16.725 -1.8994 -0.5887 -0.4516
 9029SOL    HW238724   1.258   2.986  16.728 -0.5358 -2.6772  1.3189
 9030SOL     OW38725   4.412   3.682   3.631  0.0543  0.1271  0.3349
 9030SOL    HW138726   4.405   3.714   3.541  2.2689 -0.0651  0.0886
 9030SOL    HW238727   4.340   3.730   3.671  0.7864  0.4403  1.2644
 9031SOL     OW38728   0.775   1.897   9.259 -0.4750  0.4216  0.3892
 9031SOL    HW138729   0.733   1.899   9.173 -0.2180  1.9573  0.3017
 9031SOL    HW238730   0.803   1.989   9.268 -0.0319  0.2540  0.7342
 9032SOL     OW38731   4.634   1.255   6.679  0.0140 -0.0017  0.3924
 9032SOL    HW138732   4.716   1.216   6.709  0.9576  0.1939 -1.8774
 9032SOL    HW238733   4.625   1.317   6.751 -0.1466  0.6725 -0.2011
 9033SOL     OW38734   4.371   3.457   8.651  0.2897 -0.2495  0.3223
 9033SOL    HW138735   4.330   3.400   8.585  0.6742 -0.8967  0.6424
 9033SOL    HW238736   4.418   3.391   8.702 -1.8762 -1.3807  0.8584
 9034SOL     OW38737   0.359   3.747   2.883 -0.9016 -0.2527  0.9315
 9034SOL    HW138738   0.391   3.658   2.897  0.5700  0.2315  0.6158
 9034SOL    HW238739   0.431   3.792   2.927 -1.0548  0.9792 -0.0537
 9035SOL     OW38740   3.050   3.245   6.289 -0.2592 -0.1528  0.6186
 9035SOL    HW138741   2.977   3.188   6.316  0.6851 -1.3940  0.5306
 9035SOL    HW238742   3.043   3.241   6.193  0.3891 -1.3916  0.6270
 9036SOL     OW38743   0.453   0.138   8.857  0.1159 -0.2370 -0.5314
 9036SOL    HW138744   0.409   0.212   8.815 -1.5130  0.3847  2.2784
 9036SOL    HW238745   0.499   0.096   8.784  2.2526 -0.1433  0.7591
 9037SOL     OW38746   1.871   0.385   4.662 -0.0060 -0.2003  0.7276
 9037SOL    HW138747   1.786   0.355   4.628 -0.9824  1.5705  1.5871
 9037SOL    HW238748   1.847   0.399   4.754  0.7423  0.5446  0.8102
 9038SOL     OW38749   1.879   1.961   4.664  0.0127 -0.7089  0.1944
 9038SOL    HW138750   1.868   1.868   4.649 -1.6356 -0.4429 -0.2744
 9038SOL    HW238751   1.790   1.991   4.680 -0.2549  0.7258 -3.9331
 9039SOL     OW38752   3.952   3.060   8.406 -0.5806  0.0591 -0.0283
 9039SOL    HW138753   3.974   3.096   8.492 -0.4112  0.9635 -0.4503
 9039SOL    HW238754   4.012   2.988   8.424 -0.5042  0.2666  0.5330
 9040SOL     OW38755   1.862   3.790   8.147  0.3422  0.3969  0.1862
 9040SOL    HW138756   1.886   3.855   8.212 -1.3285  0.2991  0.9036
 9040SOL    HW238757   1.775   3.825   8.127  0.4438 -0.6992 -2.2485
 9041SOL     OW38758   1.441   0.314   5.987  0.3608  0.6506 -0.1879
 9041SOL    HW138759   1.519   0.358   6.020  1.1060 -0.3069 -0.6727
 9041SOL    HW238760   1.423   0.238   6.042 -1.0493 -0.6546 -2.4564
 9042SOL     OW38761   1.595   1.015   8.272 -0.1300  0.3265  0.5603
 9042SOL    HW138762   1.611   0.922   8.255 -1.2478  0.4131 -0.9720
 9042SOL    HW238763   1.500   1.024   8.280 -0.2580  0.4532 -1.0364
 9043SOL     OW38764   4.622   1.075   9.894  0.8740  0.1627 -0.2379
 9043SOL    HW138765   4.712   1.095   9.870  0.6917  1.0355 -0.1952
 9043SOL    HW238766   4.596   1.163   9.920  1.2121  0.6899 -1.7310
 9044SOL     OW38767   2.712   1.825   5.936  0.0412 -0.8584 -0.2538
 9044SOL    HW138768   2.716   1.755   6.002  2.2312 -0.2776  0.2422
 9044SOL    HW238769   2.738   1.891   6.000 -0.3094 -1.0605  0.0960
 9045SOL     OW38770   1.221   1.053   2.398 -0.2851  0.1933  0.2325
 9045SOL    HW138771   1.297   1.036   2.343 -1.0572  0.7047 -0.9903
 9045SOL    HW238772   1.196   1.143   2.376 -1.0995 -0.8888 -3.2004
 9046SOL     OW38773   1.711   1.136  13.258 -0.1804 -0.6325 -0.1705
 9046SOL    HW138774   1.683   1.089  13.336 -0.6186 -0.1953 -0.0675
 9046SOL    HW238775   1.649   1.208  13.252  1.5715  0.8583 -0.6185
 9047SOL     OW38776   3.420   1.107   1.606  0.1121 -0.5546 -0.1776
 9047SOL    HW138777   3.439   1.200   1.603 -0.8110 -0.3227  0.9876
 9047SOL    HW238778   3.355   1.105   1.536 -0.4788  1.2774  0.3078
 9048SOL     OW38779   0.952   2.949   4.986 -0.2563 -0.2504  0.4608
 9048SOL    HW138780   0.881   2.935   5.049 -2.5040 -0.8201 -2.1952
 9048SOL    HW238781   1.002   3.007   5.043 -1.1374  1.0260 -0.0678
 9049SOL     OW38782   2.779   3.388   8.611  0.8331  0.2401 -0.3526
 9049SOL    HW138783   2.731   3.464   8.645  0.7224  0.7089 -1.5458
 9049SOL    HW238784   2.869   3.417   8.600  0.5418  1.6263  0.8290
 9050SOL     OW38785   4.411   0.728   8.051 -0.1185 -0.1108  0.1164
 9050SOL    HW138786   4.469   0.803   8.036  0.0520 -0.5753 -1.5760
 9050SOL    HW238787   4.410   0.721   8.147 -0.6779 -0.8662  0.0559
 9051SOL     OW38788   4.391   2.499   0.860 -0.4803  0.2048 -0.0717
 9051SOL    HW138789   4.443   2.538   0.930  0.2845 -0.0718 -0.4823
 9051SOL    HW238790   4.311   2.486   0.912 -0.1670 -1.0124  0.1114
 9052SOL     OW38791   0.337   1.563  14.334  0.3022 -0.4144 -0.0235
 9052SOL    HW138792   0.355   1.630  14.269 -1.4731  1.4712  1.4385
 9052SOL    HW238793   0.259   1.595  14.379  0.5101 -0.1951  0.1744
 9053SOL     OW38794   2.743   3.836   7.505 -0.2173  0.0458  0.2926
 9053SOL    HW138795   2.741   3.767   7.439  1.2009  0.4166 -0.1310
 9053SOL    HW238796   2.801   3.792   7.566  0.7143 -1.8470 -1.9803
 9054SOL     OW38797   3.026   1.080  11.958 -0.4065  0.1419  0.3191
 9054SOL    HW138798   3.107   1.117  11.992 -0.4363 -0.0419  0.5926
 9054SOL    HW238799   3.054   0.993  11.927  0.3552 -0.7665  3.5693
 9055SOL     OW38800   2.093   4.484   2.091 -0.1139 -0.4231  0.1903
 9055SOL    HW138801   2.065   4.429   2.017  1.5822  0.5859 -1.1992
 9055SOL    HW238802   2.014   4.534   2.112 -0.1726 -0.3191 -0.2704
 9056SOL     OW38803   1.935   2.388   8.515  0.1633 -0.3089  0.4059
 9056SOL    HW138804   2.004   2.436   8.560 -0.6537 -1.4147  2.8788
 9056SOL    HW238805   1.871   2.367   8.583 -0.8157  1.1528 -0.0682
 9057SOL     OW38806   0.950   2.919  15.770  0.2205 -0.1304  0.3556
 9057SOL    HW138807   1.025   2.900  15.826  0.2666  0.5642  0.5290
 9057SOL    HW238808   0.960   2.849  15.706 -0.3006  0.6634 -0.6048
 9058SOL     OW38809   1.184   1.360   4.385 -0.2679  0.5484  0.4961
 9058SOL    HW138810   1.108   1.407   4.349 -1.6768 -0.6535  1.9002
 9058SOL    HW238811   1.150   1.275   4.415 -0.3186  0.1628 -0.6520
 9059SOL     OW38812   2.848   2.720   7.770  0.0430  0.6485 -0.0104
 9059SOL    HW138813   2.879   2.631   7.756 -0.4735  0.3561  0.7786
 9059SOL    HW238814   2.827   2.703   7.862 -1.4059  0.6459 -0.3359
 9060SOL     OW38815   2.668   3.703   4.873  0.1739  0.5191  0.3492
 9060SOL    HW138816   2.609   3.756   4.926  0.0636  1.2524 -0.5044
 9060SOL    HW238817   2.729   3.764   4.832  0.9310 -1.0517 -0.8388
 9061SOL     OW38818   2.375   1.006   5.674  0.2762  0.0208 -0.3502
 9061SOL    HW138819   2.328   0.926   5.651  1.2702 -1.6231  3.2484
 9061SOL    HW238820   2.324   1.074   5.630  0.7577  1.7296  1.7363
 9062SOL     OW38821   0.229   0.460   8.023  0.6917  0.2160  0.6672
 9062SOL    HW138822   0.313   0.441   7.981  0.0264 -1.2573  0.0401
 9062SOL    HW238823   0.174   0.500   7.956 -0.6234 -2.0067  0.4417
 9063SOL     OW38824   4.684   2.085   5.274 -0.4355 -0.1121 -0.1617
 9063SOL    HW138825   4.612   2.083   5.211 -0.9302  1.0049  0.3707
 9063SOL    HW238826   4.642   2.061   5.356 -1.8153 -0.3691 -0.9351
 9064SOL     OW38827   4.090   1.764   5.813 -0.3712  0.1979  0.2866
 9064SOL    HW138828   4.100   1.726   5.900 -0.3148  0.6565  0.4807
 9064SOL    HW238829   4.011   1.816   5.826 -0.8437 -0.4194 -0.1021
 9065SOL     OW38830   2.506   4.527   6.816 -0.2206 -0.3248 -0.2370
 9065SOL    HW138831   2.518   4.621   6.820 -0.3207 -0.3737  1.1551
 9065SOL    HW238832   2.574   4.510   6.751 -0.8327  1.4429 -1.3187
 9066SOL     OW38833   3.078   1.261   2.533 -0.1564 -0.3703  0.2186
 9066SOL    HW138834   3.105   1.265   2.441 -0.9272  0.7007  0.0380
 9066SOL    HW238835   2.993   1.304   2.529  0.6544  1.1818 -0.2644
 9067SOL     OW38836   4.648   1.488   4.923 -0.0521  0.3066  0.8193
 9067SOL    HW138837   4.648   1.399   4.890  0.2240  1.5817 -2.6126
 9067SOL    HW238838   4.612   1.532   4.846 -0.5048 -0.5215  0.5564
 9068SOL     OW38839   0.091   0.963   5.784 -0.5833 -0.0136 -0.4887
 9068SOL    HW138840   0.152   1.025   5.823  0.2025 -1.2664  0.2874
 9068SOL    HW238841   0.006   1.001   5.804 -0.5862 -0.2826 -0.0028
 9069SOL     OW38842   3.481   3.003  12.883 -0.1748 -0.2396 -0.0697
 9069SOL    HW138843   3.415   2.950  12.929 -2.2029  1.1749 -1.4025
 9069SOL    HW238844   3.541   3.038  12.949 -0.5799  2.8101 -1.3576
 9070SOL     OW38845   3.819   0.350   3.500  0.0116  0.1496  0.2936
 9070SOL    HW138846   3.782   0.322   3.416  1.3264 -0.2362 -0.1473
 9070SOL    HW238847   3.912   0.333   3.490 -0.1042  0.4296 -1.1551
 9071SOL     OW38848   3.364   2.807  15.451 -0.2565 -0.1141  0.3520
 9071SOL    HW138849   3.330   2.845  15.532  0.0178  0.7167  0.0744
 9071SOL    HW238850   3.326   2.876  15.397  0.0505  1.1060  1.6818
 9072SOL     OW38851   4.141   1.260   1.854 -0.6106 -0.6229  0.0056
 9072SOL    HW138852   4.153   1.354   1.844 -0.9545 -0.6636 -0.7409
 9072SOL    HW238853   4.125   1.234   1.764 -0.6839 -0.8825  0.0931
 9073SOL     OW38854   2.246   2.328  12.495  0.2753 -0.4246 -0.1856
 9073SOL    HW138855   2.189   2.329  12.572  1.0092  2.5200  0.3296
 9073SOL    HW238856   2.250   2.419  12.467  0.6925 -0.4797 -0.3031
 9074SOL     OW38857   2.050   2.801   6.414 -0.2829  0.2205 -0.1076
 9074SOL    HW138858   2.062   2.893   6.387 -0.7033  0.2773 -0.1014
 9074SOL    HW238859   1.987   2.771   6.348  0.7953 -0.7813 -0.6886
 9075SOL     OW38860   2.865   3.191   6.068  0.6916 -0.2729  0.4008
 9075SOL    HW138861   2.897   3.172   5.980 -0.1827 -0.9811  0.2382
 9075SOL    HW238862   2.805   3.262   6.047  0.4010 -0.1465  1.6309
 9076SOL     OW38863   0.310   0.086   9.093  0.3798 -0.2648  0.0550
 9076SOL    HW138864   0.271   0.165   9.129  3.0907  1.1348 -0.0294
 9076SOL    HW238865   0.383   0.127   9.046 -0.1789  2.1154  1.2701
 9077SOL     OW38866   0.371   3.238   0.985 -0.0178 -0.3828  0.2825
 9077SOL    HW138867   0.315   3.314   0.969 -0.7229 -0.8908  0.3229
 9077SOL    HW238868   0.447   3.279   1.026 -0.2334 -0.4105  0.7070
 9078SOL     OW38869   2.037   3.916   7.205  0.1936 -0.6194  0.1333
 9078SOL    HW138870   1.942   3.911   7.194  0.1611 -0.1061  0.1887
 9078SOL    HW238871   2.079   3.840   7.165  1.1828 -0.8774  1.6554
 9079SOL     OW38872   3.722   0.696   5.802 -0.5304  0.3170  0.0302
 9079SOL    HW138873   3.765   0.749   5.869  1.3441 -0.3087 -0.6541
 9079SOL    HW238874   3.660   0.655   5.861 -1.1801 -0.2466 -1.0400
 9080SOL     OW38875   2.471   2.289   5.859 -0.2494 -0.4807  0.0996
 9080SOL    HW138876   2.554   2.335   5.849  0.6269 -2.3259 -1.1594
 9080SOL    HW238877   2.437   2.324   5.941  1.1187 -0.9522  0.8629
 9081SOL     OW38878   4.302   1.859   3.141  0.2456 -0.6286 -0.3488
 9081SOL    HW138879   4.289   1.892   3.052  2.7216 -0.1856 -0.5482
 9081SOL    HW238880   4.316   1.941   3.189  0.7016 -0.5656 -0.5881
 9082SOL     OW38881   3.310   1.457   8.152 -0.6163  0.6948  0.3442
 9082SOL    HW138882   3.304   1.444   8.246  1.6304 -2.1251  0.1087
 9082SOL    HW238883   3.279   1.371   8.124  2.1564 -0.6215  1.2653
 9083SOL     OW38884   1.708   1.015  16.845  0.8806 -0.1607 -0.6562
 9083SOL    HW138885   1.690   1.038  16.754 -0.2944 -0.4888 -0.5039
 9083SOL    HW238886   1.692   0.922  16.857  0.7497 -0.1800 -0.9763
 9084SOL     OW38887   1.957   2.691  15.412  0.2776 -0.4555 -0.3649
 9084SOL    HW138888   2.042   2.734  15.399  0.0708  0.4239  1.1872
 9084SOL    HW238889   1.927   2.700  15.322 -3.9384 -3.0288  0.8155
 9085SOL     OW38890   3.177   4.128   5.250  0.0352  0.2719  0.0387
 9085SOL    HW138891   3.263   4.088   5.262  0.5898  1.4571  0.0128
 9085SOL    HW238892   3.159   4.110   5.158  0.9154 -0.3244 -0.0101
 9086SOL     OW38893   2.390   3.064   2.025 -0.0836 -0.3338  0.0195
 9086SOL    HW138894   2.392   2.985   1.971  0.3986  0.5794 -1.3145
 9086SOL    HW238895   2.306   3.054   2.069 -0.8251 -1.4114 -1.6413
 9087SOL     OW38896   3.727   1.758  15.723  0.1556 -0.4931 -0.7980
 9087SOL    HW138897   3.727   1.792  15.634 -1.6516  1.2326 -0.1533
 9087SOL    HW238898   3.634   1.738  15.732  0.1238 -0.1991 -0.4845
 9088SOL     OW38899   3.791   2.667   5.560 -0.2144 -0.8666  0.0228
 9088SOL    HW138900   3.800   2.685   5.467  1.5080  1.8540  0.7124
 9088SOL    HW238901   3.873   2.699   5.597 -1.3266  0.3805  1.4727
 9089SOL     OW38902   1.086   0.206  12.560 -0.2996  0.1079 -0.3109
 9089SOL    HW138903   1.028   0.130  12.550  1.3215 -1.3767  1.6903
 9089SOL    HW238904   1.165   0.161  12.589  0.9228  0.5529 -2.8612
 9090SOL     OW38905   4.596   2.727   4.385 -0.3643  0.3132 -0.3203
 9090SOL    HW138906   4.654   2.713   4.311  0.6562  1.9707  0.1540
 9090SOL    HW238907   4.578   2.637   4.412 -0.8782  0.1344 -1.2722
 9091SOL     OW38908   3.653   2.883   8.992 -0.1631  0.5203 -0.5360
 9091SOL    HW138909   3.744   2.903   9.014  0.5618 -1.4490 -1.7133
 9091SOL    HW238910   3.617   2.956   9.043 -0.6447  0.7074 -1.1400
 9092SOL     OW38911   2.413   0.131   3.255 -0.0801  0.3553 -0.2021
 9092SOL    HW138912   2.459   0.159   3.333 -0.9304 -0.4557  0.5838
 9092SOL    HW238913   2.343   0.195   3.238  0.9318  2.0556  2.0697
 9093SOL     OW38914   1.204   2.285   7.148 -0.1661  0.3129  0.7950
 9093SOL    HW138915   1.265   2.243   7.087 -1.1007 -1.9809  1.4630
 9093SOL    HW238916   1.270   2.316   7.210  1.6130 -2.3653  0.2043
 9094SOL     OW38917   4.355   0.043   2.479  0.6543 -0.0044 -0.2089
 9094SOL    HW138918   4.432   0.082   2.520  0.1264 -1.2600  1.9592
 9094SOL    HW238919   4.300   0.029   2.556  0.7521  1.0169  0.0538
 9095SOL     OW38920   4.162   3.998   6.322  0.2408  0.2787  0.0369
 9095SOL    HW138921   4.111   4.008   6.241 -0.1651 -1.0498  0.1354
 9095SOL    HW238922   4.107   3.937   6.372 -0.4153  2.0943  1.5519
 9096SOL     OW38923   1.137   1.185   3.866 -0.2258 -0.2771  0.1792
 9096SOL    HW138924   1.081   1.144   3.800  2.5243  1.1078 -2.9636
 9096SOL    HW238925   1.210   1.123   3.868  0.5666  0.6104 -2.3302
 9097SOL     OW38926   0.595   0.995   4.475  0.4202  0.3665  0.2114
 9097SOL    HW138927   0.589   0.942   4.554 -2.7655  0.3283 -0.0576
 9097SOL    HW238928   0.502   1.014   4.460  0.0810 -0.9121  0.7367
 9098SOL     OW38929   4.125   0.257  16.131 -0.0156 -0.0605  0.1909
 9098SOL    HW138930   4.156   0.322  16.195  2.0378 -1.6645  0.8169
 9098SOL    HW238931   4.203   0.203  16.123  1.1468  1.2678  2.3461
 9099SOL     OW38932   0.407   2.686   5.443 -0.0971 -0.0366 -0.3384
 9099SOL    HW138933   0.365   2.667   5.359  2.6341  1.8534 -2.1051
 9099SOL    HW238934   0.385   2.779   5.441  2.1865  0.4766 -0.8482
 9100SOL     OW38935   0.803   0.344   0.198  0.2311 -0.1281 -0.4188
 9100SOL    HW138936   0.801   0.294   0.279  0.5940 -2.5096 -1.8747
 9100SOL    HW238937   0.893   0.377   0.203  0.3893 -0.6704  0.1825
 9101SOL     OW38938   0.249   1.889   5.828 -0.1015 -0.0861  0.1710
 9101SOL    HW138939   0.192   1.897   5.752  0.8617  0.5937 -0.4755
 9101SOL    HW238940   0.266   1.978   5.858  0.8504 -0.2497  0.1045
 9102SOL     OW38941   2.923   1.595   3.933 -0.3130 -0.8997  0.6841
 9102SOL    HW138942   2.946   1.532   4.002 -0.1703  0.3939  1.8025
 9102SOL    HW238943   3.006   1.644   3.935 -1.1679  0.5719 -0.3142
 9103SOL     OW38944   1.617   3.467   6.331  0.2007  0.7525  0.1293
 9103SOL    HW138945   1.636   3.379   6.362 -0.2053  0.4090 -0.6118
 9103SOL    HW238946   1.524   3.476   6.350 -0.5054  0.0769 -3.0632
 9104SOL     OW38947   2.095   0.474   8.416 -0.3098  0.0294  0.0013
 9104SOL    HW138948   2.041   0.421   8.474  1.2735 -1.5061  0.0544
 9104SOL    HW238949   2.122   0.545   8.475 -0.5123  0.5056 -0.4769
 9105SOL     OW38950   0.352   0.535   6.292 -0.8475  0.7339 -0.1297
 9105SOL    HW138951   0.392   0.536   6.205 -1.1880 -2.1264 -0.3240
 9105SOL    HW238952   0.384   0.451   6.323  2.4830  1.4587 -1.6820
 9106SOL     OW38953   2.098   4.096   5.407  0.4135  0.4272 -0.5762
 9106SOL    HW138954   2.008   4.107   5.377  0.5713  1.3148 -0.7181
 9106SOL    HW238955   2.102   4.001   5.400 -0.7037  0.3477 -0.0979
 9107SOL     OW38956   4.476   4.222   7.644 -0.7629 -0.6716 -0.4765
 9107SOL    HW138957   4.555   4.251   7.691  0.5947 -0.9538 -2.5677
 9107SOL    HW238958   4.430   4.306   7.649  2.4533  1.1178 -0.8239
 9108SOL     OW38959   4.369   3.789   4.296  0.8162 -0.6347 -0.0821
 9108SOL    HW138960   4.447   3.776   4.242  1.6356  2.1141  0.4269
 9108SOL    HW238961   4.397   3.791   4.387 -1.0971 -2.1005  0.5326
 9109SOL     OW38962   3.998   1.508   9.308 -0.1083 -0.2276  0.4822
 9109SOL    HW138963   4.056   1.571   9.265  0.1353 -1.2865 -0.7592
 9109SOL    HW238964   4.048   1.427   9.302  0.0659  0.1813 -3.5384
 9110SOL     OW38965   2.736   1.619   2.733  0.0361 -0.4729 -0.6112
 9110SOL    HW138966   2.779   1.683   2.791 -1.2259  0.2371 -0.4405
 9110SOL    HW238967   2.730   1.544   2.792 -1.1558 -1.3806 -1.8736
 9111SOL     OW38968   1.642   1.678   5.248  0.1141  0.0004  0.0055
 9111SOL    HW138969   1.600   1.603   5.206  0.3061 -0.4116  0.5456
 9111SOL    HW238970   1.569   1.722   5.292  1.5936  2.4013  0.0600
 9112SOL     OW38971   4.658   4.145   5.345 -0.5674 -0.2187 -0.2001
 9112SOL    HW138972   0.016   4.166   5.340 -0.4203 -0.7252  0.3144
 9112SOL    HW238973   4.653   4.118   5.253  0.1822 -1.1908  0.0358
 9113SOL     OW38974   3.347   1.368   1.648  0.6667 -0.9682  0.4595
 9113SOL    HW138975   3.428   1.387   1.600  0.5262 -1.6712 -0.0633
 9113SOL    HW238976   3.370   1.334   1.734  1.9870  0.5106  0.6860
 9114SOL     OW38977   0.190   0.837   7.945 -0.0983 -0.0174 -0.3844
 9114SOL    HW138978   0.268   0.851   7.999  0.8763 -0.1620 -1.7564
 9114SOL    HW238979   0.222   0.796   7.864 -1.3113  2.6125 -2.1975
 9115SOL     OW38980   4.602   3.140   1.770 -0.3357  0.1600 -0.1980
 9115SOL    HW138981   4.584   3.114   1.861 -1.8574 -1.0419 -0.8436
 9115SOL    HW238982   4.696   3.123   1.759 -0.9809 -1.3924 -3.2185
 9116SOL     OW38983   2.832   1.525   2.101  0.0181 -0.2550  0.1807
 9116SOL    HW138984   2.801   1.600   2.152 -2.0251 -1.2286  0.3833
 9116SOL    HW238985   2.777   1.457   2.140 -0.2202  0.5419  1.2315
 9117SOL     OW38986   4.406   4.000   1.217 -0.1542 -0.5462  0.4068
 9117SOL    HW138987   4.444   3.989   1.129  0.6745  0.0621  0.6875
 9117SOL    HW238988   4.457   4.075   1.246 -0.3780 -0.8850  1.6444
 9118SOL     OW38989   0.560   0.040   4.745 -0.5303  0.2444 -0.7317
 9118SOL    HW138990   0.484   0.098   4.744  0.3411  1.3615 -0.3633
 9118SOL    HW238991   0.631   0.103   4.751  0.5612 -1.4115  3.1920
 9119SOL     OW38992   0.438   3.170   2.564 -0.2174  0.0544  0.1926
 9119SOL    HW138993   0.380   3.093   2.560 -1.0351  0.8328 -3.0986
 9119SOL    HW238994   0.451   3.175   2.658  2.3976 -0.5394 -0.1629
 9120SOL     OW38995   0.835   0.133  13.221 -0.3521 -0.2929 -0.3341
 9120SOL    HW138996   0.892   0.097  13.154  1.6301  1.6748  0.2675
 9120SOL    HW238997   0.814   0.216  13.179  0.4863  0.0203 -0.1442
 9121SOL     OW38998   3.591   0.617   8.774 -0.0714 -0.4799  0.1495
 9121SOL    HW138999   3.522   0.682   8.787  0.7239  0.5335 -0.7556
 9121SOL    HW239000   3.584   0.562   8.852  0.7124  1.4879  1.5829
 9122SOL     OW39001   1.902   2.611   7.977  0.3805 -0.5400 -0.5704
 9122SOL    HW139002   1.998   2.609   7.978  0.3730 -0.5001  0.1328
 9122SOL    HW239003   1.884   2.517   7.985  0.0121 -0.3967  0.2629
 9123SOL     OW39004   3.609   4.692  17.682  0.1974  0.3158 -0.8116
 9123SOL    HW139005   3.679   4.652  17.630 -0.0245 -1.2505  0.1029
 9123SOL    HW239006   3.555   4.613  17.693  2.0122 -0.7863  0.1772
 9124SOL     OW39007   0.454   1.506   0.933 -0.2569  0.6034 -0.0556
 9124SOL    HW139008   0.470   1.461   0.850  1.0002  0.1765  0.4127
 9124SOL    HW239009   0.531   1.563   0.927 -0.4033  0.6138 -1.7787
 9125SOL     OW39010   4.389   1.000  11.427  0.2006 -0.6338 -0.0648
 9125SOL    HW139011   4.302   1.032  11.452  0.0643  0.2194 -1.6774
 9125SOL    HW239012   4.390   0.906  11.447 -1.1170 -0.7332 -0.4835
 9126SOL     OW39013   0.883   0.818   7.661  0.1732 -0.0470 -0.2502
 9126SOL    HW139014   0.944   0.800   7.589 -0.0337  1.6907 -0.8806
 9126SOL    HW239015   0.900   0.740   7.713  0.3297 -0.9577 -1.6611
 9127SOL     OW39016   4.585   2.919   0.733 -0.5441  0.0741 -0.3014
 9127SOL    HW139017   4.673   2.883   0.728 -0.5612  0.0506 -0.4373
 9127SOL    HW239018   4.558   2.885   0.818  0.9934 -0.0144  0.1432
 9128SOL     OW39019   0.133   0.829   4.385  0.4774  0.6016  0.3455
 9128SOL    HW139020   0.088   0.789   4.459 -0.6173  0.4120 -0.4045
 9128SOL    HW239021   0.060   0.829   4.322  1.5010  1.3112 -0.8378
 9129SOL     OW39022   3.359   2.293   9.489 -0.4471  0.5822 -0.1241
 9129SOL    HW139023   3.398   2.372   9.450  2.6539 -0.9180 -0.0291
 9129SOL    HW239024   3.444   2.254   9.510 -1.8709 -2.0703  0.6922
 9130SOL     OW39025   2.236   2.677   3.350  0.0596 -0.0305  0.1679
 9130SOL    HW139026   2.326   2.691   3.377  1.0098  0.9714 -3.4179
 9130SOL    HW239027   2.207   2.755   3.302 -0.2661  0.7071  1.5645
 9131SOL     OW39028   2.556   4.521   7.514 -0.8228 -0.2544  0.1294
 9131SOL    HW139029   2.491   4.454   7.492 -1.8530  0.2993  1.4463
 9131SOL    HW239030   2.531   4.529   7.606 -0.9866  0.2487  0.0396
 9132SOL     OW39031   0.027   1.968   8.872 -0.5272 -0.3401 -0.8330
 9132SOL    HW139032   4.670   1.962   8.847 -0.7627 -1.4508  0.3234
 9132SOL    HW239033   0.068   1.954   8.787 -1.1795  2.4191 -1.6158
 9133SOL     OW39034   2.379   3.074  13.598 -0.2462 -0.5375 -0.9810
 9133SOL    HW139035   2.293   3.031  13.593 -0.6006  0.1959 -1.2635
 9133SOL    HW239036   2.364   3.096  13.506 -1.3874  0.6008 -0.5211
 9134SOL     OW39037   4.687   3.803   2.714 -0.1212 -0.1202  0.0880
 9134SOL    HW139038   4.645   3.760   2.789 -2.4420  0.4744 -0.8809
 9134SOL    HW239039   4.722   3.729   2.664  0.1352  0.4144 -0.5251
 9135SOL     OW39040   4.598   2.382   4.168 -0.0430  0.0890  0.4032
 9135SOL    HW139041   4.510   2.399   4.200  0.5331 -0.6788  2.3338
 9135SOL    HW239042   4.641   2.465   4.188  0.5084 -0.2121  0.4638
 9136SOL     OW39043   1.189   0.314  16.128 -0.0922 -0.2283  0.0926
 9136SOL    HW139044   1.103   0.275  16.111 -0.5231  1.3309 -1.3079
 9136SOL    HW239045   1.184   0.387  16.067  2.0168  1.2870  1.7712
 9137SOL     OW39046   3.162   4.064   6.472  0.0471  0.1133 -0.6788
 9137SOL    HW139047   3.238   4.045   6.416  0.4780 -0.5646  0.1234
 9137SOL    HW239048   3.138   4.154   6.450  1.8051  0.8772  0.5012
 9138SOL     OW39049   0.687   2.066   1.140  0.2399 -0.4271 -0.0298
 9138SOL    HW139050   0.646   2.009   1.074 -1.0568  1.3947 -0.7811
 9138SOL    HW239051   0.710   2.139   1.083 -0.3843  0.4583  0.8808
 9139SOL     OW39052   1.202   2.917  11.216  0.1370  0.1413  0.2998
 9139SOL    HW139053   1.205   2.904  11.311 -1.1876 -1.7870  0.0873
 9139SOL    HW239054   1.107   2.926  11.207 -0.0148 -0.3429  1.3959
 9140SOL     OW39055   0.143   2.557   0.043  0.5458  0.1254  0.7714
 9140SOL    HW139056   0.233   2.580   0.065  0.3568 -1.8152  3.5607
 9140SOL    HW239057   0.112   2.520   0.126 -0.2654  0.8063  0.7709
 9141SOL     OW39058   1.064   4.521  17.150  0.2508 -0.0545  0.0013
 9141SOL    HW139059   1.116   4.599  17.134  0.4692 -0.1097  0.4589
 9141SOL    HW239060   1.097   4.489  17.234  0.0200 -1.2088 -0.3376
 9142SOL     OW39061   3.392   0.023   8.375 -0.0649 -0.3135  0.1378
 9142SOL    HW139062   3.340   0.100   8.353  3.3054  1.7775 -0.5728
 9142SOL    HW239063   3.447   0.005   8.298 -0.8683 -2.0449 -0.0258
 9143SOL     OW39064   1.013   3.955  16.176  0.4339  0.0954  0.7647
 9143SOL    HW139065   1.000   3.909  16.259  0.2690 -0.7841  0.2532
 9143SOL    HW239066   1.102   3.988  16.191  0.4065  0.1136  0.8834
 9144SOL     OW39067   2.263   0.427  11.340 -0.3988  0.6652 -0.7797
 9144SOL    HW139068   2.354   0.403  11.359 -1.0921 -2.0181 -0.8155
 9144SOL    HW239069   2.250   0.403  11.248 -1.8155  0.2612 -0.4739
 9145SOL     OW39070   2.922   4.475   6.789  0.0173 -0.3059  0.2354
 9145SOL    HW139071   2.867   4.432   6.854 -0.2773 -2.2597 -1.3248
 9145SOL    HW239072   2.966   4.535   6.849  0.6752  0.6876 -1.2292
 9146SOL     OW39073   4.080   2.382  13.936 -0.0879  0.3504  0.2606
 9146SOL    HW139074   3.988   2.378  13.963  0.7549  1.0116  3.2889
 9146SOL    HW239075   4.095   2.476  13.929  0.1544  0.4173  1.6556
 9147SOL     OW39076   3.597   3.347  15.728  0.1990 -0.2857 -0.0473
 9147SOL    HW139077   3.681   3.368  15.688  0.9464  0.6264  1.9587
 9147SOL    HW239078   3.545   3.343  15.648  0.7320 -0.7439 -0.3692
 9148SOL     OW39079   0.603   3.628   7.257  0.6461  0.5151 -0.2906
 9148SOL    HW139080   0.585   3.685   7.183  2.6498 -0.1251 -1.2745
 9148SOL    HW239081   0.566   3.551   7.216 -1.7560  1.0649  0.8370
 9149SOL     OW39082   3.166   4.121  17.448 -0.1876  0.0913 -0.2126
 9149SOL    HW139083   3.092   4.169  17.486 -1.4910 -2.3871  0.3785
 9149SOL    HW239084   3.241   4.180  17.460 -0.2086  0.3625 -1.3928
 9150SOL     OW39085   4.005   0.715   0.809  0.7325  0.3399  0.8064
 9150SOL    HW139086   3.934   0.777   0.818 -0.2743 -0.7840  0.5814
 9150SOL    HW239087   3.956   0.633   0.810  1.2901 -0.0065 -3.5812
 9151SOL     OW39088   4.060   1.014  12.444  0.0805  0.1402  0.0143
 9151SOL    HW139089   4.093   1.010  12.354 -2.4253 -1.5288 -0.8434
 9151SOL    HW239090   4.036   1.105  12.461 -1.2700 -0.0806 -0.6414
 9152SOL     OW39091   0.592   3.365   4.719  0.3916 -0.2490 -0.0664
 9152SOL    HW139092   0.625   3.310   4.649 -0.2529  2.0401 -2.1598
 9152SOL    HW239093   0.640   3.333   4.795 -0.6709  1.1237  1.1857
 9153SOL     OW39094   2.614   1.649   5.165  0.0929  0.2214  0.4916
 9153SOL    HW139095   2.661   1.709   5.107  1.3767  0.0421  1.3498
 9153SOL    HW239096   2.674   1.638   5.238 -0.5202 -1.1394  0.7991
 9154SOL     OW39097   4.335   3.663   9.375 -0.2527 -0.0686 -0.1476
 9154SOL    HW139098   4.304   3.584   9.418 -0.1541 -1.0823 -1.9255
 9154SOL    HW239099   4.323   3.642   9.282  1.0135 -2.5155  0.2395
 9155SOL     OW39100   4.193   2.546   8.665 -0.6426 -0.4235 -0.0209
 9155SOL    HW139101   4.286   2.568   8.669 -0.1863 -2.2887 -0.2858
 9155SOL    HW239102   4.186   2.563   8.571 -0.5662  0.5283  0.1495
 9156SOL     OW39103   1.545   1.454   4.588 -0.0617 -0.2307 -0.1359
 9156SOL    HW139104   1.569   1.420   4.502  1.1771 -1.6882  0.7791
 9156SOL    HW239105   1.549   1.376   4.644 -0.1598  0.9838  1.5802
 9157SOL     OW39106   4.444   2.682   7.440  0.3579 -0.3057 -0.0807
 9157SOL    HW139107   4.503   2.650   7.508 -1.1511 -3.3558 -0.2219
 9157SOL    HW239108   4.373   2.705   7.499 -0.6198  0.8086 -1.6871
 9158SOL     OW39109   1.835   0.363  15.682 -0.2495 -0.2177  0.7768
 9158SOL    HW139110   1.877   0.354  15.767 -0.5280 -0.0659  0.9333
 9158SOL    HW239111   1.810   0.455  15.689 -0.4902 -0.0154 -2.5932
 9159SOL     OW39112   3.891   1.114  15.080  0.2058  0.0647  0.2926
 9159SOL    HW139113   3.830   1.186  15.067 -0.6806 -0.7781 -0.2363
 9159SOL    HW239114   3.920   1.144  15.167  0.3622 -0.5365  0.4465
 9160SOL     OW39115   1.802   3.682  16.668  0.0927  0.1243  0.6638
 9160SOL    HW139116   1.800   3.713  16.577  1.2201 -0.9249  0.2881
 9160SOL    HW239117   1.895   3.671  16.684  0.4882 -1.9016 -3.0177
 9161SOL     OW39118   4.215   3.760   7.378  0.2725 -0.0884 -0.4166
 9161SOL    HW139119   4.129   3.739   7.414  0.2425 -0.9847 -0.9948
 9161SOL    HW239120   4.194   3.758   7.284 -3.1621 -2.4806  0.4043
 9162SOL     OW39121   0.502   4.029   5.143 -0.0111 -0.0031 -0.2111
 9162SOL    HW139122   0.445   4.054   5.070 -1.4942 -1.7828  0.3134
 9162SOL    HW239123   0.586   4.031   5.098 -1.0730 -0.5162 -2.2082
 9163SOL     OW39124   3.412   3.418   4.717  0.1399 -0.0204 -1.0264
 9163SOL    HW139125   3.468   3.341   4.726 -1.0568 -0.8395 -0.6300
 9163SOL    HW239126   3.387   3.425   4.625 -0.5479 -0.8749 -0.9067
 9164SOL     OW39127   3.241   3.101  11.429  0.4865  0.1096  0.8203
 9164SOL    HW139128   3.303   3.096  11.356 -1.9889  0.5295 -1.3404
 9164SOL    HW239129   3.192   3.020  11.416 -0.0968  0.5198  0.4612
 9165SOL     OW39130   4.699   3.615  10.642  0.3124  0.5131  0.0973
 9165SOL    HW139131   4.681   3.585  10.731  0.4681 -0.5648 -0.2411
 9165SOL    HW239132   0.018   3.546  10.605  0.3426  0.1611  0.7900
 9166SOL     OW39133   1.689   4.616   3.176 -0.2442  0.0833 -0.1222
 9166SOL    HW139134   1.653   4.681   3.236 -1.0855 -1.1701  0.7392
 9166SOL    HW239135   1.758   4.579   3.230  0.5042 -2.3923 -2.7411
 9167SOL     OW39136   1.575   4.376   9.374  0.2658  0.1522  0.7295
 9167SOL    HW139137   1.617   4.363   9.459  0.6099  1.4745  0.7681
 9167SOL    HW239138   1.486   4.348   9.394 -0.2827  1.0346 -0.4163
 9168SOL     OW39139   1.375   1.520   5.835 -0.1952  1.1308  0.2110
 9168SOL    HW139140   1.382   1.494   5.743  0.9217  0.4838  0.4808
 9168SOL    HW239141   1.299   1.578   5.828 -1.8178 -1.2333 -1.9037
 9169SOL     OW39142   3.142   3.255  11.646 -0.1318 -0.6001 -0.3199
 9169SOL    HW139143   3.186   3.207  11.575 -0.2548  0.2680 -0.9780
 9169SOL    HW239144   3.068   3.293  11.598 -2.1708 -2.2185  1.5443
 9170SOL     OW39145   1.665   2.273   4.135 -0.1277 -0.3586 -0.3612
 9170SOL    HW139146   1.622   2.239   4.213 -0.3274  1.3979  0.3017
 9170SOL    HW239147   1.736   2.322   4.177 -0.2717 -0.8594  0.4546
 9171SOL     OW39148   0.055   2.579   2.114 -0.0593 -0.5641 -0.1727
 9171SOL    HW139149   0.101   2.658   2.083  2.1506 -1.7536  0.0749
 9171SOL    HW239150   0.127   2.549   2.170 -0.7479 -1.4199  0.2532
 9172SOL     OW39151   0.047   2.395  13.890 -0.7075  0.0973 -0.7414
 9172SOL    HW139152   0.042   2.469  13.829  0.1633  0.9132  0.1752
 9172SOL    HW239153   0.142   2.388  13.889 -0.9309 -3.3969  2.2392
 9173SOL     OW39154   3.340   1.765   1.584  0.3142 -0.0875  0.5302
 9173SOL    HW139155   3.333   1.854   1.548  1.0641 -0.2398  0.0341
 9173SOL    HW239156   3.377   1.776   1.672 -1.9075 -0.8381  1.5860
 9174SOL     OW39157   2.065   4.545   8.867 -0.4741  0.1696 -0.0666
 9174SOL    HW139158   2.108   4.487   8.931 -0.3951  0.1751 -0.1147
 9174SOL    HW239159   2.114   4.622   8.893  0.2246  0.4832 -2.3092
 9175SOL     OW39160   4.273   1.625   3.623  0.0461  0.4782  0.0092
 9175SOL    HW139161   4.185   1.634   3.586 -0.5411  0.3672  1.3767
 9175SOL    HW239162   4.289   1.713   3.657 -0.6386  1.2644 -1.6913
 9176SOL     OW39163   1.006   0.031   6.608 -0.0694 -0.6700  0.1077
 9176SOL    HW139164   1.022   0.034   6.703 -0.9461  0.0428  0.2319
 9176SOL    HW239165   1.074   4.711   6.570  0.1151  0.1969 -0.8339
 9177SOL     OW39166   3.781   3.277  11.108  0.2954 -0.1364 -0.1496
 9177SOL    HW139167   3.863   3.275  11.156  1.6527  3.0207 -2.2924
 9177SOL    HW239168   3.786   3.208  11.042  1.8402  1.4695 -1.7044
 9178SOL     OW39169   0.524   0.327   6.746 -0.6062 -0.9784  0.4612
 9178SOL    HW139170   0.453   0.381   6.713  0.6611 -0.2180 -1.0049
 9178SOL    HW239171   0.498   0.320   6.838  1.5407  1.4243  1.2249
 9179SOL     OW39172   0.761   0.331   5.441  0.1115 -0.4414  0.0603
 9179SOL    HW139173   0.729   0.260   5.385  0.0775  0.4957 -1.1063
 9179SOL    HW239174   0.787   0.393   5.374  0.3106 -1.1149 -0.4918
 9180SOL     OW39175   1.441   0.058   5.001 -0.2168  0.3229  0.1791
 9180SOL    HW139176   1.487   0.131   5.041 -1.4391  1.4329 -0.4200
 9180SOL    HW239177   1.506   0.001   4.960  0.0746 -0.8961  2.3579
 9181SOL     OW39178   2.303   2.254  10.290 -0.3436 -0.1761 -0.2623
 9181SOL    HW139179   2.315   2.329  10.232 -1.9496 -1.1929 -1.9238
 9181SOL    HW239180   2.218   2.279  10.326  0.6009 -0.1287  1.9226
 9182SOL     OW39181   1.199   2.380  12.169 -0.1497  0.1580  0.3012
 9182SOL    HW139182   1.233   2.384  12.258 -1.2456  1.0027  0.6886
 9182SOL    HW239183   1.283   2.375  12.123 -0.0510 -0.7775  0.5824
 9183SOL     OW39184   0.884   3.315  11.408  0.6233 -0.4909 -0.6612
 9183SOL    HW139185   0.881   3.258  11.484  0.4140  0.8471  0.3343
 9183SOL    HW239186   0.919   3.397  11.445 -0.0988 -0.8660  0.8560
 9184SOL     OW39187   0.911   3.444   5.155  0.2944  0.0404  0.0848
 9184SOL    HW139188   0.909   3.447   5.059 -3.0388  0.2961  0.1591
 9184SOL    HW239189   0.930   3.533   5.186  1.3356 -0.3177  0.4672
 9185SOL     OW39190   3.835   3.224   8.697 -0.3576  0.0914  0.1645
 9185SOL    HW139191   3.896   3.223   8.772 -1.6567 -0.8315  1.2088
 9185SOL    HW239192   3.784   3.143   8.692 -0.8676  0.3861  0.5595
 9186SOL     OW39193   2.186   2.821   3.814 -0.3603  0.2463 -0.4445
 9186SOL    HW139194   2.121   2.865   3.759 -1.0347  1.3107  1.2030
 9186SOL    HW239195   2.257   2.812   3.751  1.2421 -0.7653  1.4985
 9187SOL     OW39196   2.566   4.727  16.613 -0.1181 -0.7276 -0.4387
 9187SOL    HW139197   2.624   4.678  16.671 -0.0350 -0.7549 -0.5430
 9187SOL    HW239198   2.502   4.656  16.614  0.5869 -1.3405  1.1791
 9188SOL     OW39199   3.769   1.870  17.253 -0.2834 -0.4514 -0.1175
 9188SOL    HW139200   3.863   1.879  17.269 -0.4871  0.9539  0.3185
 9188SOL    HW239201   3.764   1.935  17.182 -3.3682 -0.6660 -0.1144
 9189SOL     OW39202   2.448   4.429   2.703 -0.4645 -0.4795 -0.1214
 9189SOL    HW139203   2.499   4.349   2.708  1.0585  0.3604 -2.1754
 9189SOL    HW239204   2.491   4.489   2.763  0.3509  0.4388 -1.6294
 9190SOL     OW39205   0.665   1.634   0.860  0.2473 -0.6890  0.1276
 9190SOL    HW139206   0.747   1.662   0.901  0.1426  1.1897 -0.9494
 9190SOL    HW239207   0.660   1.686   0.780 -2.5867  0.9287  1.3471
 9191SOL     OW39208   2.254   0.256   0.974 -0.5768 -0.1986 -0.4521
 9191SOL    HW139209   2.231   0.319   0.906  1.4865  1.4270  0.3581
 9191SOL    HW239210   2.218   0.309   1.046  2.0891  2.0134 -0.7546
 9192SOL     OW39211   1.981   3.115  10.820  0.2665 -0.2577 -0.3036
 9192SOL    HW139212   2.002   3.208  10.814  0.9296 -0.3600  0.4514
 9192SOL    HW239213   2.020   3.081  10.901  1.6435  0.1104 -0.8100
 9193SOL     OW39214   0.996   4.287   4.441  0.3086  0.1976 -0.1228
 9193SOL    HW139215   0.915   4.317   4.481  1.7150  2.3951  1.0909
 9193SOL    HW239216   0.950   4.237   4.374 -0.6330  0.3569  0.4019
 9194SOL     OW39217   3.901   0.163   1.486  0.1377  0.2132  0.4016
 9194SOL    HW139218   3.822   0.208   1.456  1.1194  1.1301 -0.8507
 9194SOL    HW239219   3.882   0.137   1.576 -0.6115  1.0394  0.4855
 9195SOL     OW39220   0.715   1.840  16.160  0.7689 -0.1121 -0.4696
 9195SOL    HW139221   0.773   1.782  16.111  0.7026 -0.1478 -0.5066
 9195SOL    HW239222   0.631   1.818  16.120  0.7568  1.4871 -1.3198
 9196SOL     OW39223   2.418   0.520  17.627 -0.0787 -0.2115 -0.3521
 9196SOL    HW139224   2.471   0.557  17.698  0.5669 -1.1211 -0.3633
 9196SOL    HW239225   2.353   0.591  17.628 -0.8649 -0.9242 -0.3733
 9197SOL     OW39226   4.147   0.441   2.524 -0.0248  0.4576  0.0934
 9197SOL    HW139227   4.138   0.534   2.544  1.6878  0.7606 -0.5086
 9197SOL    HW239228   4.100   0.432   2.440  2.2051  1.1220 -1.2210
 9198SOL     OW39229   1.503   2.150  13.895  0.0828 -0.3259 -0.0576
 9198SOL    HW139230   1.485   2.066  13.852 -1.5141  1.5351 -3.0178
 9198SOL    HW239231   1.524   2.189  13.810  0.1907 -1.4087 -0.5301
 9199SOL     OW39232   1.255   0.006   2.136  0.1504 -0.0503 -0.1408
 9199SOL    HW139233   1.284   0.002   2.227  1.1673  1.3435 -0.4069
 9199SOL    HW239234   1.250   4.653   2.101  2.0477  0.5751 -1.9836
 9200SOL     OW39235   3.646   1.790   8.120  0.3770  0.7194 -0.2931
 9200SOL    HW139236   3.599   1.736   8.184  2.0155 -0.7604 -0.3183
 9200SOL    HW239237   3.735   1.808   8.151  1.0964 -0.6563 -1.5412
 9201SOL     OW39238   2.845   2.841   9.499 -0.8316  0.5981 -0.4639
 9201SOL    HW139239   2.915   2.778   9.518 -1.9789 -0.7474 -0.6487
 9201SOL    HW239240   2.882   2.920   9.538 -1.5842  0.2107  1.0080
 9202SOL     OW39241   4.551   3.836   6.782  0.1633 -0.4190 -0.5927
 9202SOL    HW139242   4.608   3.911   6.799 -0.2351 -0.0815 -0.7341
 9202SOL    HW239243   4.618   3.770   6.799  1.1874  1.2937  1.8594
 9203SOL     OW39244   2.453   2.906  13.890 -0.5742  0.6850 -0.0164
 9203SOL    HW139245   2.430   2.814  13.899  2.8014 -0.1320  0.3874
 9203SOL    HW239246   2.370   2.944  13.919 -1.7152  0.4141 -2.8430
 9204SOL     OW39247   4.266   2.243   4.997 -0.2841  0.5616 -0.2521
 9204SOL    HW139248   4.345   2.202   5.033  0.0304  3.0913  1.9559
 9204SOL    HW239249   4.218   2.171   4.956 -0.8676  0.6697  0.2361
 9205SOL     OW39250   4.529   2.992   9.074  0.3006  0.1081  0.1441
 9205SOL    HW139251   4.486   2.909   9.097 -1.1747  0.9698  0.5200
 9205SOL    HW239252   4.523   2.987   8.978  2.6970 -2.1391  0.1040
 9206SOL     OW39253   4.005   2.790   7.799 -0.2070 -0.3204 -0.6918
 9206SOL    HW139254   4.083   2.733   7.800  0.1078  0.1388  2.8045
 9206SOL    HW239255   3.950   2.742   7.862 -0.4857  1.9259  0.7622
 9207SOL     OW39256   2.158   3.245   3.957 -0.1930 -0.3399  0.3639
 9207SOL    HW139257   2.210   3.301   4.015 -2.1301  3.1869 -1.3110
 9207SOL    HW239258   2.217   3.262   3.884 -0.1346  0.4047  0.5819
 9208SOL     OW39259   2.793   1.951  11.519  0.4742  0.9299  0.6359
 9208SOL    HW139260   2.881   1.947  11.557  0.7523 -0.4738 -0.1599
 9208SOL    HW239261   2.811   1.993  11.434  1.2216 -5.1750 -2.2134
 9209SOL     OW39262   3.633   4.391   1.220  0.1522  0.2155 -0.8659
 9209SOL    HW139263   3.583   4.448   1.161 -0.2930  0.1649 -0.5411
 9209SOL    HW239264   3.693   4.456   1.255 -0.3916  1.0063 -1.3903
 9210SOL     OW39265   3.917   2.311   1.432 -0.4036 -0.1052  0.2767
 9210SOL    HW139266   3.842   2.309   1.492 -0.4929  0.7836  0.1869
 9210SOL    HW239267   3.917   2.221   1.398  3.7498  0.0262 -0.0268
 9211SOL     OW39268   2.442   0.898  15.950  0.4506 -0.1902 -0.0908
 9211SOL    HW139269   2.521   0.948  15.971 -0.7759  0.8579  1.9845
 9211SOL    HW239270   2.419   0.873  16.039 -1.8109  1.9834 -0.0652
 9212SOL     OW39271   3.582   1.716  16.932  0.1755 -0.0226  1.0569
 9212SOL    HW139272   3.506   1.747  16.982 -0.4280 -0.6075  0.5019
 9212SOL    HW239273   3.553   1.627  16.912  0.8551  0.3843 -1.6238
 9213SOL     OW39274   2.743   1.639   3.292 -0.1791 -0.4812 -0.0651
 9213SOL    HW139275   2.779   1.620   3.206  0.3850 -0.8127  0.2460
 9213SOL    HW239276   2.725   1.549   3.320 -3.3688  0.5570  1.3113
 9214SOL     OW39277   2.383   4.537   8.178 -0.8370 -0.1135 -0.4360
 9214SOL    HW139278   2.459   4.509   8.126 -0.7161 -0.6392  0.0177
 9214SOL    HW239279   2.424   4.527   8.264 -0.6856 -2.4173 -0.7625
 9215SOL     OW39280   2.520   1.324   3.196  0.3303  0.9861 -0.0888
 9215SOL    HW139281   2.454   1.382   3.160 -0.1461  0.1458 -0.5646
 9215SOL    HW239282   2.532   1.262   3.124 -0.1602 -0.3065  0.9400
 9216SOL     OW39283   3.524   3.053   2.439  0.4789  0.1715 -0.2941
 9216SOL    HW139284   3.454   3.059   2.373 -0.7934 -1.3357  0.9142
 9216SOL    HW239285   3.485   2.996   2.505  0.1912 -1.8035 -2.1604
 9217SOL     OW39286   2.974   4.420   2.302  0.0464 -0.2239  0.2664
 9217SOL    HW139287   2.896   4.449   2.255  0.0248 -0.3900  0.2029
 9217SOL    HW239288   2.956   4.457   2.389 -0.8688 -0.8219  0.3246
 9218SOL     OW39289   2.524   3.145   6.523  0.0213 -0.6804 -0.4114
 9218SOL    HW139290   2.463   3.207   6.482  3.7806  2.1364 -1.7876
 9218SOL    HW239291   2.570   3.200   6.586  1.5979 -0.3541 -1.8511
 9219SOL     OW39292   1.158   4.016  13.913  0.3678  0.4202  0.6231
 9219SOL    HW139293   1.131   4.093  13.863  1.8124  0.6354  0.1895
 9219SOL    HW239294   1.164   3.950  13.845 -0.6988 -1.6605  2.5485
 9220SOL     OW39295   2.986   3.968   6.117 -0.5358 -0.1647  0.0564
 9220SOL    HW139296   3.055   4.034   6.129  0.4184 -1.3428  1.0190
 9220SOL    HW239297   3.012   3.891   6.167 -1.3393 -0.6356 -0.2622
 9221SOL     OW39298   3.473   3.831  12.537 -0.1084 -0.5993  0.7191
 9221SOL    HW139299   3.503   3.904  12.483 -0.2799 -1.4946 -0.5808
 9221SOL    HW239300   3.486   3.864  12.626  0.4507 -0.1891  0.4801
 9222SOL     OW39301   3.111   0.317   0.703  0.0385  0.1270  0.4300
 9222SOL    HW139302   3.135   0.383   0.637 -1.2607  1.2041  1.0359
 9222SOL    HW239303   3.031   0.286   0.662  1.0339  0.8604 -2.0607
 9223SOL     OW39304   2.499   3.576   6.455  0.0117 -0.6558  0.4170
 9223SOL    HW139305   2.511   3.498   6.401  0.6375 -0.1797 -0.1357
 9223SOL    HW239306   2.586   3.614   6.455 -0.6792  0.9230  3.9926
 9224SOL     OW39307   0.341   3.591   8.842 -0.1325  0.2591  0.0669
 9224SOL    HW139308   0.394   3.671   8.842  1.4882 -0.8164 -1.5250
 9224SOL    HW239309   0.342   3.564   8.934 -2.2013 -1.3265 -0.3915
 9225SOL     OW39310   0.833   4.083   4.341  0.2431 -0.0844 -0.7345
 9225SOL    HW139311   0.776   4.084   4.263 -0.2478 -0.2528 -0.3800
 9225SOL    HW239312   0.880   4.001   4.330  4.2335  1.8889  1.5291
 9226SOL     OW39313   3.107   1.356   6.504  0.0960  0.6879  0.4570
 9226SOL    HW139314   3.045   1.291   6.472  1.6322  0.9112 -2.9956
 9226SOL    HW239315   3.042   1.426   6.513  0.5563  0.7447  3.6031
 9227SOL     OW39316   4.482   2.052   6.189 -0.3282  0.3293  0.6792
 9227SOL    HW139317   4.499   1.959   6.204 -0.7016  0.0558 -0.5539
 9227SOL    HW239318   4.509   2.064   6.098 -1.0675  1.8368  0.6611
 9228SOL     OW39319   1.593   2.151   7.814 -0.8865 -0.1935  0.1347
 9228SOL    HW139320   1.555   2.216   7.872  0.5433  0.5117  0.2733
 9228SOL    HW239321   1.635   2.090   7.875 -0.1653 -2.5468 -2.7070
 9229SOL     OW39322   2.176   2.862  16.461 -0.2223  0.5791 -0.4153
 9229SOL    HW139323   2.174   2.946  16.415  0.8901  0.4616 -0.6736
 9229SOL    HW239324   2.243   2.881  16.527 -0.5408 -0.0745  0.0997
 9230SOL     OW39325   3.561   0.663  15.642  0.4355  0.3551  0.9414
 9230SOL    HW139326   3.639   0.701  15.682  1.3420  0.7270 -1.1478
 9230SOL    HW239327   3.564   0.693  15.551  0.6261  2.3708  1.6282
 9231SOL     OW39328   0.372   3.592  16.206 -0.0933  0.1170  0.2082
 9231SOL    HW139329   0.460   3.574  16.171  0.8918  1.5949  1.9185
 9231SOL    HW239330   0.378   3.687  16.196 -0.2269  0.1716  0.6664
 9232SOL     OW39331   3.574   1.430  10.594 -0.1651 -0.0730 -0.0503
 9232SOL    HW139332   3.601   1.411  10.504  2.5448 -2.2818  1.2133
 9232SOL    HW239333   3.551   1.342  10.625  0.3918 -0.8160 -1.7319
 9233SOL     OW39334   4.293   3.321  15.870 -0.1255 -0.3865  0.4609
 9233SOL    HW139335   4.293   3.362  15.784 -0.9820 -1.2180  0.0667
 9233SOL    HW239336   4.224   3.377  15.906 -0.2222 -0.5561  0.5383
 9234SOL     OW39337   3.230   1.838  13.655  0.5394 -0.2433 -0.5486
 9234SOL    HW139338   3.325   1.849  13.662  0.7830 -1.6519 -1.7084
 9234SOL    HW239339   3.212   1.829  13.562  3.7678 -1.8523 -1.0304
 9235SOL     OW39340   0.194   1.152   9.517 -0.0139 -0.3936  0.2945
 9235SOL    HW139341   0.195   1.057   9.503 -0.6540 -0.2758 -0.5540
 9235SOL    HW239342   0.217   1.180   9.428  1.5452 -0.9459  0.5337
 9236SOL     OW39343   3.882   4.101   2.670 -1.2999 -0.3264 -0.0585
 9236SOL    HW139344   3.890   4.196   2.658 -0.3278 -0.6906 -2.2837
 9236SOL    HW239345   3.843   4.072   2.587  1.3868  0.8164 -1.7213
 9237SOL     OW39346   0.074   3.408   7.675 -0.2272  0.0619 -0.1473
 9237SOL    HW139347   0.053   3.467   7.602  0.8523 -0.8509 -1.2074
 9237SOL    HW239348   0.033   3.325   7.653  0.8086 -0.2776 -0.8042
 9238SOL     OW39349   4.037   3.071  10.765 -0.0703 -0.6185  0.0240
 9238SOL    HW139350   3.994   3.117  10.693 -1.1783 -1.6437  0.0283
 9238SOL    HW239351   3.963   3.058  10.824  1.1767 -3.9566  0.8365
 9239SOL     OW39352   4.636   1.433  15.638  0.9690 -0.2333 -0.3161
 9239SOL    HW139353   4.647   1.481  15.556 -2.5356 -0.0002 -0.6172
 9239SOL    HW239354   4.651   1.506  15.699 -1.1897 -0.8353  0.9376
 9240SOL     OW39355   2.087   1.379   5.237 -0.1083 -0.5304 -0.8068
 9240SOL    HW139356   2.182   1.379   5.234 -0.0410 -1.9764  1.8127
 9240SOL    HW239357   2.068   1.473   5.235 -1.1600 -0.7010  1.1277
 9241SOL     OW39358   0.607   1.451  10.370  0.8037 -0.8568 -0.0529
 9241SOL    HW139359   0.544   1.400  10.422 -0.3548 -0.5365 -1.1282
 9241SOL    HW239360   0.556   1.531  10.355  2.3312  0.3324  1.1440
 9242SOL     OW39361   1.732   0.314   9.910 -0.0778 -0.0318  0.7111
 9242SOL    HW139362   1.730   0.276   9.822 -0.8067 -0.4489  0.9059
 9242SOL    HW239363   1.647   0.358   9.906  0.5580  1.3683  2.4125
 9243SOL     OW39364   0.185   0.051   8.650 -0.1128  0.0480  0.0672
 9243SOL    HW139365   0.119   0.071   8.584  0.0883  1.8938  0.4343
 9243SOL    HW239366   0.127   0.082   8.720  0.2071 -0.2248  0.4489
 9244SOL     OW39367   4.387   4.476   2.057 -0.1044  0.5861  0.2121
 9244SOL    HW139368   4.313   4.498   2.000  0.8694  1.7081 -0.6285
 9244SOL    HW239369   4.370   4.546   2.121  0.2431  1.5942 -0.7938
 9245SOL     OW39370   0.532   2.203   8.528 -0.0612 -0.0661 -0.7768
 9245SOL    HW139371   0.596   2.132   8.539  0.3441  0.4597  0.1840
 9245SOL    HW239372   0.585   2.282   8.521 -0.1862  0.4009  3.9527
 9246SOL     OW39373   4.198   3.644   7.106  0.0279  0.0403  0.0338
 9246SOL    HW139374   4.164   3.564   7.067  0.3951 -0.3893  0.5830
 9246SOL    HW239375   4.250   3.682   7.035  0.7075 -1.5505 -0.3186
 9247SOL     OW39376   4.593   2.427   6.198  0.1054  0.3656  0.0806
 9247SOL    HW139377   4.650   2.502   6.181  1.1232 -0.4257  0.0405
 9247SOL    HW239378   4.591   2.390   6.110 -0.4231 -0.0485  0.2617
 9248SOL     OW39379   0.954   0.079   4.156  0.2822  0.0723 -0.0805
 9248SOL    HW139380   0.881   0.033   4.197  1.1657  0.5508  2.0386
 9248SOL    HW239381   0.947   0.159   4.208 -1.9198  1.6558 -2.7600
 9249SOL     OW39382   3.570   3.762   0.328 -0.1910  0.0921 -0.1808
 9249SOL    HW139383   3.583   3.678   0.372  1.7107 -0.0092 -0.9079
 9249SOL    HW239384   3.475   3.762   0.340  0.0151 -0.8033  1.4306
 9250SOL     OW39385   0.431   1.004  13.324 -0.0494 -0.4899  0.0950
 9250SOL    HW139386   0.337   0.985  13.318  0.2004 -1.6920 -0.1008
 9250SOL    HW239387   0.440   1.088  13.280  0.6895 -0.1065  0.9846
 9251SOL     OW39388   2.401   3.033  14.228 -0.1563  1.1062  0.4565
 9251SOL    HW139389   2.442   3.043  14.142  1.4723 -0.9570  1.0022
 9251SOL    HW239390   2.480   3.016  14.279  0.7429  0.8341 -1.0207
 9252SOL     OW39391   4.177   1.177  13.499 -0.3591 -0.6049  1.0708
 9252SOL    HW139392   4.206   1.252  13.551  1.5563 -0.1652 -0.6241
 9252SOL    HW239393   4.082   1.188  13.502 -0.0866  1.8848  0.4793
 9253SOL     OW39394   1.542   2.779   5.222 -0.4523 -0.2258  0.1701
 9253SOL    HW139395   1.629   2.820   5.214 -0.8330  0.6064  0.2959
 9253SOL    HW239396   1.488   2.842   5.175 -2.3670 -1.4089  0.7958
 9254SOL     OW39397   4.337   1.193   8.084  0.4701 -0.0402  0.0382
 9254SOL    HW139398   4.301   1.190   8.172  0.5368 -0.9046  0.0348
 9254SOL    HW239399   4.393   1.270   8.095  0.8645 -0.4062  0.6044
 9255SOL     OW39400   0.085   3.794   7.329 -0.2535  0.4298  0.4728
 9255SOL    HW139401   0.125   3.879   7.308  0.8532  0.0606  1.0881
 9255SOL    HW239402   0.017   3.786   7.262  0.2864 -1.4253  0.1705
 9256SOL     OW39403   0.220   2.121   2.783  0.0493 -0.1205 -0.0819
 9256SOL    HW139404   0.222   2.183   2.856 -0.1763  0.7189 -0.7822
 9256SOL    HW239405   0.170   2.052   2.827 -0.8229  1.0280  0.7343
 9257SOL     OW39406   0.276   0.821   2.219 -0.1295  0.2784  0.5026
 9257SOL    HW139407   0.204   0.760   2.202  0.6524  0.2746 -2.7468
 9257SOL    HW239408   0.353   0.766   2.206  0.6394  1.2027  1.1732
 9258SOL     OW39409   0.270   4.613   5.365 -0.2299 -0.0561 -0.8598
 9258SOL    HW139410   0.347   4.571   5.326  0.4480 -0.1841  0.5981
 9258SOL    HW239411   0.271   4.592   5.459 -0.8451 -0.1319 -0.8686
 9259SOL     OW39412   0.565   4.582  12.740  0.4799  0.0492  0.8509
 9259SOL    HW139413   0.577   4.502  12.689 -2.7706  0.0677  0.0485
 9259SOL    HW239414   0.489   4.547  12.787 -0.9746  3.7919  1.2961
 9260SOL     OW39415   3.940   1.220  11.631  0.1140  0.0931  0.0210
 9260SOL    HW139416   3.934   1.312  11.659 -0.3980  0.3895 -1.0567
 9260SOL    HW239417   3.852   1.191  11.655 -0.1702 -2.2770 -3.8861
 9261SOL     OW39418   1.239   3.081  15.605 -0.2777 -0.3118  0.3681
 9261SOL    HW139419   1.293   3.028  15.663 -2.5949 -0.8161  2.0528
 9261SOL    HW239420   1.214   3.148  15.669 -1.8330 -1.0165  0.4827
 9262SOL     OW39421   2.870   0.164   2.805 -0.1420 -0.0173 -0.4261
 9262SOL    HW139422   2.840   0.088   2.856  0.4688 -0.2992 -0.4919
 9262SOL    HW239423   2.802   0.184   2.741 -0.9224  1.0921  0.7612
 9263SOL     OW39424   1.005   1.205   7.021  0.1308  0.1926  0.2668
 9263SOL    HW139425   0.929   1.248   6.982 -0.6150  0.6008  2.1814
 9263SOL    HW239426   1.055   1.191   6.941 -0.3813  0.6858 -0.1391
 9264SOL     OW39427   3.360   0.465   0.431 -0.1230  0.0012  0.3939
 9264SOL    HW139428   3.286   0.462   0.370 -1.4402  0.6641  1.9748
 9264SOL    HW239429   3.393   0.555   0.422  2.0477 -0.9040 -0.8535
 9265SOL     OW39430   3.190   2.817   0.988 -0.8839  0.3006 -0.0469
 9265SOL    HW139431   3.129   2.862   0.930 -0.1219  1.6619  0.2122
 9265SOL    HW239432   3.197   2.732   0.945 -4.6451 -0.1275  0.2322
 9266SOL     OW39433   0.604   0.282  13.306  0.0802 -0.5389 -0.0428
 9266SOL    HW139434   0.527   0.225  13.298 -0.5344  0.1230  1.1280
 9266SOL    HW239435   0.673   0.221  13.332  1.4150  0.9780 -0.0678
 9267SOL     OW39436   3.394   2.837   6.476 -0.9467  0.0873 -0.1048
 9267SOL    HW139437   3.364   2.747   6.469  1.6447 -0.8554  0.8773
 9267SOL    HW239438   3.417   2.860   6.566  0.2195  0.5657 -0.5249
 9268SOL     OW39439   2.101   3.776   5.343  0.2201 -0.5464  0.0394
 9268SOL    HW139440   2.156   3.699   5.329  2.7034  1.3754 -0.7520
 9268SOL    HW239441   2.075   3.759   5.434  1.4516  0.4651  0.5686
 9269SOL     OW39442   0.369   1.231  17.612  0.4370 -0.7621 -0.1607
 9269SOL    HW139443   0.274   1.230  17.597 -0.2626  0.9793  4.2706
 9269SOL    HW239444   0.375   1.307  17.670  0.7461 -0.1500 -0.9942
 9270SOL     OW39445   1.437   0.734   9.539  0.1794 -0.2216 -0.1794
 9270SOL    HW139446   1.521   0.770   9.568  0.5785 -2.1334  1.0510
 9270SOL    HW239447   1.378   0.773   9.604 -3.6017 -2.2218 -2.4562
 9271SOL     OW39448   3.713   2.982   8.748 -0.1371 -0.4344 -0.9458
 9271SOL    HW139449   3.785   2.919   8.737 -0.7497 -1.1897 -0.6943
 9271SOL    HW239450   3.683   2.955   8.834  1.4531 -1.9517 -0.8591
 9272SOL     OW39451   0.422   4.498   0.872  0.2366  0.0031  0.5322
 9272SOL    HW139452   0.335   4.535   0.859  0.1445  0.1736  1.6590
 9272SOL    HW239453   0.481   4.556   0.822  0.6105 -0.1437  0.8061
 9273SOL     OW39454   4.673   3.276  10.594 -0.0929  0.1990  0.2146
 9273SOL    HW139455   0.009   3.325  10.554  0.1207  1.0389  1.6327
 9273SOL    HW239456   4.705   3.253  10.682  0.4812  0.8840  0.1850
 9274SOL     OW39457   2.722   3.948   3.167  0.1960  0.2474 -0.3271
 9274SOL    HW139458   2.718   3.899   3.085  1.1344  1.2069 -0.9480
 9274SOL    HW239459   2.737   4.039   3.141 -0.7998 -0.2869 -2.7512
 9275SOL     OW39460   0.679   3.807   0.695  0.0264  0.0116 -0.5042
 9275SOL    HW139461   0.758   3.815   0.641 -0.8717 -2.4030 -2.1480
 9275SOL    HW239462   0.647   3.897   0.696 -1.9767 -0.7307  2.1688
 9276SOL     OW39463   1.667   0.082   7.677  0.0620 -0.2231 -0.1858
 9276SOL    HW139464   1.623   0.027   7.741 -0.0784 -1.2870 -1.1916
 9276SOL    HW239465   1.629   0.060   7.591  0.0834 -1.5372  0.1334
 9277SOL     OW39466   2.761   3.362   9.465  0.3644  0.2475  0.2714
 9277SOL    HW139467   2.792   3.291   9.408  0.9643  0.7405 -0.0123
 9277SOL    HW239468   2.689   3.398   9.414  0.5276  0.2390  0.0368
 9278SOL     OW39469   3.410   2.082   7.209  0.5055 -0.2605  0.1097
 9278SOL    HW139470   3.329   2.134   7.213  0.7553  0.1016  0.5082
 9278SOL    HW239471   3.436   2.115   7.123 -4.8483  2.8501 -0.3552
 9279SOL     OW39472   1.867   4.720   9.091 -0.3554 -0.1855 -0.0760
 9279SOL    HW139473   1.792   0.023   9.047 -0.0903  0.1305 -0.2388
 9279SOL    HW239474   1.824   4.684   9.170  1.4369 -2.5716 -0.1740
 9280SOL     OW39475   0.435   2.385   2.675 -0.1640  0.2390  0.3621
 9280SOL    HW139476   0.359   2.441   2.664  0.4354  0.7034 -1.4150
 9280SOL    HW239477   0.448   2.375   2.770  0.8103  0.0022  0.2047
 9281SOL     OW39478   2.472   4.694  15.154  1.1044  0.6969 -0.2666
 9281SOL    HW139479   2.452   4.688  15.060  0.5192  0.6466 -0.1388
 9281SOL    HW239480   2.466   4.603  15.182  0.6722  0.9390  0.4393
 9282SOL     OW39481   4.443   4.583  12.140  0.5849 -0.0670 -0.3604
 9282SOL    HW139482   4.509   4.527  12.181 -0.5383  0.4271  2.1305
 9282SOL    HW239483   4.363   4.544  12.175  1.1115 -0.2754  0.6066
 9283SOL     OW39484   3.475   4.659   8.710  0.0374 -0.6434 -0.2088
 9283SOL    HW139485   3.422   4.631   8.784 -0.6323  0.9736 -0.0697
 9283SOL    HW239486   3.475   0.018   8.721 -0.3209 -0.7978  1.0260
 9284SOL     OW39487   0.018   0.088   8.855  0.5294 -0.2490 -0.4523
 9284SOL    HW139488   4.661   0.087   8.881  0.1837 -0.3182 -1.6863
 9284SOL    HW239489   0.043   0.027   8.925 -1.0619  3.0459  2.9892
 9285SOL     OW39490   1.588   4.157   5.296 -0.7708 -0.0233  0.2763
 9285SOL    HW139491   1.585   4.236   5.350 -1.8894  0.6929 -0.8412
 9285SOL    HW239492   1.494   4.136   5.304 -0.1030 -2.8536  0.8904
 9286SOL     OW39493   3.771   4.118  14.141  0.8973  0.0250  0.0300
 9286SOL    HW139494   3.816   4.195  14.176 -0.8539  1.8973 -1.7903
 9286SOL    HW239495   3.844   4.071  14.100  1.0599  1.1591 -0.9737
 9287SOL     OW39496   0.375   4.275   6.618 -0.2260  0.1410 -0.4952
 9287SOL    HW139497   0.434   4.215   6.665 -2.1343  1.4222  3.5594
 9287SOL    HW239498   0.409   4.358   6.651 -0.8539 -0.3185  1.3388
 9288SOL     OW39499   3.498   2.822   4.817  0.5189  0.0390  0.3240
 9288SOL    HW139500   3.444   2.748   4.846 -1.4680  0.5947 -1.9198
 9288SOL    HW239501   3.437   2.892   4.835 -0.9403 -0.4378 -2.6895
 9289SOL     OW39502   3.144   0.468   1.706 -0.1240 -0.0164  0.0387
 9289SOL    HW139503   3.139   0.372   1.709  1.9869 -0.1176  0.2976
 9289SOL    HW239504   3.216   0.481   1.644  0.5186  1.0400  1.0094
 9290SOL     OW39505   3.464   1.365   6.830 -0.2656 -0.5321 -0.2930
 9290SOL    HW139506   3.474   1.271   6.850  0.2203 -0.8332 -1.9744
 9290SOL    HW239507   3.377   1.352   6.792 -0.2436 -1.4070 -0.0563
 9291SOL     OW39508   0.482   3.255   6.163  0.5679 -0.5545 -0.0435
 9291SOL    HW139509   0.538   3.193   6.117  0.3924 -0.2085 -0.7174
 9291SOL    HW239510   0.426   3.284   6.092  1.1662  0.6755 -0.0215
 9292SOL     OW39511   3.326   0.831  17.662  0.0645 -0.2875  0.6769
 9292SOL    HW139512   3.405   0.858  17.614 -0.4169 -1.0476 -0.5592
 9292SOL    HW239513   3.256   0.848  17.598  1.5894 -1.5808 -1.3255
 9293SOL     OW39514   1.431   4.434   4.959  0.2010 -0.3715  0.3472
 9293SOL    HW139515   1.502   4.437   5.023 -0.1011 -0.1554  0.6680
 9293SOL    HW239516   1.450   4.347   4.925  1.2957  0.5972 -1.5456
 9294SOL     OW39517   3.512   2.896   4.008  0.0004 -0.0472 -0.0433
 9294SOL    HW139518   3.586   2.859   3.960 -1.3505 -2.1427 -0.5158
 9294SOL    HW239519   3.451   2.893   3.933 -0.5502  1.6142  0.3362
 9295SOL     OW39520   4.503   4.115   9.160  0.6750  0.0869 -0.4088
 9295SOL    HW139521   4.545   4.029   9.156 -2.9782 -1.7034 -1.0209
 9295SOL    HW239522   4.511   4.144   9.069  1.3150  0.9789 -0.0677
 9296SOL     OW39523   4.647   1.697   8.393 -0.2761 -0.0372  0.1235
 9296SOL    HW139524   4.699   1.619   8.374 -1.1223 -0.7717  0.8140
 9296SOL    HW239525   4.640   1.701   8.488  0.6821  0.9952  0.1404
 9297SOL     OW39526   2.900   0.190  12.472  0.0132 -0.5025  0.0282
 9297SOL    HW139527   2.840   0.217  12.542  0.5890 -0.6833  0.5942
 9297SOL    HW239528   2.945   0.116  12.512 -0.0836 -1.4959 -1.7033
 9298SOL     OW39529   1.442   2.672   6.288  0.3170 -0.4053  0.1545
 9298SOL    HW139530   1.386   2.727   6.233 -0.4575 -0.5216  0.8312
 9298SOL    HW239531   1.505   2.732   6.328  1.9894 -0.8458 -1.8227
 9299SOL     OW39532   3.227   1.277   7.942  1.0683  0.3232  0.0218
 9299SOL    HW139533   3.250   1.294   7.851  0.0437 -1.0482 -0.4982
 9299SOL    HW239534   3.168   1.202   7.932  1.0598  0.4212 -0.6494
 9300SOL     OW39535   0.025   1.909   5.663  0.1991 -0.0069 -0.4018
 9300SOL    HW139536   0.010   2.003   5.668 -1.7891 -0.3314 -0.3521
 9300SOL    HW239537   4.715   1.901   5.580  0.1823 -0.0664 -0.3866
 9301SOL     OW39538   2.148   4.097   0.171 -0.2893 -0.3403  0.4928
 9301SOL    HW139539   2.150   4.193   0.174 -1.0290 -0.3342  0.6463
 9301SOL    HW239540   2.202   4.077   0.094  0.9555  1.3319  0.9125
 9302SOL     OW39541   4.196   1.683  11.023 -0.2930  0.3814 -0.3328
 9302SOL    HW139542   4.130   1.663  11.089  1.1042  0.3791  1.0532
 9302SOL    HW239543   4.216   1.594  10.996  1.2264  0.4396  0.6220
 9303SOL     OW39544   2.239   1.502   9.214 -0.2215  0.4393  0.0402
 9303SOL    HW139545   2.177   1.486   9.285 -0.7022 -1.6415 -0.8698
 9303SOL    HW239546   2.315   1.526   9.267  0.0751  0.5116 -0.4219
 9304SOL     OW39547   1.647   0.473   1.543  0.2545 -0.0870  0.2524
 9304SOL    HW139548   1.666   0.545   1.484  1.3386 -1.5093 -1.1243
 9304SOL    HW239549   1.562   0.493   1.582  1.1334  3.2030  0.4580
 9305SOL     OW39550   2.920   4.491   9.305  0.0808 -0.5994  0.2110
 9305SOL    HW139551   2.882   4.444   9.380 -1.1947 -1.0031 -0.6814
 9305SOL    HW239552   2.918   4.580   9.338  2.8661  0.2714 -1.9881
 9306SOL     OW39553   4.127   2.417   0.157  0.0910  0.0677 -0.1387
 9306SOL    HW139554   4.204   2.473   0.145 -0.3929  0.8783  0.5641
 9306SOL    HW239555   4.155   2.340   0.207 -0.6992 -0.9148 -1.2225
 9307SOL     OW39556   0.426   4.462   1.159 -0.2529  0.1843  0.4521
 9307SOL    HW139557   0.416   4.446   1.065 -2.8696  4.3417  0.0302
 9307SOL    HW239558   0.511   4.504   1.164  0.1430 -0.4553 -0.8180
 9308SOL     OW39559   2.040   1.716  17.124  0.1195 -0.0462 -0.6518
 9308SOL    HW139560   2.077   1.743  17.040 -0.7657 -1.5240 -1.5306
 9308SOL    HW239561   2.096   1.647  17.158 -0.8637  0.1462  1.3612
 9309SOL     OW39562   3.381   3.520  12.028 -0.4101  0.4811  0.1041
 9309SOL    HW139563   3.338   3.583  12.087 -1.0187  3.0399 -3.0953
 9309SOL    HW239564   3.308   3.500  11.971 -0.3438  0.5954 -0.0195
 9310SOL     OW39565   4.468   3.207  12.219  0.2113 -0.5288  0.6683
 9310SOL    HW139566   4.513   3.247  12.145 -0.5961 -1.2779 -0.2192
 9310SOL    HW239567   4.403   3.276  12.233 -0.0870 -0.1536 -2.7226
 9311SOL     OW39568   3.754   2.929   1.275 -0.2694  0.4020 -0.1196
 9311SOL    HW139569   3.737   2.941   1.182  2.1544 -0.3107 -0.6610
 9311SOL    HW239570   3.672   2.883   1.290 -0.4760  0.2810 -1.6739
 9312SOL     OW39571   0.557   1.390   1.383 -0.2070  0.4614  0.1780
 9312SOL    HW139572   0.519   1.451   1.319  1.4460  1.9040  0.5382
 9312SOL    HW239573   0.495   1.395   1.456 -0.6791  1.4133 -0.2797
 9313SOL     OW39574   1.100   4.355   5.651 -0.3253 -0.1497 -0.0592
 9313SOL    HW139575   1.009   4.363   5.624 -0.0180  1.7080 -0.5596
 9313SOL    HW239576   1.120   4.448   5.659 -1.1483  0.0044  0.1621
 9314SOL     OW39577   4.406   3.446   8.323 -0.1156 -0.0726 -0.2858
 9314SOL    HW139578   4.487   3.404   8.295 -0.6870 -1.8991  0.8079
 9314SOL    HW239579   4.386   3.493   8.242  2.4461  0.6727 -0.4926
 9315SOL     OW39580   3.237   2.551   3.412 -0.4542 -0.1734  0.6715
 9315SOL    HW139581   3.168   2.612   3.389 -0.4506 -0.4495 -0.0672
 9315SOL    HW239582   3.198   2.493   3.477 -2.2585 -0.5261 -0.7206
 9316SOL     OW39583   4.225   1.295   2.623  0.1380 -0.7055 -0.1835
 9316SOL    HW139584   4.184   1.361   2.680  0.2290 -0.5095 -0.3452
 9316SOL    HW239585   4.314   1.302   2.657  0.2263 -1.9181 -0.1815
 9317SOL     OW39586   2.503   1.044   1.043 -0.2675  0.2388  0.0365
 9317SOL    HW139587   2.450   1.096   1.103 -1.4670 -0.4536 -0.4307
 9317SOL    HW239588   2.467   1.070   0.959  2.4973  0.0906 -1.2075
 9318SOL     OW39589   2.062   3.839  10.604  0.0682 -0.0594  0.1991
 9318SOL    HW139590   2.126   3.909  10.593  0.4038 -0.2121  1.1887
 9318SOL    HW239591   2.037   3.850  10.695 -2.9289  0.6711 -0.6974
 9319SOL     OW39592   4.370   2.755   8.897  0.5358 -0.1207  0.8141
 9319SOL    HW139593   4.459   2.737   8.866  0.3365 -3.0111  1.9284
 9319SOL    HW239594   4.343   2.667   8.925 -1.5908  0.2902  0.0209
 9320SOL     OW39595   2.570   1.924   2.126  0.3033  0.0252 -0.5833
 9320SOL    HW139596   2.542   1.939   2.036  0.9133 -0.1055 -0.7952
 9320SOL    HW239597   2.499   1.965   2.177  1.5861  2.0432 -0.4308
 9321SOL     OW39598   1.986   1.893   2.716  0.5841 -0.6685  0.2389
 9321SOL    HW139599   1.986   1.976   2.763  1.5731  0.3308 -1.5313
 9321SOL    HW239600   2.052   1.915   2.650  1.4613 -1.2619  0.9169
 9322SOL     OW39601   2.208   4.055   7.419  0.4926  0.3719  0.2952
 9322SOL    HW139602   2.259   3.983   7.457 -1.3661 -0.8477  0.4380
 9322SOL    HW239603   2.148   4.014   7.357 -0.1634 -0.1535  1.2843
 9323SOL     OW39604   0.536   0.211   2.914 -0.3232  0.3606 -0.0403
 9323SOL    HW139605   0.479   0.214   2.837  1.1132 -0.4812 -1.1411
 9323SOL    HW239606   0.572   0.123   2.905 -0.7374 -0.1028  2.8877
 9324SOL     OW39607   3.027   1.641   3.057 -0.1427  0.2515 -0.3374
 9324SOL    HW139608   3.038   1.622   3.151 -0.6352 -1.2265 -0.5665
 9324SOL    HW239609   2.932   1.647   3.044 -0.1616 -0.9479 -0.7888
 9325SOL     OW39610   4.119   3.301   6.341  0.4768  0.3039 -0.1125
 9325SOL    HW139611   4.162   3.319   6.424 -0.2807 -1.2210  0.6067
 9325SOL    HW239612   4.163   3.365   6.284  2.2020  0.2625  1.1892
 9326SOL     OW39613   2.341   2.829   8.026 -0.4269 -0.3766  0.3934
 9326SOL    HW139614   2.433   2.827   8.002 -0.6204  1.5296 -0.4425
 9326SOL    HW239615   2.350   2.917   8.062 -1.3614  0.4244 -1.3079
 9327SOL     OW39616   0.145   1.338   6.919 -0.2307  0.3038  0.0498
 9327SOL    HW139617   0.108   1.424   6.939  0.4906  1.3906 -3.2305
 9327SOL    HW239618   0.177   1.319   7.007  2.4011  1.0113 -0.7299
 9328SOL     OW39619   4.378   3.174  10.622 -0.2012 -0.2004  0.3326
 9328SOL    HW139620   4.467   3.208  10.609 -0.3024 -0.0154  0.1325
 9328SOL    HW239621   4.409   3.113  10.689  0.9023  0.0388  0.0445
 9329SOL     OW39622   4.125   3.536  11.966  0.3623 -0.2959  0.1365
 9329SOL    HW139623   4.121   3.540  12.062  0.9053  1.2424  0.0996
 9329SOL    HW239624   4.142   3.444  11.949  0.8694 -0.0973 -0.4120
 9330SOL     OW39625   3.259   1.060   1.366 -0.7207 -0.6860  0.2079
 9330SOL    HW139626   3.172   1.099   1.370  0.0444  1.0643  0.0801
 9330SOL    HW239627   3.309   1.131   1.326 -2.3853  2.0062  2.9587
 9331SOL     OW39628   4.700   3.862   0.725 -0.4014  0.3835 -0.1828
 9331SOL    HW139629   4.619   3.867   0.674  0.3491  1.2533 -1.2883
 9331SOL    HW239630   4.728   3.774   0.700 -0.9337  0.5531 -1.4015
 9332SOL     OW39631   1.776   2.931  16.694 -0.1396  0.2202 -0.8325
 9332SOL    HW139632   1.836   2.857  16.681 -0.2858 -0.1551  0.7562
 9332SOL    HW239633   1.820   3.001  16.644  1.0532  0.4166  0.4981
 9333SOL     OW39634   2.969   0.451   2.937 -0.2200  0.0925 -0.0413
 9333SOL    HW139635   2.962   0.482   3.027 -1.9212 -1.4489  0.3332
 9333SOL    HW239636   2.902   0.384   2.939  1.6873 -1.8392 -0.8952
 9334SOL     OW39637   0.126   3.332   0.824  0.7717 -0.2935 -0.3018
 9334SOL    HW139638   0.193   3.327   0.756  0.4546  0.8041 -0.6961
 9334SOL    HW239639   0.080   3.412   0.802 -0.1492 -0.6042  0.4969
 9335SOL     OW39640   3.142   3.754   6.184 -0.0861  0.4257 -0.0659
 9335SOL    HW139641   3.199   3.741   6.108  0.1805  1.8852 -0.1199
 9335SOL    HW239642   3.197   3.784   6.256 -1.0117  0.5072  0.6069
 9336SOL     OW39643   0.695   1.991   8.594 -0.2077 -0.6950 -0.0806
 9336SOL    HW139644   0.785   1.962   8.575 -0.2688  0.6567 -2.4749
 9336SOL    HW239645   0.703   2.034   8.679  1.6577  2.8057 -2.0260
 9337SOL     OW39646   0.032   3.288   9.531  0.2535 -0.1865  0.3912
 9337SOL    HW139647   0.080   3.244   9.601  1.3894 -1.1033 -0.9682
 9337SOL    HW239648   4.681   3.280   9.570 -0.1871 -1.5528 -0.8931
 9338SOL     OW39649   3.329   1.686   2.989 -0.3953  0.1290  0.5271
 9338SOL    HW139650   3.318   1.715   2.899  1.7369 -0.0779  0.2155
 9338SOL    HW239651   3.242   1.698   3.029  0.3630  0.9957  1.9205
 9339SOL     OW39652   3.844   3.565  14.665 -0.4057 -0.0378  0.4224
 9339SOL    HW139653   3.789   3.578  14.588 -0.2704  1.0396  0.5013
 9339SOL    HW239654   3.927   3.563  14.618  0.2828 -0.7976  1.6760
 9340SOL     OW39655   2.736   4.034   7.266  0.5072 -0.1085  0.1378
 9340SOL    HW139656   2.762   3.961   7.322  0.0903 -0.6198 -0.3335
 9340SOL    HW239657   2.644   4.045   7.288  0.3929  1.6949 -1.2402
 9341SOL     OW39658   2.395   3.989   6.547  0.3588  0.4337 -0.1325
 9341SOL    HW139659   2.372   3.898   6.525  1.3998  0.5724 -1.7942
 9341SOL    HW239660   2.320   4.028   6.592  0.5903  0.3835  0.2924
 9342SOL     OW39661   4.679   3.620   2.050  0.1060 -0.1895  0.5287
 9342SOL    HW139662   4.584   3.614   2.050  0.1223 -0.4812  0.1761
 9342SOL    HW239663   4.693   3.681   2.122  1.7738  1.6257 -1.3581
 9343SOL     OW39664   3.712   3.144   9.430  0.0086 -0.2360 -1.1236
 9343SOL    HW139665   3.658   3.077   9.471  0.0947  0.1295 -0.4152
 9343SOL    HW239666   3.796   3.101   9.451  0.9104  2.0790 -0.0248
 9344SOL     OW39667   4.714   0.376   6.725  0.2680  0.2592  0.3675
 9344SOL    HW139668   0.014   0.310   6.667 -0.5019  0.3947 -0.2698
 9344SOL    HW239669   0.055   0.384   6.781  0.7064 -1.6626  0.0245
 9345SOL     OW39670   2.920   1.922  14.018  0.1257 -0.4285 -0.3734
 9345SOL    HW139671   2.890   1.906  14.107  1.3085  0.1156  0.1079
 9345SOL    HW239672   2.998   1.868  14.013 -0.4276 -1.3755  1.3961
 9346SOL     OW39673   2.166   0.035  13.264 -0.0233  0.0210 -0.2286
 9346SOL    HW139674   2.114   0.109  13.296  0.5584 -0.4185  1.7045
 9346SOL    HW239675   2.256   0.062  13.283 -0.4256  2.0249 -1.1623
 9347SOL     OW39676   0.076   3.111   3.426  0.0819 -0.2473  0.6340
 9347SOL    HW139677   0.059   3.113   3.520  0.7095  1.0656  0.7184
 9347SOL    HW239678   0.000   3.061   3.395  0.1257  0.5758 -0.8094
 9348SOL     OW39679   1.619   0.290   4.677  0.3402 -0.7030 -0.5715
 9348SOL    HW139680   1.626   0.267   4.769  0.3457 -0.0453 -0.4072
 9348SOL    HW239681   1.654   0.209   4.640  3.2539  0.3082 -0.0198
 9349SOL     OW39682   0.162   3.278   1.203  0.1098  0.4637  0.4041
 9349SOL    HW139683   0.121   3.258   1.287 -0.3994 -1.0449 -0.2037
 9349SOL    HW239684   0.255   3.255   1.210  0.3510 -0.0560 -4.2776
 9350SOL     OW39685   0.836   2.049   0.055 -0.5158  0.0450 -0.4344
 9350SOL    HW139686   0.828   2.022  17.706  0.2083  2.8258 -1.2970
 9350SOL    HW239687   0.879   2.133   0.041 -0.1462  0.1024  0.9908
 9351SOL     OW39688   0.664   4.555   7.823  0.2093 -0.0387  0.1490
 9351SOL    HW139689   0.607   4.490   7.865 -1.2742  0.9783 -0.3066
 9351SOL    HW239690   0.614   4.636   7.813  0.7995  0.0706 -1.9313
 9352SOL     OW39691   0.403   3.504   4.879 -0.0203  0.2287 -0.0518
 9352SOL    HW139692   0.375   3.428   4.931  1.3741 -2.0339 -2.5515
 9352SOL    HW239693   0.469   3.461   4.825  0.0257 -1.1731  1.1137
 9353SOL     OW39694   4.390   2.700   6.689  0.4452 -0.0302 -0.9679
 9353SOL    HW139695   4.419   2.633   6.626  1.6395 -0.4268 -0.0056
 9353SOL    HW239696   4.351   2.757   6.624 -2.8555 -0.7221  0.4216
 9354SOL     OW39697   1.135   1.198   1.734  0.5981  0.4548 -0.3607
 9354SOL    HW139698   1.067   1.142   1.772 -0.2174  0.4737 -1.7915
 9354SOL    HW239699   1.205   1.133   1.734  0.1737 -0.0094 -1.4735
 9355SOL     OW39700   1.171   3.129   4.230 -0.1622 -0.2382  0.2731
 9355SOL    HW139701   1.213   3.210   4.201 -2.0928 -0.5421 -3.3138
 9355SOL    HW239702   1.144   3.093   4.146  0.1947 -1.4954  0.6894
 9356SOL     OW39703   0.459   2.720   7.494 -0.3895 -0.3712  0.0849
 9356SOL    HW139704   0.392   2.670   7.540  1.7927 -3.5575 -0.2060
 9356SOL    HW239705   0.503   2.660   7.434  2.9093  0.2793  1.8290
 9357SOL     OW39706   2.650   2.653   5.209  0.2436  0.4091 -0.3060
 9357SOL    HW139707   2.601   2.586   5.255  1.1972 -2.6813 -3.8155
 9357SOL    HW239708   2.588   2.720   5.178 -1.7898 -1.3166  0.0639
 9358SOL     OW39709   0.850   0.851   7.054 -0.1792  0.2080 -0.5165
 9358SOL    HW139710   0.938   0.841   7.019  0.2345 -0.3279  0.6986
 9358SOL    HW239711   0.862   0.914   7.125  1.4687 -1.5792  0.7763
 9359SOL     OW39712   2.442   4.403   9.213 -0.2055 -0.4261  0.1489
 9359SOL    HW139713   2.505   4.348   9.258  0.0168  0.0491  0.4194
 9359SOL    HW239714   2.415   4.461   9.284  1.6248 -0.4205  0.8372
 9360SOL     OW39715   0.346   3.033   4.788 -0.6425 -0.1370 -0.1454
 9360SOL    HW139716   0.400   3.050   4.711 -0.9281  1.9187  0.1078
 9360SOL    HW239717   0.281   2.975   4.749 -0.1540 -1.3156  0.7708
 9361SOL     OW39718   1.135   4.519   3.622  0.2554  0.0182 -0.0375
 9361SOL    HW139719   1.084   4.483   3.694  1.1346 -0.4948  0.3382
 9361SOL    HW239720   1.163   4.437   3.581  0.1036 -1.5247  2.9461
 9362SOL     OW39721   0.577   2.671  17.676 -0.0692 -0.7944  0.5532
 9362SOL    HW139722   0.664   2.709  17.659 -0.7053 -0.5141 -2.1663
 9362SOL    HW239723   0.561   2.617  17.598  1.1646  0.0370 -0.2824
 9363SOL     OW39724   4.253   0.538  15.544  0.1966 -0.6017 -0.3674
 9363SOL    HW139725   4.345   0.547  15.522 -0.3078  0.2370 -2.1519
 9363SOL    HW239726   4.222   0.456  15.504 -1.4752  0.1924 -0.7004
 9364SOL     OW39727   3.620   2.968   9.673 -0.0358 -0.2242 -0.0671
 9364SOL    HW139728   3.543   2.953   9.727  0.1265 -1.7017 -0.2209
 9364SOL    HW239729   3.648   3.059   9.679 -0.2524 -0.0981 -1.0175
 9365SOL     OW39730   4.204   3.135   4.294 -0.1976 -0.1074 -0.2924
 9365SOL    HW139731   4.158   3.118   4.211 -1.3589  1.5313  0.0168
 9365SOL    HW239732   4.261   3.059   4.300  1.1450  0.7480 -2.2737
 9366SOL     OW39733   1.019   2.383   5.690  0.0741 -0.6468 -0.8143
 9366SOL    HW139734   1.054   2.294   5.698 -0.9802 -1.1042 -1.2824
 9366SOL    HW239735   1.071   2.416   5.617 -0.1365  2.6476  0.5525
 9367SOL     OW39736   4.541   0.564  14.508  0.6376 -0.5682 -0.0332
 9367SOL    HW139737   4.614   0.619  14.538  0.1862 -0.2851  0.5373
 9367SOL    HW239738   4.511   0.516  14.585  0.4236 -0.0075  0.2328
 9368SOL     OW39739   2.847   2.399   9.122 -0.1083  0.2101 -0.3753
 9368SOL    HW139740   2.923   2.413   9.179 -0.6052 -0.8050  0.5247
 9368SOL    HW239741   2.792   2.476   9.137  0.0849  0.0254  1.3103
 9369SOL     OW39742   4.383   0.304   7.569 -0.0098  0.1344 -0.3822
 9369SOL    HW139743   4.289   0.320   7.558  0.2552  0.8073 -1.7695
 9369SOL    HW239744   4.407   0.314   7.476  1.3846  1.2889  0.0835
 9370SOL     OW39745   3.767   4.593   3.367  0.1922 -0.0694  0.2398
 9370SOL    HW139746   3.693   4.560   3.316  1.3413 -0.8039 -0.9336
 9370SOL    HW239747   3.818   4.625   3.293 -0.7849  2.2704  0.5742
 9371SOL     OW39748   2.084   4.586   1.175 -0.1514  0.4400 -0.6344
 9371SOL    HW139749   2.152   4.537   1.222 -0.3673 -1.8100 -2.6264
 9371SOL    HW239750   2.124   4.634   1.102  1.6234 -0.9752 -0.6158
 9372SOL     OW39751   0.793   4.381   1.299 -0.4379  0.0925  0.2591
 9372SOL    HW139752   0.732   4.307   1.309  0.0978 -0.0158  2.6302
 9372SOL    HW239753   0.732   4.443   1.338 -1.4449 -0.1084 -0.9848
 9373SOL     OW39754   1.118   2.356   3.056  0.6243  0.4101 -0.3186
 9373SOL    HW139755   1.083   2.444   3.067 -1.3484 -0.5194  0.9206
 9373SOL    HW239756   1.096   2.340   2.964 -2.4930  1.0267  0.3126
 9374SOL     OW39757   3.947   1.880   2.915 -0.3762  0.1329  0.0071
 9374SOL    HW139758   3.855   1.898   2.933 -0.2103  0.1793  0.8183
 9374SOL    HW239759   3.947   1.820   2.840  0.6138 -1.8765  1.6134
 9375SOL     OW39760   3.256   3.394   5.176 -0.4072  0.3000 -0.1806
 9375SOL    HW139761   3.293   3.306   5.175 -1.9930 -0.3451 -2.1024
 9375SOL    HW239762   3.233   3.401   5.083 -2.1407 -2.0364  0.0762
 9376SOL     OW39763   0.690   1.519   8.547 -0.3900  0.6301  0.2513
 9376SOL    HW139764   0.719   1.465   8.473 -1.3167 -0.0535  0.3810
 9376SOL    HW239765   0.637   1.589   8.509 -0.8342 -0.3371 -0.9224
 9377SOL     OW39766   4.531   3.157   8.686  0.4545 -0.3450 -0.1354
 9377SOL    HW139767   4.540   3.181   8.593  0.5633 -1.7056 -0.4752
 9377SOL    HW239768   4.475   3.080   8.690  0.5262 -0.3775  0.2273
 9378SOL     OW39769   3.513   0.608   8.523  0.6564 -0.0457 -0.1195
 9378SOL    HW139770   3.450   0.537   8.535 -0.7722  1.2722  0.2392
 9378SOL    HW239771   3.568   0.617   8.600  0.8680  0.7952 -0.3719
 9379SOL     OW39772   3.013   3.944   4.556  0.1378 -0.5050  0.9060
 9379SOL    HW139773   2.988   4.014   4.497  2.0745 -0.0677  0.6159
 9379SOL    HW239774   3.108   3.943   4.555  0.1486  0.9080  0.8842
 9380SOL     OW39775   4.249   4.503   5.362  0.1802 -0.5650 -0.4459
 9380SOL    HW139776   4.237   4.532   5.453  1.2368 -0.8692 -0.2181
 9380SOL    HW239777   4.327   4.449   5.376  1.0028  0.5006 -0.9305
 9381SOL     OW39778   1.555   3.564   2.809 -0.1611 -0.2827  0.2000
 9381SOL    HW139779   1.484   3.558   2.745 -0.3040 -1.8171  0.5095
 9381SOL    HW239780   1.552   3.479   2.853  0.0118  0.2507  1.2695
 9382SOL     OW39781   4.409   3.055   2.480 -0.7825  0.4006  0.3988
 9382SOL    HW139782   4.402   2.961   2.466  0.2763  0.6362 -1.7098
 9382SOL    HW239783   4.504   3.067   2.471 -0.2953 -3.1893  0.9446
 9383SOL     OW39784   3.336   4.435   3.881  0.1356  0.0278 -0.1275
 9383SOL    HW139785   3.291   4.353   3.861 -0.1649  0.0930  0.2674
 9383SOL    HW239786   3.338   4.444   3.977 -1.4259  0.8918 -0.1814
 9384SOL     OW39787   2.386   1.316   2.369  0.1981  0.0615 -0.5999
 9384SOL    HW139788   2.324   1.320   2.296  0.0506 -1.3066 -0.5483
 9384SOL    HW239789   2.443   1.388   2.343  0.6330  0.6135  1.8687
 9385SOL     OW39790   4.074   2.916   5.519 -0.0552 -0.1855  0.1607
 9385SOL    HW139791   4.058   2.844   5.580 -1.1158 -0.9662 -1.0218
 9385SOL    HW239792   3.989   2.944   5.485 -0.0031 -0.6921 -0.4014
 9386SOL     OW39793   2.853   1.825   2.832 -0.4936  0.2448 -0.1295
 9386SOL    HW139794   2.844   1.909   2.787 -0.7768 -0.9272 -2.2560
 9386SOL    HW239795   2.810   1.843   2.916  0.3833 -2.2260  0.8545
 9387SOL     OW39796   3.788   2.070  15.968 -0.7181  0.3633 -0.0986
 9387SOL    HW139797   3.863   2.014  15.948 -0.9556  0.1313 -0.3446
 9387SOL    HW239798   3.726   1.998  15.983 -0.5196  0.1564 -0.2566
 9388SOL     OW39799   2.591   2.162  11.466 -0.1786  0.7642  0.2259
 9388SOL    HW139800   2.587   2.152  11.370 -1.3380  2.4224  0.1087
 9388SOL    HW239801   2.646   2.086  11.483  2.0279  1.8583 -2.0636
 9389SOL     OW39802   0.960   3.768   3.666  0.0689 -0.2567  0.3854
 9389SOL    HW139803   0.899   3.725   3.605  1.8673 -3.1423  0.5894
 9389SOL    HW239804   1.044   3.763   3.620 -0.9787  2.4287 -1.8378
 9390SOL     OW39805   2.495   1.420   1.652  0.1597  0.1630 -0.7821
 9390SOL    HW139806   2.544   1.358   1.599  2.2240  2.0773 -1.0912
 9390SOL    HW239807   2.563   1.452   1.710  0.4043  1.0427 -1.5501
 9391SOL     OW39808   1.499   2.174   6.321 -0.1347 -0.3313 -0.5876
 9391SOL    HW139809   1.590   2.188   6.293  0.3542 -2.2021  0.0631
 9391SOL    HW239810   1.469   2.264   6.309 -3.2335 -1.4722 -1.3722
 9392SOL     OW39811   4.645   1.603   7.775 -0.5241  0.2790 -0.3824
 9392SOL    HW139812   0.002   1.600   7.750 -0.3240 -0.4948  0.4446
 9392SOL    HW239813   4.644   1.520   7.823  2.4599 -0.2248 -1.1448
 9393SOL     OW39814   0.727   4.086   4.963  0.2645 -0.2638 -0.2572
 9393SOL    HW139815   0.781   4.156   4.999 -1.7365  0.6225  1.0772
 9393SOL    HW239816   0.673   4.135   4.901  0.1995  0.7776  0.6007
 9394SOL     OW39817   4.520   4.081   3.239 -0.5743  0.2046  0.2093
 9394SOL    HW139818   4.595   4.136   3.260  0.3296 -1.1265  0.4307
 9394SOL    HW239819   4.537   4.070   3.146 -1.6871 -0.9980  0.1605
 9395SOL     OW39820   2.356   3.421   8.001  0.0218  0.5705  0.0899
 9395SOL    HW139821   2.306   3.379   7.930 -0.7287  1.4702  0.0787
 9395SOL    HW239822   2.425   3.471   7.959 -1.4722  0.4077 -2.6164
 9396SOL     OW39823   2.063   0.828  16.589 -0.0829  0.5759 -0.2880
 9396SOL    HW139824   2.020   0.838  16.504  0.3372  1.1040 -0.4361
 9396SOL    HW239825   1.992   0.786  16.637  0.5007 -0.9820 -0.7628
 9397SOL     OW39826   3.378   2.531   5.373  0.1853  0.1311 -0.2461
 9397SOL    HW139827   3.439   2.475   5.326  0.0113 -1.6842  1.6935
 9397SOL    HW239828   3.436   2.575   5.436 -0.6299 -0.1866  0.7280
 9398SOL     OW39829   0.714   1.536   6.069 -0.3376  0.0299  1.0165
 9398SOL    HW139830   0.715   1.588   6.149  0.9741  1.9957 -0.2720
 9398SOL    HW239831   0.668   1.458   6.100  1.6007  0.0129  3.8138
 9399SOL     OW39832   1.246   0.319   7.519  0.3754 -0.0134 -0.3096
 9399SOL    HW139833   1.196   0.282   7.591  0.0748 -0.2704 -0.6488
 9399SOL    HW239834   1.267   0.241   7.468 -1.6835  0.1219 -1.3879
 9400SOL     OW39835   1.422   2.992  13.926 -0.4192  0.7162 -0.3621
 9400SOL    HW139836   1.351   3.005  13.988 -0.2083  0.7762 -0.1351
 9400SOL    HW239837   1.459   3.080  13.927  1.4399 -0.0956  1.9847
 9401SOL     OW39838   1.426   2.473   0.309 -0.0179  0.0345 -0.5359
 9401SOL    HW139839   1.338   2.491   0.274 -0.4348  0.6560  0.8398
 9401SOL    HW239840   1.401   2.428   0.389  1.0510  1.7489  0.7537
 9402SOL     OW39841   1.681   0.675   1.354  0.0006  0.2533 -0.2374
 9402SOL    HW139842   1.637   0.616   1.293  1.9752 -1.9140  0.4210
 9402SOL    HW239843   1.652   0.764   1.335 -0.9220  0.2291  1.0957
 9403SOL     OW39844   3.222   0.170   6.428  0.2323 -0.6158  0.0124
 9403SOL    HW139845   3.312   0.184   6.459  0.1723  1.0489 -0.5917
 9403SOL    HW239846   3.174   0.201   6.505 -0.2759  2.1820 -1.4541
 9404SOL     OW39847   3.132   2.547   8.050  0.2240  0.1503  0.4668
 9404SOL    HW139848   3.146   2.624   7.996 -3.6878  0.3369 -0.3008
 9404SOL    HW239849   3.114   2.589   8.134  0.2157  0.2915  0.3936
 9405SOL     OW39850   4.206   0.065   6.646  0.3142  0.0825  0.6953
 9405SOL    HW139851   4.261   0.055   6.724  1.3672 -1.3975 -0.2586
 9405SOL    HW239852   4.140   0.123   6.684  1.2935  1.5318  0.1705
 9406SOL     OW39853   0.100   4.031   9.686  0.0136 -0.1165 -0.1805
 9406SOL    HW139854   0.036   4.094   9.720  1.1283  0.3989  0.9755
 9406SOL    HW239855   0.089   4.035   9.591 -3.0937  1.7146  0.2620
 9407SOL     OW39856   1.045   1.626   2.127  0.0070 -0.4196  0.4723
 9407SOL    HW139857   1.046   1.558   2.193 -0.3957 -1.6973 -0.8431
 9407SOL    HW239858   1.006   1.584   2.050 -2.9541  0.7528  1.3284
 9408SOL     OW39859   3.423   1.197   5.578  0.9769 -0.2369 -0.2991
 9408SOL    HW139860   3.460   1.128   5.633  1.7756 -0.4755 -1.1276
 9408SOL    HW239861   3.394   1.249   5.653  3.2085  0.3974  0.1189
 9409SOL     OW39862   0.389   1.858  12.292  0.0567  0.3089 -0.2837
 9409SOL    HW139863   0.418   1.795  12.358  0.7885  0.0411 -0.8646
 9409SOL    HW239864   0.436   1.837  12.211 -1.2930  3.1698 -1.8240
 9410SOL     OW39865   2.350   2.481   4.211  0.2971 -0.4857 -0.4451
 9410SOL    HW139866   2.366   2.571   4.182 -1.8527  0.5617  1.5955
 9410SOL    HW239867   2.375   2.427   4.136  0.4174  0.1299 -0.8469
 9411SOL     OW39868   1.450   3.807   1.780  0.1968 -0.1093 -0.2840
 9411SOL    HW139869   1.431   3.843   1.694 -1.1310 -0.2640 -0.0630
 9411SOL    HW239870   1.358   3.796   1.806  0.3256 -0.7652 -0.0906
 9412SOL     OW39871   0.246   3.948   2.733  0.1659 -0.3927 -0.2271
 9412SOL    HW139872   0.327   3.979   2.693  1.7551 -0.7782  2.6912
 9412SOL    HW239873   0.289   3.874   2.776 -0.5217 -0.3891  0.4793
 9413SOL     OW39874   0.840   0.787   1.648  0.1684  0.4375 -0.4787
 9413SOL    HW139875   0.858   0.709   1.700 -0.9061  0.2562 -0.3623
 9413SOL    HW239876   0.881   0.756   1.568 -2.6400 -0.8172 -1.4408
 9414SOL     OW39877   2.711   0.093  15.244  0.2001 -0.5976 -0.5982
 9414SOL    HW139878   2.622   0.102  15.210 -0.3910  0.5332  1.2514
 9414SOL    HW239879   2.701   0.102  15.339 -0.9059 -0.4722 -0.7262
 9415SOL     OW39880   3.490   2.864   1.969 -0.2387  0.4679 -0.2425
 9415SOL    HW139881   3.421   2.907   2.019 -0.8016  2.1646 -2.4518
 9415SOL    HW239882   3.507   2.924   1.896  0.3701  0.7332  0.1111
 9416SOL     OW39883   1.081   2.645   3.963  0.4024  0.4160 -0.1399
 9416SOL    HW139884   1.133   2.697   3.902 -2.2758  1.5271 -1.4413
 9416SOL    HW239885   1.150   2.590   4.002  0.0685  0.5397  0.6232
 9417SOL     OW39886   1.147   2.614   3.419  0.0854 -0.0028 -0.5132
 9417SOL    HW139887   1.094   2.539   3.391  2.7684 -2.3013  0.6099
 9417SOL    HW239888   1.203   2.629   3.343  0.4264  1.6564  0.0654
 9418SOL     OW39889   1.047   4.450  10.917  0.3348  0.2431 -0.2418
 9418SOL    HW139890   1.136   4.416  10.921  0.1811  0.1994  3.5162
 9418SOL    HW239891   1.003   4.375  10.876 -1.0697  0.9236 -0.0016
 9419SOL     OW39892   2.328   1.156   6.733  0.2625 -0.1672  0.3906
 9419SOL    HW139893   2.316   1.250   6.723  0.9017 -0.2572 -1.0894
 9419SOL    HW239894   2.263   1.126   6.670 -2.7324  1.9035  2.5077
 9420SOL     OW39895   1.353   3.818   8.048 -0.1590 -0.1917  0.5086
 9420SOL    HW139896   1.417   3.828   8.118 -0.0101  0.2791  0.3032
 9420SOL    HW239897   1.378   3.883   7.982  1.8644 -2.9161 -1.4190
 9421SOL     OW39898   1.828   1.041   6.180 -0.4408  0.4152 -0.0571
 9421SOL    HW139899   1.838   1.065   6.272 -1.2149  0.8417 -0.0818
 9421SOL    HW239900   1.920   1.041   6.154 -0.2635  0.4629  0.5732
 9422SOL     OW39901   4.128   2.704   4.219 -0.3973 -0.0343 -0.5098
 9422SOL    HW139902   4.124   2.752   4.136  1.2604  0.7740 -0.1117
 9422SOL    HW239903   4.039   2.720   4.250  0.7809  0.6065  2.4818
 9423SOL     OW39904   0.635   3.108  10.936 -0.0124  0.6553 -0.1920
 9423SOL    HW139905   0.662   3.036  10.879 -2.6270  0.1144 -0.7763
 9423SOL    HW239906   0.617   3.069  11.021  0.8648 -0.3780 -0.4754
 9424SOL     OW39907   2.728   2.585   4.172 -0.2222  0.3151  0.4386
 9424SOL    HW139908   2.661   2.633   4.219 -0.4710 -0.6664  1.0865
 9424SOL    HW239909   2.681   2.562   4.091 -0.0765 -0.5328  0.5912
 9425SOL     OW39910   4.033   0.827   3.906  0.1836  0.7857  0.1033
 9425SOL    HW139911   3.994   0.739   3.903  2.6921 -0.2990  0.0639
 9425SOL    HW239912   3.996   0.865   3.826 -0.1599 -0.5248 -0.3673
 9426SOL     OW39913   1.721   3.592  10.293  0.4042  0.1132 -0.3699
 9426SOL    HW139914   1.638   3.593  10.247 -0.7834 -2.7736  1.7280
 9426SOL    HW239915   1.769   3.524  10.248 -2.7700 -1.6519 -1.0736
 9427SOL     OW39916   1.488   3.611   8.797  0.0255 -0.5938  0.4530
 9427SOL    HW139917   1.557   3.560   8.839 -0.2566 -0.3666  1.2041
 9427SOL    HW239918   1.411   3.557   8.817 -0.5077  1.1220  3.0650
 9428SOL     OW39919   4.221   1.575   3.002  0.2335 -0.6915  0.1956
 9428SOL    HW139920   4.162   1.526   3.060  1.6432 -0.6255  1.6738
 9428SOL    HW239921   4.304   1.581   3.049  0.5345  1.8361 -0.6907
 9429SOL     OW39922   4.083   1.824   5.490  0.0427 -0.5207  0.1091
 9429SOL    HW139923   4.012   1.793   5.433  1.9893  0.0378 -2.6353
 9429SOL    HW239924   4.052   1.810   5.580 -1.7127 -1.6991 -0.6645
 9430SOL     OW39925   3.734   3.937   1.925 -0.0233  0.2736 -0.1966
 9430SOL    HW139926   3.723   4.005   1.992 -2.2337  1.7067 -2.0364
 9430SOL    HW239927   3.798   3.883   1.971 -0.5920 -0.0181  0.2545
 9431SOL     OW39928   0.982   3.674   6.544 -0.0295 -0.2332  0.0981
 9431SOL    HW139929   0.984   3.702   6.452 -0.3639  1.2620  0.5484
 9431SOL    HW239930   0.889   3.655   6.554  0.7167 -2.9701  1.7018
 9432SOL     OW39931   1.461   3.716   7.691  0.1527  0.0261  0.1591
 9432SOL    HW139932   1.530   3.657   7.661  0.2123  0.6139 -0.8427
 9432SOL    HW239933   1.411   3.673   7.761 -0.1285 -3.7513 -2.3548
 9433SOL     OW39934   4.342   1.126   9.095  0.3273  0.4629  0.4416
 9433SOL    HW139935   4.434   1.148   9.114  1.0644 -1.3679 -0.9735
 9433SOL    HW239936   4.353   1.041   9.138 -1.0885 -0.1285 -0.3743
 9434SOL     OW39937   2.556   3.836   9.135  0.3527 -0.0583 -0.1321
 9434SOL    HW139938   2.607   3.834   9.216  1.6197 -0.1273 -0.9244
 9434SOL    HW239939   2.499   3.760   9.136  0.8448 -0.4453 -1.1557
 9435SOL     OW39940   1.981   1.031   8.941  0.3461 -0.1149 -0.0647
 9435SOL    HW139941   1.954   1.025   8.849  0.6217  2.2679 -0.3077
 9435SOL    HW239942   2.058   1.086   8.930  0.4798 -0.4909 -1.0645
 9436SOL     OW39943   2.583   2.621  14.692  0.0291  0.7336  0.0663
 9436SOL    HW139944   2.511   2.575  14.735  0.1205 -0.3426 -0.9203
 9436SOL    HW239945   2.577   2.711  14.722  1.6510  1.2929 -1.2531
 9437SOL     OW39946   0.878   3.681   0.990 -0.0823  0.4598 -0.5760
 9437SOL    HW139947   0.886   3.773   1.014 -0.7532  0.5752 -0.8161
 9437SOL    HW239948   0.784   3.665   1.001 -0.5729  1.3403 -3.5335
 9438SOL     OW39949   0.173   4.534   2.073  0.5151  0.0607  0.2064
 9438SOL    HW139950   0.174   4.491   1.987  1.6703  1.3153 -0.4300
 9438SOL    HW239951   0.079   4.525   2.087  0.5394 -0.4459  0.0396
 9439SOL     OW39952   4.271   1.280   7.222  0.3047 -0.0560  0.0719
 9439SOL    HW139953   4.251   1.276   7.316 -0.3246 -0.6960 -0.0955
 9439SOL    HW239954   4.307   1.369   7.212 -0.0229  0.3864  2.7649
 9440SOL     OW39955   4.170   3.872   0.857 -0.1270 -0.4759  0.3271
 9440SOL    HW139956   4.255   3.872   0.902  0.5250  0.0533 -0.9113
 9440SOL    HW239957   4.170   3.781   0.828  0.6423 -0.4380  0.2151
 9441SOL     OW39958   2.943   3.862   9.451  0.6414 -0.5945  0.5147
 9441SOL    HW139959   3.002   3.874   9.526  1.7200 -1.0211 -0.2551
 9441SOL    HW239960   2.998   3.852   9.373 -1.2824  2.0851 -1.1736
 9442SOL     OW39961   2.019   0.045   1.892  0.0517  0.1840 -0.1724
 9442SOL    HW139962   1.952   0.085   1.946 -0.1403  0.1317 -0.3752
 9442SOL    HW239963   2.082   0.114   1.872 -1.7878  1.3824 -1.7873
 9443SOL     OW39964   0.763   1.236   7.380 -0.4263 -0.5891  0.1648
 9443SOL    HW139965   0.780   1.303   7.314  3.7172 -0.7014  1.1245
 9443SOL    HW239966   0.672   1.262   7.394  0.0006  1.5513 -0.9780
 9444SOL     OW39967   4.648   3.849   9.111 -0.8026 -0.0055 -0.3151
 9444SOL    HW139968   4.693   3.774   9.072  0.0287 -0.1940  1.0069
 9444SOL    HW239969   4.601   3.889   9.038  1.4187 -0.0488 -1.7798
 9445SOL     OW39970   3.796   2.903   7.681 -0.3331 -0.0292  0.4186
 9445SOL    HW139971   3.882   2.874   7.711 -0.8975 -0.1044  1.9893
 9445SOL    HW239972   3.746   2.822   7.690 -1.1089  0.8385  4.1337
 9446SOL     OW39973   0.934   1.831   7.428 -0.2668  0.1358  0.4284
 9446SOL    HW139974   1.025   1.807   7.446 -0.3873 -0.4959  0.2087
 9446SOL    HW239975   0.946   1.869   7.342 -1.4656 -0.5883 -0.0573
 9447SOL     OW39976   3.835   3.663   9.660 -0.1269 -0.2128  0.1613
 9447SOL    HW139977   3.922   3.671   9.620 -1.5353 -0.7504 -3.0249
 9447SOL    HW239978   3.790   3.744   9.635 -0.9857  0.0679  2.6802
 9448SOL     OW39979   4.703   1.229  10.696 -0.0924  0.0130  0.4269
 9448SOL    HW139980   4.718   1.161  10.762  0.5210  0.3337  0.6166
 9448SOL    HW239981   4.706   1.179  10.614 -3.4075  1.6048 -0.6609
 9449SOL     OW39982   2.325   0.001  11.335  0.0680 -0.3506 -0.2492
 9449SOL    HW139983   2.247   4.699  11.293  0.4770 -1.0984 -0.3376
 9449SOL    HW239984   2.378   0.018  11.258 -1.3212 -0.0250 -1.1301
 9450SOL     OW39985   1.674   1.478   2.202 -0.1548  0.3054  0.8363
 9450SOL    HW139986   1.689   1.461   2.295  0.2062  0.5574  0.8238
 9450SOL    HW239987   1.589   1.522   2.204 -0.8921 -1.1771  2.5952
 9451SOL     OW39988   0.982   4.652   6.250 -0.3525 -0.0644  0.7413
 9451SOL    HW139989   1.030   4.573   6.224 -0.8780 -0.1933  0.1587
 9451SOL    HW239990   0.890   4.626   6.244 -0.1218 -0.7880  0.3448
 9452SOL     OW39991   1.430   3.356   5.950 -0.1718 -0.4832 -0.0512
 9452SOL    HW139992   1.511   3.344   6.000 -0.7981  0.4388  1.1949
 9452SOL    HW239993   1.475   3.387   5.872 -0.0355  0.8857  0.5683
 9453SOL     OW39994   2.000   2.272   4.730 -0.0960  0.0552 -0.1468
 9453SOL    HW139995   1.908   2.298   4.738 -0.3350 -0.7674 -0.1177
 9453SOL    HW239996   2.051   2.350   4.748  1.5377 -1.3548  1.3562
 9454SOL     OW39997   1.003   0.711   4.005  0.2259 -0.2523  0.3136
 9454SOL    HW139998   1.064   0.784   4.005  2.2321 -1.9250 -0.0405
 9454SOL    HW239999   1.065   0.643   4.032  0.5125 -0.8182 -1.7374
 9455SOL     OW40000   2.787   4.256   1.803  0.0219  0.3546 -0.3092
 9455SOL    HW140001   2.816   4.207   1.726  0.0653  1.5753 -1.0685
 9455SOL    HW240002   2.868   4.301   1.827 -0.0870  0.9998 -1.1173
 9456SOL     OW40003   1.233   3.059  15.321  0.6426  0.2299 -0.2460
 9456SOL    HW140004   1.236   3.154  15.328 -0.1121  0.2649 -0.3803
 9456SOL    HW240005   1.233   3.029  15.412  1.5889  0.2196 -0.2487
 9457SOL     OW40006   1.653   2.679   2.057 -0.6526  0.2284 -0.0044
 9457SOL    HW140007   1.703   2.756   2.030  0.3859  0.2914  2.0970
 9457SOL    HW240008   1.597   2.717   2.125 -0.3486 -0.7327  0.7799
 9458SOL     OW40009   0.920   1.546   5.125 -0.4813 -0.4773  0.5074
 9458SOL    HW140010   0.967   1.565   5.206  1.7093  0.0552 -0.8785
 9458SOL    HW240011   0.841   1.601   5.127 -0.8961 -1.0816  0.6518
 9459SOL     OW40012   4.632   2.746   9.405  0.2909 -0.1162 -0.2409
 9459SOL    HW140013   4.571   2.714   9.471  1.0150 -1.4319 -0.2033
 9459SOL    HW240014   4.615   2.840   9.405  1.4783  0.0978  1.2860
 9460SOL     OW40015   3.461   0.637   3.045 -0.2500  0.4732 -0.5157
 9460SOL    HW140016   3.429   0.552   3.077 -1.4380  1.6368  1.4201
 9460SOL    HW240017   3.389   0.660   2.986 -0.6140  1.2268  0.2229
 9461SOL     OW40018   2.617   1.782  15.447 -0.1415  0.2085 -0.3800
 9461SOL    HW140019   2.603   1.709  15.388  0.5212  0.0957 -0.4037
 9461SOL    HW240020   2.553   1.759  15.514 -1.2386 -0.4578 -1.6531
 9462SOL     OW40021   0.622   1.626   2.164  0.2973 -0.2008  0.4860
 9462SOL    HW140022   0.699   1.569   2.165 -0.1192 -0.7821 -0.6764
 9462SOL    HW240023   0.575   1.597   2.086 -1.4759 -2.4223  2.3761
 9463SOL     OW40024   1.559   2.665  17.154  0.4081 -0.7864  0.0762
 9463SOL    HW140025   1.569   2.760  17.145  3.0415 -0.9924  0.9052
 9463SOL    HW240026   1.650   2.637  17.168  0.6056 -0.4019 -0.4309
 9464SOL     OW40027   0.773   3.953   8.883  0.2874 -0.3885  0.4283
 9464SOL    HW140028   0.748   4.033   8.930 -0.4516 -0.2559 -0.1864
 9464SOL    HW240029   0.726   3.968   8.801 -0.6160 -0.9274  0.8462
 9465SOL     OW40030   3.609   4.084   9.127  0.4305  0.3350  0.1111
 9465SOL    HW140031   3.545   4.136   9.177 -0.0123 -1.1018  1.0345
 9465SOL    HW240032   3.581   4.098   9.037  2.8570 -2.2941 -1.0547
 9466SOL     OW40033   3.172   1.321   2.841 -0.4102  0.4928 -0.1991
 9466SOL    HW140034   3.090   1.270   2.838 -1.0916  1.4522  1.7830
 9466SOL    HW240035   3.232   1.270   2.895 -0.4962  0.5619 -0.0380
 9467SOL     OW40036   3.436   2.769   6.972 -0.1792  0.1457 -0.2014
 9467SOL    HW140037   3.429   2.688   7.022 -2.6333 -0.6671 -1.8661
 9467SOL    HW240038   3.377   2.833   7.011  0.6011  1.7011 -1.5674
 9468SOL     OW40039   0.685   2.705   6.800 -0.0647 -0.2246 -0.4378
 9468SOL    HW140040   0.713   2.638   6.862  0.7111  0.2267 -0.3058
 9468SOL    HW240041   0.611   2.666   6.753  2.2379 -1.0076 -3.4401
 9469SOL     OW40042   4.571   0.959   8.049 -0.3754 -0.7051  0.0085
 9469SOL    HW140043   4.515   0.987   8.122 -0.9516  1.6229 -1.3196
 9469SOL    HW240044   4.658   0.998   8.059  0.2161 -1.7550 -1.1005
 9470SOL     OW40045   3.422   2.592   0.934 -0.0347  0.3050  0.0159
 9470SOL    HW140046   3.444   2.509   0.891  3.6600  1.7362 -0.8664
 9470SOL    HW240047   3.327   2.600   0.926 -0.2132 -0.1251  1.7121
 9471SOL     OW40048   0.275   4.188   3.649 -0.3487 -0.5930  0.1013
 9471SOL    HW140049   0.252   4.099   3.673  0.0808 -0.9235 -0.7119
 9471SOL    HW240050   0.186   4.224   3.642 -0.5273 -1.0478  0.0835
 9472SOL     OW40051   3.292   2.608   5.943  0.5698 -0.4726  0.0985
 9472SOL    HW140052   3.277   2.557   5.864  0.1551  1.5815 -1.1480
 9472SOL    HW240053   3.387   2.614   5.955  0.7067 -1.0947 -0.6553
 9473SOL     OW40054   2.227   3.501  14.420  0.3546 -0.1520 -0.6031
 9473SOL    HW140055   2.307   3.465  14.381  0.3352 -0.2333 -0.5691
 9473SOL    HW240056   2.179   3.530  14.343  1.7530  0.7805 -1.1186
 9474SOL     OW40057   1.784   1.265   7.378 -0.9220 -0.3222 -0.3564
 9474SOL    HW140058   1.838   1.246   7.455  0.1004 -1.3453 -1.3228
 9474SOL    HW240059   1.841   1.327   7.333 -0.1402 -0.6581  0.1716
 9475SOL     OW40060   1.966   4.267   7.370  0.2676 -0.3372  0.2455
 9475SOL    HW140061   1.977   4.253   7.276  1.2807 -2.4944  0.7051
 9475SOL    HW240062   1.959   4.177   7.402 -1.2890 -0.3952 -0.2401
 9476SOL     OW40063   3.469   1.365  12.217 -0.0140 -0.4252 -0.3167
 9476SOL    HW140064   3.560   1.394  12.212 -0.5155  1.2548  0.3307
 9476SOL    HW240065   3.421   1.440  12.250  0.0879 -0.9889  1.1114
 9477SOL     OW40066   1.820   1.386   1.503 -0.2142  0.4515 -0.5887
 9477SOL    HW140067   1.906   1.353   1.479 -0.0948 -0.4397  1.0635
 9477SOL    HW240068   1.829   1.435   1.585  1.6028  1.4973 -1.4137
 9478SOL     OW40069   1.393   1.152   5.262 -0.2626  0.2366  0.1893
 9478SOL    HW140070   1.379   1.222   5.198 -1.3805 -1.2293 -1.1845
 9478SOL    HW240071   1.458   1.095   5.221 -1.1833  0.4480 -1.5546
 9479SOL     OW40072   2.141   1.448  10.020  0.1181 -0.4899  0.2466
 9479SOL    HW140073   2.158   1.377   9.959  0.0369 -0.2335 -0.0722
 9479SOL    HW240074   2.175   1.521   9.969 -1.4778  1.2259  1.6231
 9480SOL     OW40075   1.007   0.006   1.897  0.7076 -0.3239 -0.5466
 9480SOL    HW140076   0.960   0.089   1.890  1.3939  0.2248  1.4148
 9480SOL    HW240077   1.029   4.731   1.805  1.6879  0.8156 -0.4491
 9481SOL     OW40078   1.229   3.384   1.100 -0.1711  0.7500  0.0137
 9481SOL    HW140079   1.297   3.352   1.040  0.8741  1.1543  0.9755
 9481SOL    HW240080   1.211   3.308   1.155 -0.1928  0.2076 -0.7589
 9482SOL     OW40081   3.091   3.783   3.309  0.2125 -0.1499  0.5642
 9482SOL    HW140082   3.156   3.837   3.262 -0.8155  0.9369  0.3935
 9482SOL    HW240083   3.033   3.854   3.337  1.3315  0.4869  1.3021
 9483SOL     OW40084   0.628   3.653   1.114  0.9729 -0.1094  0.4068
 9483SOL    HW140085   0.537   3.639   1.090  1.5649 -1.8991 -0.8723
 9483SOL    HW240086   0.647   3.568   1.155 -0.1281 -0.1625  0.7925
 9484SOL     OW40087   1.631   4.466  14.687  0.0504  0.4787 -0.0026
 9484SOL    HW140088   1.607   4.379  14.655  0.8996  0.1177  0.3331
 9484SOL    HW240089   1.721   4.447  14.715  0.0954  0.2440 -0.2943
 9485SOL     OW40090   4.335   3.114   4.765 -0.0969  0.3762 -0.2086
 9485SOL    HW140091   4.392   3.104   4.842 -0.3039  2.0495  0.1526
 9485SOL    HW240092   4.269   3.048   4.790  0.8074 -0.0716  1.0220
 9486SOL     OW40093   1.631   2.964   7.080 -0.6212 -0.1519  0.0899
 9486SOL    HW140094   1.576   3.040   7.099 -0.2797  0.0017  0.4445
 9486SOL    HW240095   1.575   2.910   7.024 -1.6643 -1.5111  2.4419
 9487SOL     OW40096   4.608   4.282   0.151  0.0460  0.2755 -0.8367
 9487SOL    HW140097   4.551   4.343   0.105 -0.1338 -1.2272 -2.6243
 9487SOL    HW240098   4.659   4.348   0.197 -1.8276  1.9830 -1.2016
 9488SOL     OW40099   4.325   3.409   5.089 -0.2993  0.9113  0.4927
 9488SOL    HW140100   4.355   3.427   5.178 -1.5121 -0.5642  1.1942
 9488SOL    HW240101   4.400   3.442   5.041 -0.4823 -1.2696 -1.2839
 9489SOL     OW40102   3.754   0.738  12.666  0.3073 -0.3089 -0.3006
 9489SOL    HW140103   3.767   0.784  12.583  1.4153 -2.9572 -1.5906
 9489SOL    HW240104   3.661   0.717  12.659 -0.2358  2.0007 -0.0335
 9490SOL     OW40105   2.894   0.534   5.694  0.0378  0.0674 -0.3198
 9490SOL    HW140106   2.810   0.575   5.717  1.2634  1.2292  2.1341
 9490SOL    HW240107   2.914   0.476   5.767 -0.8796  1.5829  1.1670
 9491SOL     OW40108   2.338   3.760   5.824 -0.8706 -0.3576 -0.6260
 9491SOL    HW140109   2.315   3.781   5.915  1.7807  0.7773 -0.2220
 9491SOL    HW240110   2.371   3.841   5.787 -0.5257 -0.1032  0.2210
 9492SOL     OW40111   2.933   0.922   4.449  0.3948 -0.6612 -0.3193
 9492SOL    HW140112   2.923   1.010   4.411  1.3087 -0.8139 -0.9142
 9492SOL    HW240113   3.028   0.915   4.449  0.3183 -1.6092 -2.9547
 9493SOL     OW40114   3.154   3.360   8.041  0.4239 -0.3761  0.3861
 9493SOL    HW140115   3.063   3.355   8.071  0.6489 -1.1141  0.9445
 9493SOL    HW240116   3.203   3.367   8.123  0.8888  0.4594  0.0414
 9494SOL     OW40117   3.205   0.297  13.328  0.1315  0.0628 -0.2638
 9494SOL    HW140118   3.116   0.321  13.301  0.2177  0.6848  0.0103
 9494SOL    HW240119   3.235   0.388  13.333  0.1304  0.0132  0.6507
 9495SOL     OW40120   1.670   2.213  11.290 -0.8026  0.5950  0.1082
 9495SOL    HW140121   1.634   2.160  11.362 -0.9726  0.3037 -0.1925
 9495SOL    HW240122   1.756   2.247  11.315 -1.0404  0.7622  0.6918
 9496SOL     OW40123   4.445   4.318   5.695 -0.3427  0.2343 -0.3400
 9496SOL    HW140124   4.437   4.230   5.658 -4.0346  1.1070 -1.5358
 9496SOL    HW240125   4.382   4.308   5.767  0.4280  0.1423  0.3305
 9497SOL     OW40126   1.945   1.433   4.466  0.6388 -0.0533 -0.1120
 9497SOL    HW140127   1.987   1.515   4.439  0.9075  0.0214  0.5490
 9497SOL    HW240128   1.904   1.410   4.382 -1.6403  0.3385  0.8960
 9498SOL     OW40129   4.705   1.809  15.280 -0.1978 -0.1928  0.5207
 9498SOL    HW140130   0.034   1.862  15.234 -0.9419 -1.2968 -1.7940
 9498SOL    HW240131   4.629   1.826  15.224 -0.1111  0.6366  0.6487
 9499SOL     OW40132   1.222   4.132   1.953 -0.2805  0.2796  0.6164
 9499SOL    HW140133   1.129   4.140   1.933  0.1184 -1.8168 -2.0251
 9499SOL    HW240134   1.218   4.039   1.975  1.0887  0.6918  2.6160
 9500SOL     OW40135   3.542   4.296   5.781  0.6117  0.2886  0.2072
 9500SOL    HW140136   3.580   4.209   5.782 -1.1851 -0.5113 -1.4106
 9500SOL    HW240137   3.456   4.277   5.744  0.4759  2.4081 -0.5833
 9501SOL     OW40138   4.240   0.363   0.633  0.3201  0.3705 -0.0862
 9501SOL    HW140139   4.174   0.377   0.701  1.0622  0.5692  0.5920
 9501SOL    HW240140   4.257   0.269   0.645 -0.2540  0.2702 -0.0711
 9502SOL     OW40141   2.996   2.386   7.034  0.2570 -0.1283 -0.2170
 9502SOL    HW140142   2.978   2.380   7.128  1.0381  1.7475  0.0414
 9502SOL    HW240143   2.978   2.293   7.016 -0.4984 -0.1315  0.6087
 9503SOL     OW40144   3.440   4.427   2.469 -0.0118  0.0917 -0.2325
 9503SOL    HW140145   3.409   4.450   2.382 -3.1595 -0.4412  0.7480
 9503SOL    HW240146   3.444   4.332   2.471  0.0918  0.0935 -0.3502
 9504SOL     OW40147   4.562   4.070   6.243 -0.6848  0.0988 -0.3184
 9504SOL    HW140148   4.581   4.126   6.168  0.5381 -0.7718 -0.6640
 9504SOL    HW240149   4.553   4.140   6.308  1.1411  0.9429 -0.9822
 9505SOL     OW40150   1.900   3.436   2.859 -0.5151  0.6719 -0.5068
 9505SOL    HW140151   1.895   3.406   2.768  1.0895  0.0466 -0.3840
 9505SOL    HW240152   1.827   3.390   2.899  0.2318 -0.5326 -0.5255
 9506SOL     OW40153   0.331   0.656   7.782  0.1643  0.0676 -0.1761
 9506SOL    HW140154   0.274   0.700   7.719 -0.3714  0.3199  0.4817
 9506SOL    HW240155   0.348   0.571   7.741  0.2779 -1.7339  3.6365
 9507SOL     OW40156   4.338   2.801   5.418 -0.0266 -0.1298 -0.5828
 9507SOL    HW140157   4.272   2.732   5.412  0.0863 -0.0647 -2.8536
 9507SOL    HW240158   4.288   2.877   5.449  0.3502  0.9215 -2.5542
 9508SOL     OW40159   4.122   4.080  16.860  0.2761  0.2037  0.0397
 9508SOL    HW140160   4.165   4.073  16.775 -0.4657 -0.1817 -0.3013
 9508SOL    HW240161   4.041   4.110  16.820 -0.8412  0.6217  2.5786
 9509SOL     OW40162   3.736   3.846  12.397 -0.2439 -0.4030  0.3372
 9509SOL    HW140163   3.673   3.783  12.430 -2.0150  0.2696 -1.7883
 9509SOL    HW240164   3.692   3.931  12.405  2.7508  1.3613 -1.7251
 9510SOL     OW40165   1.698   1.554   5.501 -0.3554 -0.0777  0.0046
 9510SOL    HW140166   1.716   1.464   5.529  1.5778 -0.2161 -1.7380
 9510SOL    HW240167   1.717   1.551   5.408 -0.1922  2.3362 -0.0402
 9511SOL     OW40168   1.181   3.851  11.334  0.2246  0.1200 -0.3582
 9511SOL    HW140169   1.092   3.831  11.364 -0.2219  0.5233 -1.4370
 9511SOL    HW240170   1.205   3.919  11.397  0.5442  0.0283 -0.3802
 9512SOL     OW40171   1.354   0.088  16.155 -0.5703  0.4089  0.4261
 9512SOL    HW140172   1.282   0.041  16.114  2.3608 -1.3914 -2.6437
 9512SOL    HW240173   1.308   0.170  16.145 -3.2906 -1.1696  0.1197
 9513SOL     OW40174   0.270   2.555   6.757 -0.0616 -0.1580  0.0731
 9513SOL    HW140175   0.265   2.481   6.696  0.9393 -0.4494  0.3498
 9513SOL    HW240176   0.233   2.525   6.840 -0.1735 -2.3450 -0.7636
 9514SOL     OW40177   1.771   0.147   5.322  0.0164  0.3073  0.4916
 9514SOL    HW140178   1.761   0.197   5.403  0.5544  0.3941  0.4985
 9514SOL    HW240179   1.700   0.181   5.267 -0.7095  1.1007  1.9272
 9515SOL     OW40180   2.647   0.927   5.085  0.6571  0.1894  0.3777
 9515SOL    HW140181   2.731   0.959   5.052 -1.5730  2.6536 -2.9217
 9515SOL    HW240182   2.667   0.914   5.178  0.3541 -1.0536  0.2699
 9516SOL     OW40183   3.533   2.596  13.092  0.2459  1.0451  0.5241
 9516SOL    HW140184   3.507   2.612  13.183  0.6035  1.2856  0.5835
 9516SOL    HW240185   3.615   2.646  13.093  1.3868 -0.7695 -1.5929
 9517SOL     OW40186   2.315   3.502   4.084 -0.7115  0.3074  0.0722
 9517SOL    HW140187   2.260   3.577   4.106 -0.6910  0.3391  0.0144
 9517SOL    HW240188   2.310   3.451   4.165 -1.8665  2.3472  1.2889
 9518SOL     OW40189   3.060   2.857  10.559  0.3920  0.4249  0.8146
 9518SOL    HW140190   3.077   2.776  10.607  1.6187  1.9429  2.9437
 9518SOL    HW240191   3.092   2.851  10.469 -1.5144  0.1016  0.1653
 9519SOL     OW40192   3.583   3.056   9.211  0.2721 -0.1753  0.1328
 9519SOL    HW140193   3.629   3.106   9.278 -0.7226 -1.3032  1.6615
 9519SOL    HW240194   3.596   3.114   9.136  0.2937  0.6178  0.7528
 9520SOL     OW40195   4.135   0.277   1.632 -0.4711 -0.1506  0.2072
 9520SOL    HW140196   4.056   0.249   1.586 -0.3986  0.1787 -0.1198
 9520SOL    HW240197   4.099   0.351   1.681 -3.7156 -0.1510 -2.1552
 9521SOL     OW40198   4.023   3.627   0.113 -0.3188 -0.8197  0.1086
 9521SOL    HW140199   3.928   3.642   0.114  0.3549  3.1059  2.6338
 9521SOL    HW240200   4.052   3.678   0.037  2.4659 -1.3316  0.8462
 9522SOL     OW40201   1.066   2.889   2.774 -0.0403  0.0627 -0.4352
 9522SOL    HW140202   1.002   2.935   2.720  0.2846 -2.4438 -2.9739
 9522SOL    HW240203   1.095   2.820   2.715 -0.7058  0.0343 -0.7276
 9523SOL     OW40204   1.949   2.420   1.423 -0.2203  0.0624  0.3418
 9523SOL    HW140205   1.882   2.463   1.477 -1.2014 -1.5694  0.4200
 9523SOL    HW240206   2.011   2.486   1.393  0.2592 -0.0966  1.0033
 9524SOL     OW40207   2.258   0.363   5.141  0.0167 -0.4226  0.0612
 9524SOL    HW140208   2.302   0.280   5.158  0.0120 -0.5275 -0.4283
 9524SOL    HW240209   2.310   0.429   5.187  1.5234 -1.1431 -0.5997
 9525SOL     OW40210   0.525   2.644  16.937  0.3751 -0.1618  0.4023
 9525SOL    HW140211   0.483   2.597  16.865 -2.1215  1.8507  0.5555
 9525SOL    HW240212   0.482   2.729  16.929 -0.2925 -0.6663 -1.3405
 9526SOL     OW40213   3.580   2.669  15.241 -0.3654  0.0660  0.1150
 9526SOL    HW140214   3.541   2.625  15.316  0.5071 -0.2283  0.3869
 9526SOL    HW240215   3.518   2.740  15.225 -0.8444  0.1844  2.5019
 9527SOL     OW40216   4.230   2.586   8.094  0.0785  0.5269  0.4474
 9527SOL    HW140217   4.226   2.617   8.004  1.4378  2.3113  1.0111
 9527SOL    HW240218   4.255   2.498   8.065  0.3893  1.6442 -2.7377
 9528SOL     OW40219   0.067   1.137  11.845  0.1724  0.5837 -0.0481
 9528SOL    HW140220   0.042   1.230  11.845  2.6077  1.2472  0.7126
 9528SOL    HW240221   0.153   1.151  11.884  1.0484  0.3124 -1.9089
 9529SOL     OW40222   2.989   3.502   8.309  0.0286  0.5612  0.6303
 9529SOL    HW140223   3.084   3.503   8.316  0.0919  2.4781 -0.5866
 9529SOL    HW240224   2.969   3.592   8.331  1.1126  1.0538 -0.4189
 9530SOL     OW40225   0.394   4.542   8.982 -0.6117 -0.4502 -0.0801
 9530SOL    HW140226   0.314   4.491   8.992 -0.4207 -0.3171  2.0368
 9530SOL    HW240227   0.361   4.623   8.942  1.5606 -0.8131 -2.5768
 9531SOL     OW40228   4.121   3.653   5.982  0.2573 -0.2457 -0.1258
 9531SOL    HW140229   4.164   3.612   5.906 -1.5977  1.6992 -2.1930
 9531SOL    HW240230   4.154   3.742   5.992 -0.4087 -0.1518  1.2104
 9532SOL     OW40231   1.030   1.216   6.295 -0.0119  0.1131 -0.7952
 9532SOL    HW140232   0.951   1.254   6.335  0.2365 -0.4107  0.1824
 9532SOL    HW240233   1.028   1.269   6.216 -0.1476 -0.5296 -1.2191
 9533SOL     OW40234   1.316   1.129   6.442 -0.3107 -0.3532 -0.2106
 9533SOL    HW140235   1.279   1.041   6.453  1.2457 -1.2369 -2.0759
 9533SOL    HW240236   1.371   1.135   6.520  0.2165  3.6016 -0.8820
 9534SOL     OW40237   2.534   1.438  16.502 -0.2814  0.6866  0.3338
 9534SOL    HW140238   2.544   1.376  16.430 -1.4925  0.1999  0.5849
 9534SOL    HW240239   2.483   1.387  16.565  0.6494 -1.2197 -0.4352
 9535SOL     OW40240   0.826   3.019   5.647 -0.3022 -0.2737  0.0401
 9535SOL    HW140241   0.896   2.955   5.654  1.3993  1.8091  2.2436
 9535SOL    HW240242   0.877   3.100   5.660 -0.6787  0.2061 -1.4992
 9536SOL     OW40243   3.745   2.096  16.265  0.1420 -0.1724 -1.0226
 9536SOL    HW140244   3.788   2.090  16.179  0.5665  1.5792 -0.9335
 9536SOL    HW240245   3.749   2.190  16.280 -0.6883 -0.3662  0.3432
 9537SOL     OW40246   1.059   2.633   3.015  0.1342  0.1661  0.1300
 9537SOL    HW140247   1.002   2.691   2.964  0.8075 -0.0090 -0.8305
 9537SOL    HW240248   1.148   2.666   3.002 -0.8904  2.1097 -2.0542
 9538SOL     OW40249   2.593   1.590   3.680 -0.4816 -0.1655  0.4923
 9538SOL    HW140250   2.554   1.627   3.601  1.1026 -0.0820 -0.2619
 9538SOL    HW240251   2.551   1.504   3.674  0.0657 -0.2285 -2.3039
 9539SOL     OW40252   4.133   2.824   3.982 -0.6699 -0.0197 -0.0948
 9539SOL    HW140253   4.178   2.849   3.901  0.0560 -0.2562  0.2371
 9539SOL    HW240254   4.115   2.912   4.016 -1.1448 -1.0005  2.1738
 9540SOL     OW40255   2.839   4.127   6.970  0.1030  0.2978  0.0798
 9540SOL    HW140256   2.859   4.088   7.055 -2.2479  0.4684  0.7091
 9540SOL    HW240257   2.814   4.218   6.990 -0.3630 -0.2964  2.2317
 9541SOL     OW40258   3.014   3.582   3.793  0.2860 -0.1516  0.3516
 9541SOL    HW140259   3.084   3.635   3.831 -0.3083  2.1317 -1.7199
 9541SOL    HW240260   3.048   3.568   3.705  0.4963 -3.6790  0.9905
 9542SOL     OW40261   0.966   2.638  15.675 -0.2652  0.0638 -0.3383
 9542SOL    HW140262   1.000   2.625  15.763  2.1818 -1.8736 -1.5615
 9542SOL    HW240263   0.988   2.552  15.639 -1.9001 -1.1179  1.4757
 9543SOL     OW40264   0.675   2.328   4.473  0.4189  0.4460 -0.1485
 9543SOL    HW140265   0.592   2.333   4.521  0.7865  0.2690  0.5086
 9543SOL    HW240266   0.737   2.325   4.545  0.2094 -1.8458 -0.0597
 9544SOL     OW40267   4.669   1.597   9.635 -0.0757 -0.2796 -0.3274
 9544SOL    HW140268   4.580   1.616   9.608 -0.5799  0.6927  2.0242
 9544SOL    HW240269   4.703   1.539   9.567  0.4997  1.1374 -1.2617
 9545SOL     OW40270   0.360   3.606   4.381 -0.3171 -0.0349  0.6871
 9545SOL    HW140271   0.353   3.528   4.327 -1.7745  1.3197 -1.0664
 9545SOL    HW240272   0.455   3.615   4.391 -0.4862  0.4527  1.8379
 9546SOL     OW40273   1.933   4.361   4.978  0.2762 -0.2824 -0.0315
 9546SOL    HW140274   1.845   4.326   4.986 -0.6872  1.8801 -1.2319
 9546SOL    HW240275   1.910   4.446   5.016  0.7759  0.0039 -0.3599
 9547SOL     OW40276   0.988   3.013   4.450 -0.2461  0.4483 -0.5438
 9547SOL    HW140277   1.037   3.059   4.383  0.8848 -0.6902 -0.4926
 9547SOL    HW240278   0.913   3.073   4.450 -1.9815 -1.6826 -1.0163
 9548SOL     OW40279   4.477   1.123  15.385  0.3153  0.0890 -0.1640
 9548SOL    HW140280   4.535   1.160  15.319  2.6780 -1.4374  1.0501
 9548SOL    HW240281   4.464   1.207  15.430  0.3897  0.4039 -0.7335
 9549SOL     OW40282   0.307   2.119   5.679  0.6938  0.5032 -0.0616
 9549SOL    HW140283   0.277   2.189   5.621  0.1639  0.4593  0.1623
 9549SOL    HW240284   0.254   2.049   5.640 -1.7786  2.4025 -0.0943
 9550SOL     OW40285   0.388   1.670   6.911 -0.6264  0.6589 -0.9553
 9550SOL    HW140286   0.449   1.601   6.937  0.0330  0.7728 -2.1931
 9550SOL    HW240287   0.355   1.707   6.992  0.2468 -1.2192  0.2570
 9551SOL     OW40288   0.913   4.263  14.245 -0.4182  0.4133 -0.1460
 9551SOL    HW140289   0.922   4.175  14.210 -0.0527  0.5579 -0.4099
 9551SOL    HW240290   0.840   4.301  14.197  0.4059  1.7649 -0.3225
 9552SOL     OW40291   4.495   0.142   9.330  0.5672  0.1597  0.3196
 9552SOL    HW140292   4.457   0.058   9.307 -0.0145  0.1047  1.4954
 9552SOL    HW240293   4.490   0.139   9.426  1.6128 -0.1563  0.3658
 9553SOL     OW40294   0.134   4.047  10.030  0.2479  0.0536  0.0319
 9553SOL    HW140295   0.158   4.095  10.110 -1.4692 -0.0095  0.5920
 9553SOL    HW240296   0.059   3.999  10.065 -1.0073  0.5558 -1.9744
 9554SOL     OW40297   0.719   4.649   5.115  0.0087  0.3390 -0.0765
 9554SOL    HW140298   0.630   4.624   5.091 -0.3257  1.5704 -0.1322
 9554SOL    HW240299   0.695   4.735   5.148  2.8531  1.1384 -0.0657
 9555SOL     OW40300   1.893   0.654   8.773  0.2775 -0.4224 -0.0288
 9555SOL    HW140301   1.902   0.749   8.773 -0.7733 -0.3154  2.9657
 9555SOL    HW240302   1.809   0.627   8.809 -0.8088  1.0648 -1.4709
 9556SOL     OW40303   1.246   1.283   2.649  0.3364 -0.0269  0.1711
 9556SOL    HW140304   1.290   1.358   2.609  1.6561 -0.8331  0.1181
 9556SOL    HW240305   1.246   1.290   2.745  0.4211 -2.5280  0.3584
 9557SOL     OW40306   4.609   3.698   4.165 -0.4880  0.0775  0.4317
 9557SOL    HW140307   4.639   3.772   4.219  0.0735 -0.3591  0.7232
 9557SOL    HW240308   4.697   3.662   4.159  0.7931  3.1703  0.6594
 9558SOL     OW40309   0.982   4.466   1.481  0.0193  0.4698  0.1467
 9558SOL    HW140310   0.913   4.432   1.423  0.3873 -0.9634  0.5635
 9558SOL    HW240311   1.068   4.437   1.452  0.5644  0.8201  1.4061
 9559SOL     OW40312   0.396   3.100   9.781 -0.5996 -0.2608  0.4946
 9559SOL    HW140313   0.387   3.013   9.821 -0.4014 -1.1918 -1.4779
 9559SOL    HW240314   0.448   3.149   9.845 -0.0342 -1.2450  0.7956
 9560SOL     OW40315   3.551   0.009   3.001  0.5922  0.8116  0.1500
 9560SOL    HW140316   3.471   0.056   2.981  0.6587  0.8000 -0.1397
 9560SOL    HW240317   3.507   4.675   3.049 -0.4221  0.9270 -0.6317
 9561SOL     OW40318   4.325   3.694   1.226  0.4278  0.4703  0.3391
 9561SOL    HW140319   4.379   3.770   1.248  1.6919 -0.1133 -0.7776
 9561SOL    HW240320   4.278   3.696   1.309 -1.6313 -0.8449 -0.7795
 9562SOL     OW40321   4.614   1.453   5.835  0.4188 -0.5473  0.3915
 9562SOL    HW140322   4.686   1.516   5.842  1.0813 -1.2926  0.2028
 9562SOL    HW240323   4.650   1.370   5.865  3.8067  0.4161 -0.9469
 9563SOL     OW40324   0.008   1.014   1.876 -0.3549  0.7425 -0.1519
 9563SOL    HW140325   0.060   1.047   1.803 -1.3174  1.6083 -0.4324
 9563SOL    HW240326   0.011   1.085   1.940  1.7374 -1.2831  2.0311
 9564SOL     OW40327   3.021   1.234   3.170  0.1302 -0.3716  0.2561
 9564SOL    HW140328   3.046   1.150   3.132 -1.6025 -0.3835 -0.8681
 9564SOL    HW240329   3.099   1.264   3.217  1.3644 -0.3880 -1.7570
 9565SOL     OW40330   2.010   4.144   1.525  0.2282 -0.0264 -0.0266
 9565SOL    HW140331   1.952   4.100   1.587  0.0415  1.0153  0.5384
 9565SOL    HW240332   2.055   4.208   1.579  0.6960  0.7699 -1.3606
 9566SOL     OW40333   2.477   3.080   8.876 -0.0076  0.1242 -0.2026
 9566SOL    HW140334   2.506   2.993   8.902 -1.0643 -0.1587  0.0356
 9566SOL    HW240335   2.563   3.122   8.878 -0.7627  1.6731 -0.3770
 9567SOL     OW40336   2.583   2.592  13.992 -0.6083  0.3858 -0.8124
 9567SOL    HW140337   2.586   2.531  14.066 -1.6808 -0.5365 -1.5501
 9567SOL    HW240338   2.675   2.599  13.967 -0.4342 -0.6650 -0.4457
 9568SOL     OW40339   2.717   1.990   2.406 -0.0299  0.2849 -0.5919
 9568SOL    HW140340   2.723   1.922   2.339 -0.4343 -1.3198  0.9804
 9568SOL    HW240341   2.729   2.070   2.355 -2.0984  1.3048  0.5069
 9569SOL     OW40342   3.839   1.753  16.945  0.1368  0.3214  0.4821
 9569SOL    HW140343   3.743   1.747  16.942  0.2733 -1.1368 -0.8485
 9569SOL    HW240344   3.841   1.848  16.959 -1.6599  0.2150  1.5814
   4.73584   4.73584  17.74203
